Generated by trjconv : CNT in water t=  45.00000
33518
    1C        C    1   2.835   2.763   4.746
    1C        C    2   2.893   2.713   4.864
    1C        C    3   2.838   2.769   4.980
    1C        C    4   2.850   2.775   4.261
    1C        C    5   2.899   2.724   4.383
    1C        C    6   2.845   2.771   4.505
    1C        C    7   3.008   2.636   4.626
    1C        C    8   2.888   2.711   4.626
    1C        C    9   3.077   2.602   4.745
    1C        C   10   3.008   2.631   4.865
    1C        C   11   3.174   2.482   4.975
    1C        C   12   3.057   2.559   4.974
    1C        C   13   2.855   2.771   3.771
    1C        C   14   2.904   2.722   3.895
    1C        C   15   2.851   2.773   4.016
    1C        C   16   3.019   2.646   4.138
    1C        C   17   2.902   2.727   4.139
    1C        C   18   3.080   2.615   4.261
    1C        C   19   3.013   2.641   4.382
    1C        C   20   3.203   2.548   4.505
    1C        C   21   3.072   2.604   4.505
    1C        C   22   3.277   2.530   4.624
    1C        C   23   3.206   2.542   4.745
    1C        C   24   3.408   2.481   4.865
    1C        C   25   3.266   2.498   4.867
    1C        C   26   3.488   2.478   4.980
    1C        C   27   2.850   2.767   3.282
    1C        C   28   2.902   2.720   3.405
    1C        C   29   2.850   2.769   3.526
    1C        C   30   3.017   2.638   3.647
    1C        C   31   2.904   2.722   3.648
    1C        C   32   3.076   2.596   3.769
    1C        C   33   3.014   2.633   3.890
    1C        C   34   3.207   2.555   4.017
    1C        C   35   3.074   2.605   4.015
    1C        C   36   3.274   2.531   4.139
    1C        C   37   3.207   2.553   4.261
    1C        C   38   3.413   2.514   4.380
    1C        C   39   3.272   2.528   4.384
    1C        C   40   3.483   2.501   4.502
    1C        C   41   3.415   2.500   4.626
    1C        C   42   3.629   2.481   4.741
    1C        C   43   3.487   2.485   4.747
    1C        C   44   3.702   2.486   4.862
    1C        C   45   3.627   2.471   4.979
    1C        C   46   2.832   2.747   2.793
    1C        C   47   2.888   2.703   2.915
    1C        C   48   2.837   2.754   3.036
    1C        C   49   3.013   2.637   3.159
    1C        C   50   2.896   2.716   3.159
    1C        C   51   3.075   2.599   3.280
    1C        C   52   3.014   2.634   3.403
    1C        C   53   3.208   2.547   3.527
    1C        C   54   3.078   2.602   3.525
    1C        C   55   3.276   2.526   3.649
    1C        C   56   3.205   2.540   3.771
    1C        C   57   3.412   2.507   3.892
    1C        C   58   3.272   2.527   3.895
    1C        C   59   3.482   2.504   4.015
    1C        C   60   3.413   2.506   4.138
    1C        C   61   3.625   2.501   4.257
    1C        C   62   3.484   2.499   4.259
    1C        C   63   3.695   2.507   4.380
    1C        C   64   3.625   2.501   4.502
    1C        C   65   3.837   2.538   4.622
    1C        C   66   3.701   2.502   4.621
    1C        C   67   3.902   2.568   4.743
    1C        C   68   3.837   2.526   4.862
    1C        C   69   4.049   2.587   4.977
    1C        C   70   3.918   2.538   4.975
    1C        C   71   2.824   2.734   2.305
    1C        C   72   2.883   2.694   2.427
    1C        C   73   2.830   2.740   2.550
    1C        C   74   3.004   2.621   2.669
    1C        C   75   2.885   2.697   2.672
    1C        C   76   3.070   2.592   2.790
    1C        C   77   3.009   2.630   2.912
    1C        C   78   3.202   2.544   3.034
    1C        C   79   3.073   2.602   3.035
    1C        C   80   3.271   2.526   3.156
    1C        C   81   3.206   2.546   3.281
    1C        C   82   3.412   2.502   3.400
    1C        C   83   3.273   2.524   3.403
    1C        C   84   3.482   2.493   3.523
    1C        C   85   3.415   2.501   3.647
    1C        C   86   3.625   2.503   3.766
    1C        C   87   3.483   2.500   3.770
    1C        C   88   3.691   2.513   3.891
    1C        C   89   3.623   2.506   4.015
    1C        C   90   3.832   2.556   4.135
    1C        C   91   3.696   2.515   4.136
    1C        C   92   3.896   2.577   4.259
    1C        C   93   3.831   2.544   4.380
    1C        C   94   4.026   2.635   4.497
    1C        C   95   3.904   2.564   4.500
    1C        C   96   4.091   2.666   4.618
    1C        C   97   4.032   2.626   4.740
    1C        C   98   4.195   2.762   4.858
    1C        C   99   4.101   2.654   4.861
    1C        C  100   4.228   2.833   4.975
    1C        C  101   2.827   2.731   2.066
    1C        C  102   2.987   2.587   2.187
    1C        C  103   2.874   2.675   2.186
    1C        C  104   3.060   2.568   2.308
    1C        C  105   2.998   2.612   2.427
    1C        C  106   3.198   2.533   2.548
    1C        C  107   3.065   2.581   2.547
    1C        C  108   3.267   2.517   2.671
    1C        C  109   3.200   2.537   2.793
    1C        C  110   3.410   2.492   2.910
    1C        C  111   3.271   2.518   2.914
    1C        C  112   3.479   2.490   3.033
    1C        C  113   3.410   2.502   3.155
    1C        C  114   3.622   2.496   3.277
    1C        C  115   3.481   2.492   3.277
    1C        C  116   3.692   2.508   3.399
    1C        C  117   3.624   2.493   3.522
    1C        C  118   3.831   2.546   3.644
    1C        C  119   3.694   2.513   3.643
    1C        C  120   3.895   2.573   3.767
    1C        C  121   3.827   2.550   3.889
    1C        C  122   4.020   2.640   4.010
    1C        C  123   3.894   2.578   4.011
    1C        C  124   4.081   2.675   4.133
    1C        C  125   4.024   2.638   4.257
    1C        C  126   4.195   2.768   4.379
    1C        C  127   4.089   2.674   4.377
    1C        C  128   4.241   2.822   4.500
    1C        C  129   4.190   2.767   4.620
    1C        C  130   4.333   2.932   4.738
    1C        C  131   4.247   2.819   4.738
    1C        C  132   4.365   2.998   4.859
    1C        C  133   4.292   2.956   4.970
    1C        C  134   3.170   2.467   2.076
    1C        C  135   3.034   2.503   2.082
    1C        C  136   3.255   2.476   2.187
    1C        C  137   3.193   2.518   2.307
    1C        C  138   3.404   2.485   2.424
    1C        C  139   3.264   2.501   2.428
    1C        C  140   3.477   2.486   2.545
    1C        C  141   3.407   2.498   2.667
    1C        C  142   3.621   2.490   2.787
    1C        C  143   3.480   2.486   2.787
    1C        C  144   3.688   2.501   2.911
    1C        C  145   3.620   2.494   3.034
    1C        C  146   3.830   2.538   3.154
    1C        C  147   3.693   2.501   3.155
    1C        C  148   3.897   2.562   3.276
    1C        C  149   3.829   2.544   3.398
    1C        C  150   4.021   2.630   3.518
    1C        C  151   3.896   2.566   3.520
    1C        C  152   4.079   2.670   3.641
    1C        C  153   4.021   2.637   3.765
    1C        C  154   4.188   2.768   3.886
    1C        C  155   4.080   2.676   3.887
    1C        C  156   4.239   2.813   4.010
    1C        C  157   4.188   2.767   4.133
    1C        C  158   4.338   2.918   4.251
    1C        C  159   4.245   2.812   4.254
    1C        C  160   4.374   2.984   4.371
    1C        C  161   4.330   2.931   4.495
    1C        C  162   4.440   3.114   4.612
    1C        C  163   4.373   2.990   4.616
    1C        C  164   4.473   3.181   4.733
    1C        C  165   4.435   3.121   4.855
    1C        C  166   4.517   3.320   4.969
    1C        C  167   4.486   3.185   4.969
    1C        C  168   3.478   2.446   2.074
    1C        C  169   3.395   2.459   2.187
    1C        C  170   3.617   2.470   2.304
    1C        C  171   3.474   2.464   2.304
    1C        C  172   3.691   2.484   2.424
    1C        C  173   3.618   2.484   2.545
    1C        C  174   3.826   2.540   2.665
    1C        C  175   3.692   2.495   2.665
    1C        C  176   3.889   2.568   2.788
    1C        C  177   3.823   2.542   2.911
    1C        C  178   4.020   2.628   3.031
    1C        C  179   3.894   2.563   3.031
    1C        C  180   4.086   2.663   3.151
    1C        C  181   4.026   2.620   3.272
    1C        C  182   4.193   2.750   3.396
    1C        C  183   4.082   2.663   3.395
    1C        C  184   4.243   2.801   3.517
    1C        C  185   4.191   2.757   3.641
    1C        C  186   4.332   2.916   3.762
    1C        C  187   4.243   2.807   3.762
    1C        C  188   4.373   2.976   3.883
    1C        C  189   4.333   2.918   4.006
    1C        C  190   4.441   3.101   4.125
    1C        C  191   4.376   2.975   4.128
    1C        C  192   4.470   3.170   4.245
    1C        C  193   4.443   3.107   4.369
    1C        C  194   4.510   3.312   4.490
    1C        C  195   4.465   3.178   4.489
    1C        C  196   4.531   3.387   4.608
    1C        C  197   4.517   3.316   4.730
    1C        C  198   4.548   3.533   4.851
    1C        C  199   4.530   3.391   4.849
    1C        C  200   4.569   3.620   4.964
    1C        C  201   3.615   2.420   2.070
    1C        C  202   3.827   2.506   2.181
    1C        C  203   3.690   2.465   2.183
    1C        C  204   3.899   2.533   2.301
    1C        C  205   3.828   2.517   2.422
    1C        C  206   4.022   2.615   2.543
    1C        C  207   3.893   2.557   2.541
    1C        C  208   4.082   2.652   2.665
    1C        C  209   4.020   2.621   2.788
    1C        C  210   4.196   2.746   2.905
    1C        C  211   4.083   2.660   2.909
    1C        C  212   4.248   2.796   3.026
    1C        C  213   4.200   2.746   3.150
    1C        C  214   4.335   2.907   3.270
    1C        C  215   4.245   2.798   3.273
    1C        C  216   4.370   2.968   3.392
    1C        C  217   4.329   2.914   3.516
    1C        C  218   4.433   3.098   3.637
    1C        C  219   4.373   2.971   3.638
    1C        C  220   4.458   3.169   3.757
    1C        C  221   4.436   3.103   3.880
    1C        C  222   4.504   3.303   4.001
    1C        C  223   4.465   3.167   4.003
    1C        C  224   4.516   3.375   4.122
    1C        C  225   4.505   3.307   4.245
    1C        C  226   4.513   3.520   4.364
    1C        C  227   4.513   3.379   4.366
    1C        C  228   4.511   3.595   4.483
    1C        C  229   4.528   3.528   4.606
    1C        C  230   4.492   3.737   4.724
    1C        C  231   4.529   3.600   4.727
    1C        C  232   4.490   3.817   4.841
    1C        C  233   4.539   3.756   4.957
    1C        C  234   4.013   2.608   2.059
    1C        C  235   3.891   2.541   2.062
    1C        C  236   4.081   2.646   2.176
    1C        C  237   4.023   2.603   2.297
    1C        C  238   4.193   2.733   2.419
    1C        C  239   4.083   2.643   2.419
    1C        C  240   4.247   2.784   2.539
    1C        C  241   4.192   2.741   2.662
    1C        C  242   4.337   2.899   2.779
    1C        C  243   4.249   2.788   2.782
    1C        C  244   4.377   2.959   2.901
    1C        C  245   4.337   2.906   3.025
    1C        C  246   4.436   3.092   3.142
    1C        C  247   4.377   2.964   3.148
    1C        C  248   4.457   3.156   3.267
    1C        C  249   4.432   3.095   3.392
    1C        C  250   4.489   3.300   3.511
    1C        C  251   4.457   3.163   3.513
    1C        C  252   4.502   3.371   3.632
    1C        C  253   4.493   3.306   3.757
    1C        C  254   4.518   3.514   3.875
    1C        C  255   4.516   3.373   3.879
    1C        C  256   4.516   3.586   3.996
    1C        C  257   4.517   3.517   4.119
    1C        C  258   4.495   3.729   4.239
    1C        C  259   4.512   3.589   4.241
    1C        C  260   4.470   3.801   4.359
    1C        C  261   4.485   3.734   4.482
    1C        C  262   4.417   3.937   4.599
    1C        C  263   4.468   3.806   4.603
    1C        C  264   4.395   4.008   4.720
    1C        C  265   4.428   3.943   4.841
    1C        C  266   4.317   4.133   4.957
    1C        C  267   4.380   4.008   4.956
    1C        C  268   4.260   2.773   2.062
    1C        C  269   4.193   2.731   2.178
    1C        C  270   4.340   2.889   2.292
    1C        C  271   4.247   2.782   2.298
    1C        C  272   4.382   2.949   2.413
    1C        C  273   4.338   2.893   2.535
    1C        C  274   4.442   3.080   2.657
    1C        C  275   4.374   2.956   2.655
    1C        C  276   4.467   3.150   2.778
    1C        C  277   4.442   3.084   2.900
    1C        C  278   4.498   3.294   3.021
    1C        C  279   4.465   3.156   3.020
    1C        C  280   4.507   3.363   3.144
    1C        C  281   4.498   3.291   3.265
    1C        C  282   4.509   3.506   3.387
    1C        C  283   4.502   3.365   3.385
    1C        C  284   4.509   3.580   3.508
    1C        C  285   4.511   3.512   3.632
    1C        C  286   4.490   3.725   3.752
    1C        C  287   4.510   3.585   3.753
    1C        C  288   4.474   3.794   3.875
    1C        C  289   4.498   3.726   3.996
    1C        C  290   4.432   3.931   4.113
    1C        C  291   4.478   3.798   4.117
    1C        C  292   4.396   3.996   4.234
    1C        C  293   4.420   3.933   4.358
    1C        C  294   4.318   4.125   4.477
    1C        C  295   4.387   4.001   4.477
    1C        C  296   4.283   4.188   4.598
    1C        C  297   4.325   4.132   4.721
    1C        C  298   4.199   4.315   4.835
    1C        C  299   4.278   4.196   4.838
    1C        C  300   4.163   4.397   4.947
    1C        C  301   4.348   2.881   2.055
    1C        C  302   4.467   3.066   2.173
    1C        C  303   4.391   2.944   2.172
    1C        C  304   4.475   3.142   2.293
    1C        C  305   4.445   3.076   2.414
    1C        C  306   4.507   3.281   2.532
    1C        C  307   4.471   3.144   2.535
    1C        C  308   4.513   3.355   2.652
    1C        C  309   4.498   3.288   2.775
    1C        C  310   4.523   3.499   2.895
    1C        C  311   4.516   3.358   2.897
    1C        C  312   4.514   3.573   3.015
    1C        C  313   4.509   3.505   3.139
    1C        C  314   4.483   3.712   3.260
    1C        C  315   4.506   3.572   3.263
    1C        C  316   4.470   3.783   3.381
    1C        C  317   4.488   3.720   3.506
    1C        C  318   4.423   3.922   3.622
    1C        C  319   4.474   3.790   3.628
    1C        C  320   4.391   3.985   3.744
    1C        C  321   4.423   3.925   3.869
    1C        C  322   4.320   4.110   3.985
    1C        C  323   4.397   3.992   3.991
    1C        C  324   4.279   4.168   4.108
    1C        C  325   4.319   4.114   4.232
    1C        C  326   4.185   4.282   4.350
    1C        C  327   4.280   4.178   4.352
    1C        C  328   4.135   4.336   4.471
    1C        C  329   4.190   4.294   4.594
    1C        C  330   4.021   4.432   4.713
    1C        C  331   4.140   4.354   4.712
    1C        C  332   3.970   4.498   4.827
    1C        C  333   4.051   4.481   4.940
    1C        C  334   4.548   3.263   2.057
    1C        C  335   4.529   3.124   2.058
    1C        C  336   4.541   3.347   2.169
    1C        C  337   4.520   3.277   2.290
    1C        C  338   4.527   3.493   2.407
    1C        C  339   4.518   3.352   2.410
    1C        C  340   4.515   3.568   2.527
    1C        C  341   4.516   3.496   2.649
    1C        C  342   4.493   3.706   2.768
    1C        C  343   4.513   3.567   2.771
    1C        C  344   4.469   3.776   2.889
    1C        C  345   4.491   3.712   3.013
    1C        C  346   4.426   3.913   3.135
    1C        C  347   4.468   3.778   3.136
    1C        C  348   4.394   3.979   3.255
    1C        C  349   4.422   3.916   3.378
    1C        C  350   4.317   4.102   3.498
    1C        C  351   4.396   3.985   3.499
    1C        C  352   4.275   4.162   3.619
    1C        C  353   4.317   4.106   3.741
    1C        C  354   4.176   4.265   3.863
    1C        C  355   4.274   4.164   3.863
    1C        C  356   4.123   4.313   3.985
    1C        C  357   4.177   4.266   4.106
    1C        C  358   4.012   4.402   4.227
    1C        C  359   4.127   4.320   4.227
    1C        C  360   3.950   4.440   4.348
    1C        C  361   4.017   4.413   4.469
    1C        C  362   3.827   4.513   4.589
    1C        C  363   3.955   4.454   4.590
    1C        C  364   3.762   4.545   4.711
    1C        C  365   3.836   4.542   4.831
    1C        C  366   3.626   4.589   4.948
    1C        C  367   3.764   4.571   4.947
    1C        C  368   4.511   3.560   2.050
    1C        C  369   4.529   3.488   2.168
    1C        C  370   4.503   3.705   2.284
    1C        C  371   4.522   3.565   2.286
    1C        C  372   4.486   3.779   2.403
    1C        C  373   4.495   3.707   2.524
    1C        C  374   4.428   3.908   2.646
    1C        C  375   4.480   3.776   2.646
    1C        C  376   4.392   3.972   2.766
    1C        C  377   4.416   3.907   2.889
    1C        C  378   4.318   4.093   3.008
    1C        C  379   4.394   3.974   3.012
    1C        C  380   4.270   4.148   3.128
    1C        C  381   4.313   4.095   3.252
    1C        C  382   4.175   4.255   3.373
    1C        C  383   4.272   4.152   3.374
    1C        C  384   4.124   4.308   3.494
    1C        C  385   4.175   4.262   3.618
    1C        C  386   4.002   4.386   3.741
    1C        C  387   4.118   4.304   3.740
    1C        C  388   3.940   4.422   3.862
    1C        C  389   4.003   4.388   3.983
    1C        C  390   3.817   4.486   4.107
    1C        C  391   3.947   4.432   4.105
    1C        C  392   3.751   4.520   4.227
    1C        C  393   3.819   4.495   4.348
    1C        C  394   3.613   4.541   4.472
    1C        C  395   3.753   4.521   4.470
    1C        C  396   3.545   4.560   4.595
    1C        C  397   3.622   4.560   4.713
    1C        C  398   3.409   4.549   4.839
    1C        C  399   3.548   4.572   4.833
    1C        C  400   3.344   4.511   4.957
    1C        C  401   4.499   3.699   2.046
    1C        C  402   4.448   3.911   2.164
    1C        C  403   4.489   3.776   2.163
    1C        C  404   4.409   3.975   2.283
    1C        C  405   4.434   3.911   2.406
    1C        C  406   4.322   4.094   2.523
    1C        C  407   4.404   3.979   2.527
    1C        C  408   4.270   4.148   2.643
    1C        C  409   4.312   4.089   2.764
    1C        C  410   4.171   4.246   2.885
    1C        C  411   4.274   4.149   2.886
    1C        C  412   4.117   4.292   3.008
    1C        C  413   4.170   4.248   3.131
    1C        C  414   3.999   4.376   3.251
    1C        C  415   4.116   4.298   3.252
    1C        C  416   3.938   4.408   3.375
    1C        C  417   4.001   4.377   3.498
    1C        C  418   3.810   4.475   3.617
    1C        C  419   3.937   4.414   3.618
    1C        C  420   3.743   4.494   3.739
    1C        C  421   3.807   4.471   3.863
    1C        C  422   3.607   4.528   3.984
    1C        C  423   3.745   4.502   3.986
    1C        C  424   3.539   4.528   4.108
    1C        C  425   3.611   4.539   4.229
    1C        C  426   3.399   4.543   4.356
    1C        C  427   3.540   4.548   4.351
    1C        C  428   3.331   4.541   4.479
    1C        C  429   3.403   4.558   4.599
    1C        C  430   3.193   4.515   4.722
    1C        C  431   3.332   4.545   4.721
    1C        C  432   3.123   4.497   4.845
    1C        C  433   3.206   4.498   4.958
    1C        C  434   4.374   4.115   2.044
    1C        C  435   4.442   3.993   2.051
    1C        C  436   4.300   4.159   2.159
    1C        C  437   4.334   4.096   2.281
    1C        C  438   4.174   4.243   2.398
    1C        C  439   4.279   4.148   2.400
    1C        C  440   4.121   4.295   2.518
    1C        C  441   4.173   4.251   2.642
    1C        C  442   4.003   4.379   2.762
    1C        C  443   4.116   4.294   2.764
    1C        C  444   3.943   4.414   2.885
    1C        C  445   4.002   4.375   3.007
    1C        C  446   3.810   4.468   3.129
    1C        C  447   3.939   4.411   3.128
    1C        C  448   3.742   4.487   3.251
    1C        C  449   3.809   4.466   3.373
    1C        C  450   3.603   4.517   3.495
    1C        C  451   3.743   4.496   3.494
    1C        C  452   3.536   4.534   3.618
    1C        C  453   3.606   4.530   3.741
    1C        C  454   3.395   4.541   3.863
    1C        C  455   3.536   4.543   3.863
    1C        C  456   3.327   4.530   3.987
    1C        C  457   3.397   4.532   4.109
    1C        C  458   3.193   4.495   4.234
    1C        C  459   3.330   4.531   4.233
    1C        C  460   3.127   4.478   4.357
    1C        C  461   3.194   4.506   4.478
    1C        C  462   2.999   4.427   4.600
    1C        C  463   3.128   4.485   4.601
    1C        C  464   2.933   4.397   4.721
    1C        C  465   2.991   4.442   4.843
    1C        C  466   2.799   4.338   4.954
    1C        C  467   2.908   4.427   4.958
    1C        C  468   4.124   4.287   2.038
    1C        C  469   4.191   4.252   2.156
    1C        C  470   4.005   4.369   2.277
    1C        C  471   4.127   4.295   2.276
    1C        C  472   3.937   4.401   2.396
    1C        C  473   4.001   4.371   2.518
    1C        C  474   3.809   4.460   2.642
    1C        C  475   3.940   4.408   2.639
    1C        C  476   3.743   4.491   2.763
    1C        C  477   3.811   4.465   2.884
    1C        C  478   3.604   4.515   3.006
    1C        C  479   3.743   4.487   3.006
    1C        C  480   3.532   4.526   3.127
    1C        C  481   3.604   4.518   3.248
    1C        C  482   3.394   4.533   3.376
    1C        C  483   3.535   4.527   3.371
    1C        C  484   3.323   4.529   3.498
    1C        C  485   3.395   4.539   3.619
    1C        C  486   3.186   4.506   3.742
    1C        C  487   3.323   4.539   3.741
    1C        C  488   3.123   4.472   3.864
    1C        C  489   3.191   4.494   3.986
    1C        C  490   2.999   4.415   4.113
    1C        C  491   3.127   4.474   4.111
    1C        C  492   2.937   4.382   4.236
    1C        C  493   2.999   4.418   4.357
    1C        C  494   2.823   4.302   4.481
    1C        C  495   2.936   4.387   4.480
    1C        C  496   2.773   4.255   4.604
    1C        C  497   2.818   4.313   4.724
    1C        C  498   2.659   4.165   4.843
    1C        C  499   2.748   4.274   4.841
    1C        C  500   2.594   4.115   4.957
    1C        C  501   3.999   4.348   2.038
    1C        C  502   3.813   4.458   2.152
    1C        C  503   3.941   4.400   2.155
    1C        C  504   3.741   4.474   2.273
    1C        C  505   3.808   4.459   2.397
    1C        C  506   3.604   4.513   2.516
    1C        C  507   3.743   4.485   2.519
    1C        C  508   3.534   4.513   2.638
    1C        C  509   3.604   4.512   2.761
    1C        C  510   3.392   4.519   2.887
    1C        C  511   3.533   4.519   2.883
    1C        C  512   3.320   4.517   3.009
    1C        C  513   3.391   4.526   3.131
    1C        C  514   3.185   4.494   3.253
    1C        C  515   3.323   4.525   3.255
    1C        C  516   3.119   4.467   3.375
    1C        C  517   3.186   4.495   3.496
    1C        C  518   2.999   4.404   3.623
    1C        C  519   3.120   4.476   3.620
    1C        C  520   2.936   4.369   3.744
    1C        C  521   2.997   4.409   3.865
    1C        C  522   2.835   4.281   3.993
    1C        C  523   2.943   4.372   3.990
    1C        C  524   2.784   4.236   4.117
    1C        C  525   2.830   4.290   4.239
    1C        C  526   2.689   4.132   4.362
    1C        C  527   2.775   4.244   4.361
    1C        C  528   2.653   4.073   4.486
    1C        C  529   2.688   4.141   4.604
    1C        C  530   2.583   3.958   4.726
    1C        C  531   2.640   4.089   4.726
    1C        C  532   2.543   3.902   4.851
    1C        C  533   2.523   3.994   4.958
    1C        C  534   3.616   4.557   2.036
    1C        C  535   3.749   4.514   2.040
    1C        C  536   3.537   4.532   2.152
    1C        C  537   3.602   4.504   2.275
    1C        C  538   3.389   4.514   2.396
    1C        C  539   3.530   4.512   2.396
    1C        C  540   3.320   4.510   2.519
    1C        C  541   3.392   4.516   2.640
    1C        C  542   3.187   4.477   2.765
    1C        C  543   3.325   4.507   2.764
    1C        C  544   3.118   4.460   2.887
    1C        C  545   3.184   4.481   3.010
    1C        C  546   2.991   4.399   3.132
    1C        C  547   3.117   4.464   3.133
    1C        C  548   2.932   4.365   3.256
    1C        C  549   2.993   4.403   3.378
    1C        C  550   2.830   4.272   3.504
    1C        C  551   2.938   4.363   3.502
    1C        C  552   2.775   4.226   3.626
    1C        C  553   2.827   4.279   3.746
    1C        C  554   2.694   4.123   3.875
    1C        C  555   2.782   4.232   3.871
    1C        C  556   2.659   4.061   3.997
    1C        C  557   2.696   4.125   4.118
    1C        C  558   2.590   3.944   4.244
    1C        C  559   2.652   4.070   4.241
    1C        C  560   2.565   3.878   4.367
    1C        C  561   2.589   3.947   4.488
    1C        C  562   2.524   3.746   4.615
    1C        C  563   2.557   3.884   4.609
    1C        C  564   2.513   3.680   4.739
    1C        C  565   2.520   3.761   4.856
    1C        C  566   2.524   3.550   4.975
    1C        C  567   2.531   3.688   4.975
    1C        C  568   3.327   4.469   2.040
    1C        C  569   3.396   4.509   2.155
    1C        C  570   3.179   4.478   2.275
    1C        C  571   3.318   4.510   2.274
    1C        C  572   3.116   4.455   2.399
    1C        C  573   3.180   4.485   2.520
    1C        C  574   2.990   4.399   2.645
    1C        C  575   3.115   4.464   2.644
    1C        C  576   2.928   4.363   2.767
    1C        C  577   2.991   4.398   2.888
    1C        C  578   2.825   4.266   3.013
    1C        C  579   2.933   4.358   3.010
    1C        C  580   2.773   4.223   3.138
    1C        C  581   2.820   4.279   3.258
    1C        C  582   2.688   4.115   3.380
    1C        C  583   2.778   4.224   3.382
    1C        C  584   2.652   4.059   3.505
    1C        C  585   2.690   4.113   3.629
    1C        C  586   2.598   3.930   3.753
    1C        C  587   2.654   4.060   3.755
    1C        C  588   2.572   3.868   3.877
    1C        C  589   2.598   3.934   4.000
    1C        C  590   2.528   3.737   4.127
    1C        C  591   2.571   3.872   4.124
    1C        C  592   2.514   3.670   4.250
    1C        C  593   2.525   3.743   4.371
    1C        C  594   2.511   3.533   4.497
    1C        C  595   2.515   3.674   4.494
    1C        C  596   2.517   3.461   4.618
    1C        C  597   2.517   3.538   4.737
    1C        C  598   2.539   3.328   4.861
    1C        C  599   2.529   3.469   4.860
    1C        C  600   2.534   3.248   4.976
    1C        C  601   3.193   4.434   2.039
    1C        C  602   2.980   4.389   2.158
    1C        C  603   3.113   4.443   2.154
    1C        C  604   2.921   4.358   2.284
    1C        C  605   2.987   4.397   2.403
    1C        C  606   2.825   4.260   2.525
    1C        C  607   2.930   4.354   2.525
    1C        C  608   2.777   4.213   2.650
    1C        C  609   2.819   4.273   2.771
    1C        C  610   2.682   4.109   2.895
    1C        C  611   2.767   4.222   2.892
    1C        C  612   2.651   4.047   3.017
    1C        C  613   2.687   4.111   3.138
    1C        C  614   2.587   3.926   3.266
    1C        C  615   2.643   4.056   3.260
    1C        C  616   2.569   3.860   3.389
    1C        C  617   2.593   3.930   3.509
    1C        C  618   2.528   3.729   3.638
    1C        C  619   2.572   3.863   3.632
    1C        C  620   2.516   3.660   3.761
    1C        C  621   2.531   3.733   3.880
    1C        C  622   2.503   3.527   4.007
    1C        C  623   2.513   3.668   4.004
    1C        C  624   2.508   3.458   4.130
    1C        C  625   2.505   3.529   4.252
    1C        C  626   2.534   3.321   4.376
    1C        C  627   2.508   3.460   4.375
    1C        C  628   2.552   3.253   4.498
    1C        C  629   2.530   3.321   4.620
    1C        C  630   2.596   3.118   4.740
    1C        C  631   2.549   3.252   4.742
    1C        C  632   2.618   3.052   4.864
    1C        C  633   2.557   3.110   4.979
    1C        C  634   2.786   4.298   2.053
    1C        C  635   2.891   4.391   2.047
    1C        C  636   2.749   4.226   2.166
    1C        C  637   2.808   4.273   2.286
    1C        C  638   2.672   4.108   2.410
    1C        C  639   2.761   4.217   2.407
    1C        C  640   2.640   4.043   2.532
    1C        C  641   2.688   4.103   2.651
    1C        C  642   2.583   3.921   2.777
    1C        C  643   2.646   4.047   2.773
    1C        C  644   2.558   3.854   2.899
    1C        C  645   2.590   3.919   3.021
    1C        C  646   2.524   3.722   3.148
    1C        C  647   2.565   3.857   3.145
    1C        C  648   2.510   3.654   3.271
    1C        C  649   2.531   3.724   3.392
    1C        C  650   2.503   3.518   3.517
    1C        C  651   2.511   3.659   3.516
    1C        C  652   2.505   3.450   3.641
    1C        C  653   2.504   3.519   3.764
    1C        C  654   2.532   3.312   3.889
    1C        C  655   2.504   3.451   3.888
    1C        C  656   2.551   3.245   4.012
    1C        C  657   2.534   3.319   4.131
    1C        C  658   2.607   3.121   4.255
    1C        C  659   2.556   3.253   4.254
    1C        C  660   2.638   3.056   4.377
    1C        C  661   2.603   3.121   4.497
    1C        C  662   2.714   2.939   4.623
    1C        C  663   2.637   3.057   4.619
    1C        C  664   2.745   2.873   4.744
    1C        C  665   2.698   2.933   4.865
    1C        C  666   2.740   2.868   4.982
    1C        C  667   2.677   4.023   2.055
    1C        C  668   2.679   4.103   2.170
    1C        C  669   2.580   3.912   2.289
    1C        C  670   2.638   4.041   2.290
    1C        C  671   2.551   3.848   2.412
    1C        C  672   2.576   3.918   2.532
    1C        C  673   2.519   3.717   2.658
    1C        C  674   2.558   3.852   2.656
    1C        C  675   2.507   3.648   2.781
    1C        C  676   2.521   3.718   2.903
    1C        C  677   2.510   3.508   3.028
    1C        C  678   2.515   3.650   3.026
    1C        C  679   2.512   3.440   3.151
    1C        C  680   2.504   3.513   3.272
    1C        C  681   2.528   3.306   3.398
    1C        C  682   2.507   3.445   3.396
    1C        C  683   2.554   3.240   3.520
    1C        C  684   2.532   3.311   3.640
    1C        C  685   2.599   3.114   3.768
    1C        C  686   2.551   3.247   3.765
    1C        C  687   2.637   3.051   3.889
    1C        C  688   2.608   3.116   4.011
    1C        C  689   2.710   2.932   4.134
    1C        C  690   2.638   3.053   4.134
    1C        C  691   2.754   2.879   4.257
    1C        C  692   2.712   2.936   4.379
    1C        C  693   2.757   2.881   4.501
    1C        C  694   2.634   3.890   2.059
    1C        C  695   2.527   3.700   2.175
    1C        C  696   2.572   3.833   2.172
    1C        C  697   2.506   3.636   2.300
    1C        C  698   2.509   3.714   2.418
    1C        C  699   2.486   3.502   2.542
    1C        C  700   2.495   3.643   2.540
    1C        C  701   2.501   3.433   2.664
    1C        C  702   2.500   3.507   2.784
    1C        C  703   2.518   3.296   2.909
    1C        C  704   2.501   3.436   2.906
    1C        C  705   2.540   3.229   3.031
    1C        C  706   2.530   3.300   3.153
    1C        C  707   2.603   3.105   3.277
    1C        C  708   2.547   3.235   3.277
    1C        C  709   2.630   3.043   3.401
    1C        C  710   2.605   3.108   3.523
    1C        C  711   2.712   2.931   3.648
    1C        C  712   2.633   3.048   3.648
    1C        C  713   2.759   2.874   3.768
    1C        C  714   2.714   2.932   3.889
    1C        C  715   2.752   2.874   4.012
    1C        C  716   2.441   3.498   2.066
    1C        C  717   2.489   3.630   2.060
    1C        C  718   2.461   3.419   2.183
    1C        C  719   2.482   3.496   2.300
    1C        C  720   2.520   3.288   2.423
    1C        C  721   2.490   3.426   2.423
    1C        C  722   2.539   3.222   2.546
    1C        C  723   2.518   3.292   2.667
    1C        C  724   2.590   3.093   2.788
    1C        C  725   2.537   3.223   2.789
    1C        C  726   2.621   3.031   2.911
    1C        C  727   2.593   3.098   3.032
    1C        C  728   2.710   2.923   3.158
    1C        C  729   2.630   3.039   3.155
    1C        C  730   2.760   2.875   3.281
    1C        C  731   2.709   2.925   3.403
    1C        C  732   2.750   2.870   3.526
    1C        C  733   2.490   3.196   2.069
    1C        C  734   2.486   3.278   2.183
    1C        C  735   2.578   3.081   2.303
    1C        C  736   2.526   3.213   2.304
    1C        C  737   2.615   3.019   2.424
    1C        C  738   2.592   3.091   2.544
    1C        C  739   2.698   2.908   2.667
    1C        C  740   2.624   3.028   2.666
    1C        C  741   2.739   2.853   2.791
    1C        C  742   2.697   2.912   2.913
    1C        C  743   2.743   2.860   3.036
    1C        C  744   2.544   3.068   2.070
    1C        C  745   2.682   2.894   2.183
    1C        C  746   2.606   3.013   2.183
    1C        C  747   2.725   2.836   2.304
    1C        C  748   2.685   2.896   2.425
    1C        C  749   2.732   2.842   2.547
    1C        C  750   2.738   2.837   2.067
    1C        C  751   3.639   2.297   1.991
    1C        O  752   3.634   2.180   2.037
    1C        O  753   3.625   2.313   1.852
    1C        C  754   4.601   3.055   1.948
    1C        O  755   4.583   3.081   1.826
    1C        O  756   4.717   2.981   1.970
    1C        C  757   4.444   4.214   1.959
    1C        O  758   4.544   4.275   2.006
    1C        O  759   4.389   4.249   1.836
    1C        C  760   3.597   4.679   1.954
    1C        O  761   3.645   4.790   1.989
    1C        O  762   3.593   4.662   1.815
    1C        C  763   2.904   4.466   1.920
    1C        O  764   2.887   4.405   1.811
    1C        O  765   2.876   4.603   1.919
    1C        C  766   2.353   3.461   1.953
    1C        O  767   2.402   3.431   1.840
    1C        O  768   2.218   3.496   1.947
    1C        C  769   4.699   3.594   5.029
    1C        O  770   4.699   3.625   5.151
    1C        O  771   4.823   3.621   4.970
    1C        C  772   4.265   4.454   5.037
    1C        O  773   4.246   4.462   5.161
    1C        O  774   4.369   4.534   4.986
    1C        C  775   4.132   2.535   5.088
    1C        O  776   4.189   2.424   5.074
    1C        O  777   4.125   2.582   5.220
    1C        C  778   2.900   4.526   5.068
    1C        O  779   2.827   4.627   5.047
    1C        O  780   2.890   4.482   5.200
    1C        C  781   2.479   3.032   5.078
    1C        O  782   2.408   2.935   5.039
    1C        O  783   2.514   3.022   5.212
    1C        C  784   2.404   3.980   5.045
    1C        O  785   2.300   4.042   5.009
    1C        O  786   2.418   4.007   5.182
    1C        C  787   2.943   2.430   1.991
    1C        O  788   2.981   2.398   1.875
    1C        O  789   2.848   2.340   2.038
    1C        C  790   3.175   2.371   5.073
    1C        O  791   3.220   2.257   5.042
    1C        O  792   3.180   2.396   5.210
    1C        H  793   4.259   3.038   5.031
    1C        H  794   4.256   2.768   5.055
    1C        H  795   4.502   3.126   5.056
    1C        H  796   4.548   3.355   5.066
    1C        H  797   4.581   3.815   5.037
    1C        H  798   4.370   3.955   5.048
    1C        H  799   4.325   4.197   5.042
    1C        H  800   4.014   4.519   5.033
    1C        H  801   3.819   4.630   5.018
    1C        H  802   3.588   4.640   5.034
    1C        H  803   3.387   4.430   5.012
    1C        H  804   3.168   4.467   5.053
    1C        H  805   3.872   2.547   5.071
    1C        H  806   3.671   2.411   5.056
    1C        H  807   3.032   2.600   5.070
    1C        H  808   3.444   2.511   5.072
    1C        H  809   2.892   2.756   5.072
    1C        H  810   2.663   2.854   5.055
    1C        H  811   2.513   3.297   5.068
    1C        H  812   2.495   3.509   5.069
    1C        H  813   2.566   3.742   5.061
    1C        H  814   2.568   4.185   5.034
    1C        H  815   2.748   4.329   5.047
    1C        H  816   2.709   2.870   1.969
    1C        H  817   2.889   2.713   1.981
    1C        H  818   3.209   2.424   1.986
    1C        H  819   3.435   2.495   1.989
    1C        H  820   3.874   2.473   1.981
    1C        H  821   4.049   2.630   1.961
    1C        H  822   4.257   2.705   1.979
    1C        H  823   4.359   2.934   1.963
    1C        H  824   4.567   3.310   1.963
    1C        H  825   4.510   3.519   1.951
    1C        H  826   4.515   3.744   1.950
    1C        H  827   3.796   4.510   1.944
    1C        H  828   3.952   4.365   1.943
    1C        H  829   4.162   4.290   1.938
    1C        H  830   4.521   3.979   1.980
    1C        H  831   2.675   3.814   1.996
    1C        H  832   2.673   4.062   1.955
    1C        H  833   2.708   4.310   1.981
    1C        H  834   3.378   4.435   1.953
    1C        H  835   3.169   4.363   1.963
    1C        H  836   2.524   3.000   1.989
    1C        H  837   2.504   3.242   1.974
    1C        H  838   2.485   3.678   1.964
    2V3OU   H29  839   2.800   3.541   1.010
    2V3OU   C27  840   2.788   3.502   1.115
    2V3OU   H27  841   2.725   3.573   1.176
    2V3OU   H28  842   2.727   3.408   1.114
    2V3OU   O11  843   2.912   3.478   1.181
    2V3OU   C15  844   2.919   3.394   1.291
    2V3OU   C13  845   3.047   3.376   1.348
    2V3OU   C14  846   3.072   3.271   1.437
    2V3OU   C16  847   2.965   3.187   1.465
    2V3OU    H6  848   2.986   3.100   1.529
    2V3OU   C12  849   3.210   3.230   1.468
    2V3OU    O2  850   3.241   3.118   1.515
    2V3OU   C10  851   3.322   3.306   1.410
    2V3OU    C8  852   3.454   3.269   1.431
    2V3OU   O10  853   3.486   3.146   1.480
    2V3OU   H26  854   3.395   3.116   1.497
    2V3OU    C6  855   3.563   3.350   1.385
    2V3OU    C5  856   3.536   3.465   1.312
    2V3OU    C4  857   3.699   3.292   1.368
    2V3OU    H4  858   3.716   3.221   1.455
    2V3OU    H5  859   3.710   3.226   1.277
    2V3OU    C2  860   3.813   3.394   1.368
    2V3OU    O6  861   3.806   3.472   1.488
    2V3OU   H21  862   3.763   3.555   1.462
    2V3OU    C3  863   3.781   3.494   1.257
    2V3OU    H2  864   3.858   3.575   1.258
    2V3OU    H3  865   3.782   3.441   1.159
    2V3OU   C25  866   3.948   3.323   1.350
    2V3OU    O7  867   3.999   3.299   1.241
    2V3OU   C26  868   4.030   3.285   1.472
    2V3OU   H22  869   4.060   3.380   1.524
    2V3OU   H23  870   4.120   3.226   1.440
    2V3OU    O8  871   3.953   3.201   1.555
    2V3OU   H24  872   3.917   3.263   1.620
    2V3OU    C1  873   3.645   3.560   1.275
    2V3OU    H1  874   3.621   3.618   1.180
    2V3OU    O3  875   3.662   3.650   1.385
    2V3OU   C19  876   3.616   3.785   1.373
    2V3OU    H9  877   3.524   3.804   1.311
    2V3OU    O4  878   3.708   3.847   1.287
    2V3OU   C20  879   3.840   3.868   1.339
    2V3OU   H10  880   3.896   3.771   1.353
    2V3OU   C24  881   3.606   3.853   1.510
    2V3OU   H16  882   3.538   3.793   1.576
    2V3OU   H17  883   3.560   3.954   1.492
    2V3OU   C23  884   3.746   3.872   1.567
    2V3OU   H15  885   3.790   3.768   1.582
    2V3OU    N1  886   3.738   3.950   1.690
    2V3OU   H19  887   3.808   3.925   1.757
    2V3OU   H20  888   3.649   3.937   1.734
    2V3OU   C21  889   3.846   3.943   1.472
    2V3OU   H11  890   3.948   3.925   1.518
    2V3OU    O5  891   3.824   4.084   1.472
    2V3OU   H18  892   3.775   4.097   1.554
    2V3OU   C22  893   3.912   3.946   1.230
    2V3OU   H12  894   3.862   4.045   1.213
    2V3OU   H13  895   3.905   3.889   1.133
    2V3OU   H14  896   4.020   3.957   1.256
    2V3OU   C11  897   3.157   3.465   1.308
    2V3OU    O1  898   3.133   3.584   1.278
    2V3OU    C9  899   3.296   3.426   1.338
    2V3OU    C7  900   3.400   3.505   1.290
    2V3OU    O9  901   3.385   3.617   1.211
    2V3OU   H25  902   3.291   3.629   1.233
    2V3OU   C17  903   2.810   3.312   1.324
    2V3OU    H7  904   2.711   3.337   1.286
    2V3OU   C18  905   2.837   3.211   1.416
    2V3OU    H8  906   2.751   3.148   1.442
    3SOL     OW  907   0.496   3.680   0.991
    3SOL    HW1  908   0.407   3.660   1.032
    3SOL    HW2  909   0.497   3.647   0.896
    4SOL     OW  910   5.341   1.007   2.383
    4SOL    HW1  911   5.375   1.100   2.364
    4SOL    HW2  912   5.416   0.952   2.419
    5SOL     OW  913   3.786   3.114   1.027
    5SOL    HW1  914   3.879   3.078   1.025
    5SOL    HW2  915   3.722   3.041   1.050
    6SOL     OW  916   2.428   2.415   0.703
    6SOL    HW1  917   2.405   2.357   0.625
    6SOL    HW2  918   2.434   2.358   0.785
    7SOL     OW  919   6.095   1.291   1.482
    7SOL    HW1  920   6.051   1.381   1.477
    7SOL    HW2  921   6.085   1.245   1.394
    8SOL     OW  922   2.988   2.130   3.459
    8SOL    HW1  923   3.068   2.084   3.422
    8SOL    HW2  924   3.002   2.229   3.458
    9SOL     OW  925   0.623   4.045   5.972
    9SOL    HW1  926   0.693   4.105   6.012
    9SOL    HW2  927   0.629   3.954   6.013
   10SOL     OW  928   0.493   4.022   0.682
   10SOL    HW1  929   0.397   4.018   0.710
   10SOL    HW2  930   0.508   4.103   0.625
   11SOL     OW  931   3.962   6.340   6.807
   11SOL    HW1  932   4.033   6.283   6.766
   11SOL    HW2  933   3.904   6.378   6.736
   12SOL     OW  934   5.374   6.275   2.839
   12SOL    HW1  935   5.390   6.309   2.747
   12SOL    HW2  936   5.283   6.301   2.870
   13SOL     OW  937   1.471   0.076   3.800
   13SOL    HW1  938   1.400   0.007   3.816
   13SOL    HW2  939   1.530   0.082   3.881
   14SOL     OW  940   2.860   0.188   2.632
   14SOL    HW1  941   2.862   0.095   2.597
   14SOL    HW2  942   2.804   0.191   2.715
   15SOL     OW  943   2.527   6.649   6.240
   15SOL    HW1  944   2.614   6.604   6.222
   15SOL    HW2  945   2.532   6.700   6.326
   16SOL     OW  946   6.626   1.928   6.747
   16SOL    HW1  947   6.625   1.831   6.770
   16SOL    HW2  948   6.709   1.970   6.785
   17SOL     OW  949   4.574   6.265   3.280
   17SOL    HW1  950   4.541   6.233   3.368
   17SOL    HW2  951   4.639   6.340   3.294
   18SOL     OW  952   1.714   1.200   0.168
   18SOL    HW1  953   1.808   1.234   0.175
   18SOL    HW2  954   1.706   1.142   0.087
   19SOL     OW  955   0.863   6.950   1.784
   19SOL    HW1  956   0.858   6.850   1.782
   19SOL    HW2  957   0.902   6.983   1.697
   20SOL     OW  958   3.381   0.780   3.951
   20SOL    HW1  959   3.385   0.766   4.050
   20SOL    HW2  960   3.393   0.878   3.930
   21SOL     OW  961   2.987   2.684   1.443
   21SOL    HW1  962   3.051   2.758   1.423
   21SOL    HW2  963   3.022   2.629   1.519
   22SOL     OW  964   0.989   1.268   4.985
   22SOL    HW1  965   0.892   1.256   4.964
   22SOL    HW2  966   1.007   1.363   5.009
   23SOL     OW  967   3.184   5.836   4.638
   23SOL    HW1  968   3.126   5.842   4.557
   23SOL    HW2  969   3.243   5.916   4.642
   24SOL     OW  970   3.983   0.991   4.566
   24SOL    HW1  971   3.988   1.045   4.482
   24SOL    HW2  972   4.015   1.048   4.643
   25SOL     OW  973   2.744   4.679   1.303
   25SOL    HW1  974   2.753   4.601   1.241
   25SOL    HW2  975   2.823   4.683   1.365
   26SOL     OW  976   5.995   1.146   3.176
   26SOL    HW1  977   6.082   1.187   3.148
   26SOL    HW2  978   5.982   1.060   3.126
   27SOL     OW  979   6.241   6.421   1.847
   27SOL    HW1  980   6.341   6.430   1.845
   27SOL    HW2  981   6.202   6.468   1.768
   28SOL     OW  982   3.409   0.821   0.772
   28SOL    HW1  983   3.398   0.784   0.679
   28SOL    HW2  984   3.499   0.796   0.807
   29SOL     OW  985   3.966   2.761   1.600
   29SOL    HW1  986   4.008   2.677   1.567
   29SOL    HW2  987   3.866   2.751   1.602
   30SOL     OW  988   4.044   1.182   4.794
   30SOL    HW1  989   4.127   1.141   4.831
   30SOL    HW2  990   4.054   1.282   4.791
   31SOL     OW  991   0.688   1.157   5.114
   31SOL    HW1  992   0.665   1.201   5.027
   31SOL    HW2  993   0.723   1.065   5.096
   32SOL     OW  994   0.280   1.757   2.195
   32SOL    HW1  995   0.304   1.683   2.132
   32SOL    HW2  996   0.196   1.802   2.163
   33SOL     OW  997   1.837   2.020   5.135
   33SOL    HW1  998   1.887   2.021   5.221
   33SOL    HW2  999   1.777   1.940   5.132
   34SOL     OW 1000   1.060   0.696   4.767
   34SOL    HW1 1001   1.004   0.758   4.711
   34SOL    HW2 1002   1.007   0.663   4.844
   35SOL     OW 1003   3.841   1.771   6.332
   35SOL    HW1 1004   3.907   1.774   6.407
   35SOL    HW2 1005   3.767   1.836   6.351
   36SOL     OW 1006   1.405   1.797   5.791
   36SOL    HW1 1007   1.331   1.747   5.747
   36SOL    HW2 1008   1.418   1.885   5.745
   37SOL     OW 1009   2.207   6.645   0.535
   37SOL    HW1 1010   2.267   6.674   0.610
   37SOL    HW2 1011   2.112   6.640   0.568
   38SOL     OW 1012   0.081   6.555   2.012
   38SOL    HW1 1013   0.059   6.631   2.074
   38SOL    HW2 1014   0.173   6.521   2.033
   39SOL     OW 1015   0.103   2.762   5.837
   39SOL    HW1 1016   0.132   2.817   5.915
   39SOL    HW2 1017   0.003   2.752   5.839
   40SOL     OW 1018   6.806   0.773   1.379
   40SOL    HW1 1019   6.905   0.767   1.395
   40SOL    HW2 1020   6.767   0.682   1.373
   41SOL     OW 1021   1.618   0.809   5.711
   41SOL    HW1 1022   1.649   0.746   5.782
   41SOL    HW2 1023   1.554   0.762   5.650
   42SOL     OW 1024   4.180   0.246   0.643
   42SOL    HW1 1025   4.235   0.191   0.706
   42SOL    HW2 1026   4.120   0.186   0.589
   43SOL     OW 1027   5.169   5.822   4.932
   43SOL    HW1 1028   5.073   5.837   4.956
   43SOL    HW2 1029   5.206   5.749   4.988
   44SOL     OW 1030   0.503   3.472   6.857
   44SOL    HW1 1031   0.577   3.486   6.791
   44SOL    HW2 1032   0.497   3.375   6.881
   45SOL     OW 1033   2.689   0.631   1.618
   45SOL    HW1 1034   2.744   0.575   1.680
   45SOL    HW2 1035   2.661   0.576   1.539
   46SOL     OW 1036   1.457   4.846   3.973
   46SOL    HW1 1037   1.524   4.788   4.019
   46SOL    HW2 1038   1.426   4.917   4.035
   47SOL     OW 1039   5.523   4.437   3.107
   47SOL    HW1 1040   5.452   4.507   3.119
   47SOL    HW2 1041   5.604   4.462   3.160
   48SOL     OW 1042   0.810   1.402   5.659
   48SOL    HW1 1043   0.783   1.337   5.730
   48SOL    HW2 1044   0.729   1.448   5.623
   49SOL     OW 1045   5.489   2.719   0.566
   49SOL    HW1 1046   5.537   2.747   0.649
   49SOL    HW2 1047   5.390   2.729   0.579
   50SOL     OW 1048   0.150   3.880   4.578
   50SOL    HW1 1049   0.144   3.893   4.479
   50SOL    HW2 1050   0.093   3.803   4.605
   51SOL     OW 1051   2.959   5.377   2.777
   51SOL    HW1 1052   2.988   5.282   2.776
   51SOL    HW2 1053   3.027   5.434   2.730
   52SOL     OW 1054   1.096   2.158   1.581
   52SOL    HW1 1055   1.162   2.177   1.509
   52SOL    HW2 1056   1.064   2.064   1.573
   53SOL     OW 1057   4.790   6.317   4.385
   53SOL    HW1 1058   4.849   6.268   4.321
   53SOL    HW2 1059   4.699   6.328   4.345
   54SOL     OW 1060   4.514   5.731   5.954
   54SOL    HW1 1061   4.443   5.775   6.009
   54SOL    HW2 1062   4.560   5.661   6.009
   55SOL     OW 1063   3.849   2.423   0.552
   55SOL    HW1 1064   3.896   2.510   0.565
   55SOL    HW2 1065   3.824   2.412   0.456
   56SOL     OW 1066   0.674   6.634   1.517
   56SOL    HW1 1067   0.666   6.592   1.426
   56SOL    HW2 1068   0.615   6.714   1.522
   57SOL     OW 1069   5.850   1.397   0.875
   57SOL    HW1 1070   5.930   1.423   0.821
   57SOL    HW2 1071   5.772   1.454   0.849
   58SOL     OW 1072   6.933   0.011   6.439
   58SOL    HW1 1073   6.975   0.081   6.497
   58SOL    HW2 1074   6.910   6.950   6.495
   59SOL     OW 1075   0.860   0.093   4.943
   59SOL    HW1 1076   0.760   0.086   4.937
   59SOL    HW2 1077   0.887   0.188   4.929
   60SOL     OW 1078   4.842   6.763   4.797
   60SOL    HW1 1079   4.832   6.701   4.875
   60SOL    HW2 1080   4.756   6.768   4.747
   61SOL     OW 1081   4.112   0.295   4.873
   61SOL    HW1 1082   4.127   0.376   4.817
   61SOL    HW2 1083   4.026   0.252   4.847
   62SOL     OW 1084   2.999   1.438   5.125
   62SOL    HW1 1085   2.967   1.356   5.080
   62SOL    HW2 1086   3.057   1.491   5.062
   63SOL     OW 1087   0.189   3.251   3.302
   63SOL    HW1 1088   0.266   3.249   3.367
   63SOL    HW2 1089   0.130   3.329   3.323
   64SOL     OW 1090   6.645   2.503   5.655
   64SOL    HW1 1091   6.689   2.590   5.677
   64SOL    HW2 1092   6.580   2.517   5.580
   65SOL     OW 1093   0.163   3.384   5.887
   65SOL    HW1 1094   0.151   3.299   5.835
   65SOL    HW2 1095   0.260   3.395   5.909
   66SOL     OW 1096   2.689   0.926   1.038
   66SOL    HW1 1097   2.698   1.009   1.093
   66SOL    HW2 1098   2.766   0.920   0.975
   67SOL     OW 1099   4.674   5.853   3.910
   67SOL    HW1 1100   4.698   5.870   4.006
   67SOL    HW2 1101   4.722   5.772   3.877
   68SOL     OW 1102   5.506   2.908   6.372
   68SOL    HW1 1103   5.531   2.925   6.468
   68SOL    HW2 1104   5.428   2.964   6.347
   69SOL     OW 1105   2.238   2.808   5.742
   69SOL    HW1 1106   2.302   2.740   5.707
   69SOL    HW2 1107   2.212   2.871   5.670
   70SOL     OW 1108   6.631   6.069   1.894
   70SOL    HW1 1109   6.625   6.105   1.987
   70SOL    HW2 1110   6.539   6.061   1.856
   71SOL     OW 1111   2.080   3.226   3.038
   71SOL    HW1 1112   2.122   3.188   2.955
   71SOL    HW2 1113   2.061   3.323   3.023
   72SOL     OW 1114   3.119   5.455   4.081
   72SOL    HW1 1115   3.188   5.382   4.081
   72SOL    HW2 1116   3.158   5.537   4.038
   73SOL     OW 1117   3.950   2.497   6.434
   73SOL    HW1 1118   3.903   2.503   6.522
   73SOL    HW2 1119   3.910   2.423   6.380
   74SOL     OW 1120   5.357   6.163   6.312
   74SOL    HW1 1121   5.424   6.089   6.325
   74SOL    HW2 1122   5.405   6.251   6.311
   75SOL     OW 1123   3.876   4.889   5.032
   75SOL    HW1 1124   3.931   4.869   4.951
   75SOL    HW2 1125   3.780   4.899   5.005
   76SOL     OW 1126   2.594   3.120   1.138
   76SOL    HW1 1127   2.556   3.060   1.209
   76SOL    HW2 1128   2.556   3.212   1.148
   77SOL     OW 1129   5.319   4.944   6.273
   77SOL    HW1 1130   5.269   4.859   6.254
   77SOL    HW2 1131   5.406   4.922   6.316
   78SOL     OW 1132   6.694   6.656   6.158
   78SOL    HW1 1133   6.699   6.570   6.107
   78SOL    HW2 1134   6.741   6.646   6.246
   79SOL     OW 1135   3.456   6.729   0.053
   79SOL    HW1 1136   3.550   6.733   0.088
   79SOL    HW2 1137   3.395   6.775   0.118
   80SOL     OW 1138   0.002   1.227   4.021
   80SOL    HW1 1139   0.011   1.278   4.106
   80SOL    HW2 1140   0.083   1.171   4.006
   81SOL     OW 1141   1.528   0.092   4.286
   81SOL    HW1 1142   1.442   0.142   4.299
   81SOL    HW2 1143   1.554   0.047   4.371
   82SOL     OW 1144   0.219   4.345   5.557
   82SOL    HW1 1145   0.212   4.255   5.514
   82SOL    HW2 1146   0.157   4.409   5.511
   83SOL     OW 1147   6.694   0.102   6.754
   83SOL    HW1 1148   6.712   0.015   6.798
   83SOL    HW2 1149   6.680   0.173   6.823
   84SOL     OW 1150   6.053   3.434   1.632
   84SOL    HW1 1151   6.086   3.523   1.661
   84SOL    HW2 1152   6.050   3.430   1.532
   85SOL     OW 1153   0.639   1.776   5.324
   85SOL    HW1 1154   0.732   1.811   5.335
   85SOL    HW2 1155   0.616   1.716   5.400
   86SOL     OW 1156   1.808   1.023   4.961
   86SOL    HW1 1157   1.726   0.969   4.944
   86SOL    HW2 1158   1.889   0.972   4.929
   87SOL     OW 1159   4.343   0.419   1.426
   87SOL    HW1 1160   4.316   0.323   1.424
   87SOL    HW2 1161   4.309   0.462   1.509
   88SOL     OW 1162   5.468   0.532   0.344
   88SOL    HW1 1163   5.468   0.628   0.372
   88SOL    HW2 1164   5.510   0.524   0.253
   89SOL     OW 1165   2.215   1.787   5.700
   89SOL    HW1 1166   2.186   1.851   5.628
   89SOL    HW2 1167   2.251   1.838   5.778
   90SOL     OW 1168   6.588   5.852   3.793
   90SOL    HW1 1169   6.608   5.943   3.756
   90SOL    HW2 1170   6.501   5.819   3.756
   91SOL     OW 1171   4.699   4.981   4.951
   91SOL    HW1 1172   4.682   5.077   4.972
   91SOL    HW2 1173   4.750   4.974   4.865
   92SOL     OW 1174   2.960   6.542   1.534
   92SOL    HW1 1175   2.963   6.607   1.458
   92SOL    HW2 1176   2.875   6.554   1.585
   93SOL     OW 1177   4.088   4.892   5.698
   93SOL    HW1 1178   4.046   4.979   5.670
   93SOL    HW2 1179   4.069   4.822   5.628
   94SOL     OW 1180   2.217   6.167   1.347
   94SOL    HW1 1181   2.214   6.265   1.366
   94SOL    HW2 1182   2.124   6.130   1.342
   95SOL     OW 1183   6.464   6.969   5.018
   95SOL    HW1 1184   6.365   6.960   5.032
   95SOL    HW2 1185   6.482   6.989   4.921
   96SOL     OW 1186   1.286   6.915   5.162
   96SOL    HW1 1187   1.353   6.841   5.175
   96SOL    HW2 1188   1.278   6.967   5.247
   97SOL     OW 1189   6.331   3.024   4.922
   97SOL    HW1 1190   6.375   2.934   4.920
   97SOL    HW2 1191   6.310   3.049   5.017
   98SOL     OW 1192   5.995   2.235   5.883
   98SOL    HW1 1193   6.062   2.255   5.955
   98SOL    HW2 1194   6.031   2.262   5.794
   99SOL     OW 1195   4.104   2.209   1.275
   99SOL    HW1 1196   4.055   2.178   1.357
   99SOL    HW2 1197   4.066   2.296   1.244
  100SOL     OW 1198   6.047   5.040   6.507
  100SOL    HW1 1199   5.985   4.972   6.546
  100SOL    HW2 1200   6.104   5.079   6.579
  101SOL     OW 1201   1.085   6.485   4.374
  101SOL    HW1 1202   1.047   6.411   4.429
  101SOL    HW2 1203   1.134   6.447   4.295
  102SOL     OW 1204   4.720   0.401   3.305
  102SOL    HW1 1205   4.655   0.375   3.377
  102SOL    HW2 1206   4.780   0.473   3.338
  103SOL     OW 1207   3.626   1.934   1.580
  103SOL    HW1 1208   3.682   2.009   1.615
  103SOL    HW2 1209   3.658   1.848   1.620
  104SOL     OW 1210   0.030   5.967   1.624
  104SOL    HW1 1211   6.983   5.949   1.696
  104SOL    HW2 1212   0.094   6.038   1.654
  105SOL     OW 1213   5.105   1.425   5.253
  105SOL    HW1 1214   5.071   1.388   5.340
  105SOL    HW2 1215   5.190   1.380   5.229
  106SOL     OW 1216   3.487   6.636   0.731
  106SOL    HW1 1217   3.577   6.633   0.687
  106SOL    HW2 1218   3.474   6.724   0.775
  107SOL     OW 1219   2.454   3.327   1.164
  107SOL    HW1 1220   2.453   3.341   1.263
  107SOL    HW2 1221   2.396   3.396   1.120
  108SOL     OW 1222   4.924   4.314   5.423
  108SOL    HW1 1223   4.839   4.263   5.415
  108SOL    HW2 1224   4.973   4.312   5.336
  109SOL     OW 1225   6.140   0.781   1.173
  109SOL    HW1 1226   6.178   0.706   1.228
  109SOL    HW2 1227   6.154   0.867   1.221
  110SOL     OW 1228   2.859   6.026   4.983
  110SOL    HW1 1229   2.941   5.986   5.023
  110SOL    HW2 1230   2.793   5.953   4.964
  111SOL     OW 1231   4.001   1.158   3.449
  111SOL    HW1 1232   4.072   1.224   3.428
  111SOL    HW2 1233   3.976   1.107   3.367
  112SOL     OW 1234   0.046   1.404   6.464
  112SOL    HW1 1235   0.123   1.439   6.517
  112SOL    HW2 1236   6.999   1.361   6.525
  113SOL     OW 1237   6.864   5.935   3.805
  113SOL    HW1 1238   6.956   5.970   3.790
  113SOL    HW2 1239   6.800   5.983   3.745
  114SOL     OW 1240   0.932   6.762   6.655
  114SOL    HW1 1241   1.030   6.780   6.650
  114SOL    HW2 1242   0.911   6.718   6.742
  115SOL     OW 1243   5.393   0.947   5.204
  115SOL    HW1 1244   5.401   0.973   5.301
  115SOL    HW2 1245   5.354   0.856   5.197
  116SOL     OW 1246   5.874   4.612   2.640
  116SOL    HW1 1247   5.805   4.562   2.589
  116SOL    HW2 1248   5.830   4.668   2.710
  117SOL     OW 1249   1.361   6.662   6.387
  117SOL    HW1 1250   1.446   6.713   6.399
  117SOL    HW2 1251   1.371   6.571   6.426
  118SOL     OW 1252   1.431   0.234   2.495
  118SOL    HW1 1253   1.484   0.287   2.561
  118SOL    HW2 1254   1.349   0.286   2.469
  119SOL     OW 1255   6.592   2.909   6.370
  119SOL    HW1 1256   6.522   2.840   6.384
  119SOL    HW2 1257   6.574   2.988   6.429
  120SOL     OW 1258   5.633   6.609   1.482
  120SOL    HW1 1259   5.631   6.563   1.393
  120SOL    HW2 1260   5.568   6.565   1.544
  121SOL     OW 1261   2.952   3.378   5.869
  121SOL    HW1 1262   2.964   3.352   5.773
  121SOL    HW2 1263   2.951   3.296   5.926
  122SOL     OW 1264   0.269   3.234   4.491
  122SOL    HW1 1265   0.201   3.231   4.564
  122SOL    HW2 1266   0.224   3.221   4.402
  123SOL     OW 1267   0.760   1.894   1.612
  123SOL    HW1 1268   0.670   1.911   1.573
  123SOL    HW2 1269   0.764   1.801   1.650
  124SOL     OW 1270   4.761   3.141   0.888
  124SOL    HW1 1271   4.697   3.164   0.961
  124SOL    HW2 1272   4.776   3.222   0.830
  125SOL     OW 1273   2.060   3.697   1.859
  125SOL    HW1 1274   2.132   3.634   1.889
  125SOL    HW2 1275   2.004   3.723   1.937
  126SOL     OW 1276   3.523   4.624   1.098
  126SOL    HW1 1277   3.617   4.646   1.123
  126SOL    HW2 1278   3.467   4.617   1.181
  127SOL     OW 1279   0.984   5.259   5.764
  127SOL    HW1 1280   0.996   5.166   5.730
  127SOL    HW2 1281   0.986   5.258   5.864
  128SOL     OW 1282   4.358   2.561   1.600
  128SOL    HW1 1283   4.409   2.647   1.596
  128SOL    HW2 1284   4.266   2.575   1.564
  129SOL     OW 1285   3.000   3.679   6.207
  129SOL    HW1 1286   3.043   3.760   6.168
  129SOL    HW2 1287   2.919   3.656   6.153
  130SOL     OW 1288   1.576   2.173   4.482
  130SOL    HW1 1289   1.568   2.104   4.410
  130SOL    HW2 1290   1.667   2.169   4.523
  131SOL     OW 1291   5.640   2.026   2.649
  131SOL    HW1 1292   5.603   2.118   2.659
  131SOL    HW2 1293   5.716   2.013   2.713
  132SOL     OW 1294   0.311   2.429   1.399
  132SOL    HW1 1295   0.288   2.397   1.491
  132SOL    HW2 1296   0.240   2.492   1.367
  133SOL     OW 1297   6.498   5.857   2.164
  133SOL    HW1 1298   6.426   5.867   2.095
  133SOL    HW2 1299   6.556   5.938   2.165
  134SOL     OW 1300   0.555   3.998   2.825
  134SOL    HW1 1301   0.631   4.028   2.767
  134SOL    HW2 1302   0.488   4.072   2.831
  135SOL     OW 1303   4.233   1.518   4.064
  135SOL    HW1 1304   4.197   1.589   4.004
  135SOL    HW2 1305   4.323   1.545   4.097
  136SOL     OW 1306   4.875   4.972   5.561
  136SOL    HW1 1307   4.910   4.902   5.499
  136SOL    HW2 1308   4.918   5.060   5.540
  137SOL     OW 1309   3.499   0.609   5.802
  137SOL    HW1 1310   3.431   0.646   5.739
  137SOL    HW2 1311   3.574   0.568   5.750
  138SOL     OW 1312   6.417   5.241   4.761
  138SOL    HW1 1313   6.402   5.338   4.742
  138SOL    HW2 1314   6.363   5.214   4.841
  139SOL     OW 1315   3.336   5.628   5.368
  139SOL    HW1 1316   3.428   5.633   5.328
  139SOL    HW2 1317   3.340   5.658   5.463
  140SOL     OW 1318   6.507   4.474   4.994
  140SOL    HW1 1319   6.450   4.414   5.051
  140SOL    HW2 1320   6.509   4.565   5.034
  141SOL     OW 1321   1.384   2.241   2.636
  141SOL    HW1 1322   1.421   2.328   2.605
  141SOL    HW2 1323   1.370   2.244   2.735
  142SOL     OW 1324   1.340   5.729   1.452
  142SOL    HW1 1325   1.343   5.630   1.442
  142SOL    HW2 1326   1.347   5.772   1.362
  143SOL     OW 1327   5.243   4.178   2.042
  143SOL    HW1 1328   5.247   4.079   2.036
  143SOL    HW2 1329   5.327   4.212   2.085
  144SOL     OW 1330   2.446   6.447   0.499
  144SOL    HW1 1331   2.386   6.521   0.530
  144SOL    HW2 1332   2.430   6.365   0.554
  145SOL     OW 1333   6.960   5.293   0.502
  145SOL    HW1 1334   0.026   5.262   0.543
  145SOL    HW2 1335   6.909   5.215   0.467
  146SOL     OW 1336   6.151   4.952   0.500
  146SOL    HW1 1337   6.234   4.944   0.556
  146SOL    HW2 1338   6.071   4.946   0.560
  147SOL     OW 1339   6.007   2.318   1.427
  147SOL    HW1 1340   5.982   2.361   1.514
  147SOL    HW2 1341   5.988   2.219   1.432
  148SOL     OW 1342   1.202   5.071   5.835
  148SOL    HW1 1343   1.254   5.126   5.900
  148SOL    HW2 1344   1.224   5.100   5.742
  149SOL     OW 1345   3.147   1.267   5.751
  149SOL    HW1 1346   3.149   1.317   5.838
  149SOL    HW2 1347   3.054   1.272   5.712
  150SOL     OW 1348   0.413   5.861   5.910
  150SOL    HW1 1349   0.344   5.872   5.839
  150SOL    HW2 1350   0.372   5.813   5.988
  151SOL     OW 1351   3.726   0.603   1.634
  151SOL    HW1 1352   3.726   0.625   1.536
  151SOL    HW2 1353   3.699   0.684   1.686
  152SOL     OW 1354   3.237   0.690   4.918
  152SOL    HW1 1355   3.179   0.722   4.992
  152SOL    HW2 1356   3.319   0.647   4.956
  153SOL     OW 1357   1.588   0.633   3.223
  153SOL    HW1 1358   1.594   0.697   3.146
  153SOL    HW2 1359   1.602   0.682   3.309
  154SOL     OW 1360   6.665   1.818   3.094
  154SOL    HW1 1361   6.577   1.783   3.127
  154SOL    HW2 1362   6.649   1.877   3.014
  155SOL     OW 1363   0.379   1.025   2.836
  155SOL    HW1 1364   0.375   1.100   2.769
  155SOL    HW2 1365   0.395   1.062   2.927
  156SOL     OW 1366   0.229   2.344   1.645
  156SOL    HW1 1367   0.192   2.292   1.721
  156SOL    HW2 1368   0.238   2.440   1.672
  157SOL     OW 1369   6.078   3.000   2.639
  157SOL    HW1 1370   6.124   2.911   2.627
  157SOL    HW2 1371   5.979   2.987   2.634
  158SOL     OW 1372   1.397   1.475   3.742
  158SOL    HW1 1373   1.410   1.545   3.813
  158SOL    HW2 1374   1.467   1.486   3.672
  159SOL     OW 1375   4.921   3.358   2.286
  159SOL    HW1 1376   4.893   3.283   2.226
  159SOL    HW2 1377   4.845   3.422   2.297
  160SOL     OW 1378   6.754   4.411   5.541
  160SOL    HW1 1379   6.774   4.478   5.612
  160SOL    HW2 1380   6.838   4.384   5.495
  161SOL     OW 1381   3.804   4.774   5.265
  161SOL    HW1 1382   3.830   4.803   5.173
  161SOL    HW2 1383   3.709   4.799   5.283
  162SOL     OW 1384   4.637   6.330   2.261
  162SOL    HW1 1385   4.673   6.301   2.350
  162SOL    HW2 1386   4.542   6.360   2.272
  163SOL     OW 1387   5.315   0.828   1.900
  163SOL    HW1 1388   5.339   0.751   1.958
  163SOL    HW2 1389   5.386   0.899   1.907
  164SOL     OW 1390   6.403   3.154   1.228
  164SOL    HW1 1391   6.360   3.088   1.291
  164SOL    HW2 1392   6.339   3.176   1.155
  165SOL     OW 1393   5.893   4.116   6.025
  165SOL    HW1 1394   5.895   4.020   6.056
  165SOL    HW2 1395   5.967   4.166   6.070
  166SOL     OW 1396   1.505   0.791   1.536
  166SOL    HW1 1397   1.450   0.868   1.504
  166SOL    HW2 1398   1.500   0.785   1.635
  167SOL     OW 1399   6.424   3.369   0.457
  167SOL    HW1 1400   6.513   3.382   0.500
  167SOL    HW2 1401   6.352   3.390   0.523
  168SOL     OW 1402   2.703   5.597   1.733
  168SOL    HW1 1403   2.742   5.571   1.821
  168SOL    HW2 1404   2.743   5.684   1.704
  169SOL     OW 1405   0.982   0.056   1.557
  169SOL    HW1 1406   0.946   0.074   1.466
  169SOL    HW2 1407   1.082   0.061   1.555
  170SOL     OW 1408   0.467   1.489   2.981
  170SOL    HW1 1409   0.397   1.487   2.910
  170SOL    HW2 1410   0.424   1.495   3.071
  171SOL     OW 1411   3.489   3.662   0.451
  171SOL    HW1 1412   3.514   3.725   0.377
  171SOL    HW2 1413   3.569   3.644   0.508
  172SOL     OW 1414   6.900   2.777   0.937
  172SOL    HW1 1415   6.812   2.728   0.938
  172SOL    HW2 1416   6.944   2.764   0.848
  173SOL     OW 1417   0.348   6.231   6.098
  173SOL    HW1 1418   0.321   6.318   6.057
  173SOL    HW2 1419   0.435   6.242   6.146
  174SOL     OW 1420   2.426   5.755   3.276
  174SOL    HW1 1421   2.492   5.701   3.223
  174SOL    HW2 1422   2.450   5.852   3.271
  175SOL     OW 1423   0.656   5.613   3.065
  175SOL    HW1 1424   0.562   5.594   3.094
  175SOL    HW2 1425   0.657   5.634   2.967
  176SOL     OW 1426   2.904   5.569   0.674
  176SOL    HW1 1427   2.928   5.473   0.660
  176SOL    HW2 1428   2.882   5.611   0.586
  177SOL     OW 1429   4.424   2.405   3.391
  177SOL    HW1 1430   4.457   2.447   3.307
  177SOL    HW2 1431   4.464   2.451   3.470
  178SOL     OW 1432   5.844   4.238   5.782
  178SOL    HW1 1433   5.852   4.178   5.861
  178SOL    HW2 1434   5.793   4.320   5.808
  179SOL     OW 1435   2.894   0.267   1.057
  179SOL    HW1 1436   2.845   0.181   1.043
  179SOL    HW2 1437   2.932   0.298   0.970
  180SOL     OW 1438   1.200   2.449   6.568
  180SOL    HW1 1439   1.131   2.381   6.546
  180SOL    HW2 1440   1.249   2.475   6.484
  181SOL     OW 1441   3.226   3.129   4.687
  181SOL    HW1 1442   3.186   3.070   4.758
  181SOL    HW2 1443   3.313   3.166   4.719
  182SOL     OW 1444   4.925   2.753   5.128
  182SOL    HW1 1445   4.917   2.677   5.193
  182SOL    HW2 1446   4.954   2.835   5.178
  183SOL     OW 1447   5.326   1.682   2.476
  183SOL    HW1 1448   5.296   1.610   2.414
  183SOL    HW2 1449   5.247   1.731   2.511
  184SOL     OW 1450   0.131   4.762   3.258
  184SOL    HW1 1451   0.055   4.702   3.283
  184SOL    HW2 1452   0.130   4.778   3.159
  185SOL     OW 1453   2.829   3.232   6.515
  185SOL    HW1 1454   2.747   3.179   6.493
  185SOL    HW2 1455   2.817   3.326   6.482
  186SOL     OW 1456   6.125   6.581   3.519
  186SOL    HW1 1457   6.189   6.517   3.476
  186SOL    HW2 1458   6.106   6.657   3.456
  187SOL     OW 1459   5.692   0.938   4.193
  187SOL    HW1 1460   5.784   0.967   4.167
  187SOL    HW2 1461   5.635   0.934   4.111
  188SOL     OW 1462   6.341   2.433   4.225
  188SOL    HW1 1463   6.352   2.354   4.285
  188SOL    HW2 1464   6.272   2.414   4.156
  189SOL     OW 1465   1.814   4.033   2.484
  189SOL    HW1 1466   1.822   3.955   2.420
  189SOL    HW2 1467   1.831   4.118   2.434
  190SOL     OW 1468   3.477   1.575   6.674
  190SOL    HW1 1469   3.547   1.505   6.660
  190SOL    HW2 1470   3.387   1.534   6.669
  191SOL     OW 1471   4.131   6.050   5.614
  191SOL    HW1 1472   4.043   6.003   5.618
  191SOL    HW2 1473   4.204   5.983   5.628
  192SOL     OW 1474   0.080   0.362   0.839
  192SOL    HW1 1475   0.100   0.342   0.744
  192SOL    HW2 1476   7.010   0.324   0.863
  193SOL     OW 1477   5.530   4.606   0.062
  193SOL    HW1 1478   5.442   4.608   0.015
  193SOL    HW2 1479   5.551   4.512   0.089
  194SOL     OW 1480   4.305   6.981   4.455
  194SOL    HW1 1481   4.321   7.015   4.548
  194SOL    HW2 1482   4.226   6.920   4.455
  195SOL     OW 1483   6.768   5.301   3.550
  195SOL    HW1 1484   6.701   5.315   3.477
  195SOL    HW2 1485   6.732   5.338   3.635
  196SOL     OW 1486   1.100   1.283   1.096
  196SOL    HW1 1487   1.003   1.304   1.080
  196SOL    HW2 1488   1.109   1.193   1.138
  197SOL     OW 1489   2.151   1.074   0.715
  197SOL    HW1 1490   2.077   1.113   0.661
  197SOL    HW2 1491   2.172   1.134   0.792
  198SOL     OW 1492   2.940   1.284   3.774
  198SOL    HW1 1493   2.911   1.292   3.679
  198SOL    HW2 1494   3.039   1.285   3.779
  199SOL     OW 1495   0.915   1.850   4.390
  199SOL    HW1 1496   0.894   1.936   4.343
  199SOL    HW2 1497   0.900   1.774   4.327
  200SOL     OW 1498   6.536   2.216   0.232
  200SOL    HW1 1499   6.485   2.278   0.172
  200SOL    HW2 1500   6.533   2.123   0.196
  201SOL     OW 1501   0.510   0.898   6.627
  201SOL    HW1 1502   0.514   0.903   6.527
  201SOL    HW2 1503   0.526   0.804   6.657
  202SOL     OW 1504   4.906   0.008   0.647
  202SOL    HW1 1505   4.961   6.944   0.648
  202SOL    HW2 1506   4.861   0.019   0.736
  203SOL     OW 1507   6.143   2.545   6.492
  203SOL    HW1 1508   6.058   2.588   6.461
  203SOL    HW2 1509   6.220   2.604   6.469
  204SOL     OW 1510   6.247   0.813   5.149
  204SOL    HW1 1511   6.328   0.782   5.099
  204SOL    HW2 1512   6.174   0.834   5.084
  205SOL     OW 1513   1.894   3.760   2.809
  205SOL    HW1 1514   1.851   3.817   2.739
  205SOL    HW2 1515   1.900   3.812   2.895
  206SOL     OW 1516   7.008   3.088   0.386
  206SOL    HW1 1517   7.001   3.186   0.370
  206SOL    HW2 1518   6.990   3.039   0.301
  207SOL     OW 1519   6.047   2.781   4.506
  207SOL    HW1 1520   6.077   2.815   4.596
  207SOL    HW2 1521   6.058   2.854   4.439
  208SOL     OW 1522   0.962   3.336   5.007
  208SOL    HW1 1523   1.020   3.328   5.088
  208SOL    HW2 1524   0.988   3.267   4.939
  209SOL     OW 1525   6.792   4.548   2.914
  209SOL    HW1 1526   6.695   4.536   2.894
  209SOL    HW2 1527   6.807   4.635   2.960
  210SOL     OW 1528   4.282   3.063   0.400
  210SOL    HW1 1529   4.315   3.149   0.439
  210SOL    HW2 1530   4.268   3.075   0.302
  211SOL     OW 1531   0.869   1.342   2.410
  211SOL    HW1 1532   0.851   1.368   2.505
  211SOL    HW2 1533   0.798   1.379   2.351
  212SOL     OW 1534   2.168   3.924   2.185
  212SOL    HW1 1535   2.202   3.977   2.108
  212SOL    HW2 1536   2.189   3.827   2.170
  213SOL     OW 1537   1.252   4.831   0.868
  213SOL    HW1 1538   1.213   4.878   0.789
  213SOL    HW2 1539   1.307   4.754   0.838
  214SOL     OW 1540   5.522   6.417   2.042
  214SOL    HW1 1541   5.469   6.487   2.090
  214SOL    HW2 1542   5.613   6.452   2.021
  215SOL     OW 1543   2.377   5.148   3.052
  215SOL    HW1 1544   2.444   5.074   3.044
  215SOL    HW2 1545   2.403   5.208   3.128
  216SOL     OW 1546   0.972   5.911   3.125
  216SOL    HW1 1547   0.979   5.874   3.033
  216SOL    HW2 1548   1.019   5.999   3.130
  217SOL     OW 1549   0.909   4.601   5.819
  217SOL    HW1 1550   0.852   4.520   5.803
  217SOL    HW2 1551   0.939   4.638   5.731
  218SOL     OW 1552   2.177   1.722   5.191
  218SOL    HW1 1553   2.118   1.770   5.127
  218SOL    HW2 1554   2.183   1.625   5.165
  219SOL     OW 1555   4.497   2.188   1.618
  219SOL    HW1 1556   4.454   2.237   1.694
  219SOL    HW2 1557   4.427   2.169   1.548
  220SOL     OW 1558   3.407   6.574   1.349
  220SOL    HW1 1559   3.415   6.477   1.368
  220SOL    HW2 1560   3.424   6.591   1.252
  221SOL     OW 1561   5.373   4.493   2.083
  221SOL    HW1 1562   5.347   4.559   2.012
  221SOL    HW2 1563   5.363   4.535   2.173
  222SOL     OW 1564   2.291   4.498   6.326
  222SOL    HW1 1565   2.308   4.561   6.250
  222SOL    HW2 1566   2.255   4.549   6.404
  223SOL     OW 1567   6.181   2.286   4.778
  223SOL    HW1 1568   6.206   2.332   4.863
  223SOL    HW2 1569   6.157   2.191   4.797
  224SOL     OW 1570   2.949   1.992   5.490
  224SOL    HW1 1571   2.997   2.046   5.422
  224SOL    HW2 1572   2.852   1.984   5.464
  225SOL     OW 1573   3.763   6.437   6.063
  225SOL    HW1 1574   3.801   6.495   5.990
  225SOL    HW2 1575   3.665   6.455   6.071
  226SOL     OW 1576   1.107   2.593   6.174
  226SOL    HW1 1577   1.057   2.673   6.206
  226SOL    HW2 1578   1.186   2.577   6.234
  227SOL     OW 1579   1.765   3.493   1.444
  227SOL    HW1 1580   1.805   3.543   1.521
  227SOL    HW2 1581   1.823   3.505   1.363
  228SOL     OW 1582   0.956   0.301   2.280
  228SOL    HW1 1583   0.963   0.387   2.330
  228SOL    HW2 1584   0.949   0.225   2.345
  229SOL     OW 1585   3.862   6.585   5.866
  229SOL    HW1 1586   3.929   6.650   5.830
  229SOL    HW2 1587   3.801   6.556   5.793
  230SOL     OW 1588   5.917   5.719   5.728
  230SOL    HW1 1589   5.831   5.698   5.773
  230SOL    HW2 1590   5.940   5.645   5.664
  231SOL     OW 1591   5.228   1.703   6.947
  231SOL    HW1 1592   5.186   1.714   0.017
  231SOL    HW2 1593   5.327   1.717   6.955
  232SOL     OW 1594   1.374   1.746   6.068
  232SOL    HW1 1595   1.297   1.683   6.061
  232SOL    HW2 1596   1.399   1.778   5.976
  233SOL     OW 1597   3.555   1.642   3.444
  233SOL    HW1 1598   3.605   1.603   3.367
  233SOL    HW2 1599   3.481   1.700   3.409
  234SOL     OW 1600   5.147   0.703   0.957
  234SOL    HW1 1601   5.235   0.714   0.910
  234SOL    HW2 1602   5.108   0.613   0.934
  235SOL     OW 1603   4.871   3.064   2.596
  235SOL    HW1 1604   4.804   3.100   2.662
  235SOL    HW2 1605   4.905   2.975   2.628
  236SOL     OW 1606   4.123   4.805   6.248
  236SOL    HW1 1607   4.169   4.894   6.256
  236SOL    HW2 1608   4.190   4.732   6.261
  237SOL     OW 1609   6.260   3.682   2.817
  237SOL    HW1 1610   6.354   3.651   2.803
  237SOL    HW2 1611   6.258   3.781   2.831
  238SOL     OW 1612   6.525   2.119   0.738
  238SOL    HW1 1613   6.582   2.057   0.684
  238SOL    HW2 1614   6.573   2.147   0.820
  239SOL     OW 1615   1.186   3.256   0.035
  239SOL    HW1 1616   1.172   3.158   0.050
  239SOL    HW2 1617   1.114   3.307   0.082
  240SOL     OW 1618   4.867   3.723   3.338
  240SOL    HW1 1619   4.934   3.752   3.406
  240SOL    HW2 1620   4.775   3.736   3.373
  241SOL     OW 1621   2.587   2.085   4.093
  241SOL    HW1 1622   2.529   2.035   4.029
  241SOL    HW2 1623   2.661   2.130   4.042
  242SOL     OW 1624   3.548   3.651   2.416
  242SOL    HW1 1625   3.524   3.578   2.479
  242SOL    HW2 1626   3.579   3.732   2.467
  243SOL     OW 1627   3.760   2.638   6.109
  243SOL    HW1 1628   3.668   2.664   6.079
  243SOL    HW2 1629   3.821   2.632   6.030
  244SOL     OW 1630   5.095   3.140   4.941
  244SOL    HW1 1631   5.026   3.212   4.942
  244SOL    HW2 1632   5.163   3.157   5.012
  245SOL     OW 1633   3.975   0.943   3.238
  245SOL    HW1 1634   3.946   0.932   3.333
  245SOL    HW2 1635   3.984   0.853   3.196
  246SOL     OW 1636   6.057   1.046   2.160
  246SOL    HW1 1637   6.140   1.048   2.216
  246SOL    HW2 1638   6.077   1.004   2.072
  247SOL     OW 1639   1.433   1.582   1.276
  247SOL    HW1 1640   1.522   1.542   1.258
  247SOL    HW2 1641   1.430   1.676   1.240
  248SOL     OW 1642   2.233   2.924   1.858
  248SOL    HW1 1643   2.156   2.987   1.857
  248SOL    HW2 1644   2.296   2.946   1.784
  249SOL     OW 1645   4.726   6.370   4.659
  249SOL    HW1 1646   4.770   6.351   4.571
  249SOL    HW2 1647   4.687   6.462   4.658
  250SOL     OW 1648   4.042   2.609   0.555
  250SOL    HW1 1649   4.104   2.688   0.554
  250SOL    HW2 1650   4.088   2.529   0.517
  251SOL     OW 1651   3.826   4.292   5.570
  251SOL    HW1 1652   3.757   4.315   5.639
  251SOL    HW2 1653   3.811   4.348   5.488
  252SOL     OW 1654   6.796   6.683   5.909
  252SOL    HW1 1655   6.746   6.715   5.990
  252SOL    HW2 1656   6.877   6.632   5.937
  253SOL     OW 1657   4.087   6.442   6.049
  253SOL    HW1 1658   4.136   6.529   6.045
  253SOL    HW2 1659   3.999   6.451   6.002
  254SOL     OW 1660   5.914   2.353   5.446
  254SOL    HW1 1661   5.976   2.325   5.519
  254SOL    HW2 1662   5.885   2.447   5.462
  255SOL     OW 1663   1.276   3.973   6.603
  255SOL    HW1 1664   1.192   3.966   6.657
  255SOL    HW2 1665   1.269   4.050   6.540
  256SOL     OW 1666   5.028   2.133   5.126
  256SOL    HW1 1667   5.057   2.077   5.204
  256SOL    HW2 1668   5.035   2.230   5.151
  257SOL     OW 1669   4.850   6.756   2.168
  257SOL    HW1 1670   4.795   6.736   2.249
  257SOL    HW2 1671   4.791   6.792   2.096
  258SOL     OW 1672   1.769   3.053   6.141
  258SOL    HW1 1673   1.720   3.096   6.065
  258SOL    HW2 1674   1.840   3.115   6.175
  259SOL     OW 1675   3.878   6.618   4.165
  259SOL    HW1 1676   3.818   6.591   4.240
  259SOL    HW2 1677   3.947   6.548   4.150
  260SOL     OW 1678   3.723   5.364   3.353
  260SOL    HW1 1679   3.682   5.319   3.431
  260SOL    HW2 1680   3.667   5.348   3.271
  261SOL     OW 1681   4.256   4.953   0.441
  261SOL    HW1 1682   4.219   4.932   0.531
  261SOL    HW2 1683   4.301   5.042   0.442
  262SOL     OW 1684   0.873   4.167   6.530
  262SOL    HW1 1685   0.942   4.131   6.592
  262SOL    HW2 1686   0.858   4.101   6.455
  263SOL     OW 1687   0.903   6.692   4.284
  263SOL    HW1 1688   0.949   6.755   4.220
  263SOL    HW2 1689   0.952   6.605   4.286
  264SOL     OW 1690   6.399   3.450   6.014
  264SOL    HW1 1691   6.419   3.545   5.987
  264SOL    HW2 1692   6.308   3.445   6.053
  265SOL     OW 1693   6.349   0.228   3.721
  265SOL    HW1 1694   6.396   0.181   3.795
  265SOL    HW2 1695   6.251   0.229   3.739
  266SOL     OW 1696   3.569   0.817   5.954
  266SOL    HW1 1697   3.611   0.881   5.889
  266SOL    HW2 1698   3.543   0.733   5.906
  267SOL     OW 1699   1.849   0.602   3.912
  267SOL    HW1 1700   1.796   0.525   3.878
  267SOL    HW2 1701   1.841   0.679   3.848
  268SOL     OW 1702   3.128   2.531   1.222
  268SOL    HW1 1703   3.199   2.601   1.211
  268SOL    HW2 1704   3.136   2.488   1.312
  269SOL     OW 1705   4.068   2.075   0.360
  269SOL    HW1 1706   4.111   2.092   0.271
  269SOL    HW2 1707   4.129   2.106   0.433
  270SOL     OW 1708   5.360   1.096   6.930
  270SOL    HW1 1709   5.312   1.184   6.925
  270SOL    HW2 1710   5.360   1.053   6.840
  271SOL     OW 1711   0.966   3.450   6.626
  271SOL    HW1 1712   1.027   3.514   6.672
  271SOL    HW2 1713   0.913   3.400   6.694
  272SOL     OW 1714   3.197   5.799   3.591
  272SOL    HW1 1715   3.285   5.826   3.629
  272SOL    HW2 1716   3.198   5.810   3.492
  273SOL     OW 1717   2.219   4.798   5.920
  273SOL    HW1 1718   2.152   4.859   5.961
  273SOL    HW2 1719   2.174   4.716   5.885
  274SOL     OW 1720   4.930   2.892   3.942
  274SOL    HW1 1721   4.898   2.968   3.886
  274SOL    HW2 1722   4.924   2.807   3.889
  275SOL     OW 1723   6.419   6.173   1.270
  275SOL    HW1 1724   6.500   6.189   1.325
  275SOL    HW2 1725   6.357   6.251   1.276
  276SOL     OW 1726   1.063   0.733   5.079
  276SOL    HW1 1727   1.051   0.770   5.171
  276SOL    HW2 1728   1.115   0.648   5.083
  277SOL     OW 1729   1.699   4.408   0.919
  277SOL    HW1 1730   1.794   4.405   0.949
  277SOL    HW2 1731   1.696   4.417   0.819
  278SOL     OW 1732   0.436   2.954   2.318
  278SOL    HW1 1733   0.491   2.908   2.389
  278SOL    HW2 1734   0.479   2.940   2.229
  279SOL     OW 1735   6.328   1.509   3.764
  279SOL    HW1 1736   6.377   1.556   3.838
  279SOL    HW2 1737   6.362   1.541   3.676
  280SOL     OW 1738   1.208   4.760   2.341
  280SOL    HW1 1739   1.282   4.777   2.276
  280SOL    HW2 1740   1.147   4.840   2.343
  281SOL     OW 1741   2.296   4.495   1.572
  281SOL    HW1 1742   2.293   4.418   1.509
  281SOL    HW2 1743   2.308   4.580   1.520
  282SOL     OW 1744   2.652   1.637   6.086
  282SOL    HW1 1745   2.683   1.696   6.161
  282SOL    HW2 1746   2.729   1.617   6.026
  283SOL     OW 1747   3.696   2.147   5.412
  283SOL    HW1 1748   3.651   2.088   5.345
  283SOL    HW2 1749   3.634   2.220   5.440
  284SOL     OW 1750   1.380   3.882   4.191
  284SOL    HW1 1751   1.351   3.975   4.167
  284SOL    HW2 1752   1.367   3.822   4.111
  285SOL     OW 1753   5.227   4.677   4.352
  285SOL    HW1 1754   5.285   4.605   4.314
  285SOL    HW2 1755   5.154   4.636   4.406
  286SOL     OW 1756   3.086   3.727   6.991
  286SOL    HW1 1757   2.990   3.712   7.014
  286SOL    HW2 1758   3.102   3.701   6.896
  287SOL     OW 1759   1.513   3.034   0.352
  287SOL    HW1 1760   1.548   3.077   0.269
  287SOL    HW2 1761   1.562   3.070   0.432
  288SOL     OW 1762   4.739   3.442   0.898
  288SOL    HW1 1763   4.643   3.452   0.871
  288SOL    HW2 1764   4.770   3.525   0.942
  289SOL     OW 1765   3.668   5.415   6.379
  289SOL    HW1 1766   3.663   5.336   6.318
  289SOL    HW2 1767   3.670   5.499   6.325
  290SOL     OW 1768   1.555   1.106   4.683
  290SOL    HW1 1769   1.624   1.175   4.661
  290SOL    HW2 1770   1.566   1.075   4.777
  291SOL     OW 1771   6.766   2.294   2.203
  291SOL    HW1 1772   6.801   2.217   2.257
  291SOL    HW2 1773   6.737   2.261   2.113
  292SOL     OW 1774   2.890   6.985   4.033
  292SOL    HW1 1775   2.920   6.918   3.965
  292SOL    HW2 1776   2.791   6.976   4.047
  293SOL     OW 1777   3.280   4.935   3.971
  293SOL    HW1 1778   3.223   4.888   4.038
  293SOL    HW2 1779   3.244   4.918   3.879
  294SOL     OW 1780   4.328   0.656   0.231
  294SOL    HW1 1781   4.339   0.605   0.145
  294SOL    HW2 1782   4.360   0.600   0.307
  295SOL     OW 1783   5.473   0.052   3.292
  295SOL    HW1 1784   5.512   0.020   3.206
  295SOL    HW2 1785   5.522   0.134   3.324
  296SOL     OW 1786   2.523   2.021   3.109
  296SOL    HW1 1787   2.477   2.042   3.023
  296SOL    HW2 1788   2.609   2.073   3.115
  297SOL     OW 1789   1.626   5.140   2.237
  297SOL    HW1 1790   1.671   5.228   2.223
  297SOL    HW2 1791   1.627   5.088   2.152
  298SOL     OW 1792   6.402   5.014   0.634
  298SOL    HW1 1793   6.338   5.081   0.673
  298SOL    HW2 1794   6.454   5.057   0.561
  299SOL     OW 1795   5.751   2.742   4.503
  299SOL    HW1 1796   5.743   2.646   4.478
  299SOL    HW2 1797   5.847   2.767   4.513
  300SOL     OW 1798   6.950   0.078   2.350
  300SOL    HW1 1799   6.872   0.100   2.292
  300SOL    HW2 1800   0.011   0.059   2.293
  301SOL     OW 1801   4.175   2.761   5.753
  301SOL    HW1 1802   4.170   2.861   5.748
  301SOL    HW2 1803   4.236   2.727   5.682
  302SOL     OW 1804   0.612   6.388   4.008
  302SOL    HW1 1805   0.613   6.419   4.103
  302SOL    HW2 1806   0.700   6.406   3.966
  303SOL     OW 1807   6.060   6.651   2.604
  303SOL    HW1 1808   6.078   6.748   2.591
  303SOL    HW2 1809   6.133   6.610   2.658
  304SOL     OW 1810   3.636   6.574   3.951
  304SOL    HW1 1811   3.709   6.610   4.010
  304SOL    HW2 1812   3.664   6.485   3.914
  305SOL     OW 1813   1.519   4.188   1.447
  305SOL    HW1 1814   1.557   4.113   1.501
  305SOL    HW2 1815   1.472   4.150   1.367
  306SOL     OW 1816   2.228   0.618   3.335
  306SOL    HW1 1817   2.149   0.663   3.292
  306SOL    HW2 1818   2.277   0.683   3.393
  307SOL     OW 1819   3.006   0.045   1.925
  307SOL    HW1 1820   2.973   0.139   1.932
  307SOL    HW2 1821   3.102   0.041   1.952
  308SOL     OW 1822   1.098   4.990   4.116
  308SOL    HW1 1823   1.147   5.066   4.159
  308SOL    HW2 1824   1.053   5.022   4.033
  309SOL     OW 1825   3.326   4.895   5.230
  309SOL    HW1 1826   3.241   4.948   5.231
  309SOL    HW2 1827   3.384   4.928   5.155
  310SOL     OW 1828   1.190   5.531   6.400
  310SOL    HW1 1829   1.145   5.620   6.405
  310SOL    HW2 1830   1.289   5.543   6.397
  311SOL     OW 1831   0.046   0.628   1.407
  311SOL    HW1 1832   7.005   0.560   1.449
  311SOL    HW2 1833   0.137   0.589   1.394
  312SOL     OW 1834   3.763   1.325   5.159
  312SOL    HW1 1835   3.677   1.278   5.180
  312SOL    HW2 1836   3.749   1.424   5.162
  313SOL     OW 1837   0.252   4.926   0.530
  313SOL    HW1 1838   0.266   5.024   0.522
  313SOL    HW2 1839   0.293   4.880   0.452
  314SOL     OW 1840   3.217   6.142   1.549
  314SOL    HW1 1841   3.199   6.056   1.502
  314SOL    HW2 1842   3.268   6.124   1.633
  315SOL     OW 1843   0.829   3.314   2.662
  315SOL    HW1 1844   0.830   3.276   2.754
  315SOL    HW2 1845   0.907   3.280   2.610
  316SOL     OW 1846   2.041   3.593   4.941
  316SOL    HW1 1847   2.094   3.561   5.020
  316SOL    HW2 1848   1.945   3.604   4.968
  317SOL     OW 1849   6.361   1.003   6.984
  317SOL    HW1 1850   6.455   1.035   6.975
  317SOL    HW2 1851   6.359   0.905   7.000
  318SOL     OW 1852   2.354   4.643   1.354
  318SOL    HW1 1853   2.402   4.562   1.322
  318SOL    HW2 1854   2.367   4.718   1.288
  319SOL     OW 1855   1.504   0.249   6.984
  319SOL    HW1 1856   1.587   0.281   6.939
  319SOL    HW2 1857   1.448   0.328   7.011
  320SOL     OW 1858   5.477   3.274   0.586
  320SOL    HW1 1859   5.542   3.299   0.515
  320SOL    HW2 1860   5.527   3.238   0.665
  321SOL     OW 1861   2.386   1.312   2.153
  321SOL    HW1 1862   2.352   1.326   2.060
  321SOL    HW2 1863   2.471   1.259   2.150
  322SOL     OW 1864   3.183   2.029   5.634
  322SOL    HW1 1865   3.110   1.977   5.589
  322SOL    HW2 1866   3.260   2.040   5.571
  323SOL     OW 1867   0.239   4.438   1.904
  323SOL    HW1 1868   0.331   4.429   1.941
  323SOL    HW2 1869   0.240   4.420   1.806
  324SOL     OW 1870   0.500   3.042   4.529
  324SOL    HW1 1871   0.434   3.113   4.504
  324SOL    HW2 1872   0.503   3.033   4.628
  325SOL     OW 1873   2.366   2.385   2.757
  325SOL    HW1 1874   2.436   2.382   2.829
  325SOL    HW2 1875   2.372   2.301   2.702
  326SOL     OW 1876   2.024   4.739   5.196
  326SOL    HW1 1877   1.983   4.687   5.122
  326SOL    HW2 1878   2.116   4.705   5.213
  327SOL     OW 1879   5.978   5.006   6.235
  327SOL    HW1 1880   6.033   5.008   6.319
  327SOL    HW2 1881   6.033   5.042   6.159
  328SOL     OW 1882   3.632   5.674   1.548
  328SOL    HW1 1883   3.634   5.766   1.588
  328SOL    HW2 1884   3.688   5.673   1.465
  329SOL     OW 1885   3.059   3.826   2.573
  329SOL    HW1 1886   3.082   3.904   2.632
  329SOL    HW2 1887   2.988   3.771   2.617
  330SOL     OW 1888   2.719   1.997   1.700
  330SOL    HW1 1889   2.748   2.032   1.611
  330SOL    HW2 1890   2.706   2.073   1.763
  331SOL     OW 1891   5.891   4.310   5.533
  331SOL    HW1 1892   5.860   4.230   5.482
  331SOL    HW2 1893   5.904   4.285   5.629
  332SOL     OW 1894   4.182   2.265   3.369
  332SOL    HW1 1895   4.269   2.313   3.379
  332SOL    HW2 1896   4.186   2.178   3.418
  333SOL     OW 1897   4.356   6.178   0.611
  333SOL    HW1 1898   4.452   6.199   0.594
  333SOL    HW2 1899   4.349   6.085   0.647
  334SOL     OW 1900   5.011   6.413   2.534
  334SOL    HW1 1901   5.047   6.320   2.539
  334SOL    HW2 1902   5.061   6.471   2.598
  335SOL     OW 1903   3.736   6.665   2.855
  335SOL    HW1 1904   3.786   6.617   2.927
  335SOL    HW2 1905   3.644   6.688   2.886
  336SOL     OW 1906   3.704   6.984   4.980
  336SOL    HW1 1907   3.710   6.981   5.080
  336SOL    HW2 1908   3.614   7.017   4.953
  337SOL     OW 1909   0.045   4.190   1.813
  337SOL    HW1 1910   0.078   4.152   1.899
  337SOL    HW2 1911   0.107   4.262   1.782
  338SOL     OW 1912   2.561   2.318   1.622
  338SOL    HW1 1913   2.652   2.284   1.645
  338SOL    HW2 1914   2.507   2.328   1.706
  339SOL     OW 1915   4.684   1.246   3.091
  339SOL    HW1 1916   4.678   1.235   2.992
  339SOL    HW2 1917   4.631   1.175   3.136
  340SOL     OW 1918   4.941   4.290   4.626
  340SOL    HW1 1919   4.933   4.220   4.555
  340SOL    HW2 1920   4.876   4.364   4.608
  341SOL     OW 1921   4.623   4.976   5.656
  341SOL    HW1 1922   4.716   4.976   5.618
  341SOL    HW2 1923   4.568   4.908   5.607
  342SOL     OW 1924   5.603   3.879   0.236
  342SOL    HW1 1925   5.514   3.843   0.265
  342SOL    HW2 1926   5.654   3.808   0.190
  343SOL     OW 1927   2.186   0.566   2.438
  343SOL    HW1 1928   2.229   0.510   2.509
  343SOL    HW2 1929   2.205   0.526   2.349
  344SOL     OW 1930   3.737   5.921   0.099
  344SOL    HW1 1931   3.728   5.991   0.028
  344SOL    HW2 1932   3.796   5.847   0.066
  345SOL     OW 1933   1.355   1.172   6.206
  345SOL    HW1 1934   1.379   1.126   6.291
  345SOL    HW2 1935   1.280   1.236   6.222
  346SOL     OW 1936   3.380   0.805   4.211
  346SOL    HW1 1937   3.327   0.792   4.295
  346SOL    HW2 1938   3.468   0.759   4.219
  347SOL     OW 1939   4.440   6.935   5.610
  347SOL    HW1 1940   4.538   6.917   5.607
  347SOL    HW2 1941   4.391   6.848   5.619
  348SOL     OW 1942   2.518   6.224   2.645
  348SOL    HW1 1943   2.571   6.238   2.729
  348SOL    HW2 1944   2.550   6.289   2.575
  349SOL     OW 1945   2.780   5.033   1.969
  349SOL    HW1 1946   2.729   5.115   1.995
  349SOL    HW2 1947   2.817   4.989   2.052
  350SOL     OW 1948   4.329   3.290   1.024
  350SOL    HW1 1949   4.356   3.369   0.969
  350SOL    HW2 1950   4.266   3.233   0.971
  351SOL     OW 1951   2.818   1.820   0.674
  351SOL    HW1 1952   2.792   1.916   0.673
  351SOL    HW2 1953   2.738   1.764   0.698
  352SOL     OW 1954   3.125   1.419   5.969
  352SOL    HW1 1955   3.051   1.368   6.014
  352SOL    HW2 1956   3.120   1.515   5.998
  353SOL     OW 1957   2.070   0.148   1.544
  353SOL    HW1 1958   2.069   0.052   1.518
  353SOL    HW2 1959   2.125   0.200   1.478
  354SOL     OW 1960   4.939   0.868   2.498
  354SOL    HW1 1961   4.974   0.819   2.418
  354SOL    HW2 1962   4.957   0.813   2.580
  355SOL     OW 1963   1.554   1.187   1.755
  355SOL    HW1 1964   1.513   1.189   1.664
  355SOL    HW2 1965   1.616   1.265   1.765
  356SOL     OW 1966   4.044   6.397   2.927
  356SOL    HW1 1967   3.959   6.384   2.979
  356SOL    HW2 1968   4.035   6.351   2.838
  357SOL     OW 1969   1.288   4.727   5.700
  357SOL    HW1 1970   1.317   4.657   5.635
  357SOL    HW2 1971   1.355   4.802   5.701
  358SOL     OW 1972   5.319   1.182   3.497
  358SOL    HW1 1973   5.230   1.213   3.532
  358SOL    HW2 1974   5.364   1.258   3.450
  359SOL     OW 1975   0.816   2.032   0.134
  359SOL    HW1 1976   0.831   2.101   0.063
  359SOL    HW2 1977   0.729   2.050   0.181
  360SOL     OW 1978   5.356   0.063   0.266
  360SOL    HW1 1979   5.382   0.153   0.301
  360SOL    HW2 1980   5.435   0.021   0.221
  361SOL     OW 1981   3.643   1.034   3.198
  361SOL    HW1 1982   3.642   0.973   3.277
  361SOL    HW2 1983   3.605   0.987   3.119
  362SOL     OW 1984   2.736   3.824   1.229
  362SOL    HW1 1985   2.648   3.796   1.268
  362SOL    HW2 1986   2.808   3.815   1.298
  363SOL     OW 1987   4.544   4.603   3.722
  363SOL    HW1 1988   4.597   4.531   3.678
  363SOL    HW2 1989   4.590   4.631   3.806
  364SOL     OW 1990   2.163   5.806   6.538
  364SOL    HW1 1991   2.251   5.832   6.499
  364SOL    HW2 1992   2.171   5.716   6.581
  365SOL     OW 1993   4.858   0.059   2.936
  365SOL    HW1 1994   4.875   0.065   2.838
  365SOL    HW2 1995   4.796   0.131   2.964
  366SOL     OW 1996   5.127   1.067   0.694
  366SOL    HW1 1997   5.115   1.129   0.616
  366SOL    HW2 1998   5.159   1.118   0.773
  367SOL     OW 1999   4.414   1.953   2.207
  367SOL    HW1 2000   4.364   1.902   2.278
  367SOL    HW2 2001   4.357   1.960   2.125
  368SOL     OW 2002   1.758   5.272   5.849
  368SOL    HW1 2003   1.684   5.211   5.878
  368SOL    HW2 2004   1.765   5.271   5.749
  369SOL     OW 2005   0.490   3.551   1.530
  369SOL    HW1 2006   0.485   3.550   1.430
  369SOL    HW2 2007   0.547   3.476   1.561
  370SOL     OW 2008   3.580   1.659   0.063
  370SOL    HW1 2009   3.526   1.719   0.122
  370SOL    HW2 2010   3.518   1.602   0.008
  371SOL     OW 2011   3.482   2.958   6.243
  371SOL    HW1 2012   3.389   2.993   6.230
  371SOL    HW2 2013   3.526   3.006   6.318
  372SOL     OW 2014   2.202   5.120   0.128
  372SOL    HW1 2015   2.130   5.154   0.067
  372SOL    HW2 2016   2.209   5.181   0.207
  373SOL     OW 2017   6.294   6.794   6.625
  373SOL    HW1 2018   6.385   6.820   6.657
  373SOL    HW2 2019   6.226   6.817   6.694
  374SOL     OW 2020   4.490   0.666   1.347
  374SOL    HW1 2021   4.419   0.608   1.387
  374SOL    HW2 2022   4.551   0.610   1.291
  375SOL     OW 2023   6.547   4.200   0.727
  375SOL    HW1 2024   6.629   4.234   0.774
  375SOL    HW2 2025   6.466   4.235   0.772
  376SOL     OW 2026   1.916   4.054   4.789
  376SOL    HW1 2027   1.884   4.147   4.804
  376SOL    HW2 2028   1.897   3.998   4.870
  377SOL     OW 2029   4.595   1.584   4.801
  377SOL    HW1 2030   4.674   1.563   4.743
  377SOL    HW2 2031   4.577   1.682   4.799
  378SOL     OW 2032   5.203   2.403   5.144
  378SOL    HW1 2033   5.156   2.381   5.058
  378SOL    HW2 2034   5.284   2.457   5.124
  379SOL     OW 2035   6.927   2.658   1.851
  379SOL    HW1 2036   6.996   2.689   1.785
  379SOL    HW2 2037   6.907   2.562   1.835
  380SOL     OW 2038   1.305   1.870   6.854
  380SOL    HW1 2039   1.333   1.775   6.844
  380SOL    HW2 2040   1.276   1.886   6.948
  381SOL     OW 2041   3.959   5.078   0.622
  381SOL    HW1 2042   3.962   5.117   0.530
  381SOL    HW2 2043   4.037   5.016   0.634
  382SOL     OW 2044   2.655   5.553   0.377
  382SOL    HW1 2045   2.603   5.612   0.440
  382SOL    HW2 2046   2.595   5.485   0.337
  383SOL     OW 2047   6.248   1.679   0.045
  383SOL    HW1 2048   6.238   1.713   0.139
  383SOL    HW2 2049   6.162   1.638   0.015
  384SOL     OW 2050   1.675   5.261   5.569
  384SOL    HW1 2051   1.616   5.223   5.498
  384SOL    HW2 2052   1.620   5.316   5.632
  385SOL     OW 2053   4.679   5.437   2.006
  385SOL    HW1 2054   4.723   5.360   1.960
  385SOL    HW2 2055   4.674   5.418   2.104
  386SOL     OW 2056   2.723   6.252   4.506
  386SOL    HW1 2057   2.723   6.160   4.544
  386SOL    HW2 2058   2.629   6.284   4.494
  387SOL     OW 2059   6.689   0.488   6.175
  387SOL    HW1 2060   6.692   0.588   6.177
  387SOL    HW2 2061   6.779   0.452   6.151
  388SOL     OW 2062   6.989   1.897   4.403
  388SOL    HW1 2063   0.038   1.838   4.447
  388SOL    HW2 2064   0.014   1.954   4.335
  389SOL     OW 2065   5.102   3.873   1.921
  389SOL    HW1 2066   5.100   3.945   1.851
  389SOL    HW2 2067   5.193   3.868   1.961
  390SOL     OW 2068   4.134   2.821   6.513
  390SOL    HW1 2069   4.060   2.852   6.573
  390SOL    HW2 2070   4.114   2.729   6.479
  391SOL     OW 2071   4.099   3.784   3.548
  391SOL    HW1 2072   4.058   3.874   3.563
  391SOL    HW2 2073   4.137   3.750   3.634
  392SOL     OW 2074   1.897   3.872   1.576
  392SOL    HW1 2075   1.852   3.961   1.586
  392SOL    HW2 2076   1.996   3.884   1.583
  393SOL     OW 2077   1.453   5.912   1.620
  393SOL    HW1 2078   1.402   5.848   1.563
  393SOL    HW2 2079   1.550   5.887   1.620
  394SOL     OW 2080   6.099   1.247   6.409
  394SOL    HW1 2081   6.153   1.226   6.491
  394SOL    HW2 2082   6.115   1.176   6.340
  395SOL     OW 2083   5.892   4.228   6.744
  395SOL    HW1 2084   5.843   4.302   6.697
  395SOL    HW2 2085   5.978   4.210   6.696
  396SOL     OW 2086   1.096   0.765   1.375
  396SOL    HW1 2087   1.010   0.800   1.413
  396SOL    HW2 2088   1.089   0.666   1.363
  397SOL     OW 2089   4.483   2.451   4.488
  397SOL    HW1 2090   4.423   2.471   4.411
  397SOL    HW2 2091   4.435   2.388   4.551
  398SOL     OW 2092   0.188   1.562   3.186
  398SOL    HW1 2093   0.269   1.609   3.220
  398SOL    HW2 2094   0.188   1.468   3.218
  399SOL     OW 2095   5.714   5.984   3.676
  399SOL    HW1 2096   5.722   6.067   3.731
  399SOL    HW2 2097   5.648   5.999   3.602
  400SOL     OW 2098   0.038   6.443   3.264
  400SOL    HW1 2099   6.958   6.457   3.271
  400SOL    HW2 2100   0.084   6.491   3.339
  401SOL     OW 2101   1.088   5.505   4.850
  401SOL    HW1 2102   1.126   5.591   4.816
  401SOL    HW2 2103   1.162   5.447   4.883
  402SOL     OW 2104   5.737   1.572   4.092
  402SOL    HW1 2105   5.832   1.550   4.070
  402SOL    HW2 2106   5.726   1.671   4.098
  403SOL     OW 2107   2.933   1.727   4.546
  403SOL    HW1 2108   3.008   1.696   4.487
  403SOL    HW2 2109   2.888   1.806   4.504
  404SOL     OW 2110   2.897   5.184   3.737
  404SOL    HW1 2111   2.992   5.164   3.762
  404SOL    HW2 2112   2.843   5.197   3.820
  405SOL     OW 2113   2.514   4.897   3.850
  405SOL    HW1 2114   2.528   4.911   3.948
  405SOL    HW2 2115   2.535   4.802   3.827
  406SOL     OW 2116   0.472   6.922   6.491
  406SOL    HW1 2117   0.572   6.912   6.494
  406SOL    HW2 2118   0.445   6.956   6.402
  407SOL     OW 2119   2.137   3.713   3.968
  407SOL    HW1 2120   2.203   3.664   3.912
  407SOL    HW2 2121   2.068   3.649   4.003
  408SOL     OW 2122   2.602   2.444   2.091
  408SOL    HW1 2123   2.698   2.415   2.098
  408SOL    HW2 2124   2.598   2.543   2.073
  409SOL     OW 2125   0.275   2.783   2.547
  409SOL    HW1 2126   0.261   2.703   2.489
  409SOL    HW2 2127   0.271   2.866   2.492
  410SOL     OW 2128   1.827   3.132   1.894
  410SOL    HW1 2129   1.735   3.145   1.933
  410SOL    HW2 2130   1.892   3.191   1.942
  411SOL     OW 2131   0.018   1.830   0.441
  411SOL    HW1 2132   0.076   1.834   0.522
  411SOL    HW2 2133   7.010   1.923   0.415
  412SOL     OW 2134   1.484   4.910   2.689
  412SOL    HW1 2135   1.434   4.828   2.664
  412SOL    HW2 2136   1.432   4.991   2.660
  413SOL     OW 2137   6.055   4.568   1.932
  413SOL    HW1 2138   6.024   4.487   1.882
  413SOL    HW2 2139   6.102   4.630   1.870
  414SOL     OW 2140   2.390   6.397   3.266
  414SOL    HW1 2141   2.480   6.372   3.232
  414SOL    HW2 2142   2.394   6.417   3.364
  415SOL     OW 2143   5.664   2.237   0.215
  415SOL    HW1 2144   5.723   2.316   0.233
  415SOL    HW2 2145   5.680   2.203   0.122
  416SOL     OW 2146   5.687   2.957   6.169
  416SOL    HW1 2147   5.618   2.937   6.238
  416SOL    HW2 2148   5.768   2.997   6.212
  417SOL     OW 2149   2.389   2.616   5.635
  417SOL    HW1 2150   2.371   2.567   5.549
  417SOL    HW2 2151   2.488   2.623   5.648
  418SOL     OW 2152   3.643   6.077   6.011
  418SOL    HW1 2153   3.550   6.098   5.981
  418SOL    HW2 2154   3.669   6.138   6.086
  419SOL     OW 2155   5.612   1.044   6.994
  419SOL    HW1 2156   5.602   1.036   0.074
  419SOL    HW2 2157   5.524   1.066   6.953
  420SOL     OW 2158   3.364   6.666   1.079
  420SOL    HW1 2159   3.399   6.745   1.029
  420SOL    HW2 2160   3.397   6.582   1.035
  421SOL     OW 2161   4.797   4.123   2.544
  421SOL    HW1 2162   4.758   4.064   2.473
  421SOL    HW2 2163   4.724   4.156   2.604
  422SOL     OW 2164   3.892   1.731   1.834
  422SOL    HW1 2165   3.912   1.784   1.753
  422SOL    HW2 2166   3.974   1.723   1.891
  423SOL     OW 2167   3.128   0.993   6.236
  423SOL    HW1 2168   3.190   0.977   6.160
  423SOL    HW2 2169   3.163   0.948   6.319
  424SOL     OW 2170   1.867   3.875   4.595
  424SOL    HW1 2171   1.882   3.931   4.676
  424SOL    HW2 2172   1.901   3.923   4.514
  425SOL     OW 2173   3.384   1.329   0.151
  425SOL    HW1 2174   3.455   1.270   0.113
  425SOL    HW2 2175   3.398   1.338   0.249
  426SOL     OW 2176   2.214   1.952   3.743
  426SOL    HW1 2177   2.255   1.980   3.830
  426SOL    HW2 2178   2.273   1.981   3.668
  427SOL     OW 2179   4.461   1.462   3.886
  427SOL    HW1 2180   4.380   1.457   3.827
  427SOL    HW2 2181   4.469   1.554   3.923
  428SOL     OW 2182   2.296   2.032   6.559
  428SOL    HW1 2183   2.245   2.104   6.606
  428SOL    HW2 2184   2.270   1.943   6.596
  429SOL     OW 2185   0.191   6.378   3.520
  429SOL    HW1 2186   0.261   6.307   3.508
  429SOL    HW2 2187   0.222   6.462   3.477
  430SOL     OW 2188   2.201   1.021   3.534
  430SOL    HW1 2189   2.172   0.970   3.452
  430SOL    HW2 2190   2.288   0.983   3.567
  431SOL     OW 2191   2.863   1.098   1.699
  431SOL    HW1 2192   2.829   1.153   1.623
  431SOL    HW2 2193   2.946   1.139   1.735
  432SOL     OW 2194   4.839   2.058   1.403
  432SOL    HW1 2195   4.785   2.012   1.472
  432SOL    HW2 2196   4.927   2.011   1.392
  433SOL     OW 2197   2.087   4.560   0.413
  433SOL    HW1 2198   2.130   4.480   0.370
  433SOL    HW2 2199   2.017   4.597   0.352
  434SOL     OW 2200   4.240   5.573   2.743
  434SOL    HW1 2201   4.219   5.500   2.678
  434SOL    HW2 2202   4.158   5.594   2.797
  435SOL     OW 2203   3.257   2.507   6.159
  435SOL    HW1 2204   3.283   2.473   6.069
  435SOL    HW2 2205   3.164   2.477   6.180
  436SOL     OW 2206   5.717   6.351   2.290
  436SOL    HW1 2207   5.644   6.323   2.229
  436SOL    HW2 2208   5.691   6.433   2.340
  437SOL     OW 2209   0.034   0.922   5.303
  437SOL    HW1 2210   0.079   0.944   5.216
  437SOL    HW2 2211   6.967   0.875   5.285
  438SOL     OW 2212   0.720   4.328   2.369
  438SOL    HW1 2213   0.788   4.258   2.348
  438SOL    HW2 2214   0.731   4.406   2.307
  439SOL     OW 2215   0.566   0.562   6.095
  439SOL    HW1 2216   0.652   0.609   6.119
  439SOL    HW2 2217   0.537   0.505   6.172
  440SOL     OW 2218   3.814   2.018   0.933
  440SOL    HW1 2219   3.826   1.920   0.942
  440SOL    HW2 2220   3.775   2.056   1.017
  441SOL     OW 2221   0.332   4.885   2.354
  441SOL    HW1 2222   0.298   4.844   2.439
  441SOL    HW2 2223   0.255   4.921   2.301
  442SOL     OW 2224   3.489   3.277   4.850
  442SOL    HW1 2225   3.500   3.373   4.822
  442SOL    HW2 2226   3.576   3.242   4.884
  443SOL     OW 2227   4.709   2.628   3.207
  443SOL    HW1 2228   4.637   2.580   3.158
  443SOL    HW2 2229   4.755   2.564   3.269
  444SOL     OW 2230   4.507   2.433   1.419
  444SOL    HW1 2231   4.432   2.440   1.485
  444SOL    HW2 2232   4.594   2.440   1.467
  445SOL     OW 2233   2.439   5.607   2.906
  445SOL    HW1 2234   2.406   5.520   2.868
  445SOL    HW2 2235   2.371   5.678   2.889
  446SOL     OW 2236   6.204   6.864   0.798
  446SOL    HW1 2237   6.165   6.860   0.706
  446SOL    HW2 2238   6.258   6.948   0.807
  447SOL     OW 2239   6.115   3.865   6.901
  447SOL    HW1 2240   6.109   3.793   6.831
  447SOL    HW2 2241   6.171   3.941   6.866
  448SOL     OW 2242   3.485   6.166   3.725
  448SOL    HW1 2243   3.426   6.092   3.759
  448SOL    HW2 2244   3.432   6.225   3.663
  449SOL     OW 2245   0.624   4.194   4.656
  449SOL    HW1 2246   0.646   4.114   4.601
  449SOL    HW2 2247   0.635   4.172   4.753
  450SOL     OW 2248   6.893   4.119   2.944
  450SOL    HW1 2249   6.981   4.078   2.920
  450SOL    HW2 2250   6.909   4.211   2.982
  451SOL     OW 2251   2.015   2.031   0.025
  451SOL    HW1 2252   1.929   2.080   0.010
  451SOL    HW2 2253   2.067   2.075   0.098
  452SOL     OW 2254   4.180   5.602   1.894
  452SOL    HW1 2255   4.110   5.532   1.883
  452SOL    HW2 2256   4.267   5.569   1.856
  453SOL     OW 2257   4.741   0.715   0.325
  453SOL    HW1 2258   4.794   0.777   0.383
  453SOL    HW2 2259   4.788   0.703   0.238
  454SOL     OW 2260   6.884   3.282   4.133
  454SOL    HW1 2261   6.976   3.257   4.161
  454SOL    HW2 2262   6.818   3.219   4.174
  455SOL     OW 2263   5.579   5.273   6.989
  455SOL    HW1 2264   5.649   5.237   6.928
  455SOL    HW2 2265   5.489   5.261   6.947
  456SOL     OW 2266   1.609   0.758   2.975
  456SOL    HW1 2267   1.559   0.745   2.889
  456SOL    HW2 2268   1.703   0.785   2.955
  457SOL     OW 2269   2.895   5.896   0.171
  457SOL    HW1 2270   2.877   5.847   0.257
  457SOL    HW2 2271   2.964   5.967   0.187
  458SOL     OW 2272   3.701   1.215   3.671
  458SOL    HW1 2273   3.684   1.244   3.577
  458SOL    HW2 2274   3.799   1.199   3.683
  459SOL     OW 2275   2.803   1.069   3.292
  459SOL    HW1 2276   2.741   1.133   3.337
  459SOL    HW2 2277   2.761   1.036   3.207
  460SOL     OW 2278   0.892   1.323   6.878
  460SOL    HW1 2279   0.945   1.298   6.797
  460SOL    HW2 2280   0.797   1.295   6.866
  461SOL     OW 2281   1.206   6.837   5.476
  461SOL    HW1 2282   1.212   6.761   5.412
  461SOL    HW2 2283   1.274   6.825   5.548
  462SOL     OW 2284   3.726   4.007   5.046
  462SOL    HW1 2285   3.798   4.036   5.108
  462SOL    HW2 2286   3.756   3.928   4.993
  463SOL     OW 2287   5.110   6.327   2.892
  463SOL    HW1 2288   5.052   6.248   2.910
  463SOL    HW2 2289   5.110   6.387   2.972
  464SOL     OW 2290   4.342   6.071   5.148
  464SOL    HW1 2291   4.292   6.108   5.070
  464SOL    HW2 2292   4.310   6.114   5.232
  465SOL     OW 2293   0.046   4.701   6.980
  465SOL    HW1 2294   0.059   4.738   0.053
  465SOL    HW2 2295   0.119   4.636   6.959
  466SOL     OW 2296   4.044   4.855   4.188
  466SOL    HW1 2297   3.977   4.784   4.208
  466SOL    HW2 2298   4.132   4.830   4.230
  467SOL     OW 2299   6.612   0.153   1.611
  467SOL    HW1 2300   6.707   0.179   1.626
  467SOL    HW2 2301   6.600   0.056   1.634
  468SOL     OW 2302   2.332   5.711   6.318
  468SOL    HW1 2303   2.267   5.652   6.364
  468SOL    HW2 2304   2.353   5.674   6.228
  469SOL     OW 2305   3.118   4.321   5.519
  469SOL    HW1 2306   3.039   4.286   5.469
  469SOL    HW2 2307   3.144   4.411   5.483
  470SOL     OW 2308   2.095   5.027   2.429
  470SOL    HW1 2309   2.110   5.057   2.524
  470SOL    HW2 2310   1.998   5.028   2.408
  471SOL     OW 2311   1.456   1.965   4.121
  471SOL    HW1 2312   1.394   1.887   4.114
  471SOL    HW2 2313   1.522   1.949   4.195
  472SOL     OW 2314   5.554   4.070   6.333
  472SOL    HW1 2315   5.612   3.993   6.306
  472SOL    HW2 2316   5.585   4.153   6.287
  473SOL     OW 2317   5.362   2.867   2.355
  473SOL    HW1 2318   5.358   2.782   2.304
  473SOL    HW2 2319   5.332   2.851   2.449
  474SOL     OW 2320   4.882   5.629   3.197
  474SOL    HW1 2321   4.804   5.593   3.249
  474SOL    HW2 2322   4.932   5.553   3.155
  475SOL     OW 2323   4.878   1.396   0.396
  475SOL    HW1 2324   4.974   1.377   0.373
  475SOL    HW2 2325   4.861   1.374   0.492
  476SOL     OW 2326   1.033   3.421   0.186
  476SOL    HW1 2327   1.076   3.492   0.241
  476SOL    HW2 2328   0.935   3.439   0.178
  477SOL     OW 2329   6.342   5.436   3.505
  477SOL    HW1 2330   6.243   5.422   3.507
  477SOL    HW2 2331   6.377   5.440   3.598
  478SOL     OW 2332   6.324   5.293   2.346
  478SOL    HW1 2333   6.377   5.375   2.326
  478SOL    HW2 2334   6.387   5.218   2.368
  479SOL     OW 2335   3.029   3.802   3.056
  479SOL    HW1 2336   2.972   3.865   3.109
  479SOL    HW2 2337   3.116   3.846   3.034
  480SOL     OW 2338   0.778   0.756   1.728
  480SOL    HW1 2339   0.784   0.686   1.657
  480SOL    HW2 2340   0.733   0.718   1.808
  481SOL     OW 2341   5.647   6.017   1.114
  481SOL    HW1 2342   5.608   6.107   1.096
  481SOL    HW2 2343   5.745   6.018   1.092
  482SOL     OW 2344   3.880   5.241   2.738
  482SOL    HW1 2345   3.857   5.300   2.661
  482SOL    HW2 2346   3.979   5.242   2.753
  483SOL     OW 2347   6.355   0.484   4.008
  483SOL    HW1 2348   6.401   0.551   4.066
  483SOL    HW2 2349   6.371   0.507   3.912
  484SOL     OW 2350   2.119   4.727   3.392
  484SOL    HW1 2351   2.098   4.632   3.368
  484SOL    HW2 2352   2.057   4.787   3.342
  485SOL     OW 2353   4.883   2.557   0.795
  485SOL    HW1 2354   4.879   2.591   0.701
  485SOL    HW2 2355   4.965   2.594   0.840
  486SOL     OW 2356   6.049   6.471   5.465
  486SOL    HW1 2357   6.032   6.510   5.555
  486SOL    HW2 2358   6.144   6.440   5.460
  487SOL     OW 2359   6.979   0.891   6.553
  487SOL    HW1 2360   6.888   0.858   6.529
  487SOL    HW2 2361   6.983   0.911   6.651
  488SOL     OW 2362   1.981   5.690   3.114
  488SOL    HW1 2363   1.926   5.771   3.137
  488SOL    HW2 2364   2.053   5.678   3.181
  489SOL     OW 2365   2.800   4.557   5.466
  489SOL    HW1 2366   2.816   4.653   5.487
  489SOL    HW2 2367   2.809   4.543   5.367
  490SOL     OW 2368   1.486   3.326   4.979
  490SOL    HW1 2369   1.531   3.399   4.926
  490SOL    HW2 2370   1.556   3.268   5.020
  491SOL     OW 2371   6.015   3.519   0.918
  491SOL    HW1 2372   6.074   3.503   0.997
  491SOL    HW2 2373   6.035   3.609   0.879
  492SOL     OW 2374   1.583   2.446   5.793
  492SOL    HW1 2375   1.648   2.405   5.730
  492SOL    HW2 2376   1.521   2.375   5.828
  493SOL     OW 2377   1.657   5.454   3.690
  493SOL    HW1 2378   1.656   5.542   3.738
  493SOL    HW2 2379   1.714   5.461   3.609
  494SOL     OW 2380   2.730   0.516   4.028
  494SOL    HW1 2381   2.791   0.444   3.994
  494SOL    HW2 2382   2.636   0.481   4.031
  495SOL     OW 2383   3.559   4.810   6.844
  495SOL    HW1 2384   3.479   4.810   6.904
  495SOL    HW2 2385   3.641   4.787   6.897
  496SOL     OW 2386   5.051   1.112   3.081
  496SOL    HW1 2387   5.103   1.191   3.116
  496SOL    HW2 2388   5.099   1.074   3.003
  497SOL     OW 2389   4.602   2.810   1.025
  497SOL    HW1 2390   4.565   2.721   0.997
  497SOL    HW2 2391   4.673   2.838   0.961
  498SOL     OW 2392   0.557   0.386   1.120
  498SOL    HW1 2393   0.614   0.389   1.038
  498SOL    HW2 2394   0.584   0.459   1.182
  499SOL     OW 2395   2.934   6.872   0.105
  499SOL    HW1 2396   2.855   6.811   0.101
  499SOL    HW2 2397   3.018   6.818   0.109
  500SOL     OW 2398   5.920   1.771   6.377
  500SOL    HW1 2399   5.936   1.847   6.314
  500SOL    HW2 2400   5.821   1.756   6.386
  501SOL     OW 2401   1.620   1.905   4.339
  501SOL    HW1 2402   1.708   1.859   4.333
  501SOL    HW2 2403   1.568   1.868   4.416
  502SOL     OW 2404   2.502   3.325   6.787
  502SOL    HW1 2405   2.586   3.286   6.826
  502SOL    HW2 2406   2.520   3.357   6.694
  503SOL     OW 2407   3.498   4.905   1.139
  503SOL    HW1 2408   3.590   4.925   1.173
  503SOL    HW2 2409   3.492   4.808   1.117
  504SOL     OW 2410   6.515   6.942   0.224
  504SOL    HW1 2411   6.487   0.019   0.232
  504SOL    HW2 2412   6.533   6.905   0.315
  505SOL     OW 2413   6.598   3.920   5.703
  505SOL    HW1 2414   6.560   4.010   5.681
  505SOL    HW2 2415   6.642   3.923   5.793
  506SOL     OW 2416   2.815   5.490   2.550
  506SOL    HW1 2417   2.822   5.446   2.639
  506SOL    HW2 2418   2.744   5.445   2.496
  507SOL     OW 2419   2.983   0.148   3.094
  507SOL    HW1 2420   2.928   0.094   3.029
  507SOL    HW2 2421   2.924   0.216   3.138
  508SOL     OW 2422   0.302   5.405   3.903
  508SOL    HW1 2423   0.285   5.419   3.805
  508SOL    HW2 2424   0.232   5.344   3.941
  509SOL     OW 2425   4.480   0.305   5.906
  509SOL    HW1 2426   4.507   0.345   5.819
  509SOL    HW2 2427   4.476   0.377   5.975
  510SOL     OW 2428   6.693   4.599   6.928
  510SOL    HW1 2429   6.661   4.620   6.835
  510SOL    HW2 2430   6.748   4.675   6.962
  511SOL     OW 2431   1.058   1.024   0.131
  511SOL    HW1 2432   1.055   1.121   0.153
  511SOL    HW2 2433   1.062   1.011   0.032
  512SOL     OW 2434   0.805   2.083   4.254
  512SOL    HW1 2435   0.747   2.058   4.177
  512SOL    HW2 2436   0.748   2.126   4.325
  513SOL     OW 2437   5.746   6.311   2.622
  513SOL    HW1 2438   5.655   6.285   2.592
  513SOL    HW2 2439   5.747   6.408   2.647
  514SOL     OW 2440   4.796   1.612   4.589
  514SOL    HW1 2441   4.858   1.541   4.555
  514SOL    HW2 2442   4.825   1.701   4.554
  515SOL     OW 2443   3.330   0.963   0.026
  515SOL    HW1 2444   3.412   1.009   7.012
  515SOL    HW2 2445   3.345   0.864   0.029
  516SOL     OW 2446   1.054   5.927   2.041
  516SOL    HW1 2447   1.101   5.891   1.961
  516SOL    HW2 2448   1.106   6.003   2.080
  517SOL     OW 2449   3.409   4.662   1.385
  517SOL    HW1 2450   3.327   4.709   1.352
  517SOL    HW2 2451   3.437   4.701   1.472
  518SOL     OW 2452   2.556   6.333   3.937
  518SOL    HW1 2453   2.599   6.245   3.960
  518SOL    HW2 2454   2.621   6.389   3.886
  519SOL     OW 2455   6.675   0.459   2.711
  519SOL    HW1 2456   6.739   0.398   2.757
  519SOL    HW2 2457   6.716   0.493   2.626
  520SOL     OW 2458   2.351   5.692   0.835
  520SOL    HW1 2459   2.350   5.593   0.819
  520SOL    HW2 2460   2.322   5.711   0.929
  521SOL     OW 2461   6.556   6.172   5.492
  521SOL    HW1 2462   6.637   6.197   5.547
  521SOL    HW2 2463   6.579   6.178   5.395
  522SOL     OW 2464   3.867   4.817   6.705
  522SOL    HW1 2465   3.907   4.872   6.632
  522SOL    HW2 2466   3.900   4.850   6.793
  523SOL     OW 2467   1.937   6.774   6.032
  523SOL    HW1 2468   1.911   6.705   5.965
  523SOL    HW2 2469   1.944   6.864   5.988
  524SOL     OW 2470   6.889   0.938   0.710
  524SOL    HW1 2471   6.972   0.987   0.735
  524SOL    HW2 2472   6.860   0.880   0.787
  525SOL     OW 2473   0.990   3.595   3.342
  525SOL    HW1 2474   0.914   3.557   3.396
  525SOL    HW2 2475   1.024   3.678   3.386
  526SOL     OW 2476   3.748   6.812   4.753
  526SOL    HW1 2477   3.741   6.851   4.845
  526SOL    HW2 2478   3.737   6.712   4.758
  527SOL     OW 2479   0.070   1.010   0.856
  527SOL    HW1 2480   0.055   0.964   0.944
  527SOL    HW2 2481   0.168   1.014   0.837
  528SOL     OW 2482   6.944   1.531   4.567
  528SOL    HW1 2483   6.897   1.587   4.635
  528SOL    HW2 2484   6.970   1.587   4.488
  529SOL     OW 2485   1.328   1.197   5.858
  529SOL    HW1 2486   1.334   1.102   5.886
  529SOL    HW2 2487   1.402   1.249   5.900
  530SOL     OW 2488   3.292   4.467   1.560
  530SOL    HW1 2489   3.353   4.525   1.506
  530SOL    HW2 2490   3.337   4.441   1.645
  531SOL     OW 2491   0.514   0.927   6.346
  531SOL    HW1 2492   0.468   0.986   6.279
  531SOL    HW2 2493   0.611   0.950   6.349
  532SOL     OW 2494   3.338   0.718   6.672
  532SOL    HW1 2495   3.247   0.729   6.710
  532SOL    HW2 2496   3.398   0.676   6.740
  533SOL     OW 2497   4.574   6.872   4.767
  533SOL    HW1 2498   4.636   6.951   4.758
  533SOL    HW2 2499   4.480   6.904   4.765
  534SOL     OW 2500   1.969   4.198   1.863
  534SOL    HW1 2501   1.897   4.251   1.907
  534SOL    HW2 2502   2.041   4.260   1.832
  535SOL     OW 2503   4.653   4.393   4.310
  535SOL    HW1 2504   4.680   4.434   4.223
  535SOL    HW2 2505   4.662   4.294   4.305
  536SOL     OW 2506   6.533   6.538   1.039
  536SOL    HW1 2507   6.554   6.440   1.037
  536SOL    HW2 2508   6.567   6.577   1.124
  537SOL     OW 2509   2.689   1.843   2.507
  537SOL    HW1 2510   2.709   1.889   2.420
  537SOL    HW2 2511   2.611   1.782   2.496
  538SOL     OW 2512   4.079   4.458   5.381
  538SOL    HW1 2513   3.981   4.472   5.366
  538SOL    HW2 2514   4.129   4.477   5.296
  539SOL     OW 2515   2.472   0.432   6.606
  539SOL    HW1 2516   2.468   0.335   6.628
  539SOL    HW2 2517   2.401   0.481   6.656
  540SOL     OW 2518   2.085   1.334   5.028
  540SOL    HW1 2519   2.049   1.361   5.117
  540SOL    HW2 2520   2.034   1.254   4.994
  541SOL     OW 2521   5.087   6.106   3.448
  541SOL    HW1 2522   5.136   6.149   3.524
  541SOL    HW2 2523   5.027   6.174   3.404
  542SOL     OW 2524   3.586   5.972   5.737
  542SOL    HW1 2525   3.628   6.015   5.816
  542SOL    HW2 2526   3.637   5.891   5.711
  543SOL     OW 2527   6.434   2.445   4.595
  543SOL    HW1 2528   6.344   2.426   4.556
  543SOL    HW2 2529   6.482   2.511   4.537
  544SOL     OW 2530   0.749   2.866   0.928
  544SOL    HW1 2531   0.789   2.799   0.990
  544SOL    HW2 2532   0.822   2.917   0.882
  545SOL     OW 2533   6.808   5.064   0.415
  545SOL    HW1 2534   6.720   5.038   0.375
  545SOL    HW2 2535   6.816   5.023   0.506
  546SOL     OW 2536   0.064   4.870   1.876
  546SOL    HW1 2537   7.017   4.840   1.944
  546SOL    HW2 2538   0.148   4.817   1.885
  547SOL     OW 2539   4.013   0.016   6.778
  547SOL    HW1 2540   3.980   6.967   6.713
  547SOL    HW2 2541   4.075   0.079   6.731
  548SOL     OW 2542   4.065   2.437   0.267
  548SOL    HW1 2543   4.141   2.411   0.327
  548SOL    HW2 2544   4.080   2.530   0.234
  549SOL     OW 2545   5.402   2.704   3.765
  549SOL    HW1 2546   5.304   2.711   3.750
  549SOL    HW2 2547   5.427   2.608   3.781
  550SOL     OW 2548   6.600   5.637   3.518
  550SOL    HW1 2549   6.558   5.583   3.445
  550SOL    HW2 2550   6.532   5.700   3.556
  551SOL     OW 2551   5.188   0.492   0.270
  551SOL    HW1 2552   5.280   0.463   0.296
  551SOL    HW2 2553   5.184   0.592   0.269
  552SOL     OW 2554   0.389   0.237   4.836
  552SOL    HW1 2555   0.312   0.175   4.820
  552SOL    HW2 2556   0.358   0.332   4.828
  553SOL     OW 2557   3.524   2.360   5.477
  553SOL    HW1 2558   3.440   2.405   5.447
  553SOL    HW2 2559   3.539   2.379   5.574
  554SOL     OW 2560   6.664   5.452   0.428
  554SOL    HW1 2561   6.629   5.397   0.505
  554SOL    HW2 2562   6.734   5.515   0.461
  555SOL     OW 2563   2.587   4.365   6.271
  555SOL    HW1 2564   2.678   4.325   6.257
  555SOL    HW2 2565   2.567   4.368   6.369
  556SOL     OW 2566   6.240   6.484   2.118
  556SOL    HW1 2567   6.163   6.453   2.172
  556SOL    HW2 2568   6.230   6.452   2.024
  557SOL     OW 2569   5.537   3.461   6.211
  557SOL    HW1 2570   5.483   3.545   6.221
  557SOL    HW2 2571   5.564   3.450   6.116
  558SOL     OW 2572   3.334   3.794   2.051
  558SOL    HW1 2573   3.321   3.747   2.138
  558SOL    HW2 2574   3.295   3.886   2.056
  559SOL     OW 2575   6.085   1.228   6.693
  559SOL    HW1 2576   6.033   1.311   6.674
  559SOL    HW2 2577   6.025   1.148   6.689
  560SOL     OW 2578   0.333   2.320   3.598
  560SOL    HW1 2579   0.359   2.251   3.531
  560SOL    HW2 2580   0.263   2.380   3.559
  561SOL     OW 2581   0.255   3.729   0.091
  561SOL    HW1 2582   0.191   3.789   0.044
  561SOL    HW2 2583   0.348   3.766   0.084
  562SOL     OW 2584   4.261   6.631   3.641
  562SOL    HW1 2585   4.344   6.622   3.697
  562SOL    HW2 2586   4.185   6.660   3.699
  563SOL     OW 2587   0.859   1.248   4.032
  563SOL    HW1 2588   0.914   1.242   4.115
  563SOL    HW2 2589   0.833   1.344   4.016
  564SOL     OW 2590   5.921   1.938   5.294
  564SOL    HW1 2591   5.981   1.859   5.307
  564SOL    HW2 2592   5.892   1.973   5.384
  565SOL     OW 2593   2.903   3.504   3.990
  565SOL    HW1 2594   2.917   3.414   4.032
  565SOL    HW2 2595   2.901   3.574   4.062
  566SOL     OW 2596   2.229   2.366   3.652
  566SOL    HW1 2597   2.276   2.416   3.579
  566SOL    HW2 2598   2.297   2.323   3.712
  567SOL     OW 2599   1.815   3.282   5.651
  567SOL    HW1 2600   1.810   3.187   5.621
  567SOL    HW2 2601   1.878   3.332   5.591
  568SOL     OW 2602   1.374   6.992   0.012
  568SOL    HW1 2603   1.351   0.014   0.100
  568SOL    HW2 2604   1.390   0.045   6.963
  569SOL     OW 2605   5.149   3.545   5.564
  569SOL    HW1 2606   5.139   3.514   5.470
  569SOL    HW2 2607   5.062   3.585   5.595
  570SOL     OW 2608   3.627   0.843   6.246
  570SOL    HW1 2609   3.637   0.842   6.146
  570SOL    HW2 2610   3.550   0.901   6.271
  571SOL     OW 2611   2.464   4.288   1.761
  571SOL    HW1 2612   2.538   4.335   1.713
  571SOL    HW2 2613   2.424   4.349   1.829
  572SOL     OW 2614   3.111   1.312   4.387
  572SOL    HW1 2615   3.084   1.349   4.298
  572SOL    HW2 2616   3.165   1.228   4.374
  573SOL     OW 2617   0.427   0.828   5.424
  573SOL    HW1 2618   0.423   0.806   5.326
  573SOL    HW2 2619   0.445   0.744   5.476
  574SOL     OW 2620   1.889   1.252   6.216
  574SOL    HW1 2621   1.876   1.351   6.211
  574SOL    HW2 2622   1.952   1.223   6.145
  575SOL     OW 2623   3.884   3.564   0.346
  575SOL    HW1 2624   3.911   3.478   0.302
  575SOL    HW2 2625   3.965   3.619   0.364
  576SOL     OW 2626   0.725   0.996   3.084
  576SOL    HW1 2627   0.765   0.923   3.140
  576SOL    HW2 2628   0.697   0.958   2.996
  577SOL     OW 2629   0.255   6.986   1.908
  577SOL    HW1 2630   0.164   7.019   1.932
  577SOL    HW2 2631   0.311   0.043   1.877
  578SOL     OW 2632   4.207   6.900   0.275
  578SOL    HW1 2633   4.300   6.904   0.310
  578SOL    HW2 2634   4.198   6.961   0.196
  579SOL     OW 2635   0.869   3.859   1.923
  579SOL    HW1 2636   0.829   3.796   1.855
  579SOL    HW2 2637   0.964   3.878   1.898
  580SOL     OW 2638   4.585   5.234   4.680
  580SOL    HW1 2639   4.661   5.268   4.624
  580SOL    HW2 2640   4.507   5.214   4.621
  581SOL     OW 2641   1.709   2.425   4.235
  581SOL    HW1 2642   1.636   2.399   4.172
  581SOL    HW2 2643   1.767   2.346   4.254
  582SOL     OW 2644   5.511   4.306   5.292
  582SOL    HW1 2645   5.424   4.348   5.265
  582SOL    HW2 2646   5.522   4.313   5.391
  583SOL     OW 2647   3.282   5.939   5.789
  583SOL    HW1 2648   3.230   6.001   5.730
  583SOL    HW2 2649   3.376   5.932   5.755
  584SOL     OW 2650   4.022   0.874   4.830
  584SOL    HW1 2651   3.974   0.834   4.752
  584SOL    HW2 2652   3.960   0.880   4.908
  585SOL     OW 2653   3.658   6.743   1.552
  585SOL    HW1 2654   3.632   6.827   1.505
  585SOL    HW2 2655   3.637   6.665   1.494
  586SOL     OW 2656   3.656   0.267   0.727
  586SOL    HW1 2657   3.565   0.288   0.689
  586SOL    HW2 2658   3.721   0.255   0.652
  587SOL     OW 2659   5.044   1.756   2.539
  587SOL    HW1 2660   5.050   1.682   2.605
  587SOL    HW2 2661   4.970   1.737   2.474
  588SOL     OW 2662   2.328   4.287   2.898
  588SOL    HW1 2663   2.284   4.294   2.809
  588SOL    HW2 2664   2.296   4.205   2.946
  589SOL     OW 2665   3.410   5.184   6.951
  589SOL    HW1 2666   3.502   5.220   6.933
  589SOL    HW2 2667   3.378   5.135   6.870
  590SOL     OW 2668   2.685   2.104   6.246
  590SOL    HW1 2669   2.663   2.199   6.267
  590SOL    HW2 2670   2.706   2.095   6.149
  591SOL     OW 2671   2.383   6.801   3.548
  591SOL    HW1 2672   2.465   6.751   3.576
  591SOL    HW2 2673   2.409   6.877   3.488
  592SOL     OW 2674   5.192   2.693   5.003
  592SOL    HW1 2675   5.116   2.725   5.060
  592SOL    HW2 2676   5.165   2.695   4.907
  593SOL     OW 2677   2.279   0.934   6.467
  593SOL    HW1 2678   2.268   1.000   6.394
  593SOL    HW2 2679   2.195   0.930   6.522
  594SOL     OW 2680   3.702   1.089   4.342
  594SOL    HW1 2681   3.618   1.122   4.300
  594SOL    HW2 2682   3.700   1.106   4.440
  595SOL     OW 2683   6.341   3.747   2.100
  595SOL    HW1 2684   6.339   3.830   2.156
  595SOL    HW2 2685   6.433   3.708   2.101
  596SOL     OW 2686   5.834   4.698   4.228
  596SOL    HW1 2687   5.882   4.780   4.259
  596SOL    HW2 2688   5.879   4.661   4.147
  597SOL     OW 2689   3.152   1.883   6.928
  597SOL    HW1 2690   3.060   1.845   6.916
  597SOL    HW2 2691   3.185   1.919   6.841
  598SOL     OW 2692   2.908   3.425   3.274
  598SOL    HW1 2693   2.945   3.464   3.190
  598SOL    HW2 2694   2.823   3.376   3.253
  599SOL     OW 2695   2.050   4.862   1.088
  599SOL    HW1 2696   1.968   4.823   1.046
  599SOL    HW2 2697   2.128   4.849   1.027
  600SOL     OW 2698   0.490   3.724   4.931
  600SOL    HW1 2699   0.486   3.776   4.846
  600SOL    HW2 2700   0.547   3.773   4.997
  601SOL     OW 2701   0.046   6.541   5.979
  601SOL    HW1 2702   0.075   6.577   6.067
  601SOL    HW2 2703   0.116   6.479   5.943
  602SOL     OW 2704   1.406   1.063   3.487
  602SOL    HW1 2705   1.485   1.074   3.547
  602SOL    HW2 2706   1.323   1.090   3.535
  603SOL     OW 2707   1.734   1.750   3.859
  603SOL    HW1 2708   1.782   1.689   3.796
  603SOL    HW2 2709   1.747   1.718   3.953
  604SOL     OW 2710   5.545   2.709   1.096
  604SOL    HW1 2711   5.465   2.746   1.143
  604SOL    HW2 2712   5.628   2.736   1.144
  605SOL     OW 2713   5.712   6.360   1.308
  605SOL    HW1 2714   5.748   6.319   1.392
  605SOL    HW2 2715   5.625   6.317   1.284
  606SOL     OW 2716   3.146   6.588   5.283
  606SOL    HW1 2717   3.141   6.679   5.240
  606SOL    HW2 2718   3.176   6.521   5.215
  607SOL     OW 2719   1.566   2.861   6.072
  607SOL    HW1 2720   1.644   2.924   6.083
  607SOL    HW2 2721   1.490   2.911   6.030
  608SOL     OW 2722   3.658   1.337   6.880
  608SOL    HW1 2723   3.565   1.371   6.872
  608SOL    HW2 2724   3.711   1.363   6.799
  609SOL     OW 2725   3.630   3.223   2.226
  609SOL    HW1 2726   3.687   3.144   2.204
  609SOL    HW2 2727   3.534   3.199   2.214
  610SOL     OW 2728   5.068   3.319   1.690
  610SOL    HW1 2729   4.999   3.248   1.675
  610SOL    HW2 2730   5.028   3.391   1.748
  611SOL     OW 2731   3.857   1.283   2.300
  611SOL    HW1 2732   3.823   1.269   2.393
  611SOL    HW2 2733   3.900   1.199   2.268
  612SOL     OW 2734   4.815   4.792   4.333
  612SOL    HW1 2735   4.865   4.738   4.265
  612SOL    HW2 2736   4.849   4.772   4.424
  613SOL     OW 2737   4.201   5.444   6.372
  613SOL    HW1 2738   4.247   5.376   6.314
  613SOL    HW2 2739   4.251   5.530   6.369
  614SOL     OW 2740   3.270   6.324   6.295
  614SOL    HW1 2741   3.351   6.274   6.326
  614SOL    HW2 2742   3.203   6.327   6.370
  615SOL     OW 2743   6.878   5.039   3.001
  615SOL    HW1 2744   6.964   5.066   3.044
  615SOL    HW2 2745   6.814   5.115   3.005
  616SOL     OW 2746   6.342   3.058   4.117
  616SOL    HW1 2747   6.347   3.074   4.019
  616SOL    HW2 2748   6.407   2.986   4.142
  617SOL     OW 2749   2.318   0.348   6.110
  617SOL    HW1 2750   2.373   0.429   6.090
  617SOL    HW2 2751   2.375   0.266   6.104
  618SOL     OW 2752   2.041   0.721   3.689
  618SOL    HW1 2753   1.971   0.722   3.617
  618SOL    HW2 2754   2.091   0.634   3.685
  619SOL     OW 2755   1.062   2.299   0.123
  619SOL    HW1 2756   0.967   2.328   0.113
  619SOL    HW2 2757   1.067   2.199   0.118
  620SOL     OW 2758   4.689   3.700   0.527
  620SOL    HW1 2759   4.646   3.779   0.570
  620SOL    HW2 2760   4.761   3.664   0.587
  621SOL     OW 2761   0.028   5.479   0.787
  621SOL    HW1 2762   0.014   5.396   0.839
  621SOL    HW2 2763   6.960   5.511   0.750
  622SOL     OW 2764   0.433   1.039   0.052
  622SOL    HW1 2765   0.523   0.999   0.034
  622SOL    HW2 2766   0.401   1.009   0.142
  623SOL     OW 2767   0.130   4.983   5.190
  623SOL    HW1 2768   0.046   5.010   5.143
  623SOL    HW2 2769   0.141   5.039   5.272
  624SOL     OW 2770   0.549   1.581   1.199
  624SOL    HW1 2771   0.602   1.621   1.274
  624SOL    HW2 2772   0.519   1.489   1.226
  625SOL     OW 2773   1.379   1.123   2.630
  625SOL    HW1 2774   1.400   1.048   2.567
  625SOL    HW2 2775   1.462   1.150   2.678
  626SOL     OW 2776   3.093   5.646   4.991
  626SOL    HW1 2777   3.045   5.586   4.926
  626SOL    HW2 2778   3.192   5.636   4.978
  627SOL     OW 2779   4.936   6.303   6.770
  627SOL    HW1 2780   4.853   6.282   6.718
  627SOL    HW2 2781   4.914   6.314   6.866
  628SOL     OW 2782   5.953   4.295   3.017
  628SOL    HW1 2783   5.928   4.209   3.061
  628SOL    HW2 2784   6.017   4.277   2.943
  629SOL     OW 2785   1.581   0.321   1.108
  629SOL    HW1 2786   1.602   0.235   1.061
  629SOL    HW2 2787   1.554   0.390   1.040
  630SOL     OW 2788   2.743   1.296   1.528
  630SOL    HW1 2789   2.834   1.297   1.487
  630SOL    HW2 2790   2.693   1.378   1.501
  631SOL     OW 2791   2.989   0.927   4.314
  631SOL    HW1 2792   3.015   0.893   4.224
  631SOL    HW2 2793   2.900   0.889   4.339
  632SOL     OW 2794   2.931   0.561   0.964
  632SOL    HW1 2795   2.864   0.540   1.035
  632SOL    HW2 2796   2.927   0.490   0.893
  633SOL     OW 2797   2.364   0.367   5.305
  633SOL    HW1 2798   2.272   0.399   5.283
  633SOL    HW2 2799   2.359   0.291   5.369
  634SOL     OW 2800   2.796   5.986   1.838
  634SOL    HW1 2801   2.769   6.075   1.801
  634SOL    HW2 2802   2.894   5.972   1.822
  635SOL     OW 2803   3.003   6.817   3.102
  635SOL    HW1 2804   2.939   6.877   3.053
  635SOL    HW2 2805   3.080   6.872   3.136
  636SOL     OW 2806   4.560   5.161   6.230
  636SOL    HW1 2807   4.600   5.205   6.150
  636SOL    HW2 2808   4.612   5.078   6.252
  637SOL     OW 2809   5.713   5.393   6.260
  637SOL    HW1 2810   5.665   5.334   6.195
  637SOL    HW2 2811   5.680   5.487   6.251
  638SOL     OW 2812   5.237   1.885   3.322
  638SOL    HW1 2813   5.311   1.851   3.379
  638SOL    HW2 2814   5.261   1.873   3.225
  639SOL     OW 2815   4.712   3.749   1.753
  639SOL    HW1 2816   4.702   3.650   1.764
  639SOL    HW2 2817   4.658   3.780   1.675
  640SOL     OW 2818   2.457   3.198   5.390
  640SOL    HW1 2819   2.511   3.281   5.378
  640SOL    HW2 2820   2.476   3.135   5.314
  641SOL     OW 2821   0.003   5.926   5.071
  641SOL    HW1 2822   6.958   5.973   5.011
  641SOL    HW2 2823   6.973   5.890   5.150
  642SOL     OW 2824   1.252   4.518   6.603
  642SOL    HW1 2825   1.301   4.561   6.527
  642SOL    HW2 2826   1.188   4.451   6.568
  643SOL     OW 2827   5.959   6.033   4.836
  643SOL    HW1 2828   6.046   5.985   4.843
  643SOL    HW2 2829   5.892   5.991   4.897
  644SOL     OW 2830   2.346   6.577   1.559
  644SOL    HW1 2831   2.413   6.560   1.487
  644SOL    HW2 2832   2.329   6.676   1.566
  645SOL     OW 2833   0.341   2.754   3.265
  645SOL    HW1 2834   0.270   2.822   3.284
  645SOL    HW2 2835   0.387   2.777   3.179
  646SOL     OW 2836   1.461   3.328   4.537
  646SOL    HW1 2837   1.401   3.326   4.617
  646SOL    HW2 2838   1.509   3.416   4.532
  647SOL     OW 2839   5.453   3.609   0.339
  647SOL    HW1 2840   5.371   3.601   0.282
  647SOL    HW2 2841   5.436   3.674   0.413
  648SOL     OW 2842   4.674   2.429   4.312
  648SOL    HW1 2843   4.752   2.368   4.327
  648SOL    HW2 2844   4.606   2.416   4.384
  649SOL     OW 2845   4.494   4.504   1.813
  649SOL    HW1 2846   4.552   4.484   1.734
  649SOL    HW2 2847   4.445   4.421   1.841
  650SOL     OW 2848   5.320   4.798   0.911
  650SOL    HW1 2849   5.339   4.894   0.889
  650SOL    HW2 2850   5.263   4.758   0.839
  651SOL     OW 2851   1.490   5.584   6.401
  651SOL    HW1 2852   1.466   5.681   6.414
  651SOL    HW2 2853   1.501   5.540   6.490
  652SOL     OW 2854   4.863   1.847   2.240
  652SOL    HW1 2855   4.929   1.913   2.277
  652SOL    HW2 2856   4.912   1.778   2.187
  653SOL     OW 2857   3.716   4.892   2.999
  653SOL    HW1 2858   3.796   4.840   3.030
  653SOL    HW2 2859   3.710   4.889   2.900
  654SOL     OW 2860   6.483   5.234   6.279
  654SOL    HW1 2861   6.503   5.282   6.365
  654SOL    HW2 2862   6.539   5.151   6.274
  655SOL     OW 2863   1.156   2.154   6.852
  655SOL    HW1 2864   1.097   2.223   6.893
  655SOL    HW2 2865   1.250   2.168   6.884
  656SOL     OW 2866   1.914   6.120   1.271
  656SOL    HW1 2867   1.965   6.127   1.185
  656SOL    HW2 2868   1.817   6.112   1.251
  657SOL     OW 2869   4.077   0.690   6.987
  657SOL    HW1 2870   4.174   0.699   6.962
  657SOL    HW2 2871   4.026   0.767   6.949
  658SOL     OW 2872   3.760   5.420   6.819
  658SOL    HW1 2873   3.746   5.373   6.906
  658SOL    HW2 2874   3.673   5.422   6.769
  659SOL     OW 2875   3.812   0.475   6.140
  659SOL    HW1 2876   3.839   0.435   6.228
  659SOL    HW2 2877   3.876   0.548   6.116
  660SOL     OW 2878   3.657   6.096   3.257
  660SOL    HW1 2879   3.727   6.166   3.269
  660SOL    HW2 2880   3.647   6.044   3.341
  661SOL     OW 2881   5.707   4.968   2.751
  661SOL    HW1 2882   5.720   4.965   2.652
  661SOL    HW2 2883   5.686   4.876   2.785
  662SOL     OW 2884   4.446   1.744   0.034
  662SOL    HW1 2885   4.365   1.762   0.091
  662SOL    HW2 2886   4.418   1.697   6.970
  663SOL     OW 2887   1.291   4.192   4.566
  663SOL    HW1 2888   1.206   4.140   4.573
  663SOL    HW2 2889   1.271   4.287   4.544
  664SOL     OW 2890   5.770   0.046   6.226
  664SOL    HW1 2891   5.762   6.965   6.236
  664SOL    HW2 2892   5.840   0.067   6.158
  665SOL     OW 2893   0.738   4.379   1.632
  665SOL    HW1 2894   0.698   4.288   1.628
  665SOL    HW2 2895   0.787   4.398   1.547
  666SOL     OW 2896   4.554   1.448   1.805
  666SOL    HW1 2897   4.514   1.537   1.785
  666SOL    HW2 2898   4.545   1.389   1.725
  667SOL     OW 2899   0.899   0.281   2.025
  667SOL    HW1 2900   0.930   0.294   2.119
  667SOL    HW2 2901   0.832   0.351   2.001
  668SOL     OW 2902   5.937   3.321   0.029
  668SOL    HW1 2903   5.837   3.314   0.032
  668SOL    HW2 2904   5.977   3.233   0.057
  669SOL     OW 2905   5.340   1.811   3.072
  669SOL    HW1 2906   5.256   1.792   3.021
  669SOL    HW2 2907   5.419   1.783   3.017
  670SOL     OW 2908   3.838   2.125   2.353
  670SOL    HW1 2909   3.821   2.038   2.399
  670SOL    HW2 2910   3.839   2.111   2.254
  671SOL     OW 2911   1.964   6.099   2.193
  671SOL    HW1 2912   2.033   6.156   2.237
  671SOL    HW2 2913   1.941   6.139   2.104
  672SOL     OW 2914   0.636   0.085   1.704
  672SOL    HW1 2915   0.595   0.009   1.655
  672SOL    HW2 2916   0.714   0.052   1.757
  673SOL     OW 2917   6.057   6.639   6.514
  673SOL    HW1 2918   6.111   6.722   6.510
  673SOL    HW2 2919   6.022   6.626   6.607
  674SOL     OW 2920   5.209   0.232   4.128
  674SOL    HW1 2921   5.170   0.267   4.043
  674SOL    HW2 2922   5.154   0.263   4.205
  675SOL     OW 2923   0.327   3.946   2.178
  675SOL    HW1 2924   0.304   3.858   2.137
  675SOL    HW2 2925   0.324   3.939   2.278
  676SOL     OW 2926   2.540   5.781   6.586
  676SOL    HW1 2927   2.501   5.829   6.664
  676SOL    HW2 2928   2.579   5.848   6.522
  677SOL     OW 2929   5.979   1.396   1.134
  677SOL    HW1 2930   5.941   1.365   1.046
  677SOL    HW2 2931   5.977   1.320   1.199
  678SOL     OW 2932   0.954   5.212   3.980
  678SOL    HW1 2933   0.991   5.291   3.932
  678SOL    HW2 2934   0.927   5.239   4.073
  679SOL     OW 2935   4.916   1.620   5.396
  679SOL    HW1 2936   4.984   1.549   5.378
  679SOL    HW2 2937   4.870   1.644   5.310
  680SOL     OW 2938   5.978   6.604   3.843
  680SOL    HW1 2939   5.989   6.550   3.926
  680SOL    HW2 2940   5.881   6.621   3.827
  681SOL     OW 2941   4.413   4.864   2.804
  681SOL    HW1 2942   4.381   4.939   2.862
  681SOL    HW2 2943   4.482   4.811   2.853
  682SOL     OW 2944   0.063   1.745   3.031
  682SOL    HW1 2945   0.126   1.811   2.991
  682SOL    HW2 2946   0.111   1.689   3.098
  683SOL     OW 2947   3.212   4.285   0.684
  683SOL    HW1 2948   3.195   4.212   0.617
  683SOL    HW2 2949   3.214   4.246   0.776
  684SOL     OW 2950   6.432   1.467   5.779
  684SOL    HW1 2951   6.503   1.432   5.840
  684SOL    HW2 2952   6.352   1.407   5.782
  685SOL     OW 2953   2.908   6.566   3.068
  685SOL    HW1 2954   2.906   6.515   3.154
  685SOL    HW2 2955   2.937   6.660   3.085
  686SOL     OW 2956   4.046   0.519   5.541
  686SOL    HW1 2957   4.094   0.504   5.627
  686SOL    HW2 2958   4.034   0.432   5.494
  687SOL     OW 2959   0.111   1.113   4.418
  687SOL    HW1 2960   0.033   1.061   4.453
  687SOL    HW2 2961   0.079   1.182   4.353
  688SOL     OW 2962   6.022   2.209   0.134
  688SOL    HW1 2963   6.002   2.249   0.223
  688SOL    HW2 2964   5.971   2.256   0.063
  689SOL     OW 2965   2.056   5.871   0.110
  689SOL    HW1 2966   2.061   5.965   0.141
  689SOL    HW2 2967   2.126   5.855   0.040
  690SOL     OW 2968   5.605   3.703   3.698
  690SOL    HW1 2969   5.643   3.787   3.659
  690SOL    HW2 2970   5.676   3.657   3.752
  691SOL     OW 2971   5.708   1.387   2.039
  691SOL    HW1 2972   5.776   1.455   2.068
  691SOL    HW2 2973   5.702   1.315   2.107
  692SOL     OW 2974   1.598   1.136   3.681
  692SOL    HW1 2975   1.625   1.113   3.774
  692SOL    HW2 2976   1.668   1.194   3.639
  693SOL     OW 2977   5.847   4.940   3.368
  693SOL    HW1 2978   5.909   5.006   3.324
  693SOL    HW2 2979   5.890   4.902   3.449
  694SOL     OW 2980   3.851   5.548   4.077
  694SOL    HW1 2981   3.845   5.643   4.047
  694SOL    HW2 2982   3.928   5.503   4.031
  695SOL     OW 2983   4.772   6.617   3.820
  695SOL    HW1 2984   4.813   6.620   3.729
  695SOL    HW2 2985   4.770   6.710   3.858
  696SOL     OW 2986   5.920   3.898   1.799
  696SOL    HW1 2987   5.832   3.884   1.846
  696SOL    HW2 2988   5.992   3.849   1.848
  697SOL     OW 2989   0.482   6.366   2.661
  697SOL    HW1 2990   0.430   6.335   2.581
  697SOL    HW2 2991   0.497   6.289   2.723
  698SOL     OW 2992   5.486   6.408   6.297
  698SOL    HW1 2993   5.568   6.379   6.248
  698SOL    HW2 2994   5.484   6.366   6.387
  699SOL     OW 2995   4.015   4.313   0.620
  699SOL    HW1 2996   4.094   4.373   0.624
  699SOL    HW2 2997   3.942   4.350   0.678
  700SOL     OW 2998   3.445   6.717   5.374
  700SOL    HW1 2999   3.372   6.651   5.391
  700SOL    HW2 3000   3.523   6.697   5.433
  701SOL     OW 3001   4.653   4.871   2.125
  701SOL    HW1 3002   4.642   4.969   2.143
  701SOL    HW2 3003   4.595   4.845   2.047
  702SOL     OW 3004   4.527   0.337   4.833
  702SOL    HW1 3005   4.534   0.380   4.923
  702SOL    HW2 3006   4.440   0.288   4.827
  703SOL     OW 3007   3.467   3.138   0.117
  703SOL    HW1 3008   3.520   3.219   0.142
  703SOL    HW2 3009   3.445   3.086   0.200
  704SOL     OW 3010   3.521   1.328   6.279
  704SOL    HW1 3011   3.441   1.388   6.271
  704SOL    HW2 3012   3.577   1.336   6.197
  705SOL     OW 3013   0.216   6.020   6.234
  705SOL    HW1 3014   0.166   5.938   6.206
  705SOL    HW2 3015   0.254   6.065   6.154
  706SOL     OW 3016   3.522   0.825   4.941
  706SOL    HW1 3017   3.525   0.843   4.843
  706SOL    HW2 3018   3.499   0.909   4.990
  707SOL     OW 3019   3.359   5.236   4.460
  707SOL    HW1 3020   3.445   5.227   4.408
  707SOL    HW2 3021   3.282   5.213   4.400
  708SOL     OW 3022   3.428   5.877   3.771
  708SOL    HW1 3023   3.520   5.843   3.757
  708SOL    HW2 3024   3.423   5.928   3.857
  709SOL     OW 3025   2.563   0.262   1.885
  709SOL    HW1 3026   2.643   0.286   1.829
  709SOL    HW2 3027   2.550   0.162   1.883
  710SOL     OW 3028   4.993   3.676   2.559
  710SOL    HW1 3029   4.925   3.711   2.624
  710SOL    HW2 3030   5.015   3.747   2.492
  711SOL     OW 3031   0.576   1.732   0.583
  711SOL    HW1 3032   0.491   1.692   0.618
  711SOL    HW2 3033   0.630   1.766   0.660
  712SOL     OW 3034   5.558   3.744   6.807
  712SOL    HW1 3035   5.495   3.667   6.793
  712SOL    HW2 3036   5.652   3.713   6.793
  713SOL     OW 3037   4.085   3.256   5.997
  713SOL    HW1 3038   4.095   3.232   6.094
  713SOL    HW2 3039   3.992   3.290   5.980
  714SOL     OW 3040   4.751   6.646   2.964
  714SOL    HW1 3041   4.699   6.567   2.997
  714SOL    HW2 3042   4.718   6.729   3.008
  715SOL     OW 3043   5.857   5.136   4.893
  715SOL    HW1 3044   5.829   5.041   4.879
  715SOL    HW2 3045   5.928   5.139   4.964
  716SOL     OW 3046   3.357   2.060   3.530
  716SOL    HW1 3047   3.290   2.044   3.457
  716SOL    HW2 3048   3.443   2.088   3.489
  717SOL     OW 3049   4.939   5.279   3.682
  717SOL    HW1 3050   4.909   5.274   3.587
  717SOL    HW2 3051   4.860   5.273   3.743
  718SOL     OW 3052   6.114   2.176   5.093
  718SOL    HW1 3053   6.114   2.104   5.023
  718SOL    HW2 3054   6.133   2.264   5.051
  719SOL     OW 3055   4.686   6.088   2.907
  719SOL    HW1 3056   4.666   6.184   2.921
  719SOL    HW2 3057   4.608   6.044   2.862
  720SOL     OW 3058   3.016   1.328   1.488
  720SOL    HW1 3059   3.067   1.299   1.569
  720SOL    HW2 3060   3.023   1.427   1.477
  721SOL     OW 3061   6.744   3.004   1.744
  721SOL    HW1 3062   6.719   3.098   1.768
  721SOL    HW2 3063   6.689   2.940   1.797
  722SOL     OW 3064   5.322   6.411   1.509
  722SOL    HW1 3065   5.341   6.392   1.413
  722SOL    HW2 3066   5.298   6.327   1.556
  723SOL     OW 3067   2.213   0.994   4.136
  723SOL    HW1 3068   2.309   0.986   4.109
  723SOL    HW2 3069   2.167   1.059   4.076
  724SOL     OW 3070   1.237   2.446   4.263
  724SOL    HW1 3071   1.225   2.419   4.358
  724SOL    HW2 3072   1.151   2.481   4.227
  725SOL     OW 3073   1.669   4.604   2.787
  725SOL    HW1 3074   1.743   4.651   2.835
  725SOL    HW2 3075   1.581   4.641   2.819
  726SOL     OW 3076   1.987   3.873   0.365
  726SOL    HW1 3077   2.039   3.787   0.362
  726SOL    HW2 3078   1.893   3.856   0.335
  727SOL     OW 3079   3.674   5.328   4.758
  727SOL    HW1 3080   3.739   5.385   4.708
  727SOL    HW2 3081   3.708   5.312   4.851
  728SOL     OW 3082   6.825   3.112   3.860
  728SOL    HW1 3083   6.919   3.133   3.886
  728SOL    HW2 3084   6.764   3.132   3.937
  729SOL     OW 3085   0.785   4.723   0.297
  729SOL    HW1 3086   0.699   4.727   0.248
  729SOL    HW2 3087   0.845   4.796   0.265
  730SOL     OW 3088   4.482   1.679   3.287
  730SOL    HW1 3089   4.488   1.582   3.264
  730SOL    HW2 3090   4.481   1.733   3.203
  731SOL     OW 3091   4.598   4.948   4.594
  731SOL    HW1 3092   4.665   4.907   4.658
  731SOL    HW2 3093   4.552   5.024   4.639
  732SOL     OW 3094   4.020   0.619   4.200
  732SOL    HW1 3095   3.972   0.691   4.150
  732SOL    HW2 3096   4.077   0.659   4.271
  733SOL     OW 3097   6.670   5.141   3.815
  733SOL    HW1 3098   6.598   5.098   3.759
  733SOL    HW2 3099   6.644   5.235   3.835
  734SOL     OW 3100   6.319   6.731   2.924
  734SOL    HW1 3101   6.305   6.668   2.848
  734SOL    HW2 3102   6.265   6.700   3.003
  735SOL     OW 3103   3.952   0.497   2.177
  735SOL    HW1 3104   4.034   0.489   2.120
  735SOL    HW2 3105   3.900   0.579   2.151
  736SOL     OW 3106   1.951   1.780   3.378
  736SOL    HW1 3107   1.861   1.801   3.338
  736SOL    HW2 3108   1.967   1.840   3.457
  737SOL     OW 3109   3.300   0.944   6.017
  737SOL    HW1 3110   3.389   0.903   5.995
  737SOL    HW2 3111   3.245   0.949   5.934
  738SOL     OW 3112   1.947   4.965   0.193
  738SOL    HW1 3113   2.006   5.047   0.189
  738SOL    HW2 3114   1.899   4.955   0.106
  739SOL     OW 3115   1.573   0.455   3.665
  739SOL    HW1 3116   1.498   0.389   3.656
  739SOL    HW2 3117   1.537   0.542   3.697
  740SOL     OW 3118   5.320   3.208   3.269
  740SOL    HW1 3119   5.327   3.256   3.181
  740SOL    HW2 3120   5.403   3.155   3.285
  741SOL     OW 3121   3.182   1.090   3.067
  741SOL    HW1 3122   3.105   1.146   3.036
  741SOL    HW2 3123   3.262   1.108   3.011
  742SOL     OW 3124   1.623   6.916   2.366
  742SOL    HW1 3125   1.550   6.848   2.364
  742SOL    HW2 3126   1.645   6.938   2.461
  743SOL     OW 3127   0.114   6.218   3.129
  743SOL    HW1 3128   0.142   6.250   3.038
  743SOL    HW2 3129   0.080   6.295   3.183
  744SOL     OW 3130   4.821   1.614   1.022
  744SOL    HW1 3131   4.879   1.572   1.091
  744SOL    HW2 3132   4.851   1.709   1.007
  745SOL     OW 3133   2.197   6.823   5.245
  745SOL    HW1 3134   2.201   6.884   5.166
  745SOL    HW2 3135   2.175   6.730   5.215
  746SOL     OW 3136   6.821   5.223   4.789
  746SOL    HW1 3137   6.782   5.309   4.820
  746SOL    HW2 3138   6.748   5.154   4.782
  747SOL     OW 3139   4.420   5.345   2.983
  747SOL    HW1 3140   4.438   5.444   2.982
  747SOL    HW2 3141   4.481   5.300   2.919
  748SOL     OW 3142   6.057   4.600   1.377
  748SOL    HW1 3143   6.025   4.693   1.398
  748SOL    HW2 3144   5.986   4.534   1.400
  749SOL     OW 3145   4.778   4.495   5.279
  749SOL    HW1 3146   4.680   4.485   5.267
  749SOL    HW2 3147   4.805   4.455   5.367
  750SOL     OW 3148   2.360   1.760   3.126
  750SOL    HW1 3149   2.385   1.848   3.085
  750SOL    HW2 3150   2.377   1.764   3.224
  751SOL     OW 3151   4.074   0.851   0.515
  751SOL    HW1 3152   4.150   0.891   0.565
  751SOL    HW2 3153   4.087   0.866   0.417
  752SOL     OW 3154   3.483   2.999   5.031
  752SOL    HW1 3155   3.520   2.948   4.954
  752SOL    HW2 3156   3.537   3.082   5.045
  753SOL     OW 3157   3.742   4.009   3.645
  753SOL    HW1 3158   3.764   4.095   3.599
  753SOL    HW2 3159   3.781   3.932   3.594
  754SOL     OW 3160   5.195   0.009   6.913
  754SOL    HW1 3161   5.182   0.056   7.000
  754SOL    HW2 3162   5.253   0.065   6.853
  755SOL     OW 3163   4.617   4.599   5.035
  755SOL    HW1 3164   4.660   4.515   5.068
  755SOL    HW2 3165   4.523   4.580   5.007
  756SOL     OW 3166   3.334   5.500   5.918
  756SOL    HW1 3167   3.260   5.451   5.871
  756SOL    HW2 3168   3.295   5.576   5.970
  757SOL     OW 3169   1.340   0.056   2.153
  757SOL    HW1 3170   1.354   6.976   2.155
  757SOL    HW2 3171   1.428   0.102   2.165
  758SOL     OW 3172   4.201   1.243   4.052
  758SOL    HW1 3173   4.247   1.217   4.137
  758SOL    HW2 3174   4.205   1.342   4.042
  759SOL     OW 3175   0.084   3.387   3.926
  759SOL    HW1 3176   0.034   3.396   4.012
  759SOL    HW2 3177   0.020   3.394   3.850
  760SOL     OW 3178   6.361   5.736   3.667
  760SOL    HW1 3179   6.329   5.687   3.748
  760SOL    HW2 3180   6.292   5.727   3.594
  761SOL     OW 3181   4.439   4.918   6.054
  761SOL    HW1 3182   4.413   5.008   6.017
  761SOL    HW2 3183   4.433   4.920   6.153
  762SOL     OW 3184   3.446   5.460   3.993
  762SOL    HW1 3185   3.385   5.382   4.009
  762SOL    HW2 3186   3.528   5.450   4.049
  763SOL     OW 3187   5.505   0.771   0.483
  763SOL    HW1 3188   5.417   0.800   0.521
  763SOL    HW2 3189   5.560   0.727   0.554
  764SOL     OW 3190   4.998   6.537   5.220
  764SOL    HW1 3191   5.041   6.458   5.264
  764SOL    HW2 3192   5.054   6.566   5.142
  765SOL     OW 3193   5.615   6.073   0.689
  765SOL    HW1 3194   5.596   6.167   0.717
  765SOL    HW2 3195   5.702   6.044   0.728
  766SOL     OW 3196   2.594   1.928   4.315
  766SOL    HW1 3197   2.519   1.932   4.382
  766SOL    HW2 3198   2.576   1.993   4.241
  767SOL     OW 3199   6.665   6.095   3.651
  767SOL    HW1 3200   6.667   6.053   3.560
  767SOL    HW2 3201   6.614   6.181   3.647
  768SOL     OW 3202   2.223   5.737   1.953
  768SOL    HW1 3203   2.232   5.639   1.971
  768SOL    HW2 3204   2.301   5.769   1.900
  769SOL     OW 3205   3.403   1.804   5.249
  769SOL    HW1 3206   3.368   1.720   5.289
  769SOL    HW2 3207   3.340   1.836   5.177
  770SOL     OW 3208   1.297   5.077   5.542
  770SOL    HW1 3209   1.323   5.173   5.547
  770SOL    HW2 3210   1.267   5.055   5.450
  771SOL     OW 3211   1.353   5.009   2.331
  771SOL    HW1 3212   1.428   5.059   2.289
  771SOL    HW2 3213   1.313   5.063   2.405
  772SOL     OW 3214   5.642   4.984   0.550
  772SOL    HW1 3215   5.629   5.082   0.563
  772SOL    HW2 3216   5.601   4.956   0.463
  773SOL     OW 3217   2.471   4.477   3.951
  773SOL    HW1 3218   2.431   4.400   4.001
  773SOL    HW2 3219   2.398   4.534   3.914
  774SOL     OW 3220   2.020   1.960   3.548
  774SOL    HW1 3221   2.083   1.929   3.619
  774SOL    HW2 3222   1.949   2.017   3.589
  775SOL     OW 3223   1.153   4.170   2.480
  775SOL    HW1 3224   1.213   4.100   2.442
  775SOL    HW2 3225   1.197   4.259   2.475
  776SOL     OW 3226   2.940   5.077   6.245
  776SOL    HW1 3227   2.980   5.065   6.336
  776SOL    HW2 3228   2.979   5.010   6.182
  777SOL     OW 3229   2.102   3.599   6.715
  777SOL    HW1 3230   2.086   3.671   6.647
  777SOL    HW2 3231   2.081   3.635   6.806
  778SOL     OW 3232   3.437   5.667   6.642
  778SOL    HW1 3233   3.359   5.729   6.654
  778SOL    HW2 3234   3.510   5.714   6.592
  779SOL     OW 3235   6.092   2.161   3.113
  779SOL    HW1 3236   6.078   2.137   3.209
  779SOL    HW2 3237   6.014   2.130   3.059
  780SOL     OW 3238   6.725   1.422   4.375
  780SOL    HW1 3239   6.688   1.488   4.310
  780SOL    HW2 3240   6.732   1.332   4.331
  781SOL     OW 3241   0.492   4.502   6.290
  781SOL    HW1 3242   0.590   4.510   6.272
  781SOL    HW2 3243   0.444   4.482   6.204
  782SOL     OW 3244   2.488   4.119   5.452
  782SOL    HW1 3245   2.533   4.037   5.488
  782SOL    HW2 3246   2.479   4.110   5.353
  783SOL     OW 3247   6.450   4.984   6.126
  783SOL    HW1 3248   6.385   4.953   6.196
  783SOL    HW2 3249   6.424   5.076   6.095
  784SOL     OW 3250   2.090   5.642   0.226
  784SOL    HW1 3251   2.154   5.662   0.300
  784SOL    HW2 3252   2.068   5.727   0.178
  785SOL     OW 3253   0.630   0.682   4.732
  785SOL    HW1 3254   0.631   0.714   4.637
  785SOL    HW2 3255   0.535   0.675   4.764
  786SOL     OW 3256   5.979   0.591   4.564
  786SOL    HW1 3257   5.898   0.537   4.588
  786SOL    HW2 3258   5.954   0.688   4.559
  787SOL     OW 3259   1.803   6.441   1.347
  787SOL    HW1 3260   1.754   6.487   1.422
  787SOL    HW2 3261   1.764   6.350   1.334
  788SOL     OW 3262   2.166   2.956   2.391
  788SOL    HW1 3263   2.133   3.012   2.315
  788SOL    HW2 3264   2.088   2.922   2.443
  789SOL     OW 3265   4.175   5.372   2.587
  789SOL    HW1 3266   4.113   5.336   2.518
  789SOL    HW2 3267   4.233   5.299   2.622
  790SOL     OW 3268   0.264   3.312   2.275
  790SOL    HW1 3269   0.314   3.262   2.204
  790SOL    HW2 3270   0.315   3.308   2.361
  791SOL     OW 3271   2.964   0.592   3.697
  791SOL    HW1 3272   2.907   0.674   3.708
  791SOL    HW2 3273   3.059   0.614   3.720
  792SOL     OW 3274   2.595   0.529   1.387
  792SOL    HW1 3275   2.496   0.525   1.370
  792SOL    HW2 3276   2.644   0.518   1.300
  793SOL     OW 3277   1.904   5.783   4.786
  793SOL    HW1 3278   1.993   5.738   4.779
  793SOL    HW2 3279   1.849   5.737   4.856
  794SOL     OW 3280   3.312   3.695   2.719
  794SOL    HW1 3281   3.345   3.600   2.716
  794SOL    HW2 3282   3.228   3.703   2.665
  795SOL     OW 3283   4.834   0.452   5.386
  795SOL    HW1 3284   4.896   0.385   5.426
  795SOL    HW2 3285   4.833   0.441   5.286
  796SOL     OW 3286   1.132   2.011   0.145
  796SOL    HW1 3287   1.199   1.962   0.201
  796SOL    HW2 3288   1.040   1.983   0.173
  797SOL     OW 3289   3.567   6.963   1.383
  797SOL    HW1 3290   3.561   0.035   1.425
  797SOL    HW2 3291   3.629   6.967   1.305
  798SOL     OW 3292   5.039   4.107   1.642
  798SOL    HW1 3293   4.980   4.104   1.723
  798SOL    HW2 3294   4.992   4.158   1.569
  799SOL     OW 3295   3.026   2.497   5.868
  799SOL    HW1 3296   3.004   2.546   5.784
  799SOL    HW2 3297   3.125   2.484   5.875
  800SOL     OW 3298   5.269   2.802   3.031
  800SOL    HW1 3299   5.250   2.772   3.124
  800SOL    HW2 3300   5.202   2.871   3.004
  801SOL     OW 3301   1.836   5.766   6.772
  801SOL    HW1 3302   1.824   5.794   6.867
  801SOL    HW2 3303   1.892   5.834   6.724
  802SOL     OW 3304   4.157   2.578   6.199
  802SOL    HW1 3305   4.124   2.513   6.130
  802SOL    HW2 3306   4.079   2.613   6.251
  803SOL     OW 3307   2.446   2.314   3.809
  803SOL    HW1 3308   2.458   2.413   3.798
  803SOL    HW2 3309   2.472   2.289   3.902
  804SOL     OW 3310   5.126   0.375   3.038
  804SOL    HW1 3311   5.032   0.352   3.016
  804SOL    HW2 3312   5.174   0.293   3.068
  805SOL     OW 3313   3.639   1.125   4.022
  805SOL    HW1 3314   3.614   1.150   4.116
  805SOL    HW2 3315   3.652   1.208   3.968
  806SOL     OW 3316   3.378   6.051   6.025
  806SOL    HW1 3317   3.356   6.148   6.013
  806SOL    HW2 3318   3.353   6.001   5.942
  807SOL     OW 3319   1.200   6.266   6.240
  807SOL    HW1 3320   1.209   6.291   6.336
  807SOL    HW2 3321   1.124   6.201   6.229
  808SOL     OW 3322   5.453   2.744   6.026
  808SOL    HW1 3323   5.407   2.666   5.983
  808SOL    HW2 3324   5.464   2.727   6.124
  809SOL     OW 3325   3.208   6.539   6.587
  809SOL    HW1 3326   3.145   6.613   6.565
  809SOL    HW2 3327   3.278   6.572   6.650
  810SOL     OW 3328   3.618   3.891   0.066
  810SOL    HW1 3329   3.666   3.872   0.151
  810SOL    HW2 3330   3.527   3.928   0.087
  811SOL     OW 3331   5.194   5.276   4.112
  811SOL    HW1 3332   5.251   5.353   4.142
  811SOL    HW2 3333   5.117   5.265   4.175
  812SOL     OW 3334   0.711   3.727   1.454
  812SOL    HW1 3335   0.761   3.720   1.368
  812SOL    HW2 3336   0.634   3.663   1.453
  813SOL     OW 3337   2.954   1.617   4.799
  813SOL    HW1 3338   2.945   1.673   4.717
  813SOL    HW2 3339   2.928   1.523   4.778
  814SOL     OW 3340   0.316   4.729   1.668
  814SOL    HW1 3341   0.335   4.707   1.764
  814SOL    HW2 3342   0.233   4.681   1.639
  815SOL     OW 3343   4.836   2.054   3.996
  815SOL    HW1 3344   4.748   2.031   4.038
  815SOL    HW2 3345   4.902   1.982   4.017
  816SOL     OW 3346   5.072   3.640   6.244
  816SOL    HW1 3347   5.026   3.708   6.300
  816SOL    HW2 3348   5.053   3.548   6.279
  817SOL     OW 3349   0.072   4.921   6.340
  817SOL    HW1 3350   0.009   4.844   6.335
  817SOL    HW2 3351   0.077   4.955   6.434
  818SOL     OW 3352   6.965   1.456   5.039
  818SOL    HW1 3353   0.044   1.456   5.060
  818SOL    HW2 3354   6.913   1.479   5.122
  819SOL     OW 3355   5.525   3.337   1.182
  819SOL    HW1 3356   5.451   3.362   1.119
  819SOL    HW2 3357   5.499   3.362   1.275
  820SOL     OW 3358   2.587   1.809   5.030
  820SOL    HW1 3359   2.496   1.775   5.054
  820SOL    HW2 3360   2.649   1.732   5.014
  821SOL     OW 3361   4.673   3.844   6.822
  821SOL    HW1 3362   4.575   3.826   6.830
  821SOL    HW2 3363   4.718   3.767   6.777
  822SOL     OW 3364   0.178   4.946   3.622
  822SOL    HW1 3365   0.212   4.853   3.633
  822SOL    HW2 3366   0.129   4.954   3.536
  823SOL     OW 3367   1.927   2.767   4.340
  823SOL    HW1 3368   1.954   2.789   4.434
  823SOL    HW2 3369   1.850   2.825   4.313
  824SOL     OW 3370   5.112   0.558   6.715
  824SOL    HW1 3371   5.114   0.521   6.808
  824SOL    HW2 3372   5.024   0.539   6.672
  825SOL     OW 3373   6.073   5.474   0.576
  825SOL    HW1 3374   6.005   5.463   0.504
  825SOL    HW2 3375   6.105   5.569   0.578
  826SOL     OW 3376   3.891   1.898   0.493
  826SOL    HW1 3377   3.971   1.945   0.455
  826SOL    HW2 3378   3.810   1.922   0.440
  827SOL     OW 3379   3.661   3.715   4.586
  827SOL    HW1 3380   3.620   3.796   4.545
  827SOL    HW2 3381   3.759   3.729   4.599
  828SOL     OW 3382   0.742   6.317   6.605
  828SOL    HW1 3383   0.732   6.414   6.580
  828SOL    HW2 3384   0.767   6.310   6.701
  829SOL     OW 3385   3.882   3.399   1.755
  829SOL    HW1 3386   3.820   3.364   1.826
  829SOL    HW2 3387   3.830   3.414   1.671
  830SOL     OW 3388   6.669   4.349   5.913
  830SOL    HW1 3389   6.710   4.389   5.830
  830SOL    HW2 3390   6.742   4.312   5.971
  831SOL     OW 3391   5.854   1.409   3.171
  831SOL    HW1 3392   5.917   1.332   3.167
  831SOL    HW2 3393   5.840   1.437   3.266
  832SOL     OW 3394   3.192   2.006   4.289
  832SOL    HW1 3395   3.187   2.056   4.375
  832SOL    HW2 3396   3.232   2.064   4.218
  833SOL     OW 3397   3.955   2.905   0.195
  833SOL    HW1 3398   3.936   2.872   0.287
  833SOL    HW2 3399   3.895   2.983   0.174
  834SOL     OW 3400   5.252   2.825   0.293
  834SOL    HW1 3401   5.230   2.827   0.196
  834SOL    HW2 3402   5.189   2.884   0.344
  835SOL     OW 3403   6.934   7.017   4.860
  835SOL    HW1 3404   6.875   6.947   4.821
  835SOL    HW2 3405   6.881   0.058   4.920
  836SOL     OW 3406   5.479   0.235   3.940
  836SOL    HW1 3407   5.441   0.159   3.887
  836SOL    HW2 3408   5.407   0.276   3.996
  837SOL     OW 3409   1.717   0.429   6.919
  837SOL    HW1 3410   1.801   0.393   6.960
  837SOL    HW2 3411   1.731   0.526   6.898
  838SOL     OW 3412   2.099   5.453   3.770
  838SOL    HW1 3413   2.031   5.467   3.697
  838SOL    HW2 3414   2.076   5.509   3.849
  839SOL     OW 3415   1.365   2.193   0.125
  839SOL    HW1 3416   1.414   2.266   0.174
  839SOL    HW2 3417   1.282   2.169   0.175
  840SOL     OW 3418   3.820   5.268   0.794
  840SOL    HW1 3419   3.874   5.223   0.723
  840SOL    HW2 3420   3.723   5.265   0.769
  841SOL     OW 3421   2.792   5.387   6.667
  841SOL    HW1 3422   2.747   5.322   6.607
  841SOL    HW2 3423   2.889   5.366   6.673
  842SOL     OW 3424   4.615   6.528   0.720
  842SOL    HW1 3425   4.666   6.449   0.753
  842SOL    HW2 3426   4.642   6.548   0.626
  843SOL     OW 3427   1.500   0.727   1.796
  843SOL    HW1 3428   1.478   0.632   1.821
  843SOL    HW2 3429   1.600   0.738   1.793
  844SOL     OW 3430   6.876   0.049   1.285
  844SOL    HW1 3431   6.852   6.979   1.324
  844SOL    HW2 3432   6.932   0.100   1.349
  845SOL     OW 3433   3.839   1.570   2.147
  845SOL    HW1 3434   3.789   1.494   2.188
  845SOL    HW2 3435   3.775   1.643   2.123
  846SOL     OW 3436   1.813   2.003   0.908
  846SOL    HW1 3437   1.876   1.929   0.887
  846SOL    HW2 3438   1.794   2.005   1.006
  847SOL     OW 3439   2.491   3.454   1.436
  847SOL    HW1 3440   2.581   3.497   1.432
  847SOL    HW2 3441   2.423   3.521   1.463
  848SOL     OW 3442   6.670   6.056   0.207
  848SOL    HW1 3443   6.570   6.050   0.207
  848SOL    HW2 3444   6.707   5.997   0.279
  849SOL     OW 3445   5.583   2.898   6.623
  849SOL    HW1 3446   5.616   2.805   6.635
  849SOL    HW2 3447   5.492   2.908   6.664
  850SOL     OW 3448   1.681   1.061   4.307
  850SOL    HW1 3449   1.778   1.035   4.301
  850SOL    HW2 3450   1.639   1.012   4.384
  851SOL     OW 3451   5.021   2.480   6.178
  851SOL    HW1 3452   4.949   2.527   6.127
  851SOL    HW2 3453   5.087   2.440   6.114
  852SOL     OW 3454   6.629   4.958   1.874
  852SOL    HW1 3455   6.657   4.862   1.880
  852SOL    HW2 3456   6.709   5.017   1.878
  853SOL     OW 3457   2.885   3.267   0.540
  853SOL    HW1 3458   2.851   3.316   0.621
  853SOL    HW2 3459   2.974   3.225   0.562
  854SOL     OW 3460   6.895   6.997   5.275
  854SOL    HW1 3461   6.923   0.073   5.286
  854SOL    HW2 3462   6.869   6.959   5.363
  855SOL     OW 3463   4.650   2.124   0.454
  855SOL    HW1 3464   4.736   2.074   0.443
  855SOL    HW2 3465   4.626   2.129   0.551
  856SOL     OW 3466   1.972   5.436   1.787
  856SOL    HW1 3467   1.997   5.420   1.692
  856SOL    HW2 3468   1.878   5.472   1.792
  857SOL     OW 3469   6.538   5.513   4.963
  857SOL    HW1 3470   6.594   5.506   4.880
  857SOL    HW2 3471   6.551   5.603   5.004
  858SOL     OW 3472   4.029   4.197   6.991
  858SOL    HW1 3473   4.000   4.101   6.994
  858SOL    HW2 3474   4.129   4.201   6.984
  859SOL     OW 3475   5.194   5.544   5.128
  859SOL    HW1 3476   5.123   5.564   5.195
  859SOL    HW2 3477   5.275   5.599   5.147
  860SOL     OW 3478   4.506   2.988   5.640
  860SOL    HW1 3479   4.542   2.948   5.556
  860SOL    HW2 3480   4.528   3.085   5.643
  861SOL     OW 3481   1.121   5.652   2.712
  861SOL    HW1 3482   1.156   5.743   2.736
  861SOL    HW2 3483   1.141   5.633   2.616
  862SOL     OW 3484   0.779   4.358   3.742
  862SOL    HW1 3485   0.713   4.283   3.744
  862SOL    HW2 3486   0.765   4.412   3.659
  863SOL     OW 3487   6.061   0.669   1.487
  863SOL    HW1 3488   5.971   0.672   1.444
  863SOL    HW2 3489   6.081   0.756   1.531
  864SOL     OW 3490   5.905   5.729   2.609
  864SOL    HW1 3491   5.854   5.768   2.532
  864SOL    HW2 3492   5.847   5.733   2.691
  865SOL     OW 3493   1.435   5.229   4.691
  865SOL    HW1 3494   1.379   5.270   4.619
  865SOL    HW2 3495   1.400   5.138   4.712
  866SOL     OW 3496   3.424   0.314   1.912
  866SOL    HW1 3497   3.478   0.308   1.829
  866SOL    HW2 3498   3.333   0.276   1.896
  867SOL     OW 3499   5.954   3.556   5.576
  867SOL    HW1 3500   5.934   3.589   5.669
  867SOL    HW2 3501   5.993   3.630   5.522
  868SOL     OW 3502   0.657   1.912   1.925
  868SOL    HW1 3503   0.658   1.934   2.023
  868SOL    HW2 3504   0.681   1.993   1.873
  869SOL     OW 3505   6.949   3.488   2.784
  869SOL    HW1 3506   6.955   3.452   2.878
  869SOL    HW2 3507   6.873   3.444   2.737
  870SOL     OW 3508   3.690   5.056   2.191
  870SOL    HW1 3509   3.592   5.041   2.206
  870SOL    HW2 3510   3.710   5.050   2.093
  871SOL     OW 3511   5.056   1.851   3.944
  871SOL    HW1 3512   5.049   1.763   3.896
  871SOL    HW2 3513   5.080   1.835   4.040
  872SOL     OW 3514   1.451   1.940   4.903
  872SOL    HW1 3515   1.498   1.864   4.859
  872SOL    HW2 3516   1.514   1.991   4.960
  873SOL     OW 3517   3.975   0.383   6.731
  873SOL    HW1 3518   4.049   0.382   6.664
  873SOL    HW2 3519   4.013   0.366   6.822
  874SOL     OW 3520   5.833   3.772   1.538
  874SOL    HW1 3521   5.851   3.832   1.615
  874SOL    HW2 3522   5.896   3.694   1.541
  875SOL     OW 3523   5.427   5.869   2.145
  875SOL    HW1 3524   5.387   5.952   2.108
  875SOL    HW2 3525   5.436   5.801   2.072
  876SOL     OW 3526   5.567   0.566   6.658
  876SOL    HW1 3527   5.578   0.468   6.640
  876SOL    HW2 3528   5.502   0.604   6.593
  877SOL     OW 3529   1.197   3.547   6.855
  877SOL    HW1 3530   1.129   3.586   6.918
  877SOL    HW2 3531   1.253   3.481   6.904
  878SOL     OW 3532   3.796   6.288   4.229
  878SOL    HW1 3533   3.726   6.339   4.280
  878SOL    HW2 3534   3.795   6.193   4.258
  879SOL     OW 3535   5.816   6.767   6.699
  879SOL    HW1 3536   5.853   6.674   6.700
  879SOL    HW2 3537   5.890   6.833   6.711
  880SOL     OW 3538   3.022   3.535   3.066
  880SOL    HW1 3539   3.023   3.635   3.069
  880SOL    HW2 3540   3.014   3.504   2.971
  881SOL     OW 3541   4.289   2.120   0.515
  881SOL    HW1 3542   4.330   2.044   0.466
  881SOL    HW2 3543   4.297   2.105   0.614
  882SOL     OW 3544   1.821   3.187   3.199
  882SOL    HW1 3545   1.911   3.155   3.170
  882SOL    HW2 3546   1.767   3.210   3.117
  883SOL     OW 3547   2.407   6.798   3.087
  883SOL    HW1 3548   2.363   6.818   3.000
  883SOL    HW2 3549   2.342   6.751   3.147
  884SOL     OW 3550   2.802   3.555   6.022
  884SOL    HW1 3551   2.836   3.491   5.953
  884SOL    HW2 3552   2.799   3.647   5.984
  885SOL     OW 3553   4.419   2.852   6.085
  885SOL    HW1 3554   4.469   2.767   6.073
  885SOL    HW2 3555   4.321   2.833   6.085
  886SOL     OW 3556   3.819   1.452   6.686
  886SOL    HW1 3557   3.828   1.550   6.703
  886SOL    HW2 3558   3.752   1.436   6.614
  887SOL     OW 3559   5.164   1.086   5.361
  887SOL    HW1 3560   5.077   1.102   5.313
  887SOL    HW2 3561   5.228   1.161   5.341
  888SOL     OW 3562   6.888   6.453   1.863
  888SOL    HW1 3563   6.891   6.353   1.861
  888SOL    HW2 3564   6.963   6.487   1.919
  889SOL     OW 3565   0.329   3.267   0.073
  889SOL    HW1 3566   0.236   3.264   0.110
  889SOL    HW2 3567   0.389   3.315   0.137
  890SOL     OW 3568   2.454   6.298   4.252
  890SOL    HW1 3569   2.520   6.369   4.229
  890SOL    HW2 3570   2.368   6.317   4.205
  891SOL     OW 3571   5.193   4.879   2.526
  891SOL    HW1 3572   5.188   4.971   2.487
  891SOL    HW2 3573   5.278   4.871   2.579
  892SOL     OW 3574   2.355   5.029   0.772
  892SOL    HW1 3575   2.322   4.945   0.814
  892SOL    HW2 3576   2.372   5.013   0.674
  893SOL     OW 3577   1.073   5.133   2.774
  893SOL    HW1 3578   1.028   5.221   2.789
  893SOL    HW2 3579   1.101   5.094   2.863
  894SOL     OW 3580   1.074   4.404   0.728
  894SOL    HW1 3581   1.160   4.362   0.756
  894SOL    HW2 3582   1.005   4.391   0.800
  895SOL     OW 3583   6.880   5.353   3.963
  895SOL    HW1 3584   6.972   5.329   3.995
  895SOL    HW2 3585   6.819   5.364   4.041
  896SOL     OW 3586   0.970   0.800   6.606
  896SOL    HW1 3587   1.013   0.879   6.562
  896SOL    HW2 3588   0.912   0.832   6.681
  897SOL     OW 3589   4.694   1.279   0.581
  897SOL    HW1 3590   4.743   1.249   0.663
  897SOL    HW2 3591   4.705   1.210   0.509
  898SOL     OW 3592   3.936   0.565   2.944
  898SOL    HW1 3593   3.975   0.556   3.035
  898SOL    HW2 3594   3.969   0.490   2.886
  899SOL     OW 3595   6.772   5.785   0.191
  899SOL    HW1 3596   6.865   5.748   0.183
  899SOL    HW2 3597   6.763   5.865   0.132
  900SOL     OW 3598   5.384   5.064   0.836
  900SOL    HW1 3599   5.387   5.103   0.744
  900SOL    HW2 3600   5.314   5.111   0.890
  901SOL     OW 3601   1.245   0.121   2.919
  901SOL    HW1 3602   1.282   0.169   2.999
  901SOL    HW2 3603   1.158   0.163   2.893
  902SOL     OW 3604   6.478   2.817   1.496
  902SOL    HW1 3605   6.473   2.836   1.398
  902SOL    HW2 3606   6.573   2.795   1.521
  903SOL     OW 3607   0.240   1.443   0.934
  903SOL    HW1 3608   0.330   1.488   0.937
  903SOL    HW2 3609   0.169   1.510   0.951
  904SOL     OW 3610   2.266   0.923   2.857
  904SOL    HW1 3611   2.270   1.019   2.885
  904SOL    HW2 3612   2.357   0.883   2.864
  905SOL     OW 3613   5.872   1.984   6.705
  905SOL    HW1 3614   5.813   2.035   6.768
  905SOL    HW2 3615   5.829   1.980   6.615
  906SOL     OW 3616   5.218   2.816   6.995
  906SOL    HW1 3617   5.296   2.776   6.946
  906SOL    HW2 3618   5.146   2.746   7.004
  907SOL     OW 3619   5.352   4.430   6.457
  907SOL    HW1 3620   5.425   4.364   6.473
  907SOL    HW2 3621   5.349   4.453   6.359
  908SOL     OW 3622   1.158   4.173   2.897
  908SOL    HW1 3623   1.115   4.175   2.988
  908SOL    HW2 3624   1.126   4.092   2.848
  909SOL     OW 3625   5.133   5.853   6.109
  909SOL    HW1 3626   5.074   5.776   6.135
  909SOL    HW2 3627   5.222   5.817   6.079
  910SOL     OW 3628   2.704   4.781   0.443
  910SOL    HW1 3629   2.633   4.777   0.512
  910SOL    HW2 3630   2.714   4.691   0.399
  911SOL     OW 3631   1.331   4.620   5.960
  911SOL    HW1 3632   1.240   4.589   5.990
  911SOL    HW2 3633   1.323   4.665   5.871
  912SOL     OW 3634   4.957   1.871   4.714
  912SOL    HW1 3635   5.047   1.913   4.715
  912SOL    HW2 3636   4.965   1.772   4.729
  913SOL     OW 3637   5.137   6.577   2.743
  913SOL    HW1 3638   5.232   6.549   2.758
  913SOL    HW2 3639   5.103   6.624   2.824
  914SOL     OW 3640   3.467   6.504   6.435
  914SOL    HW1 3641   3.387   6.523   6.491
  914SOL    HW2 3642   3.530   6.583   6.439
  915SOL     OW 3643   4.976   5.906   1.524
  915SOL    HW1 3644   5.040   5.913   1.448
  915SOL    HW2 3645   5.026   5.878   1.607
  916SOL     OW 3646   1.391   3.044   2.539
  916SOL    HW1 3647   1.460   2.975   2.517
  916SOL    HW2 3648   1.300   3.002   2.536
  917SOL     OW 3649   0.456   6.751   6.743
  917SOL    HW1 3650   0.419   6.824   6.687
  917SOL    HW2 3651   0.519   6.790   6.811
  918SOL     OW 3652   3.207   6.564   6.946
  918SOL    HW1 3653   3.149   6.645   6.933
  918SOL    HW2 3654   3.274   6.581   7.018
  919SOL     OW 3655   4.790   1.341   5.783
  919SOL    HW1 3656   4.712   1.302   5.734
  919SOL    HW2 3657   4.820   1.425   5.737
  920SOL     OW 3658   2.985   5.235   1.929
  920SOL    HW1 3659   2.897   5.205   1.967
  920SOL    HW2 3660   3.035   5.156   1.894
  921SOL     OW 3661   5.149   5.472   4.882
  921SOL    HW1 3662   5.096   5.388   4.876
  921SOL    HW2 3663   5.152   5.503   4.977
  922SOL     OW 3664   3.332   3.110   3.586
  922SOL    HW1 3665   3.329   3.209   3.594
  922SOL    HW2 3666   3.378   3.071   3.665
  923SOL     OW 3667   2.163   3.601   5.652
  923SOL    HW1 3668   2.234   3.562   5.710
  923SOL    HW2 3669   2.181   3.699   5.638
  924SOL     OW 3670   0.292   3.299   1.489
  924SOL    HW1 3671   0.284   3.399   1.483
  924SOL    HW2 3672   0.385   3.275   1.516
  925SOL     OW 3673   0.674   1.503   0.467
  925SOL    HW1 3674   0.649   1.442   0.542
  925SOL    HW2 3675   0.641   1.595   0.486
  926SOL     OW 3676   2.017   1.822   1.629
  926SOL    HW1 3677   2.088   1.786   1.689
  926SOL    HW2 3678   2.001   1.758   1.554
  927SOL     OW 3679   0.152   3.885   4.276
  927SOL    HW1 3680   0.118   3.912   4.185
  927SOL    HW2 3681   0.196   3.795   4.270
  928SOL     OW 3682   3.325   4.945   5.807
  928SOL    HW1 3683   3.300   4.857   5.767
  928SOL    HW2 3684   3.422   4.946   5.830
  929SOL     OW 3685   0.480   1.943   4.345
  929SOL    HW1 3686   0.464   1.971   4.440
  929SOL    HW2 3687   0.430   2.004   4.284
  930SOL     OW 3688   5.620   5.466   4.540
  930SOL    HW1 3689   5.590   5.423   4.455
  930SOL    HW2 3690   5.608   5.565   4.534
  931SOL     OW 3691   6.271   0.798   3.424
  931SOL    HW1 3692   6.204   0.727   3.443
  931SOL    HW2 3693   6.358   0.776   3.469
  932SOL     OW 3694   3.562   0.519   3.943
  932SOL    HW1 3695   3.534   0.425   3.923
  932SOL    HW2 3696   3.542   0.578   3.865
  933SOL     OW 3697   1.478   5.724   1.823
  933SOL    HW1 3698   1.454   5.635   1.785
  933SOL    HW2 3699   1.482   5.793   1.751
  934SOL     OW 3700   1.792   3.396   0.670
  934SOL    HW1 3701   1.737   3.414   0.752
  934SOL    HW2 3702   1.841   3.309   0.680
  935SOL     OW 3703   5.890   2.884   5.465
  935SOL    HW1 3704   5.792   2.902   5.455
  935SOL    HW2 3705   5.942   2.943   5.404
  936SOL     OW 3706   2.015   0.650   6.176
  936SOL    HW1 3707   2.013   0.579   6.106
  936SOL    HW2 3708   2.068   0.728   6.143
  937SOL     OW 3709   3.554   2.479   5.806
  937SOL    HW1 3710   3.570   2.543   5.730
  937SOL    HW2 3711   3.642   2.450   5.844
  938SOL     OW 3712   5.069   6.161   4.590
  938SOL    HW1 3713   5.067   6.251   4.547
  938SOL    HW2 3714   5.075   6.172   4.690
  939SOL     OW 3715   1.443   0.243   5.614
  939SOL    HW1 3716   1.502   0.210   5.688
  939SOL    HW2 3717   1.347   0.224   5.635
  940SOL     OW 3718   1.687   5.298   0.744
  940SOL    HW1 3719   1.667   5.294   0.646
  940SOL    HW2 3720   1.644   5.220   0.790
  941SOL     OW 3721   3.678   0.035   0.878
  941SOL    HW1 3722   3.670   0.120   0.826
  941SOL    HW2 3723   3.761   0.037   0.934
  942SOL     OW 3724   6.464   4.452   0.090
  942SOL    HW1 3725   6.524   4.528   0.066
  942SOL    HW2 3726   6.394   4.441   0.019
  943SOL     OW 3727   3.746   5.714   1.219
  943SOL    HW1 3728   3.789   5.627   1.192
  943SOL    HW2 3729   3.678   5.740   1.151
  944SOL     OW 3730   6.696   6.147   3.205
  944SOL    HW1 3731   6.618   6.102   3.162
  944SOL    HW2 3732   6.707   6.112   3.298
  945SOL     OW 3733   0.560   5.352   6.255
  945SOL    HW1 3734   0.533   5.329   6.162
  945SOL    HW2 3735   0.599   5.444   6.257
  946SOL     OW 3736   6.149   2.356   4.041
  946SOL    HW1 3737   6.149   2.424   3.968
  946SOL    HW2 3738   6.105   2.272   4.009
  947SOL     OW 3739   3.889   3.988   3.244
  947SOL    HW1 3740   3.974   4.034   3.219
  947SOL    HW2 3741   3.864   3.922   3.173
  948SOL     OW 3742   3.390   1.044   3.901
  948SOL    HW1 3743   3.313   1.096   3.936
  948SOL    HW2 3744   3.475   1.081   3.939
  949SOL     OW 3745   2.886   0.167   5.854
  949SOL    HW1 3746   2.967   0.192   5.908
  949SOL    HW2 3747   2.841   0.251   5.822
  950SOL     OW 3748   6.916   0.453   2.242
  950SOL    HW1 3749   6.942   0.550   2.231
  950SOL    HW2 3750   6.992   0.403   2.284
  951SOL     OW 3751   1.469   0.114   3.351
  951SOL    HW1 3752   1.517   0.086   3.434
  951SOL    HW2 3753   1.489   0.210   3.332
  952SOL     OW 3754   3.868   1.902   3.379
  952SOL    HW1 3755   3.816   1.981   3.348
  952SOL    HW2 3756   3.927   1.928   3.456
  953SOL     OW 3757   0.659   5.164   5.853
  953SOL    HW1 3758   0.692   5.090   5.795
  953SOL    HW2 3759   0.599   5.224   5.799
  954SOL     OW 3760   4.739   6.707   2.414
  954SOL    HW1 3761   4.671   6.770   2.450
  954SOL    HW2 3762   4.772   6.648   2.487
  955SOL     OW 3763   2.400   5.198   1.303
  955SOL    HW1 3764   2.476   5.165   1.359
  955SOL    HW2 3765   2.436   5.249   1.225
  956SOL     OW 3766   4.169   0.463   1.221
  956SOL    HW1 3767   4.251   0.433   1.269
  956SOL    HW2 3768   4.167   0.423   1.129
  957SOL     OW 3769   5.806   6.972   2.983
  957SOL    HW1 3770   5.769   0.037   3.023
  957SOL    HW2 3771   5.849   6.993   2.896
  958SOL     OW 3772   5.011   6.267   1.676
  958SOL    HW1 3773   5.101   6.256   1.634
  958SOL    HW2 3774   5.020   6.259   1.776
  959SOL     OW 3775   5.120   0.091   3.364
  959SOL    HW1 3776   5.151   0.034   3.440
  959SOL    HW2 3777   5.090   0.180   3.399
  960SOL     OW 3778   1.891   6.295   6.232
  960SOL    HW1 3779   1.949   6.376   6.230
  960SOL    HW2 3780   1.915   6.240   6.312
  961SOL     OW 3781   4.164   1.347   3.342
  961SOL    HW1 3782   4.218   1.346   3.258
  961SOL    HW2 3783   4.182   1.431   3.392
  962SOL     OW 3784   0.152   0.137   4.865
  962SOL    HW1 3785   0.129   0.229   4.899
  962SOL    HW2 3786   0.071   0.079   4.871
  963SOL     OW 3787   5.696   2.950   1.146
  963SOL    HW1 3788   5.616   2.933   1.203
  963SOL    HW2 3789   5.716   3.048   1.146
  964SOL     OW 3790   3.779   6.479   5.003
  964SOL    HW1 3791   3.842   6.413   5.042
  964SOL    HW2 3792   3.801   6.570   5.036
  965SOL     OW 3793   5.230   2.734   4.131
  965SOL    HW1 3794   5.197   2.736   4.226
  965SOL    HW2 3795   5.155   2.760   4.070
  966SOL     OW 3796   5.128   1.367   4.233
  966SOL    HW1 3797   5.188   1.332   4.304
  966SOL    HW2 3798   5.074   1.293   4.195
  967SOL     OW 3799   4.227   5.240   6.583
  967SOL    HW1 3800   4.193   5.314   6.525
  967SOL    HW2 3801   4.327   5.240   6.581
  968SOL     OW 3802   3.753   0.546   1.143
  968SOL    HW1 3803   3.675   0.486   1.121
  968SOL    HW2 3804   3.808   0.560   1.061
  969SOL     OW 3805   2.723   3.760   6.389
  969SOL    HW1 3806   2.775   3.803   6.315
  969SOL    HW2 3807   2.706   3.827   6.461
  970SOL     OW 3808   5.239   6.744   5.302
  970SOL    HW1 3809   5.167   6.810   5.281
  970SOL    HW2 3810   5.224   6.660   5.250
  971SOL     OW 3811   5.163   3.610   3.418
  971SOL    HW1 3812   5.219   3.669   3.361
  971SOL    HW2 3813   5.138   3.528   3.367
  972SOL     OW 3814   0.397   2.327   0.867
  972SOL    HW1 3815   0.348   2.390   0.927
  972SOL    HW2 3816   0.336   2.253   0.838
  973SOL     OW 3817   0.082   2.649   4.980
  973SOL    HW1 3818   0.149   2.609   5.043
  973SOL    HW2 3819   0.131   2.704   4.911
  974SOL     OW 3820   0.783   3.786   2.177
  974SOL    HW1 3821   0.854   3.748   2.236
  974SOL    HW2 3822   0.824   3.820   2.092
  975SOL     OW 3823   3.077   0.340   2.723
  975SOL    HW1 3824   3.022   0.271   2.675
  975SOL    HW2 3825   3.147   0.376   2.661
  976SOL     OW 3826   0.450   2.978   3.979
  976SOL    HW1 3827   0.369   2.966   3.920
  976SOL    HW2 3828   0.531   2.946   3.931
  977SOL     OW 3829   6.277   1.558   2.393
  977SOL    HW1 3830   6.228   1.493   2.451
  977SOL    HW2 3831   6.239   1.557   2.300
  978SOL     OW 3832   4.750   3.128   0.560
  978SOL    HW1 3833   4.822   3.195   0.540
  978SOL    HW2 3834   4.778   3.071   0.638
  979SOL     OW 3835   0.243   4.577   6.445
  979SOL    HW1 3836   0.318   4.546   6.386
  979SOL    HW2 3837   0.255   4.674   6.466
  980SOL     OW 3838   4.446   1.297   4.517
  980SOL    HW1 3839   4.393   1.373   4.555
  980SOL    HW2 3840   4.522   1.333   4.463
  981SOL     OW 3841   0.837   6.235   5.346
  981SOL    HW1 3842   0.936   6.228   5.345
  981SOL    HW2 3843   0.810   6.322   5.388
  982SOL     OW 3844   0.019   0.925   6.829
  982SOL    HW1 3845   7.012   0.861   6.901
  982SOL    HW2 3846   6.991   1.012   6.843
  983SOL     OW 3847   0.530   3.759   3.092
  983SOL    HW1 3848   0.444   3.764   3.143
  983SOL    HW2 3849   0.510   3.752   2.994
  984SOL     OW 3850   0.567   3.542   3.978
  984SOL    HW1 3851   0.511   3.605   3.924
  984SOL    HW2 3852   0.663   3.556   3.957
  985SOL     OW 3853   5.787   5.942   5.013
  985SOL    HW1 3854   5.690   5.964   5.018
  985SOL    HW2 3855   5.799   5.842   5.017
  986SOL     OW 3856   4.507   5.211   1.123
  986SOL    HW1 3857   4.575   5.143   1.152
  986SOL    HW2 3858   4.479   5.266   1.201
  987SOL     OW 3859   4.828   4.612   4.843
  987SOL    HW1 3860   4.747   4.592   4.899
  987SOL    HW2 3861   4.837   4.542   4.773
  988SOL     OW 3862   2.972   4.823   2.015
  988SOL    HW1 3863   2.975   4.903   1.954
  988SOL    HW2 3864   2.953   4.741   1.961
  989SOL     OW 3865   0.410   2.882   1.070
  989SOL    HW1 3866   0.341   2.813   1.048
  989SOL    HW2 3867   0.443   2.924   0.986
  990SOL     OW 3868   3.824   0.312   5.109
  990SOL    HW1 3869   3.814   0.362   5.023
  990SOL    HW2 3870   3.921   0.298   5.128
  991SOL     OW 3871   0.976   5.783   4.305
  991SOL    HW1 3872   0.981   5.768   4.404
  991SOL    HW2 3873   1.026   5.710   4.259
  992SOL     OW 3874   6.767   2.334   0.171
  992SOL    HW1 3875   6.751   2.431   0.150
  992SOL    HW2 3876   6.702   2.304   0.240
  993SOL     OW 3877   1.910   4.219   0.217
  993SOL    HW1 3878   1.990   4.279   0.218
  993SOL    HW2 3879   1.874   4.213   0.123
  994SOL     OW 3880   2.825   0.033   1.442
  994SOL    HW1 3881   2.778   0.007   1.357
  994SOL    HW2 3882   2.851   0.129   1.437
  995SOL     OW 3883   6.090   3.720   5.406
  995SOL    HW1 3884   6.184   3.751   5.418
  995SOL    HW2 3885   6.077   3.685   5.314
  996SOL     OW 3886   4.130   6.479   5.058
  996SOL    HW1 3887   4.220   6.519   5.040
  996SOL    HW2 3888   4.124   6.454   5.155
  997SOL     OW 3889   1.622   5.767   3.382
  997SOL    HW1 3890   1.702   5.815   3.419
  997SOL    HW2 3891   1.552   5.759   3.453
  998SOL     OW 3892   4.596   0.271   6.805
  998SOL    HW1 3893   4.592   0.235   6.712
  998SOL    HW2 3894   4.504   0.278   6.843
  999SOL     OW 3895   5.268   2.703   2.616
  999SOL    HW1 3896   5.181   2.742   2.646
  999SOL    HW2 3897   5.325   2.685   2.696
 1000SOL     OW 3898   4.968   1.577   2.144
 1000SOL    HW1 3899   4.948   1.487   2.104
 1000SOL    HW2 3900   5.018   1.632   2.077
 1001SOL     OW 3901   2.667   6.557   2.837
 1001SOL    HW1 3902   2.567   6.565   2.837
 1001SOL    HW2 3903   2.707   6.642   2.871
 1002SOL     OW 3904   4.212   2.705   1.034
 1002SOL    HW1 3905   4.310   2.724   1.039
 1002SOL    HW2 3906   4.198   2.606   1.033
 1003SOL     OW 3907   0.930   0.220   2.870
 1003SOL    HW1 3908   0.856   0.168   2.913
 1003SOL    HW2 3909   0.891   0.281   2.801
 1004SOL     OW 3910   5.271   1.344   4.474
 1004SOL    HW1 3911   5.330   1.265   4.488
 1004SOL    HW2 3912   5.200   1.345   4.545
 1005SOL     OW 3913   0.727   5.241   1.780
 1005SOL    HW1 3914   0.685   5.151   1.781
 1005SOL    HW2 3915   0.826   5.232   1.787
 1006SOL     OW 3916   2.161   4.378   1.797
 1006SOL    HW1 3917   2.160   4.448   1.867
 1006SOL    HW2 3918   2.227   4.402   1.726
 1007SOL     OW 3919   4.590   1.032   6.389
 1007SOL    HW1 3920   4.511   1.003   6.335
 1007SOL    HW2 3921   4.559   1.086   6.467
 1008SOL     OW 3922   0.542   5.022   5.011
 1008SOL    HW1 3923   0.475   4.952   4.985
 1008SOL    HW2 3924   0.554   5.022   5.110
 1009SOL     OW 3925   6.686   5.836   6.125
 1009SOL    HW1 3926   6.658   5.920   6.172
 1009SOL    HW2 3927   6.628   5.760   6.156
 1010SOL     OW 3928   3.070   3.612   0.379
 1010SOL    HW1 3929   3.127   3.534   0.351
 1010SOL    HW2 3930   2.979   3.579   0.404
 1011SOL     OW 3931   6.912   4.765   2.087
 1011SOL    HW1 3932   6.889   4.668   2.076
 1011SOL    HW2 3933   6.846   4.808   2.148
 1012SOL     OW 3934   5.970   6.459   2.946
 1012SOL    HW1 3935   5.910   6.404   2.886
 1012SOL    HW2 3936   5.953   6.556   2.930
 1013SOL     OW 3937   0.232   0.293   5.974
 1013SOL    HW1 3938   0.255   0.390   5.966
 1013SOL    HW2 3939   0.278   0.242   5.902
 1014SOL     OW 3940   0.999   5.044   4.387
 1014SOL    HW1 3941   1.047   5.039   4.300
 1014SOL    HW2 3942   0.903   5.070   4.371
 1015SOL     OW 3943   1.853   6.760   0.209
 1015SOL    HW1 3944   1.895   6.716   0.129
 1015SOL    HW2 3945   1.908   6.839   0.236
 1016SOL     OW 3946   0.098   4.422   0.713
 1016SOL    HW1 3947   0.082   4.349   0.780
 1016SOL    HW2 3948   0.091   4.384   0.621
 1017SOL     OW 3949   2.363   1.211   2.657
 1017SOL    HW1 3950   2.320   1.206   2.747
 1017SOL    HW2 3951   2.294   1.199   2.586
 1018SOL     OW 3952   6.099   6.005   4.082
 1018SOL    HW1 3953   6.161   5.961   4.018
 1018SOL    HW2 3954   6.085   5.945   4.162
 1019SOL     OW 3955   5.924   4.315   1.140
 1019SOL    HW1 3956   5.991   4.388   1.131
 1019SOL    HW2 3957   5.898   4.282   1.049
 1020SOL     OW 3958   5.074   1.416   1.768
 1020SOL    HW1 3959   5.112   1.339   1.717
 1020SOL    HW2 3960   5.024   1.382   1.848
 1021SOL     OW 3961   1.077   6.915   0.920
 1021SOL    HW1 3962   0.989   6.960   0.932
 1021SOL    HW2 3963   1.127   6.914   1.006
 1022SOL     OW 3964   2.181   5.097   6.563
 1022SOL    HW1 3965   2.089   5.099   6.524
 1022SOL    HW2 3966   2.244   5.143   6.501
 1023SOL     OW 3967   0.807   1.816   2.260
 1023SOL    HW1 3968   0.739   1.743   2.256
 1023SOL    HW2 3969   0.897   1.780   2.238
 1024SOL     OW 3970   1.839   2.156   4.244
 1024SOL    HW1 3971   1.913   2.167   4.178
 1024SOL    HW2 3972   1.775   2.086   4.210
 1025SOL     OW 3973   4.758   4.330   1.164
 1025SOL    HW1 3974   4.825   4.289   1.102
 1025SOL    HW2 3975   4.672   4.346   1.115
 1026SOL     OW 3976   3.166   3.021   1.906
 1026SOL    HW1 3977   3.086   2.980   1.861
 1026SOL    HW2 3978   3.187   3.108   1.863
 1027SOL     OW 3979   6.470   6.264   6.986
 1027SOL    HW1 3980   6.428   6.203   0.034
 1027SOL    HW2 3981   6.569   6.252   6.987
 1028SOL     OW 3982   0.772   4.863   2.864
 1028SOL    HW1 3983   0.711   4.891   2.790
 1028SOL    HW2 3984   0.795   4.942   2.920
 1029SOL     OW 3985   1.246   1.013   5.163
 1029SOL    HW1 3986   1.279   0.996   5.255
 1029SOL    HW2 3987   1.157   1.059   5.167
 1030SOL     OW 3988   3.808   3.475   0.842
 1030SOL    HW1 3989   3.878   3.440   0.905
 1030SOL    HW2 3990   3.842   3.559   0.800
 1031SOL     OW 3991   4.485   3.493   0.577
 1031SOL    HW1 3992   4.551   3.556   0.536
 1031SOL    HW2 3993   4.396   3.506   0.534
 1032SOL     OW 3994   1.920   1.529   0.888
 1032SOL    HW1 3995   2.012   1.541   0.851
 1032SOL    HW2 3996   1.893   1.433   0.881
 1033SOL     OW 3997   6.844   0.685   2.007
 1033SOL    HW1 3998   6.757   0.637   2.010
 1033SOL    HW2 3999   6.919   0.619   2.018
 1034SOL     OW 4000   3.276   0.704   5.325
 1034SOL    HW1 4001   3.243   0.720   5.232
 1034SOL    HW2 4002   3.201   0.715   5.390
 1035SOL     OW 4003   1.607   0.320   0.488
 1035SOL    HW1 4004   1.608   0.313   0.389
 1035SOL    HW2 4005   1.512   0.320   0.520
 1036SOL     OW 4006   4.618   1.528   2.081
 1036SOL    HW1 4007   4.584   1.485   1.998
 1036SOL    HW2 4008   4.630   1.626   2.066
 1037SOL     OW 4009   1.587   3.646   2.661
 1037SOL    HW1 4010   1.566   3.623   2.566
 1037SOL    HW2 4011   1.622   3.740   2.666
 1038SOL     OW 4012   2.015   6.135   0.188
 1038SOL    HW1 4013   2.083   6.207   0.173
 1038SOL    HW2 4014   1.968   6.151   0.275
 1039SOL     OW 4015   3.283   3.485   3.126
 1039SOL    HW1 4016   3.282   3.386   3.143
 1039SOL    HW2 4017   3.190   3.518   3.116
 1040SOL     OW 4018   3.629   1.805   3.028
 1040SOL    HW1 4019   3.707   1.834   2.973
 1040SOL    HW2 4020   3.561   1.879   3.030
 1041SOL     OW 4021   6.831   6.650   6.395
 1041SOL    HW1 4022   6.900   6.710   6.354
 1041SOL    HW2 4023   6.875   6.590   6.462
 1042SOL     OW 4024   5.261   3.889   3.949
 1042SOL    HW1 4025   5.251   3.914   3.853
 1042SOL    HW2 4026   5.328   3.816   3.959
 1043SOL     OW 4027   2.703   1.763   3.819
 1043SOL    HW1 4028   2.776   1.696   3.807
 1043SOL    HW2 4029   2.630   1.723   3.875
 1044SOL     OW 4030   5.679   4.679   2.338
 1044SOL    HW1 4031   5.728   4.764   2.320
 1044SOL    HW2 4032   5.627   4.688   2.423
 1045SOL     OW 4033   1.895   0.448   2.651
 1045SOL    HW1 4034   1.910   0.546   2.661
 1045SOL    HW2 4035   1.983   0.402   2.638
 1046SOL     OW 4036   2.616   2.251   1.060
 1046SOL    HW1 4037   2.534   2.244   1.002
 1046SOL    HW2 4038   2.607   2.330   1.121
 1047SOL     OW 4039   4.083   0.662   3.521
 1047SOL    HW1 4040   4.120   0.642   3.611
 1047SOL    HW2 4041   4.155   0.702   3.463
 1048SOL     OW 4042   1.015   0.032   1.978
 1048SOL    HW1 4043   0.967   7.000   1.906
 1048SOL    HW2 4044   0.964   0.115   2.000
 1049SOL     OW 4045   4.022   6.652   0.225
 1049SOL    HW1 4046   4.052   6.747   0.218
 1049SOL    HW2 4047   4.025   6.610   0.134
 1050SOL     OW 4048   2.625   0.905   4.262
 1050SOL    HW1 4049   2.637   0.901   4.361
 1050SOL    HW2 4050   2.668   0.826   4.220
 1051SOL     OW 4051   1.742   1.499   5.474
 1051SOL    HW1 4052   1.669   1.526   5.535
 1051SOL    HW2 4053   1.779   1.579   5.427
 1052SOL     OW 4054   4.129   1.663   6.946
 1052SOL    HW1 4055   4.191   1.591   6.977
 1052SOL    HW2 4056   4.123   1.734   7.016
 1053SOL     OW 4057   5.138   2.699   4.743
 1053SOL    HW1 4058   5.197   2.759   4.688
 1053SOL    HW2 4059   5.046   2.699   4.705
 1054SOL     OW 4060   4.325   5.492   6.660
 1054SOL    HW1 4061   4.269   5.554   6.605
 1054SOL    HW2 4062   4.271   5.458   6.737
 1055SOL     OW 4063   4.857   5.814   6.777
 1055SOL    HW1 4064   4.913   5.818   6.694
 1055SOL    HW2 4065   4.767   5.854   6.759
 1056SOL     OW 4066   3.728   3.821   0.296
 1056SOL    HW1 4067   3.758   3.888   0.364
 1056SOL    HW2 4068   3.780   3.736   0.309
 1057SOL     OW 4069   3.212   2.976   6.553
 1057SOL    HW1 4070   3.183   3.048   6.490
 1057SOL    HW2 4071   3.308   2.988   6.576
 1058SOL     OW 4072   2.968   2.108   1.915
 1058SOL    HW1 4073   2.941   2.186   1.971
 1058SOL    HW2 4074   2.995   2.139   1.824
 1059SOL     OW 4075   2.484   6.284   2.248
 1059SOL    HW1 4076   2.531   6.344   2.313
 1059SOL    HW2 4077   2.453   6.201   2.294
 1060SOL     OW 4078   6.391   0.471   5.152
 1060SOL    HW1 4079   6.418   0.375   5.144
 1060SOL    HW2 4080   6.361   0.489   5.245
 1061SOL     OW 4081   0.141   3.354   6.344
 1061SOL    HW1 4082   0.088   3.353   6.428
 1061SOL    HW2 4083   0.164   3.261   6.317
 1062SOL     OW 4084   3.248   5.407   5.130
 1062SOL    HW1 4085   3.201   5.479   5.181
 1062SOL    HW2 4086   3.342   5.436   5.110
 1063SOL     OW 4087   2.973   6.468   4.013
 1063SOL    HW1 4088   2.986   6.567   4.025
 1063SOL    HW2 4089   2.911   6.452   3.936
 1064SOL     OW 4090   0.761   3.446   0.174
 1064SOL    HW1 4091   0.745   3.534   0.129
 1064SOL    HW2 4092   0.677   3.418   0.221
 1065SOL     OW 4093   6.053   0.830   4.971
 1065SOL    HW1 4094   6.067   0.760   4.901
 1065SOL    HW2 4095   5.961   0.820   5.010
 1066SOL     OW 4096   4.925   6.123   1.274
 1066SOL    HW1 4097   4.846   6.067   1.248
 1066SOL    HW2 4098   4.914   6.154   1.368
 1067SOL     OW 4099   2.304   1.714   0.173
 1067SOL    HW1 4100   2.392   1.748   0.206
 1067SOL    HW2 4101   2.267   1.777   0.104
 1068SOL     OW 4102   6.201   3.024   1.355
 1068SOL    HW1 4103   6.127   3.035   1.289
 1068SOL    HW2 4104   6.209   2.928   1.380
 1069SOL     OW 4105   6.539   2.656   2.409
 1069SOL    HW1 4106   6.464   2.625   2.350
 1069SOL    HW2 4107   6.623   2.608   2.384
 1070SOL     OW 4108   0.936   0.557   2.290
 1070SOL    HW1 4109   0.868   0.606   2.345
 1070SOL    HW2 4110   0.918   0.574   2.193
 1071SOL     OW 4111   0.649   2.903   5.903
 1071SOL    HW1 4112   0.683   2.963   5.830
 1071SOL    HW2 4113   0.551   2.916   5.914
 1072SOL     OW 4114   2.046   1.596   1.920
 1072SOL    HW1 4115   1.957   1.553   1.936
 1072SOL    HW2 4116   2.119   1.531   1.943
 1073SOL     OW 4117   5.431   2.506   3.213
 1073SOL    HW1 4118   5.410   2.425   3.268
 1073SOL    HW2 4119   5.347   2.542   3.172
 1074SOL     OW 4120   3.263   5.344   1.260
 1074SOL    HW1 4121   3.265   5.356   1.359
 1074SOL    HW2 4122   3.169   5.348   1.228
 1075SOL     OW 4123   6.583   3.940   5.134
 1075SOL    HW1 4124   6.504   3.977   5.085
 1075SOL    HW2 4125   6.618   4.008   5.199
 1076SOL     OW 4126   2.256   4.259   5.244
 1076SOL    HW1 4127   2.259   4.258   5.344
 1076SOL    HW2 4128   2.301   4.177   5.209
 1077SOL     OW 4129   0.014   6.395   0.173
 1077SOL    HW1 4130   0.043   6.458   0.245
 1077SOL    HW2 4131   6.971   6.442   0.110
 1078SOL     OW 4132   6.103   5.909   4.472
 1078SOL    HW1 4133   6.177   5.950   4.526
 1078SOL    HW2 4134   6.139   5.833   4.418
 1079SOL     OW 4135   0.702   6.734   1.010
 1079SOL    HW1 4136   0.788   6.720   0.961
 1079SOL    HW2 4137   0.657   6.646   1.023
 1080SOL     OW 4138   4.007   5.992   0.419
 1080SOL    HW1 4139   3.958   6.041   0.492
 1080SOL    HW2 4140   4.076   5.932   0.460
 1081SOL     OW 4141   6.730   6.637   3.742
 1081SOL    HW1 4142   6.689   6.714   3.693
 1081SOL    HW2 4143   6.788   6.585   3.679
 1082SOL     OW 4144   4.475   6.809   0.398
 1082SOL    HW1 4145   4.504   6.901   0.368
 1082SOL    HW2 4146   4.486   6.802   0.497
 1083SOL     OW 4147   6.116   3.738   1.936
 1083SOL    HW1 4148   6.203   3.773   1.972
 1083SOL    HW2 4149   6.061   3.701   2.011
 1084SOL     OW 4150   5.729   0.626   5.582
 1084SOL    HW1 4151   5.732   0.676   5.668
 1084SOL    HW2 4152   5.696   0.532   5.599
 1085SOL     OW 4153   2.076   3.411   5.158
 1085SOL    HW1 4154   2.034   3.378   5.242
 1085SOL    HW2 4155   2.064   3.343   5.086
 1086SOL     OW 4156   5.865   5.022   1.897
 1086SOL    HW1 4157   5.908   4.991   1.981
 1086SOL    HW2 4158   5.844   4.943   1.839
 1087SOL     OW 4159   4.120   0.318   5.752
 1087SOL    HW1 4160   4.182   0.244   5.724
 1087SOL    HW2 4161   4.151   0.357   5.838
 1088SOL     OW 4162   6.791   5.149   4.243
 1088SOL    HW1 4163   6.809   5.081   4.171
 1088SOL    HW2 4164   6.858   5.223   4.236
 1089SOL     OW 4165   5.454   5.260   3.998
 1089SOL    HW1 4166   5.463   5.309   3.912
 1089SOL    HW2 4167   5.357   5.249   4.020
 1090SOL     OW 4168   5.675   2.775   5.095
 1090SOL    HW1 4169   5.605   2.741   5.157
 1090SOL    HW2 4170   5.724   2.698   5.055
 1091SOL     OW 4171   2.016   3.547   3.068
 1091SOL    HW1 4172   2.084   3.619   3.081
 1091SOL    HW2 4173   2.009   3.525   2.971
 1092SOL     OW 4174   0.749   6.387   0.686
 1092SOL    HW1 4175   0.812   6.320   0.726
 1092SOL    HW2 4176   0.655   6.352   0.691
 1093SOL     OW 4177   1.361   0.752   3.596
 1093SOL    HW1 4178   1.310   0.724   3.677
 1093SOL    HW2 4179   1.318   0.713   3.515
 1094SOL     OW 4180   0.481   0.150   2.630
 1094SOL    HW1 4181   0.555   0.182   2.571
 1094SOL    HW2 4182   0.496   0.054   2.653
 1095SOL     OW 4183   5.810   4.013   0.391
 1095SOL    HW1 4184   5.743   3.957   0.340
 1095SOL    HW2 4185   5.852   3.957   0.462
 1096SOL     OW 4186   1.978   5.881   1.849
 1096SOL    HW1 4187   2.049   5.818   1.881
 1096SOL    HW2 4188   2.019   5.950   1.790
 1097SOL     OW 4189   3.341   6.357   4.724
 1097SOL    HW1 4190   3.352   6.282   4.789
 1097SOL    HW2 4191   3.352   6.323   4.631
 1098SOL     OW 4192   6.994   3.697   0.339
 1098SOL    HW1 4193   6.957   3.756   0.269
 1098SOL    HW2 4194   6.927   3.687   0.413
 1099SOL     OW 4195   5.290   0.379   6.615
 1099SOL    HW1 4196   5.213   0.430   6.655
 1099SOL    HW2 4197   5.343   0.441   6.557
 1100SOL     OW 4198   4.557   1.862   4.733
 1100SOL    HW1 4199   4.476   1.921   4.742
 1100SOL    HW2 4200   4.634   1.917   4.701
 1101SOL     OW 4201   5.026   2.548   6.472
 1101SOL    HW1 4202   4.952   2.606   6.441
 1101SOL    HW2 4203   5.024   2.461   6.421
 1102SOL     OW 4204   2.737   0.389   3.748
 1102SOL    HW1 4205   2.648   0.433   3.736
 1102SOL    HW2 4206   2.809   0.449   3.713
 1103SOL     OW 4207   3.455   5.843   1.041
 1103SOL    HW1 4208   3.369   5.861   1.089
 1103SOL    HW2 4209   3.469   5.744   1.034
 1104SOL     OW 4210   6.887   2.444   4.016
 1104SOL    HW1 4211   6.855   2.461   3.923
 1104SOL    HW2 4212   6.939   2.523   4.049
 1105SOL     OW 4213   4.978   0.834   6.849
 1105SOL    HW1 4214   4.984   0.928   6.817
 1105SOL    HW2 4215   4.882   0.808   6.859
 1106SOL     OW 4216   6.377   1.619   1.083
 1106SOL    HW1 4217   6.300   1.619   1.146
 1106SOL    HW2 4218   6.462   1.633   1.134
 1107SOL     OW 4219   1.040   1.293   0.094
 1107SOL    HW1 4220   0.978   1.276   0.017
 1107SOL    HW2 4221   1.039   1.391   0.115
 1108SOL     OW 4222   2.481   1.168   3.404
 1108SOL    HW1 4223   2.464   1.141   3.499
 1108SOL    HW2 4224   2.418   1.241   3.378
 1109SOL     OW 4225   4.725   2.067   5.096
 1109SOL    HW1 4226   4.709   2.017   5.182
 1109SOL    HW2 4227   4.812   2.116   5.102
 1110SOL     OW 4228   1.454   0.948   2.379
 1110SOL    HW1 4229   1.517   0.874   2.355
 1110SOL    HW2 4230   1.361   0.911   2.386
 1111SOL     OW 4231   5.793   3.257   6.434
 1111SOL    HW1 4232   5.700   3.259   6.471
 1111SOL    HW2 4233   5.789   3.258   6.334
 1112SOL     OW 4234   5.842   0.526   2.554
 1112SOL    HW1 4235   5.865   0.484   2.642
 1112SOL    HW2 4236   5.871   0.621   2.554
 1113SOL     OW 4237   6.695   2.816   3.089
 1113SOL    HW1 4238   6.708   2.774   2.999
 1113SOL    HW2 4239   6.597   2.824   3.107
 1114SOL     OW 4240   3.703   3.502   4.775
 1114SOL    HW1 4241   3.712   3.427   4.711
 1114SOL    HW2 4242   3.676   3.585   4.726
 1115SOL     OW 4243   2.005   4.715   5.608
 1115SOL    HW1 4244   1.968   4.661   5.684
 1115SOL    HW2 4245   2.079   4.663   5.564
 1116SOL     OW 4246   4.696   0.030   0.473
 1116SOL    HW1 4247   4.775   0.035   0.534
 1116SOL    HW2 4248   4.620   0.080   0.513
 1117SOL     OW 4249   1.836   2.341   1.967
 1117SOL    HW1 4250   1.878   2.289   2.042
 1117SOL    HW2 4251   1.822   2.436   1.996
 1118SOL     OW 4252   4.646   6.138   6.867
 1118SOL    HW1 4253   4.642   6.064   6.934
 1118SOL    HW2 4254   4.573   6.203   6.885
 1119SOL     OW 4255   3.556   4.934   3.943
 1119SOL    HW1 4256   3.606   4.933   4.029
 1119SOL    HW2 4257   3.461   4.909   3.959
 1120SOL     OW 4258   6.741   3.284   1.505
 1120SOL    HW1 4259   6.791   3.221   1.445
 1120SOL    HW2 4260   6.658   3.314   1.459
 1121SOL     OW 4261   6.394   4.265   5.358
 1121SOL    HW1 4262   6.372   4.358   5.385
 1121SOL    HW2 4263   6.460   4.226   5.422
 1122SOL     OW 4264   6.151   1.376   2.176
 1122SOL    HW1 4265   6.123   1.420   2.090
 1122SOL    HW2 4266   6.105   1.288   2.184
 1123SOL     OW 4267   3.923   1.741   4.877
 1123SOL    HW1 4268   3.830   1.720   4.908
 1123SOL    HW2 4269   3.966   1.657   4.843
 1124SOL     OW 4270   2.234   3.048   3.778
 1124SOL    HW1 4271   2.146   3.081   3.810
 1124SOL    HW2 4272   2.245   3.067   3.680
 1125SOL     OW 4273   1.335   3.210   3.397
 1125SOL    HW1 4274   1.354   3.241   3.304
 1125SOL    HW2 4275   1.322   3.111   3.397
 1126SOL     OW 4276   4.423   4.618   4.230
 1126SOL    HW1 4277   4.456   4.524   4.243
 1126SOL    HW2 4278   4.415   4.637   4.133
 1127SOL     OW 4279   6.566   6.910   1.713
 1127SOL    HW1 4280   6.485   6.905   1.772
 1127SOL    HW2 4281   6.639   6.855   1.754
 1128SOL     OW 4282   4.535   1.665   4.459
 1128SOL    HW1 4283   4.587   1.750   4.449
 1128SOL    HW2 4284   4.574   1.611   4.533
 1129SOL     OW 4285   1.370   0.474   0.048
 1129SOL    HW1 4286   1.283   0.501   0.087
 1129SOL    HW2 4287   1.439   0.545   0.066
 1130SOL     OW 4288   2.354   4.943   2.025
 1130SOL    HW1 4289   2.316   4.894   1.948
 1130SOL    HW2 4290   2.415   4.883   2.077
 1131SOL     OW 4291   2.149   5.634   4.003
 1131SOL    HW1 4292   2.214   5.568   4.040
 1131SOL    HW2 4293   2.197   5.700   3.945
 1132SOL     OW 4294   1.002   1.630   2.229
 1132SOL    HW1 4295   1.075   1.636   2.162
 1132SOL    HW2 4296   1.036   1.660   2.318
 1133SOL     OW 4297   1.438   6.413   6.467
 1133SOL    HW1 4298   1.494   6.353   6.411
 1133SOL    HW2 4299   1.386   6.359   6.533
 1134SOL     OW 4300   3.905   6.010   0.722
 1134SOL    HW1 4301   3.978   5.942   0.716
 1134SOL    HW2 4302   3.816   5.963   0.720
 1135SOL     OW 4303   1.526   6.806   2.998
 1135SOL    HW1 4304   1.592   6.734   3.018
 1135SOL    HW2 4305   1.492   6.846   3.083
 1136SOL     OW 4306   1.401   4.791   2.128
 1136SOL    HW1 4307   1.445   4.881   2.126
 1136SOL    HW2 4308   1.470   4.720   2.145
 1137SOL     OW 4309   1.414   5.706   4.490
 1137SOL    HW1 4310   1.463   5.638   4.435
 1137SOL    HW2 4311   1.321   5.673   4.507
 1138SOL     OW 4312   1.472   3.752   5.138
 1138SOL    HW1 4313   1.472   3.798   5.049
 1138SOL    HW2 4314   1.565   3.724   5.162
 1139SOL     OW 4315   2.649   5.520   4.931
 1139SOL    HW1 4316   2.700   5.434   4.933
 1139SOL    HW2 4317   2.552   5.501   4.939
 1140SOL     OW 4318   1.845   2.013   1.927
 1140SOL    HW1 4319   1.863   2.101   1.883
 1140SOL    HW2 4320   1.932   1.965   1.941
 1141SOL     OW 4321   6.776   4.908   5.515
 1141SOL    HW1 4322   6.857   4.878   5.464
 1141SOL    HW2 4323   6.798   4.915   5.612
 1142SOL     OW 4324   1.405   5.763   2.534
 1142SOL    HW1 4325   1.466   5.837   2.506
 1142SOL    HW2 4326   1.334   5.800   2.594
 1143SOL     OW 4327   0.049   4.100   1.338
 1143SOL    HW1 4328   0.033   4.071   1.433
 1143SOL    HW2 4329   7.002   4.170   1.313
 1144SOL     OW 4330   5.000   4.533   0.590
 1144SOL    HW1 4331   4.907   4.513   0.621
 1144SOL    HW2 4332   5.056   4.450   0.596
 1145SOL     OW 4333   6.097   6.909   0.235
 1145SOL    HW1 4334   6.090   6.992   0.292
 1145SOL    HW2 4335   6.125   6.832   0.292
 1146SOL     OW 4336   1.025   1.022   1.224
 1146SOL    HW1 4337   1.029   1.093   1.295
 1146SOL    HW2 4338   1.021   0.932   1.267
 1147SOL     OW 4339   2.043   6.199   1.026
 1147SOL    HW1 4340   2.087   6.114   0.996
 1147SOL    HW2 4341   2.034   6.261   0.948
 1148SOL     OW 4342   3.953   5.652   2.837
 1148SOL    HW1 4343   3.921   5.631   2.745
 1148SOL    HW2 4344   3.882   5.702   2.886
 1149SOL     OW 4345   4.940   2.994   1.818
 1149SOL    HW1 4346   5.006   3.024   1.886
 1149SOL    HW2 4347   4.849   2.992   1.859
 1150SOL     OW 4348   0.820   3.188   0.599
 1150SOL    HW1 4349   0.892   3.129   0.634
 1150SOL    HW2 4350   0.860   3.273   0.564
 1151SOL     OW 4351   5.528   5.360   4.313
 1151SOL    HW1 4352   5.568   5.302   4.242
 1151SOL    HW2 4353   5.428   5.359   4.304
 1152SOL     OW 4354   3.634   6.716   6.362
 1152SOL    HW1 4355   3.569   6.781   6.402
 1152SOL    HW2 4356   3.630   6.722   6.262
 1153SOL     OW 4357   6.120   6.814   1.367
 1153SOL    HW1 4358   6.024   6.789   1.381
 1153SOL    HW2 4359   6.178   6.734   1.385
 1154SOL     OW 4360   2.114   3.287   0.912
 1154SOL    HW1 4361   2.039   3.246   0.860
 1154SOL    HW2 4362   2.082   3.372   0.955
 1155SOL     OW 4363   3.498   5.555   3.737
 1155SOL    HW1 4364   3.544   5.643   3.744
 1155SOL    HW2 4365   3.483   5.518   3.829
 1156SOL     OW 4366   2.788   1.209   2.428
 1156SOL    HW1 4367   2.719   1.148   2.466
 1156SOL    HW2 4368   2.765   1.304   2.451
 1157SOL     OW 4369   3.017   1.268   0.414
 1157SOL    HW1 4370   3.092   1.202   0.425
 1157SOL    HW2 4371   3.052   1.350   0.368
 1158SOL     OW 4372   5.585   4.231   3.349
 1158SOL    HW1 4373   5.632   4.317   3.329
 1158SOL    HW2 4374   5.626   4.188   3.430
 1159SOL     OW 4375   5.834   4.898   0.162
 1159SOL    HW1 4376   5.813   4.994   0.143
 1159SOL    HW2 4377   5.925   4.890   0.203
 1160SOL     OW 4378   4.286   2.393   0.422
 1160SOL    HW1 4379   4.379   2.427   0.409
 1160SOL    HW2 4380   4.289   2.301   0.460
 1161SOL     OW 4381   6.652   5.512   0.953
 1161SOL    HW1 4382   6.562   5.536   0.915
 1161SOL    HW2 4383   6.640   5.447   1.028
 1162SOL     OW 4384   3.304   2.139   4.092
 1162SOL    HW1 4385   3.384   2.141   4.031
 1162SOL    HW2 4386   3.224   2.173   4.042
 1163SOL     OW 4387   6.114   2.083   1.627
 1163SOL    HW1 4388   6.133   2.149   1.700
 1163SOL    HW2 4389   6.187   2.087   1.559
 1164SOL     OW 4390   4.258   2.534   5.902
 1164SOL    HW1 4391   4.234   2.625   5.868
 1164SOL    HW2 4392   4.184   2.470   5.881
 1165SOL     OW 4393   4.598   6.966   3.583
 1165SOL    HW1 4394   4.613   0.002   3.501
 1165SOL    HW2 4395   4.648   6.880   3.575
 1166SOL     OW 4396   3.074   4.598   6.407
 1166SOL    HW1 4397   3.006   4.668   6.429
 1166SOL    HW2 4398   3.147   4.638   6.351
 1167SOL     OW 4399   4.667   4.175   2.940
 1167SOL    HW1 4400   4.593   4.168   2.873
 1167SOL    HW2 4401   4.643   4.244   3.008
 1168SOL     OW 4402   0.674   0.041   2.015
 1168SOL    HW1 4403   0.768   0.062   1.991
 1168SOL    HW2 4404   0.615   0.118   1.989
 1169SOL     OW 4405   4.582   1.213   5.624
 1169SOL    HW1 4406   4.508   1.261   5.578
 1169SOL    HW2 4407   4.544   1.141   5.682
 1170SOL     OW 4408   4.934   5.092   2.673
 1170SOL    HW1 4409   4.904   5.186   2.655
 1170SOL    HW2 4410   4.912   5.034   2.595
 1171SOL     OW 4411   0.229   6.034   0.784
 1171SOL    HW1 4412   0.226   5.944   0.827
 1171SOL    HW2 4413   0.164   6.038   0.708
 1172SOL     OW 4414   6.347   2.992   5.945
 1172SOL    HW1 4415   6.403   3.015   6.025
 1172SOL    HW2 4416   6.257   2.961   5.976
 1173SOL     OW 4417   3.434   2.657   0.655
 1173SOL    HW1 4418   3.408   2.751   0.633
 1173SOL    HW2 4419   3.412   2.638   0.751
 1174SOL     OW 4420   2.317   4.686   0.515
 1174SOL    HW1 4421   2.229   4.641   0.501
 1174SOL    HW2 4422   2.362   4.700   0.426
 1175SOL     OW 4423   3.338   3.109   4.175
 1175SOL    HW1 4424   3.274   3.131   4.101
 1175SOL    HW2 4425   3.292   3.118   4.263
 1176SOL     OW 4426   5.351   2.931   6.725
 1176SOL    HW1 4427   5.287   3.002   6.755
 1176SOL    HW2 4428   5.302   2.845   6.710
 1177SOL     OW 4429   1.152   1.428   4.629
 1177SOL    HW1 4430   1.222   1.361   4.606
 1177SOL    HW2 4431   1.187   1.520   4.610
 1178SOL     OW 4432   4.477   6.345   6.934
 1178SOL    HW1 4433   4.443   6.407   6.863
 1178SOL    HW2 4434   4.526   6.397   7.004
 1179SOL     OW 4435   0.487   5.796   0.006
 1179SOL    HW1 4436   0.557   5.855   0.046
 1179SOL    HW2 4437   0.484   5.811   6.926
 1180SOL     OW 4438   3.507   6.110   0.324
 1180SOL    HW1 4439   3.481   6.163   0.244
 1180SOL    HW2 4440   3.439   6.038   0.341
 1181SOL     OW 4441   6.384   6.543   6.492
 1181SOL    HW1 4442   6.333   6.476   6.546
 1181SOL    HW2 4443   6.356   6.635   6.519
 1182SOL     OW 4444   4.592   4.296   2.679
 1182SOL    HW1 4445   4.600   4.336   2.587
 1182SOL    HW2 4446   4.525   4.348   2.732
 1183SOL     OW 4447   1.733   4.014   6.625
 1183SOL    HW1 4448   1.729   4.023   6.525
 1183SOL    HW2 4449   1.687   4.092   6.667
 1184SOL     OW 4450   0.088   0.585   5.276
 1184SOL    HW1 4451   0.185   0.576   5.299
 1184SOL    HW2 4452   0.033   0.576   5.359
 1185SOL     OW 4453   6.139   1.162   6.964
 1185SOL    HW1 4454   6.221   1.111   6.939
 1185SOL    HW2 4455   6.110   1.219   6.887
 1186SOL     OW 4456   5.312   6.596   4.789
 1186SOL    HW1 4457   5.371   6.518   4.812
 1186SOL    HW2 4458   5.364   6.681   4.796
 1187SOL     OW 4459   6.345   1.159   5.746
 1187SOL    HW1 4460   6.291   1.077   5.727
 1187SOL    HW2 4461   6.337   1.183   5.843
 1188SOL     OW 4462   2.984   1.077   6.628
 1188SOL    HW1 4463   2.931   1.036   6.701
 1188SOL    HW2 4464   2.965   1.029   6.542
 1189SOL     OW 4465   5.187   3.457   3.665
 1189SOL    HW1 4466   5.091   3.471   3.688
 1189SOL    HW2 4467   5.220   3.533   3.610
 1190SOL     OW 4468   2.569   0.152   3.849
 1190SOL    HW1 4469   2.516   0.233   3.874
 1190SOL    HW2 4470   2.579   0.149   3.749
 1191SOL     OW 4471   4.316   6.461   2.895
 1191SOL    HW1 4472   4.216   6.462   2.905
 1191SOL    HW2 4473   4.352   6.553   2.908
 1192SOL     OW 4474   6.204   6.065   3.205
 1192SOL    HW1 4475   6.175   6.119   3.126
 1192SOL    HW2 4476   6.233   6.127   3.279
 1193SOL     OW 4477   6.932   5.785   4.718
 1193SOL    HW1 4478   6.992   5.827   4.651
 1193SOL    HW2 4479   6.933   5.686   4.707
 1194SOL     OW 4480   3.783   0.186   1.256
 1194SOL    HW1 4481   3.833   0.271   1.269
 1194SOL    HW2 4482   3.719   0.172   1.332
 1195SOL     OW 4483   5.157   2.694   3.678
 1195SOL    HW1 4484   5.084   2.751   3.640
 1195SOL    HW2 4485   5.162   2.608   3.627
 1196SOL     OW 4486   0.051   6.476   4.837
 1196SOL    HW1 4487   6.976   6.448   4.817
 1196SOL    HW2 4488   0.113   6.435   4.771
 1197SOL     OW 4489   1.942   6.344   0.420
 1197SOL    HW1 4490   1.854   6.361   0.376
 1197SOL    HW2 4491   2.008   6.415   0.394
 1198SOL     OW 4492   1.466   2.678   6.777
 1198SOL    HW1 4493   1.369   2.652   6.773
 1198SOL    HW2 4494   1.491   2.725   6.693
 1199SOL     OW 4495   6.655   3.647   1.635
 1199SOL    HW1 4496   6.591   3.570   1.636
 1199SOL    HW2 4497   6.622   3.718   1.698
 1200SOL     OW 4498   2.888   3.678   2.761
 1200SOL    HW1 4499   2.940   3.593   2.772
 1200SOL    HW2 4500   2.904   3.737   2.840
 1201SOL     OW 4501   1.460   1.692   4.778
 1201SOL    HW1 4502   1.451   1.613   4.717
 1201SOL    HW2 4503   1.419   1.670   4.867
 1202SOL     OW 4504   1.404   5.903   5.824
 1202SOL    HW1 4505   1.305   5.911   5.831
 1202SOL    HW2 4506   1.446   5.933   5.910
 1203SOL     OW 4507   3.113   5.660   5.636
 1203SOL    HW1 4508   3.198   5.710   5.624
 1203SOL    HW2 4509   3.130   5.561   5.629
 1204SOL     OW 4510   1.673   6.985   3.208
 1204SOL    HW1 4511   1.597   0.026   3.236
 1204SOL    HW2 4512   1.642   6.890   3.208
 1205SOL     OW 4513   5.667   3.843   1.883
 1205SOL    HW1 4514   5.669   3.743   1.884
 1205SOL    HW2 4515   5.573   3.875   1.871
 1206SOL     OW 4516   3.255   3.416   4.563
 1206SOL    HW1 4517   3.322   3.485   4.589
 1206SOL    HW2 4518   3.180   3.415   4.629
 1207SOL     OW 4519   0.992   5.891   2.842
 1207SOL    HW1 4520   0.925   5.849   2.780
 1207SOL    HW2 4521   1.025   5.976   2.802
 1208SOL     OW 4522   3.508   3.648   6.408
 1208SOL    HW1 4523   3.510   3.552   6.436
 1208SOL    HW2 4524   3.501   3.653   6.308
 1209SOL     OW 4525   3.535   6.250   5.670
 1209SOL    HW1 4526   3.438   6.273   5.667
 1209SOL    HW2 4527   3.545   6.150   5.664
 1210SOL     OW 4528   3.391   1.055   2.907
 1210SOL    HW1 4529   3.453   1.127   2.876
 1210SOL    HW2 4530   3.360   1.001   2.828
 1211SOL     OW 4531   1.003   2.594   0.439
 1211SOL    HW1 4532   0.967   2.617   0.349
 1211SOL    HW2 4533   1.049   2.505   0.435
 1212SOL     OW 4534   1.512   0.199   0.266
 1212SOL    HW1 4535   1.506   0.101   0.282
 1212SOL    HW2 4536   1.602   0.221   0.228
 1213SOL     OW 4537   5.535   2.939   1.371
 1213SOL    HW1 4538   5.443   2.906   1.388
 1213SOL    HW2 4539   5.548   3.026   1.418
 1214SOL     OW 4540   6.764   2.798   1.560
 1214SOL    HW1 4541   6.773   2.870   1.629
 1214SOL    HW2 4542   6.851   2.752   1.548
 1215SOL     OW 4543   1.680   5.512   3.354
 1215SOL    HW1 4544   1.649   5.607   3.342
 1215SOL    HW2 4545   1.694   5.470   3.265
 1216SOL     OW 4546   3.311   6.961   1.666
 1216SOL    HW1 4547   3.293   0.040   1.655
 1216SOL    HW2 4548   3.240   6.909   1.619
 1217SOL     OW 4549   2.880   4.579   0.098
 1217SOL    HW1 4550   2.889   4.577   0.198
 1217SOL    HW2 4551   2.821   4.655   0.072
 1218SOL     OW 4552   2.617   5.154   3.280
 1218SOL    HW1 4553   2.564   5.237   3.263
 1218SOL    HW2 4554   2.652   5.156   3.374
 1219SOL     OW 4555   3.761   6.366   2.289
 1219SOL    HW1 4556   3.743   6.462   2.267
 1219SOL    HW2 4557   3.750   6.311   2.206
 1220SOL     OW 4558   0.826   4.616   2.548
 1220SOL    HW1 4559   0.806   4.609   2.450
 1220SOL    HW2 4560   0.911   4.668   2.560
 1221SOL     OW 4561   4.608   4.844   6.620
 1221SOL    HW1 4562   4.532   4.813   6.562
 1221SOL    HW2 4563   4.691   4.792   6.597
 1222SOL     OW 4564   6.884   0.785   5.940
 1222SOL    HW1 4565   6.973   0.779   5.896
 1222SOL    HW2 4566   6.857   0.881   5.947
 1223SOL     OW 4567   3.387   6.449   0.913
 1223SOL    HW1 4568   3.430   6.367   0.951
 1223SOL    HW2 4569   3.455   6.505   0.867
 1224SOL     OW 4570   2.950   0.499   2.445
 1224SOL    HW1 4571   2.924   0.530   2.537
 1224SOL    HW2 4572   2.898   0.551   2.377
 1225SOL     OW 4573   2.947   4.043   5.879
 1225SOL    HW1 4574   2.951   4.055   5.780
 1225SOL    HW2 4575   2.858   4.072   5.912
 1226SOL     OW 4576   2.116   4.911   0.553
 1226SOL    HW1 4577   2.046   4.899   0.624
 1226SOL    HW2 4578   2.176   4.832   0.552
 1227SOL     OW 4579   0.869   3.360   5.859
 1227SOL    HW1 4580   0.852   3.284   5.795
 1227SOL    HW2 4581   0.954   3.405   5.834
 1228SOL     OW 4582   3.907   1.706   6.767
 1228SOL    HW1 4583   3.927   1.764   6.688
 1228SOL    HW2 4584   3.988   1.698   6.825
 1229SOL     OW 4585   2.995   4.336   6.475
 1229SOL    HW1 4586   3.036   4.424   6.453
 1229SOL    HW2 4587   3.038   4.298   6.556
 1230SOL     OW 4588   4.478   0.453   3.763
 1230SOL    HW1 4589   4.457   0.441   3.861
 1230SOL    HW2 4590   4.499   0.549   3.745
 1231SOL     OW 4591   1.031   4.088   4.560
 1231SOL    HW1 4592   0.951   4.148   4.562
 1231SOL    HW2 4593   1.053   4.059   4.653
 1232SOL     OW 4594   2.275   2.826   3.104
 1232SOL    HW1 4595   2.211   2.760   3.063
 1232SOL    HW2 4596   2.291   2.900   3.039
 1233SOL     OW 4597   0.968   2.742   4.434
 1233SOL    HW1 4598   0.883   2.789   4.411
 1233SOL    HW2 4599   0.975   2.658   4.381
 1234SOL     OW 4600   6.672   4.149   3.950
 1234SOL    HW1 4601   6.646   4.093   4.029
 1234SOL    HW2 4602   6.691   4.243   3.981
 1235SOL     OW 4603   6.494   5.613   3.963
 1235SOL    HW1 4604   6.563   5.619   3.891
 1235SOL    HW2 4605   6.501   5.693   4.022
 1236SOL     OW 4606   5.457   0.996   6.046
 1236SOL    HW1 4607   5.423   1.022   6.136
 1236SOL    HW2 4608   5.392   1.025   5.976
 1237SOL     OW 4609   2.618   4.823   6.522
 1237SOL    HW1 4610   2.640   4.896   6.457
 1237SOL    HW2 4611   2.645   4.735   6.483
 1238SOL     OW 4612   1.618   1.680   0.409
 1238SOL    HW1 4613   1.539   1.677   0.470
 1238SOL    HW2 4614   1.694   1.629   0.450
 1239SOL     OW 4615   0.724   0.133   5.528
 1239SOL    HW1 4616   0.742   0.206   5.594
 1239SOL    HW2 4617   0.811   0.099   5.492
 1240SOL     OW 4618   4.420   5.712   2.084
 1240SOL    HW1 4619   4.334   5.705   2.134
 1240SOL    HW2 4620   4.401   5.734   1.988
 1241SOL     OW 4621   0.270   2.339   4.351
 1241SOL    HW1 4622   0.173   2.335   4.378
 1241SOL    HW2 4623   0.292   2.432   4.322
 1242SOL     OW 4624   2.240   2.743   6.289
 1242SOL    HW1 4625   2.203   2.835   6.306
 1242SOL    HW2 4626   2.340   2.748   6.283
 1243SOL     OW 4627   2.432   5.321   5.225
 1243SOL    HW1 4628   2.366   5.267   5.276
 1243SOL    HW2 4629   2.479   5.384   5.286
 1244SOL     OW 4630   0.280   1.466   2.768
 1244SOL    HW1 4631   0.279   1.371   2.735
 1244SOL    HW2 4632   0.240   1.526   2.698
 1245SOL     OW 4633   3.022   3.238   5.623
 1245SOL    HW1 4634   3.095   3.297   5.587
 1245SOL    HW2 4635   2.939   3.250   5.568
 1246SOL     OW 4636   0.848   0.015   1.139
 1246SOL    HW1 4637   0.830   0.073   1.218
 1246SOL    HW2 4638   0.775   6.966   1.130
 1247SOL     OW 4639   1.460   6.868   6.645
 1247SOL    HW1 4640   1.449   6.968   6.638
 1247SOL    HW2 4641   1.370   6.827   6.663
 1248SOL     OW 4642   2.021   6.438   3.814
 1248SOL    HW1 4643   2.093   6.378   3.850
 1248SOL    HW2 4644   2.063   6.512   3.762
 1249SOL     OW 4645   5.864   2.707   3.229
 1249SOL    HW1 4646   5.873   2.757   3.144
 1249SOL    HW2 4647   5.857   2.772   3.305
 1250SOL     OW 4648   0.118   4.143   4.360
 1250SOL    HW1 4649   0.166   4.062   4.328
 1250SOL    HW2 4650   0.167   4.182   4.439
 1251SOL     OW 4651   3.314   0.061   6.288
 1251SOL    HW1 4652   3.374   7.007   6.322
 1251SOL    HW2 4653   3.352   0.150   6.314
 1252SOL     OW 4654   3.047   3.831   0.218
 1252SOL    HW1 4655   3.083   3.782   0.139
 1252SOL    HW2 4656   3.051   3.771   0.298
 1253SOL     OW 4657   4.314   0.499   2.466
 1253SOL    HW1 4658   4.256   0.431   2.511
 1253SOL    HW2 4659   4.272   0.589   2.474
 1254SOL     OW 4660   5.968   1.841   3.089
 1254SOL    HW1 4661   5.937   1.783   3.013
 1254SOL    HW2 4662   6.018   1.785   3.156
 1255SOL     OW 4663   6.114   0.503   0.486
 1255SOL    HW1 4664   6.155   0.587   0.449
 1255SOL    HW2 4665   6.164   0.474   0.568
 1256SOL     OW 4666   4.972   2.583   3.865
 1256SOL    HW1 4667   5.000   2.493   3.898
 1256SOL    HW2 4668   5.017   2.603   3.778
 1257SOL     OW 4669   6.251   1.263   3.802
 1257SOL    HW1 4670   6.157   1.232   3.815
 1257SOL    HW2 4671   6.256   1.362   3.810
 1258SOL     OW 4672   0.295   5.500   3.652
 1258SOL    HW1 4673   0.201   5.523   3.677
 1258SOL    HW2 4674   0.357   5.571   3.685
 1259SOL     OW 4675   4.644   2.508   4.802
 1259SOL    HW1 4676   4.643   2.608   4.795
 1259SOL    HW2 4677   4.566   2.478   4.856
 1260SOL     OW 4678   0.452   1.518   4.909
 1260SOL    HW1 4679   0.491   1.556   4.993
 1260SOL    HW2 4680   0.515   1.449   4.871
 1261SOL     OW 4681   6.484   3.928   0.789
 1261SOL    HW1 4682   6.551   4.002   0.778
 1261SOL    HW2 4683   6.503   3.856   0.723
 1262SOL     OW 4684   5.129   6.156   2.527
 1262SOL    HW1 4685   5.071   6.160   2.446
 1262SOL    HW2 4686   5.216   6.112   2.503
 1263SOL     OW 4687   0.027   2.386   3.544
 1263SOL    HW1 4688   0.001   2.346   3.632
 1263SOL    HW2 4689   0.045   2.312   3.478
 1264SOL     OW 4690   1.112   2.803   5.103
 1264SOL    HW1 4691   1.199   2.755   5.100
 1264SOL    HW2 4692   1.064   2.780   5.188
 1265SOL     OW 4693   5.485   0.260   5.346
 1265SOL    HW1 4694   5.505   0.223   5.437
 1265SOL    HW2 4695   5.429   0.343   5.355
 1266SOL     OW 4696   2.552   1.285   5.280
 1266SOL    HW1 4697   2.467   1.241   5.252
 1266SOL    HW2 4698   2.562   1.372   5.231
 1267SOL     OW 4699   3.317   0.350   2.580
 1267SOL    HW1 4700   3.379   0.286   2.535
 1267SOL    HW2 4701   3.273   0.408   2.510
 1268SOL     OW 4702   3.883   2.293   5.295
 1268SOL    HW1 4703   3.836   2.380   5.304
 1268SOL    HW2 4704   3.842   2.226   5.357
 1269SOL     OW 4705   6.106   1.707   3.626
 1269SOL    HW1 4706   6.081   1.804   3.617
 1269SOL    HW2 4707   6.090   1.678   3.721
 1270SOL     OW 4708   6.262   5.059   2.814
 1270SOL    HW1 4709   6.302   5.146   2.787
 1270SOL    HW2 4710   6.172   5.075   2.854
 1271SOL     OW 4711   2.467   1.363   1.279
 1271SOL    HW1 4712   2.504   1.447   1.318
 1271SOL    HW2 4713   2.417   1.312   1.349
 1272SOL     OW 4714   5.719   2.068   0.658
 1272SOL    HW1 4715   5.648   2.005   0.624
 1272SOL    HW2 4716   5.794   2.072   0.592
 1273SOL     OW 4717   1.976   4.318   5.888
 1273SOL    HW1 4718   2.064   4.276   5.910
 1273SOL    HW2 4719   1.936   4.272   5.808
 1274SOL     OW 4720   6.981   4.149   4.119
 1274SOL    HW1 4721   0.003   4.155   4.209
 1274SOL    HW2 4722   6.882   4.137   4.128
 1275SOL     OW 4723   2.341   1.689   2.715
 1275SOL    HW1 4724   2.439   1.703   2.724
 1275SOL    HW2 4725   2.295   1.778   2.714
 1276SOL     OW 4726   5.491   4.361   3.934
 1276SOL    HW1 4727   5.466   4.361   4.031
 1276SOL    HW2 4728   5.555   4.285   3.917
 1277SOL     OW 4729   0.824   5.945   6.681
 1277SOL    HW1 4730   0.754   5.979   6.618
 1277SOL    HW2 4731   0.897   6.013   6.688
 1278SOL     OW 4732   0.380   5.864   2.514
 1278SOL    HW1 4733   0.368   5.790   2.448
 1278SOL    HW2 4734   0.351   5.833   2.604
 1279SOL     OW 4735   2.590   3.386   0.726
 1279SOL    HW1 4736   2.610   3.381   0.629
 1279SOL    HW2 4737   2.674   3.407   0.777
 1280SOL     OW 4738   2.698   2.433   4.221
 1280SOL    HW1 4739   2.744   2.381   4.294
 1280SOL    HW2 4740   2.726   2.397   4.132
 1281SOL     OW 4741   5.884   6.356   4.631
 1281SOL    HW1 4742   5.865   6.335   4.727
 1281SOL    HW2 4743   5.981   6.339   4.612
 1282SOL     OW 4744   0.587   2.536   1.756
 1282SOL    HW1 4745   0.571   2.450   1.805
 1282SOL    HW2 4746   0.685   2.552   1.749
 1283SOL     OW 4747   0.039   1.334   4.287
 1283SOL    HW1 4748   0.112   1.400   4.303
 1283SOL    HW2 4749   6.972   1.369   4.324
 1284SOL     OW 4750   3.761   2.090   1.739
 1284SOL    HW1 4751   3.698   2.167   1.751
 1284SOL    HW2 4752   3.777   2.047   1.828
 1285SOL     OW 4753   4.639   1.411   4.338
 1285SOL    HW1 4754   4.569   1.462   4.288
 1285SOL    HW2 4755   4.726   1.459   4.332
 1286SOL     OW 4756   4.828   1.466   1.482
 1286SOL    HW1 4757   4.793   1.453   1.575
 1286SOL    HW2 4758   4.766   1.524   1.430
 1287SOL     OW 4759   4.976   5.191   5.443
 1287SOL    HW1 4760   4.957   5.288   5.458
 1287SOL    HW2 4761   5.075   5.175   5.451
 1288SOL     OW 4762   4.183   4.610   6.743
 1288SOL    HW1 4763   4.083   4.606   6.737
 1288SOL    HW2 4764   4.219   4.519   6.766
 1289SOL     OW 4765   6.628   6.710   0.603
 1289SOL    HW1 4766   6.694   6.749   0.539
 1289SOL    HW2 4767   6.618   6.771   0.682
 1290SOL     OW 4768   1.619   6.555   5.606
 1290SOL    HW1 4769   1.712   6.549   5.643
 1290SOL    HW2 4770   1.609   6.641   5.556
 1291SOL     OW 4771   5.909   5.439   3.763
 1291SOL    HW1 4772   5.826   5.398   3.727
 1291SOL    HW2 4773   5.931   5.398   3.852
 1292SOL     OW 4774   0.492   6.789   2.584
 1292SOL    HW1 4775   0.421   6.719   2.586
 1292SOL    HW2 4776   0.532   6.798   2.675
 1293SOL     OW 4777   4.812   0.810   1.066
 1293SOL    HW1 4778   4.856   0.841   0.982
 1293SOL    HW2 4779   4.880   0.764   1.124
 1294SOL     OW 4780   2.277   4.641   5.188
 1294SOL    HW1 4781   2.294   4.560   5.131
 1294SOL    HW2 4782   2.364   4.674   5.225
 1295SOL     OW 4783   6.664   4.248   0.195
 1295SOL    HW1 4784   6.630   4.341   0.200
 1295SOL    HW2 4785   6.714   4.225   0.279
 1296SOL     OW 4786   5.103   0.117   5.916
 1296SOL    HW1 4787   5.065   0.025   5.914
 1296SOL    HW2 4788   5.174   0.123   5.986
 1297SOL     OW 4789   6.329   6.460   0.155
 1297SOL    HW1 4790   6.417   6.444   0.200
 1297SOL    HW2 4791   6.334   6.543   0.100
 1298SOL     OW 4792   5.315   0.778   3.408
 1298SOL    HW1 4793   5.345   0.712   3.340
 1298SOL    HW2 4794   5.253   0.844   3.366
 1299SOL     OW 4795   1.103   3.473   4.722
 1299SOL    HW1 4796   1.134   3.549   4.779
 1299SOL    HW2 4797   1.170   3.398   4.727
 1300SOL     OW 4798   1.009   5.794   0.676
 1300SOL    HW1 4799   1.106   5.806   0.655
 1300SOL    HW2 4800   0.990   5.697   0.692
 1301SOL     OW 4801   6.621   0.407   0.301
 1301SOL    HW1 4802   6.642   0.434   0.395
 1301SOL    HW2 4803   6.685   0.450   0.238
 1302SOL     OW 4804   6.581   6.745   5.351
 1302SOL    HW1 4805   6.648   6.798   5.299
 1302SOL    HW2 4806   6.590   6.766   5.448
 1303SOL     OW 4807   3.053   6.748   1.926
 1303SOL    HW1 4808   3.147   6.748   1.894
 1303SOL    HW2 4809   3.007   6.832   1.897
 1304SOL     OW 4810   0.386   0.624   0.928
 1304SOL    HW1 4811   0.287   0.621   0.937
 1304SOL    HW2 4812   0.413   0.577   0.844
 1305SOL     OW 4813   3.973   4.251   6.343
 1305SOL    HW1 4814   3.981   4.196   6.260
 1305SOL    HW2 4815   3.977   4.190   6.423
 1306SOL     OW 4816   2.909   6.634   3.533
 1306SOL    HW1 4817   2.933   6.730   3.519
 1306SOL    HW2 4818   2.837   6.607   3.468
 1307SOL     OW 4819   1.682   2.932   4.311
 1307SOL    HW1 4820   1.692   3.015   4.257
 1307SOL    HW2 4821   1.636   2.954   4.397
 1308SOL     OW 4822   6.526   3.307   6.202
 1308SOL    HW1 4823   6.468   3.353   6.135
 1308SOL    HW2 4824   6.613   3.356   6.210
 1309SOL     OW 4825   5.705   3.797   6.433
 1309SOL    HW1 4826   5.625   3.738   6.445
 1309SOL    HW2 4827   5.723   3.846   6.518
 1310SOL     OW 4828   2.121   3.813   3.156
 1310SOL    HW1 4829   2.039   3.860   3.124
 1310SOL    HW2 4830   2.156   3.859   3.238
 1311SOL     OW 4831   5.316   5.182   0.301
 1311SOL    HW1 4832   5.359   5.237   0.228
 1311SOL    HW2 4833   5.250   5.119   0.260
 1312SOL     OW 4834   2.693   1.281   6.380
 1312SOL    HW1 4835   2.686   1.380   6.396
 1312SOL    HW2 4836   2.649   1.232   6.455
 1313SOL     OW 4837   5.766   5.091   1.480
 1313SOL    HW1 4838   5.816   5.163   1.530
 1313SOL    HW2 4839   5.757   5.117   1.384
 1314SOL     OW 4840   1.837   1.287   4.059
 1314SOL    HW1 4841   1.806   1.366   4.005
 1314SOL    HW2 4842   1.820   1.305   4.156
 1315SOL     OW 4843   6.163   1.076   2.754
 1315SOL    HW1 4844   6.066   1.085   2.773
 1315SOL    HW2 4845   6.213   1.060   2.840
 1316SOL     OW 4846   5.242   0.189   6.173
 1316SOL    HW1 4847   5.325   0.139   6.196
 1316SOL    HW2 4848   5.162   0.130   6.186
 1317SOL     OW 4849   3.174   2.813   5.360
 1317SOL    HW1 4850   3.246   2.782   5.298
 1317SOL    HW2 4851   3.192   2.907   5.387
 1318SOL     OW 4852   1.842   1.968   5.910
 1318SOL    HW1 4853   1.794   2.036   5.966
 1318SOL    HW2 4854   1.895   2.015   5.839
 1319SOL     OW 4855   6.990   0.750   7.005
 1319SOL    HW1 4856   6.978   0.658   6.967
 1319SOL    HW2 4857   0.066   0.761   0.015
 1320SOL     OW 4858   3.086   3.199   6.407
 1320SOL    HW1 4859   3.078   3.270   6.337
 1320SOL    HW2 4860   2.998   3.190   6.455
 1321SOL     OW 4861   6.991   2.467   1.212
 1321SOL    HW1 4862   0.016   2.389   1.258
 1321SOL    HW2 4863   6.902   2.439   1.178
 1322SOL     OW 4864   3.295   2.773   0.152
 1322SOL    HW1 4865   3.228   2.701   0.133
 1322SOL    HW2 4866   3.248   2.861   0.155
 1323SOL     OW 4867   3.936   0.331   1.607
 1323SOL    HW1 4868   3.975   0.419   1.634
 1323SOL    HW2 4869   3.916   0.333   1.509
 1324SOL     OW 4870   2.231   4.259   5.930
 1324SOL    HW1 4871   2.326   4.276   5.952
 1324SOL    HW2 4872   2.224   4.183   5.865
 1325SOL     OW 4873   3.557   6.038   5.318
 1325SOL    HW1 4874   3.621   5.987   5.377
 1325SOL    HW2 4875   3.586   6.133   5.312
 1326SOL     OW 4876   4.966   1.494   5.030
 1326SOL    HW1 4877   5.027   1.460   5.101
 1326SOL    HW2 4878   4.967   1.430   4.952
 1327SOL     OW 4879   4.810   5.632   2.582
 1327SOL    HW1 4880   4.808   5.633   2.482
 1327SOL    HW2 4881   4.828   5.724   2.616
 1328SOL     OW 4882   2.496   2.099   5.962
 1328SOL    HW1 4883   2.494   2.013   6.012
 1328SOL    HW2 4884   2.403   2.126   5.938
 1329SOL     OW 4885   1.430   3.323   3.873
 1329SOL    HW1 4886   1.506   3.377   3.910
 1329SOL    HW2 4887   1.455   3.288   3.782
 1330SOL     OW 4888   5.969   2.926   3.056
 1330SOL    HW1 4889   6.000   2.920   3.151
 1330SOL    HW2 4890   6.041   2.963   2.999
 1331SOL     OW 4891   4.792   2.301   3.906
 1331SOL    HW1 4892   4.821   2.212   3.942
 1331SOL    HW2 4893   4.749   2.354   3.979
 1332SOL     OW 4894   2.229   5.705   0.469
 1332SOL    HW1 4895   2.230   5.606   0.483
 1332SOL    HW2 4896   2.310   5.745   0.512
 1333SOL     OW 4897   3.278   3.835   2.954
 1333SOL    HW1 4898   3.263   3.932   2.936
 1333SOL    HW2 4899   3.284   3.786   2.867
 1334SOL     OW 4900   0.185   3.872   1.245
 1334SOL    HW1 4901   0.282   3.878   1.224
 1334SOL    HW2 4902   0.159   3.949   1.304
 1335SOL     OW 4903   0.069   3.575   3.384
 1335SOL    HW1 4904   0.005   3.528   3.323
 1335SOL    HW2 4905   0.094   3.514   3.459
 1336SOL     OW 4906   1.952   6.921   5.627
 1336SOL    HW1 4907   2.038   6.884   5.591
 1336SOL    HW2 4908   1.876   6.869   5.589
 1337SOL     OW 4909   0.529   6.858   2.138
 1337SOL    HW1 4910   0.524   6.898   2.229
 1337SOL    HW2 4911   0.545   6.930   2.071
 1338SOL     OW 4912   6.730   4.240   4.906
 1338SOL    HW1 4913   6.757   4.337   4.908
 1338SOL    HW2 4914   6.792   4.191   4.844
 1339SOL     OW 4915   5.707   1.249   6.670
 1339SOL    HW1 4916   5.783   1.299   6.628
 1339SOL    HW2 4917   5.742   1.194   6.746
 1340SOL     OW 4918   3.687   2.937   1.438
 1340SOL    HW1 4919   3.712   2.906   1.346
 1340SOL    HW2 4920   3.625   3.015   1.431
 1341SOL     OW 4921   4.852   5.495   6.441
 1341SOL    HW1 4922   4.843   5.418   6.504
 1341SOL    HW2 4923   4.924   5.476   6.374
 1342SOL     OW 4924   1.488   6.141   1.410
 1342SOL    HW1 4925   1.527   6.117   1.499
 1342SOL    HW2 4926   1.398   6.183   1.424
 1343SOL     OW 4927   4.974   6.104   2.957
 1343SOL    HW1 4928   4.979   6.011   2.995
 1343SOL    HW2 4929   4.878   6.126   2.936
 1344SOL     OW 4930   1.085   1.139   4.438
 1344SOL    HW1 4931   1.011   1.131   4.504
 1344SOL    HW2 4932   1.172   1.143   4.486
 1345SOL     OW 4933   1.621   6.748   6.471
 1345SOL    HW1 4934   1.570   6.818   6.521
 1345SOL    HW2 4935   1.716   6.746   6.504
 1346SOL     OW 4936   2.980   5.168   4.755
 1346SOL    HW1 4937   3.002   5.148   4.850
 1346SOL    HW2 4938   3.029   5.250   4.726
 1347SOL     OW 4939   1.841   0.618   6.366
 1347SOL    HW1 4940   1.894   0.617   6.281
 1347SOL    HW2 4941   1.842   0.710   6.405
 1348SOL     OW 4942   1.252   6.579   5.362
 1348SOL    HW1 4943   1.297   6.547   5.446
 1348SOL    HW2 4944   1.181   6.514   5.335
 1349SOL     OW 4945   5.409   4.037   4.131
 1349SOL    HW1 4946   5.377   4.000   4.044
 1349SOL    HW2 4947   5.468   3.970   4.177
 1350SOL     OW 4948   4.455   5.078   6.646
 1350SOL    HW1 4949   4.524   5.005   6.646
 1350SOL    HW2 4950   4.496   5.163   6.614
 1351SOL     OW 4951   0.064   2.443   5.950
 1351SOL    HW1 4952   6.985   2.431   5.964
 1351SOL    HW2 4953   0.080   2.491   5.864
 1352SOL     OW 4954   0.365   0.843   2.600
 1352SOL    HW1 4955   0.296   0.770   2.600
 1352SOL    HW2 4956   0.362   0.893   2.686
 1353SOL     OW 4957   6.755   1.436   6.778
 1353SOL    HW1 4958   6.836   1.451   6.834
 1353SOL    HW2 4959   6.693   1.515   6.787
 1354SOL     OW 4960   5.372   5.014   2.956
 1354SOL    HW1 4961   5.311   4.996   3.033
 1354SOL    HW2 4962   5.398   5.110   2.956
 1355SOL     OW 4963   4.524   3.721   5.310
 1355SOL    HW1 4964   4.579   3.685   5.234
 1355SOL    HW2 4965   4.562   3.691   5.397
 1356SOL     OW 4966   2.675   3.046   6.723
 1356SOL    HW1 4967   2.633   3.072   6.636
 1356SOL    HW2 4968   2.707   3.128   6.770
 1357SOL     OW 4969   1.579   2.705   5.415
 1357SOL    HW1 4970   1.677   2.713   5.397
 1357SOL    HW2 4971   1.554   2.608   5.420
 1358SOL     OW 4972   2.427   6.710   6.925
 1358SOL    HW1 4973   2.381   6.645   6.985
 1358SOL    HW2 4974   2.393   6.698   6.831
 1359SOL     OW 4975   5.985   4.148   0.680
 1359SOL    HW1 4976   6.038   4.174   0.599
 1359SOL    HW2 4977   5.979   4.048   0.686
 1360SOL     OW 4978   2.191   2.159   0.215
 1360SOL    HW1 4979   2.287   2.163   0.245
 1360SOL    HW2 4980   2.175   2.231   0.147
 1361SOL     OW 4981   6.572   4.907   4.989
 1361SOL    HW1 4982   6.513   4.828   5.005
 1361SOL    HW2 4983   6.571   4.966   5.070
 1362SOL     OW 4984   3.152   4.049   3.811
 1362SOL    HW1 4985   3.173   3.959   3.772
 1362SOL    HW2 4986   3.214   4.118   3.775
 1363SOL     OW 4987   0.834   6.476   3.878
 1363SOL    HW1 4988   0.829   6.494   3.780
 1363SOL    HW2 4989   0.892   6.545   3.922
 1364SOL     OW 4990   4.336   4.395   0.383
 1364SOL    HW1 4991   4.411   4.411   0.320
 1364SOL    HW2 4992   4.330   4.297   0.403
 1365SOL     OW 4993   5.801   2.509   6.631
 1365SOL    HW1 4994   5.846   2.419   6.625
 1365SOL    HW2 4995   5.845   2.563   6.703
 1366SOL     OW 4996   1.975   7.003   5.902
 1366SOL    HW1 4997   2.072   6.996   5.924
 1366SOL    HW2 4998   1.962   6.987   5.804
 1367SOL     OW 4999   3.074   1.578   2.214
 1367SOL    HW1 5000   2.981   1.576   2.252
 1367SOL    HW2 5001   3.073   1.624   2.125
 1368SOL     OW 5002   6.764   0.281   2.916
 1368SOL    HW1 5003   6.816   0.241   2.991
 1368SOL    HW2 5004   6.683   0.225   2.898
 1369SOL     OW 5005   0.627   0.410   2.344
 1369SOL    HW1 5006   0.530   0.419   2.369
 1369SOL    HW2 5007   0.673   0.498   2.357
 1370SOL     OW 5008   2.218   0.858   2.463
 1370SOL    HW1 5009   2.212   0.759   2.448
 1370SOL    HW2 5010   2.153   0.885   2.533
 1371SOL     OW 5011   3.399   0.667   6.335
 1371SOL    HW1 5012   3.473   0.733   6.327
 1371SOL    HW2 5013   3.318   0.713   6.372
 1372SOL     OW 5014   2.823   2.273   1.670
 1372SOL    HW1 5015   2.884   2.276   1.591
 1372SOL    HW2 5016   2.870   2.312   1.749
 1373SOL     OW 5017   1.520   6.155   6.991
 1373SOL    HW1 5018   1.557   6.245   6.968
 1373SOL    HW2 5019   1.482   6.113   6.908
 1374SOL     OW 5020   5.061   4.382   6.368
 1374SOL    HW1 5021   5.014   4.377   6.280
 1374SOL    HW2 5022   5.138   4.318   6.368
 1375SOL     OW 5023   0.861   4.300   4.492
 1375SOL    HW1 5024   0.816   4.254   4.415
 1375SOL    HW2 5025   0.922   4.371   4.457
 1376SOL     OW 5026   5.026   0.751   2.763
 1376SOL    HW1 5027   4.932   0.743   2.797
 1376SOL    HW2 5028   5.080   0.806   2.827
 1377SOL     OW 5029   0.628   4.502   4.405
 1377SOL    HW1 5030   0.583   4.566   4.466
 1377SOL    HW2 5031   0.615   4.409   4.440
 1378SOL     OW 5032   1.815   2.577   0.447
 1378SOL    HW1 5033   1.798   2.515   0.371
 1378SOL    HW2 5034   1.799   2.530   0.534
 1379SOL     OW 5035   3.752   6.069   0.976
 1379SOL    HW1 5036   3.763   6.017   1.061
 1379SOL    HW2 5037   3.831   6.054   0.917
 1380SOL     OW 5038   5.876   4.772   3.107
 1380SOL    HW1 5039   5.882   4.673   3.112
 1380SOL    HW2 5040   5.868   4.810   3.200
 1381SOL     OW 5041   5.295   6.974   2.403
 1381SOL    HW1 5042   5.362   7.011   2.339
 1381SOL    HW2 5043   5.206   6.968   2.358
 1382SOL     OW 5044   0.222   3.920   6.739
 1382SOL    HW1 5045   0.171   4.000   6.710
 1382SOL    HW2 5046   0.309   3.948   6.780
 1383SOL     OW 5047   2.379   0.046   1.072
 1383SOL    HW1 5048   2.298   0.023   1.018
 1383SOL    HW2 5049   2.404   0.141   1.058
 1384SOL     OW 5050   1.222   1.476   1.806
 1384SOL    HW1 5051   1.284   1.409   1.847
 1384SOL    HW2 5052   1.138   1.481   1.860
 1385SOL     OW 5053   5.237   3.646   4.282
 1385SOL    HW1 5054   5.207   3.630   4.376
 1385SOL    HW2 5055   5.203   3.735   4.251
 1386SOL     OW 5056   2.532   2.590   3.756
 1386SOL    HW1 5057   2.462   2.660   3.747
 1386SOL    HW2 5058   2.618   2.623   3.717
 1387SOL     OW 5059   3.116   0.825   4.083
 1387SOL    HW1 5060   3.094   0.741   4.134
 1387SOL    HW2 5061   3.214   0.843   4.089
 1388SOL     OW 5062   5.400   1.811   3.893
 1388SOL    HW1 5063   5.433   1.723   3.927
 1388SOL    HW2 5064   5.301   1.808   3.883
 1389SOL     OW 5065   6.943   0.357   3.556
 1389SOL    HW1 5066   6.969   0.373   3.652
 1389SOL    HW2 5067   7.017   0.389   3.497
 1390SOL     OW 5068   4.813   2.397   2.933
 1390SOL    HW1 5069   4.837   2.348   3.016
 1390SOL    HW2 5070   4.732   2.356   2.892
 1391SOL     OW 5071   5.720   0.709   5.222
 1391SOL    HW1 5072   5.751   0.737   5.131
 1391SOL    HW2 5073   5.798   0.704   5.284
 1392SOL     OW 5074   3.910   6.497   5.428
 1392SOL    HW1 5075   3.825   6.550   5.425
 1392SOL    HW2 5076   3.891   6.405   5.462
 1393SOL     OW 5077   4.765   0.427   6.989
 1393SOL    HW1 5078   4.800   0.388   6.904
 1393SOL    HW2 5079   4.816   0.391   0.048
 1394SOL     OW 5080   4.404   0.125   4.207
 1394SOL    HW1 5081   4.398   0.216   4.248
 1394SOL    HW2 5082   4.378   0.056   4.275
 1395SOL     OW 5083   0.290   5.234   2.225
 1395SOL    HW1 5084   0.383   5.227   2.188
 1395SOL    HW2 5085   0.230   5.168   2.179
 1396SOL     OW 5086   1.517   1.794   3.478
 1396SOL    HW1 5087   1.420   1.812   3.498
 1396SOL    HW2 5088   1.555   1.739   3.552
 1397SOL     OW 5089   1.978   4.987   5.049
 1397SOL    HW1 5090   1.898   4.944   5.090
 1397SOL    HW2 5091   2.042   4.915   5.019
 1398SOL     OW 5092   2.955   0.049   6.742
 1398SOL    HW1 5093   2.877   0.068   6.682
 1398SOL    HW2 5094   2.938   0.089   6.832
 1399SOL     OW 5095   3.738   0.142   0.482
 1399SOL    HW1 5096   3.819   0.201   0.477
 1399SOL    HW2 5097   3.735   0.081   0.403
 1400SOL     OW 5098   0.738   0.805   5.727
 1400SOL    HW1 5099   0.709   0.855   5.646
 1400SOL    HW2 5100   0.818   0.849   5.767
 1401SOL     OW 5101   4.977   0.166   2.289
 1401SOL    HW1 5102   4.946   0.244   2.236
 1401SOL    HW2 5103   4.902   0.100   2.300
 1402SOL     OW 5104   5.661   4.761   2.074
 1402SOL    HW1 5105   5.759   4.776   2.061
 1402SOL    HW2 5106   5.646   4.708   2.157
 1403SOL     OW 5107   3.094   3.357   6.746
 1403SOL    HW1 5108   3.026   3.303   6.697
 1403SOL    HW2 5109   3.147   3.296   6.806
 1404SOL     OW 5110   3.839   5.770   0.310
 1404SOL    HW1 5111   3.887   5.856   0.330
 1404SOL    HW2 5112   3.787   5.779   0.226
 1405SOL     OW 5113   0.955   3.688   6.963
 1405SOL    HW1 5114   0.979   3.758   0.012
 1405SOL    HW2 5115   0.858   3.694   6.942
 1406SOL     OW 5116   2.326   2.329   6.678
 1406SOL    HW1 5117   2.249   2.266   6.670
 1406SOL    HW2 5118   2.298   2.411   6.728
 1407SOL     OW 5119   0.141   2.716   1.671
 1407SOL    HW1 5120   0.239   2.697   1.667
 1407SOL    HW2 5121   0.098   2.691   1.583
 1408SOL     OW 5122   5.987   6.178   0.595
 1408SOL    HW1 5123   5.920   6.209   0.663
 1408SOL    HW2 5124   6.070   6.232   0.604
 1409SOL     OW 5125   6.063   1.889   5.959
 1409SOL    HW1 5126   6.120   1.955   5.909
 1409SOL    HW2 5127   6.059   1.804   5.908
 1410SOL     OW 5128   3.049   0.780   0.198
 1410SOL    HW1 5129   3.090   0.871   0.209
 1410SOL    HW2 5130   2.982   0.764   0.271
 1411SOL     OW 5131   3.673   6.067   6.835
 1411SOL    HW1 5132   3.697   6.161   6.859
 1411SOL    HW2 5133   3.574   6.058   6.831
 1412SOL     OW 5134   2.587   1.593   0.226
 1412SOL    HW1 5135   2.642   1.666   0.266
 1412SOL    HW2 5136   2.541   1.542   0.299
 1413SOL     OW 5137   2.243   1.632   4.880
 1413SOL    HW1 5138   2.325   1.664   4.834
 1413SOL    HW2 5139   2.224   1.537   4.853
 1414SOL     OW 5140   0.562   5.224   2.101
 1414SOL    HW1 5141   0.562   5.260   2.008
 1414SOL    HW2 5142   0.645   5.255   2.149
 1415SOL     OW 5143   3.759   1.902   5.240
 1415SOL    HW1 5144   3.761   1.930   5.144
 1415SOL    HW2 5145   3.722   1.809   5.246
 1416SOL     OW 5146   4.812   0.452   5.086
 1416SOL    HW1 5147   4.871   0.495   5.019
 1416SOL    HW2 5148   4.719   0.447   5.050
 1417SOL     OW 5149   3.851   3.422   4.424
 1417SOL    HW1 5150   3.807   3.425   4.334
 1417SOL    HW2 5151   3.874   3.515   4.452
 1418SOL     OW 5152   2.865   3.758   5.338
 1418SOL    HW1 5153   2.867   3.721   5.245
 1418SOL    HW2 5154   2.944   3.724   5.389
 1419SOL     OW 5155   0.790   5.710   1.756
 1419SOL    HW1 5156   0.794   5.780   1.685
 1419SOL    HW2 5157   0.775   5.753   1.845
 1420SOL     OW 5158   3.022   6.175   3.561
 1420SOL    HW1 5159   3.064   6.261   3.588
 1420SOL    HW2 5160   3.070   6.137   3.482
 1421SOL     OW 5161   1.706   5.653   0.724
 1421SOL    HW1 5162   1.754   5.736   0.754
 1421SOL    HW2 5163   1.675   5.602   0.804
 1422SOL     OW 5164   1.830   3.508   6.584
 1422SOL    HW1 5165   1.876   3.569   6.649
 1422SOL    HW2 5166   1.759   3.456   6.632
 1423SOL     OW 5167   5.208   1.054   5.030
 1423SOL    HW1 5168   5.292   1.035   5.081
 1423SOL    HW2 5169   5.133   1.070   5.095
 1424SOL     OW 5170   6.699   2.452   1.423
 1424SOL    HW1 5171   6.777   2.441   1.484
 1424SOL    HW2 5172   6.708   2.538   1.372
 1425SOL     OW 5173   5.637   6.589   2.978
 1425SOL    HW1 5174   5.649   6.490   2.967
 1425SOL    HW2 5175   5.548   6.615   2.941
 1426SOL     OW 5176   3.876   1.010   0.631
 1426SOL    HW1 5177   3.905   0.981   0.723
 1426SOL    HW2 5178   3.936   0.969   0.563
 1427SOL     OW 5179   0.976   0.351   4.042
 1427SOL    HW1 5180   1.032   0.277   4.078
 1427SOL    HW2 5181   0.885   0.317   4.019
 1428SOL     OW 5182   1.986   4.211   3.829
 1428SOL    HW1 5183   2.073   4.246   3.793
 1428SOL    HW2 5184   1.980   4.113   3.812
 1429SOL     OW 5185   6.205   0.286   1.587
 1429SOL    HW1 5186   6.235   0.210   1.643
 1429SOL    HW2 5187   6.282   0.321   1.533
 1430SOL     OW 5188   2.172   3.874   4.533
 1430SOL    HW1 5189   2.148   3.783   4.568
 1430SOL    HW2 5190   2.197   3.933   4.610
 1431SOL     OW 5191   3.532   2.122   0.562
 1431SOL    HW1 5192   3.581   2.103   0.477
 1431SOL    HW2 5193   3.436   2.099   0.551
 1432SOL     OW 5194   4.065   0.311   3.079
 1432SOL    HW1 5195   4.083   0.363   2.995
 1432SOL    HW2 5196   3.966   0.305   3.093
 1433SOL     OW 5197   2.957   1.947   4.193
 1433SOL    HW1 5198   2.943   1.864   4.140
 1433SOL    HW2 5199   3.053   1.953   4.222
 1434SOL     OW 5200   4.929   3.636   0.617
 1434SOL    HW1 5201   4.963   3.647   0.523
 1434SOL    HW2 5202   4.965   3.709   0.674
 1435SOL     OW 5203   0.329   6.153   4.048
 1435SOL    HW1 5204   0.319   6.174   3.950
 1435SOL    HW2 5205   0.261   6.205   4.099
 1436SOL     OW 5206   5.412   1.174   0.239
 1436SOL    HW1 5207   5.456   1.095   0.281
 1436SOL    HW2 5208   5.387   1.152   0.145
 1437SOL     OW 5209   4.409   1.633   0.826
 1437SOL    HW1 5210   4.342   1.676   0.766
 1437SOL    HW2 5211   4.440   1.700   0.894
 1438SOL     OW 5212   2.329   0.021   2.944
 1438SOL    HW1 5213   2.281   0.107   2.965
 1438SOL    HW2 5214   2.414   0.017   2.995
 1439SOL     OW 5215   0.494   5.649   5.096
 1439SOL    HW1 5216   0.481   5.729   5.037
 1439SOL    HW2 5217   0.445   5.571   5.056
 1440SOL     OW 5218   3.369   3.402   2.085
 1440SOL    HW1 5219   3.279   3.421   2.045
 1440SOL    HW2 5220   3.377   3.304   2.104
 1441SOL     OW 5221   0.342   2.090   5.618
 1441SOL    HW1 5222   0.325   2.111   5.522
 1441SOL    HW2 5223   0.274   2.023   5.649
 1442SOL     OW 5224   5.304   5.761   0.371
 1442SOL    HW1 5225   5.206   5.755   0.349
 1442SOL    HW2 5226   5.315   5.780   0.468
 1443SOL     OW 5227   1.559   2.812   3.600
 1443SOL    HW1 5228   1.584   2.756   3.522
 1443SOL    HW2 5229   1.537   2.904   3.569
 1444SOL     OW 5230   5.292   6.753   4.451
 1444SOL    HW1 5231   5.363   6.685   4.435
 1444SOL    HW2 5232   5.327   6.826   4.510
 1445SOL     OW 5233   0.023   2.043   0.136
 1445SOL    HW1 5234   6.956   2.030   0.184
 1445SOL    HW2 5235   0.088   1.972   0.163
 1446SOL     OW 5236   3.522   5.704   2.524
 1446SOL    HW1 5237   3.532   5.689   2.622
 1446SOL    HW2 5238   3.429   5.680   2.496
 1447SOL     OW 5239   6.631   0.366   4.501
 1447SOL    HW1 5240   6.656   0.463   4.499
 1447SOL    HW2 5241   6.707   0.311   4.466
 1448SOL     OW 5242   5.066   0.640   0.600
 1448SOL    HW1 5243   5.059   0.600   0.692
 1448SOL    HW2 5244   5.017   0.582   0.535
 1449SOL     OW 5245   4.538   5.419   0.136
 1449SOL    HW1 5246   4.503   5.387   0.048
 1449SOL    HW2 5247   4.473   5.395   0.208
 1450SOL     OW 5248   5.843   1.502   3.772
 1450SOL    HW1 5249   5.886   1.517   3.861
 1450SOL    HW2 5250   5.826   1.404   3.760
 1451SOL     OW 5251   1.228   0.071   1.818
 1451SOL    HW1 5252   1.315   0.058   1.865
 1451SOL    HW2 5253   1.153   0.056   1.883
 1452SOL     OW 5254   2.629   0.347   6.182
 1452SOL    HW1 5255   2.610   0.264   6.130
 1452SOL    HW2 5256   2.716   0.335   6.230
 1453SOL     OW 5257   5.400   4.253   4.535
 1453SOL    HW1 5258   5.449   4.177   4.576
 1453SOL    HW2 5259   5.464   4.326   4.512
 1454SOL     OW 5260   5.629   3.958   1.002
 1454SOL    HW1 5261   5.715   3.928   1.043
 1454SOL    HW2 5262   5.555   3.952   1.070
 1455SOL     OW 5263   1.516   1.775   1.710
 1455SOL    HW1 5264   1.466   1.862   1.710
 1455SOL    HW2 5265   1.457   1.702   1.675
 1456SOL     OW 5266   5.933   5.564   5.494
 1456SOL    HW1 5267   5.979   5.496   5.435
 1456SOL    HW2 5268   5.899   5.639   5.437
 1457SOL     OW 5269   2.032   0.844   4.601
 1457SOL    HW1 5270   1.954   0.781   4.600
 1457SOL    HW2 5271   2.004   0.933   4.565
 1458SOL     OW 5272   0.186   5.222   6.510
 1458SOL    HW1 5273   0.143   5.254   6.426
 1458SOL    HW2 5274   0.285   5.231   6.502
 1459SOL     OW 5275   2.230   6.755   1.824
 1459SOL    HW1 5276   2.242   6.777   1.728
 1459SOL    HW2 5277   2.312   6.710   1.859
 1460SOL     OW 5278   0.297   0.158   6.963
 1460SOL    HW1 5279   0.287   0.139   0.041
 1460SOL    HW2 5280   0.394   0.156   6.938
 1461SOL     OW 5281   4.922   4.924   2.450
 1461SOL    HW1 5282   4.929   4.928   2.350
 1461SOL    HW2 5283   5.003   4.877   2.487
 1462SOL     OW 5284   5.264   0.167   5.136
 1462SOL    HW1 5285   5.348   0.169   5.192
 1462SOL    HW2 5286   5.201   0.237   5.169
 1463SOL     OW 5287   0.882   2.518   5.416
 1463SOL    HW1 5288   0.887   2.439   5.477
 1463SOL    HW2 5289   0.832   2.493   5.333
 1464SOL     OW 5290   0.782   0.876   1.179
 1464SOL    HW1 5291   0.773   0.964   1.133
 1464SOL    HW2 5292   0.805   0.891   1.275
 1465SOL     OW 5293   1.598   0.791   3.465
 1465SOL    HW1 5294   1.503   0.777   3.490
 1465SOL    HW2 5295   1.610   0.885   3.433
 1466SOL     OW 5296   5.325   5.506   4.142
 1466SOL    HW1 5297   5.422   5.515   4.118
 1466SOL    HW2 5298   5.292   5.594   4.179
 1467SOL     OW 5299   6.895   3.830   4.338
 1467SOL    HW1 5300   6.971   3.894   4.320
 1467SOL    HW2 5301   6.901   3.753   4.274
 1468SOL     OW 5302   4.854   0.386   2.901
 1468SOL    HW1 5303   4.794   0.350   2.972
 1468SOL    HW2 5304   4.808   0.461   2.853
 1469SOL     OW 5305   0.579   0.738   2.102
 1469SOL    HW1 5306   0.673   0.772   2.101
 1469SOL    HW2 5307   0.529   0.781   2.178
 1470SOL     OW 5308   0.186   0.106   2.835
 1470SOL    HW1 5309   0.216   0.065   2.749
 1470SOL    HW2 5310   0.086   0.114   2.835
 1471SOL     OW 5311   6.338   0.825   0.972
 1471SOL    HW1 5312   6.283   0.806   0.891
 1471SOL    HW2 5313   6.279   0.833   1.051
 1472SOL     OW 5314   4.526   5.227   4.950
 1472SOL    HW1 5315   4.543   5.240   4.852
 1472SOL    HW2 5316   4.449   5.164   4.963
 1473SOL     OW 5317   6.544   3.709   3.711
 1473SOL    HW1 5318   6.581   3.797   3.738
 1473SOL    HW2 5319   6.447   3.704   3.734
 1474SOL     OW 5320   4.183   5.884   2.917
 1474SOL    HW1 5321   4.092   5.880   2.877
 1474SOL    HW2 5322   4.187   5.957   2.985
 1475SOL     OW 5323   6.371   6.987   3.015
 1475SOL    HW1 5324   6.467   7.012   3.028
 1475SOL    HW2 5325   6.365   6.901   2.964
 1476SOL     OW 5326   0.758   2.118   1.780
 1476SOL    HW1 5327   0.843   2.171   1.776
 1476SOL    HW2 5328   0.767   2.036   1.723
 1477SOL     OW 5329   2.703   6.674   4.775
 1477SOL    HW1 5330   2.666   6.764   4.798
 1477SOL    HW2 5331   2.681   6.652   4.680
 1478SOL     OW 5332   0.254   3.472   1.158
 1478SOL    HW1 5333   0.327   3.403   1.160
 1478SOL    HW2 5334   0.229   3.497   1.251
 1479SOL     OW 5335   1.493   5.616   0.239
 1479SOL    HW1 5336   1.469   5.706   0.202
 1479SOL    HW2 5337   1.411   5.573   0.278
 1480SOL     OW 5338   2.830   0.984   6.827
 1480SOL    HW1 5339   2.873   0.915   6.886
 1480SOL    HW2 5340   2.733   0.991   6.849
 1481SOL     OW 5341   0.024   3.322   0.049
 1481SOL    HW1 5342   0.065   3.403   0.090
 1481SOL    HW2 5343   0.075   3.296   6.986
 1482SOL     OW 5344   5.732   0.319   6.310
 1482SOL    HW1 5345   5.679   0.367   6.240
 1482SOL    HW2 5346   5.730   0.220   6.291
 1483SOL     OW 5347   6.372   2.178   6.873
 1483SOL    HW1 5348   6.399   2.096   6.923
 1483SOL    HW2 5349   6.328   2.152   6.787
 1484SOL     OW 5350   5.908   0.105   3.280
 1484SOL    HW1 5351   5.820   0.147   3.302
 1484SOL    HW2 5352   5.959   0.088   3.364
 1485SOL     OW 5353   5.555   3.474   3.886
 1485SOL    HW1 5354   5.588   3.417   3.811
 1485SOL    HW2 5355   5.628   3.486   3.953
 1486SOL     OW 5356   5.279   2.472   1.732
 1486SOL    HW1 5357   5.316   2.426   1.813
 1486SOL    HW2 5358   5.302   2.418   1.650
 1487SOL     OW 5359   0.209   0.103   5.485
 1487SOL    HW1 5360   0.170   0.118   5.394
 1487SOL    HW2 5361   0.303   0.070   5.476
 1488SOL     OW 5362   5.286   2.005   4.757
 1488SOL    HW1 5363   5.354   2.010   4.830
 1488SOL    HW2 5364   5.229   2.087   4.759
 1489SOL     OW 5365   3.322   4.973   4.811
 1489SOL    HW1 5366   3.281   5.064   4.820
 1489SOL    HW2 5367   3.345   4.956   4.715
 1490SOL     OW 5368   2.295   2.678   1.047
 1490SOL    HW1 5369   2.373   2.728   1.010
 1490SOL    HW2 5370   2.243   2.636   0.973
 1491SOL     OW 5371   0.625   2.216   4.727
 1491SOL    HW1 5372   0.585   2.296   4.683
 1491SOL    HW2 5373   0.611   2.221   4.826
 1492SOL     OW 5374   0.182   2.170   1.882
 1492SOL    HW1 5375   0.210   2.074   1.891
 1492SOL    HW2 5376   0.118   2.194   1.955
 1493SOL     OW 5377   6.022   2.637   4.945
 1493SOL    HW1 5378   5.932   2.603   4.975
 1493SOL    HW2 5379   6.078   2.656   5.025
 1494SOL     OW 5380   5.405   1.777   4.256
 1494SOL    HW1 5381   5.501   1.801   4.267
 1494SOL    HW2 5382   5.347   1.848   4.297
 1495SOL     OW 5383   1.322   3.781   2.156
 1495SOL    HW1 5384   1.421   3.787   2.154
 1495SOL    HW2 5385   1.291   3.715   2.087
 1496SOL     OW 5386   1.526   0.316   2.211
 1496SOL    HW1 5387   1.544   0.283   2.304
 1496SOL    HW2 5388   1.429   0.332   2.199
 1497SOL     OW 5389   5.844   5.376   5.687
 1497SOL    HW1 5390   5.746   5.360   5.674
 1497SOL    HW2 5391   5.872   5.457   5.637
 1498SOL     OW 5392   2.922   5.661   0.413
 1498SOL    HW1 5393   2.827   5.645   0.389
 1498SOL    HW2 5394   2.980   5.596   0.363
 1499SOL     OW 5395   0.767   4.190   4.270
 1499SOL    HW1 5396   0.749   4.243   4.186
 1499SOL    HW2 5397   0.769   4.093   4.247
 1500SOL     OW 5398   3.857   6.830   6.083
 1500SOL    HW1 5399   3.774   6.775   6.091
 1500SOL    HW2 5400   3.834   6.927   6.093
 1501SOL     OW 5401   3.256   0.244   0.841
 1501SOL    HW1 5402   3.322   0.316   0.821
 1501SOL    HW2 5403   3.235   0.244   0.939
 1502SOL     OW 5404   0.731   0.130   5.919
 1502SOL    HW1 5405   0.809   0.106   5.861
 1502SOL    HW2 5406   0.764   0.168   6.005
 1503SOL     OW 5407   3.327   4.097   5.155
 1503SOL    HW1 5408   3.228   4.085   5.142
 1503SOL    HW2 5409   3.369   4.122   5.069
 1504SOL     OW 5410   2.725   6.704   3.786
 1504SOL    HW1 5411   2.685   6.654   3.710
 1504SOL    HW2 5412   2.822   6.718   3.770
 1505SOL     OW 5413   5.278   6.746   3.089
 1505SOL    HW1 5414   5.191   6.707   3.060
 1505SOL    HW2 5415   5.280   6.843   3.066
 1506SOL     OW 5416   1.011   6.236   3.875
 1506SOL    HW1 5417   0.950   6.170   3.918
 1506SOL    HW2 5418   0.968   6.326   3.875
 1507SOL     OW 5419   1.942   1.613   6.980
 1507SOL    HW1 5420   1.904   1.530   6.939
 1507SOL    HW2 5421   1.927   1.690   6.918
 1508SOL     OW 5422   4.703   6.734   1.344
 1508SOL    HW1 5423   4.719   6.661   1.277
 1508SOL    HW2 5424   4.698   6.695   1.436
 1509SOL     OW 5425   5.702   1.602   6.719
 1509SOL    HW1 5426   5.622   1.557   6.758
 1509SOL    HW2 5427   5.759   1.638   6.793
 1510SOL     OW 5428   6.686   1.383   2.482
 1510SOL    HW1 5429   6.634   1.467   2.496
 1510SOL    HW2 5430   6.784   1.404   2.480
 1511SOL     OW 5431   0.871   2.787   0.203
 1511SOL    HW1 5432   0.970   2.792   0.216
 1511SOL    HW2 5433   0.850   2.785   0.105
 1512SOL     OW 5434   6.820   0.737   1.740
 1512SOL    HW1 5435   6.726   0.713   1.717
 1512SOL    HW2 5436   6.829   0.747   1.839
 1513SOL     OW 5437   2.526   0.782   2.864
 1513SOL    HW1 5438   2.514   0.692   2.821
 1513SOL    HW2 5439   2.607   0.826   2.826
 1514SOL     OW 5440   4.386   1.066   5.777
 1514SOL    HW1 5441   4.333   1.149   5.793
 1514SOL    HW2 5442   4.382   1.008   5.858
 1515SOL     OW 5443   5.243   5.218   5.523
 1515SOL    HW1 5444   5.243   5.295   5.587
 1515SOL    HW2 5445   5.303   5.239   5.446
 1516SOL     OW 5446   0.079   1.643   0.989
 1516SOL    HW1 5447   0.102   1.684   1.077
 1516SOL    HW2 5448   0.025   1.708   0.935
 1517SOL     OW 5449   3.285   5.100   2.419
 1517SOL    HW1 5450   3.330   5.188   2.436
 1517SOL    HW2 5451   3.287   5.080   2.321
 1518SOL     OW 5452   0.590   4.762   0.676
 1518SOL    HW1 5453   0.676   4.785   0.721
 1518SOL    HW2 5454   0.602   4.765   0.577
 1519SOL     OW 5455   0.353   4.124   0.949
 1519SOL    HW1 5456   0.306   4.126   0.861
 1519SOL    HW2 5457   0.329   4.205   1.003
 1520SOL     OW 5458   1.177   3.427   2.717
 1520SOL    HW1 5459   1.119   3.475   2.783
 1520SOL    HW2 5460   1.129   3.346   2.682
 1521SOL     OW 5461   2.532   4.673   5.380
 1521SOL    HW1 5462   2.597   4.724   5.323
 1521SOL    HW2 5463   2.536   4.576   5.356
 1522SOL     OW 5464   1.222   1.875   6.297
 1522SOL    HW1 5465   1.250   1.971   6.304
 1522SOL    HW2 5466   1.254   1.836   6.211
 1523SOL     OW 5467   5.792   1.598   1.127
 1523SOL    HW1 5468   5.755   1.601   1.220
 1523SOL    HW2 5469   5.859   1.524   1.120
 1524SOL     OW 5470   0.535   1.355   0.733
 1524SOL    HW1 5471   0.538   1.416   0.812
 1524SOL    HW2 5472   0.440   1.330   0.714
 1525SOL     OW 5473   5.086   1.869   5.604
 1525SOL    HW1 5474   5.126   1.911   5.685
 1525SOL    HW2 5475   4.991   1.897   5.595
 1526SOL     OW 5476   5.703   1.783   0.399
 1526SOL    HW1 5477   5.772   1.795   0.328
 1526SOL    HW2 5478   5.745   1.744   0.481
 1527SOL     OW 5479   2.916   0.984   5.823
 1527SOL    HW1 5480   2.844   0.933   5.775
 1527SOL    HW2 5481   2.898   0.980   5.921
 1528SOL     OW 5482   5.056   5.649   3.434
 1528SOL    HW1 5483   4.979   5.633   3.372
 1528SOL    HW2 5484   5.140   5.660   3.381
 1529SOL     OW 5485   1.943   6.855   5.312
 1529SOL    HW1 5486   1.924   6.757   5.318
 1529SOL    HW2 5487   2.037   6.868   5.280
 1530SOL     OW 5488   2.943   6.699   1.306
 1530SOL    HW1 5489   2.984   6.681   1.216
 1530SOL    HW2 5490   2.845   6.711   1.295
 1531SOL     OW 5491   5.351   0.967   6.701
 1531SOL    HW1 5492   5.280   0.987   6.634
 1531SOL    HW2 5493   5.438   0.949   6.654
 1532SOL     OW 5494   2.859   1.854   5.214
 1532SOL    HW1 5495   2.834   1.946   5.244
 1532SOL    HW2 5496   2.824   1.839   5.121
 1533SOL     OW 5497   4.533   3.008   0.110
 1533SOL    HW1 5498   4.486   3.094   0.126
 1533SOL    HW2 5499   4.601   2.993   0.182
 1534SOL     OW 5500   6.669   0.263   0.679
 1534SOL    HW1 5501   6.591   0.208   0.648
 1534SOL    HW2 5502   6.735   0.271   0.604
 1535SOL     OW 5503   5.176   4.602   4.659
 1535SOL    HW1 5504   5.203   4.563   4.747
 1535SOL    HW2 5505   5.234   4.681   4.639
 1536SOL     OW 5506   3.134   6.258   3.092
 1536SOL    HW1 5507   3.193   6.209   3.029
 1536SOL    HW2 5508   3.059   6.301   3.042
 1537SOL     OW 5509   2.779   6.031   4.700
 1537SOL    HW1 5510   2.824   5.981   4.774
 1537SOL    HW2 5511   2.682   6.007   4.698
 1538SOL     OW 5512   3.473   6.217   0.077
 1538SOL    HW1 5513   3.567   6.251   0.075
 1538SOL    HW2 5514   3.423   6.254   7.018
 1539SOL     OW 5515   2.433   6.483   2.053
 1539SOL    HW1 5516   2.347   6.493   2.003
 1539SOL    HW2 5517   2.461   6.387   2.054
 1540SOL     OW 5518   6.178   6.925   4.976
 1540SOL    HW1 5519   6.089   6.899   4.939
 1540SOL    HW2 5520   6.199   6.870   5.056
 1541SOL     OW 5521   5.487   1.518   2.096
 1541SOL    HW1 5522   5.400   1.509   2.047
 1541SOL    HW2 5523   5.558   1.468   2.047
 1542SOL     OW 5524   6.839   6.204   1.156
 1542SOL    HW1 5525   6.882   6.133   1.212
 1542SOL    HW2 5526   6.894   6.219   1.074
 1543SOL     OW 5527   3.220   3.193   3.191
 1543SOL    HW1 5528   3.222   3.116   3.127
 1543SOL    HW2 5529   3.174   3.165   3.276
 1544SOL     OW 5530   3.544   3.542   1.868
 1544SOL    HW1 5531   3.589   3.628   1.890
 1544SOL    HW2 5532   3.481   3.518   1.942
 1545SOL     OW 5533   0.380   6.548   4.959
 1545SOL    HW1 5534   0.290   6.538   5.000
 1545SOL    HW2 5535   0.448   6.565   5.030
 1546SOL     OW 5536   6.970   6.461   6.533
 1546SOL    HW1 5537   0.006   6.453   6.617
 1546SOL    HW2 5538   7.001   6.393   6.467
 1547SOL     OW 5539   3.462   5.920   0.024
 1547SOL    HW1 5540   3.424   6.011   0.042
 1547SOL    HW2 5541   3.552   5.913   0.068
 1548SOL     OW 5542   6.807   3.978   3.184
 1548SOL    HW1 5543   6.786   3.999   3.088
 1548SOL    HW2 5544   6.906   3.985   3.198
 1549SOL     OW 5545   6.646   2.191   0.995
 1549SOL    HW1 5546   6.554   2.193   1.035
 1549SOL    HW2 5547   6.714   2.185   1.068
 1550SOL     OW 5548   2.813   4.963   2.262
 1550SOL    HW1 5549   2.731   5.014   2.287
 1550SOL    HW2 5550   2.791   4.865   2.258
 1551SOL     OW 5551   0.553   2.283   1.897
 1551SOL    HW1 5552   0.631   2.246   1.846
 1551SOL    HW2 5553   0.468   2.247   1.860
 1552SOL     OW 5554   1.542   6.719   2.051
 1552SOL    HW1 5555   1.601   6.784   2.003
 1552SOL    HW2 5556   1.531   6.747   2.146
 1553SOL     OW 5557   5.825   1.680   5.861
 1553SOL    HW1 5558   5.764   1.617   5.909
 1553SOL    HW2 5559   5.826   1.768   5.908
 1554SOL     OW 5560   2.623   2.893   0.741
 1554SOL    HW1 5561   2.612   2.808   0.689
 1554SOL    HW2 5562   2.669   2.961   0.684
 1555SOL     OW 5563   4.006   1.440   0.821
 1555SOL    HW1 5564   3.956   1.400   0.744
 1555SOL    HW2 5565   4.033   1.533   0.799
 1556SOL     OW 5566   3.013   2.447   0.303
 1556SOL    HW1 5567   3.109   2.477   0.309
 1556SOL    HW2 5568   2.964   2.504   0.238
 1557SOL     OW 5569   1.134   2.879   0.847
 1557SOL    HW1 5570   1.234   2.886   0.853
 1557SOL    HW2 5571   1.109   2.785   0.821
 1558SOL     OW 5572   5.242   2.693   6.627
 1558SOL    HW1 5573   5.287   2.607   6.652
 1558SOL    HW2 5574   5.162   2.674   6.570
 1559SOL     OW 5575   2.779   6.069   3.392
 1559SOL    HW1 5576   2.867   6.109   3.417
 1559SOL    HW2 5577   2.719   6.068   3.472
 1560SOL     OW 5578   4.723   2.843   1.419
 1560SOL    HW1 5579   4.818   2.868   1.435
 1560SOL    HW2 5580   4.674   2.842   1.507
 1561SOL     OW 5581   5.758   6.242   0.454
 1561SOL    HW1 5582   5.854   6.223   0.476
 1561SOL    HW2 5583   5.710   6.156   0.438
 1562SOL     OW 5584   2.808   6.936   2.607
 1562SOL    HW1 5585   2.784   6.886   2.524
 1562SOL    HW2 5586   2.725   6.968   2.652
 1563SOL     OW 5587   2.162   3.794   3.675
 1563SOL    HW1 5588   2.151   3.695   3.666
 1563SOL    HW2 5589   2.204   3.815   3.764
 1564SOL     OW 5590   1.115   1.720   2.458
 1564SOL    HW1 5591   1.114   1.818   2.438
 1564SOL    HW2 5592   1.083   1.705   2.552
 1565SOL     OW 5593   4.779   1.642   5.167
 1565SOL    HW1 5594   4.830   1.581   5.107
 1565SOL    HW2 5595   4.683   1.643   5.140
 1566SOL     OW 5596   0.793   3.473   3.514
 1566SOL    HW1 5597   0.810   3.379   3.543
 1566SOL    HW2 5598   0.709   3.507   3.557
 1567SOL     OW 5599   5.502   0.664   4.795
 1567SOL    HW1 5600   5.476   0.761   4.800
 1567SOL    HW2 5601   5.420   0.607   4.802
 1568SOL     OW 5602   2.300   4.781   0.876
 1568SOL    HW1 5603   2.226   4.714   0.863
 1568SOL    HW2 5604   2.373   4.739   0.929
 1569SOL     OW 5605   2.151   0.870   2.193
 1569SOL    HW1 5606   2.059   0.850   2.158
 1569SOL    HW2 5607   2.144   0.899   2.288
 1570SOL     OW 5608   2.878   6.110   6.487
 1570SOL    HW1 5609   2.901   6.059   6.404
 1570SOL    HW2 5610   2.946   6.181   6.502
 1571SOL     OW 5611   0.164   1.691   4.098
 1571SOL    HW1 5612   0.132   1.785   4.112
 1571SOL    HW2 5613   0.238   1.691   4.031
 1572SOL     OW 5614   1.831   5.914   3.477
 1572SOL    HW1 5615   1.910   5.925   3.417
 1572SOL    HW2 5616   1.852   5.950   3.567
 1573SOL     OW 5617   5.847   5.881   0.695
 1573SOL    HW1 5618   5.940   5.917   0.696
 1573SOL    HW2 5619   5.847   5.792   0.650
 1574SOL     OW 5620   0.134   4.095   3.263
 1574SOL    HW1 5621   0.141   4.159   3.186
 1574SOL    HW2 5622   0.149   4.144   3.349
 1575SOL     OW 5623   0.188   2.159   0.791
 1575SOL    HW1 5624   0.104   2.211   0.780
 1575SOL    HW2 5625   0.225   2.135   0.701
 1576SOL     OW 5626   1.561   5.980   2.469
 1576SOL    HW1 5627   1.561   6.039   2.550
 1576SOL    HW2 5628   1.653   5.977   2.430
 1577SOL     OW 5629   4.226   5.792   4.099
 1577SOL    HW1 5630   4.244   5.828   4.191
 1577SOL    HW2 5631   4.310   5.751   4.063
 1578SOL     OW 5632   5.698   1.786   1.825
 1578SOL    HW1 5633   5.725   1.767   1.919
 1578SOL    HW2 5634   5.772   1.833   1.778
 1579SOL     OW 5635   1.605   3.183   2.052
 1579SOL    HW1 5636   1.594   3.277   2.084
 1579SOL    HW2 5637   1.593   3.120   2.128
 1580SOL     OW 5638   3.302   3.915   3.592
 1580SOL    HW1 5639   3.325   3.993   3.534
 1580SOL    HW2 5640   3.386   3.867   3.619
 1581SOL     OW 5641   4.745   4.770   5.281
 1581SOL    HW1 5642   4.816   4.800   5.218
 1581SOL    HW2 5643   4.750   4.670   5.291
 1582SOL     OW 5644   4.234   6.047   4.695
 1582SOL    HW1 5645   4.282   6.122   4.651
 1582SOL    HW2 5646   4.285   5.962   4.681
 1583SOL     OW 5647   1.299   5.020   5.231
 1583SOL    HW1 5648   1.312   4.922   5.247
 1583SOL    HW2 5649   1.223   5.033   5.167
 1584SOL     OW 5650   0.108   3.532   0.155
 1584SOL    HW1 5651   0.172   3.602   0.126
 1584SOL    HW2 5652   0.053   3.566   0.232
 1585SOL     OW 5653   5.094   6.406   4.512
 1585SOL    HW1 5654   5.090   6.454   4.424
 1585SOL    HW2 5655   5.078   6.472   4.586
 1586SOL     OW 5656   2.349   5.863   3.657
 1586SOL    HW1 5657   2.376   5.906   3.571
 1586SOL    HW2 5658   2.272   5.801   3.641
 1587SOL     OW 5659   3.806   6.519   0.331
 1587SOL    HW1 5660   3.806   6.425   0.365
 1587SOL    HW2 5661   3.900   6.548   0.313
 1588SOL     OW 5662   6.263   2.072   3.869
 1588SOL    HW1 5663   6.199   2.004   3.904
 1588SOL    HW2 5664   6.219   2.162   3.870
 1589SOL     OW 5665   6.722   1.996   4.408
 1589SOL    HW1 5666   6.819   1.981   4.425
 1589SOL    HW2 5667   6.668   1.934   4.464
 1590SOL     OW 5668   5.133   0.651   4.154
 1590SOL    HW1 5669   5.230   0.645   4.175
 1590SOL    HW2 5670   5.119   0.646   4.055
 1591SOL     OW 5671   0.339   5.844   0.324
 1591SOL    HW1 5672   0.400   5.920   0.345
 1591SOL    HW2 5673   0.377   5.789   0.250
 1592SOL     OW 5674   7.008   3.813   4.898
 1592SOL    HW1 5675   0.077   3.825   4.852
 1592SOL    HW2 5676   0.003   3.812   4.997
 1593SOL     OW 5677   3.795   5.975   1.234
 1593SOL    HW1 5678   3.846   6.005   1.315
 1593SOL    HW2 5679   3.772   5.878   1.244
 1594SOL     OW 5680   4.851   0.905   3.028
 1594SOL    HW1 5681   4.807   0.916   2.939
 1594SOL    HW2 5682   4.913   0.982   3.044
 1595SOL     OW 5683   0.255   3.598   6.826
 1595SOL    HW1 5684   0.330   3.533   6.842
 1595SOL    HW2 5685   0.255   3.668   6.897
 1596SOL     OW 5686   5.158   4.113   4.349
 1596SOL    HW1 5687   5.147   4.119   4.250
 1596SOL    HW2 5688   5.141   4.202   4.390
 1597SOL     OW 5689   4.350   6.361   0.820
 1597SOL    HW1 5690   4.284   6.295   0.782
 1597SOL    HW2 5691   4.334   6.451   0.779
 1598SOL     OW 5692   1.120   4.685   6.312
 1598SOL    HW1 5693   1.098   4.653   6.220
 1598SOL    HW2 5694   1.043   4.668   6.373
 1599SOL     OW 5695   4.410   5.791   3.823
 1599SOL    HW1 5696   4.402   5.707   3.876
 1599SOL    HW2 5697   4.505   5.823   3.827
 1600SOL     OW 5698   4.702   0.724   1.547
 1600SOL    HW1 5699   4.638   0.684   1.482
 1600SOL    HW2 5700   4.723   0.658   1.619
 1601SOL     OW 5701   6.490   0.803   5.006
 1601SOL    HW1 5702   6.566   0.826   5.066
 1601SOL    HW2 5703   6.524   0.788   4.913
 1602SOL     OW 5704   3.963   5.245   3.406
 1602SOL    HW1 5705   3.872   5.284   3.411
 1602SOL    HW2 5706   3.988   5.227   3.311
 1603SOL     OW 5707   3.148   5.033   1.880
 1603SOL    HW1 5708   3.240   5.039   1.919
 1603SOL    HW2 5709   3.145   4.958   1.814
 1604SOL     OW 5710   4.433   5.171   2.368
 1604SOL    HW1 5711   4.369   5.247   2.354
 1604SOL    HW2 5712   4.481   5.184   2.455
 1605SOL     OW 5713   4.748   5.009   0.589
 1605SOL    HW1 5714   4.723   5.043   0.499
 1605SOL    HW2 5715   4.840   4.969   0.586
 1606SOL     OW 5716   3.376   5.724   5.619
 1606SOL    HW1 5717   3.373   5.823   5.605
 1606SOL    HW2 5718   3.465   5.699   5.659
 1607SOL     OW 5719   4.958   3.761   3.802
 1607SOL    HW1 5720   4.900   3.732   3.879
 1607SOL    HW2 5721   5.021   3.686   3.778
 1608SOL     OW 5722   5.887   2.884   3.467
 1608SOL    HW1 5723   5.824   2.951   3.506
 1608SOL    HW2 5724   5.933   2.835   3.541
 1609SOL     OW 5725   1.880   6.876   0.850
 1609SOL    HW1 5726   1.928   6.907   0.933
 1609SOL    HW2 5727   1.782   6.882   0.865
 1610SOL     OW 5728   5.547   6.246   1.045
 1610SOL    HW1 5729   5.569   6.330   0.994
 1610SOL    HW2 5730   5.486   6.189   0.990
 1611SOL     OW 5731   0.448   3.948   6.993
 1611SOL    HW1 5732   0.411   4.037   7.018
 1611SOL    HW2 5733   0.527   3.928   0.032
 1612SOL     OW 5734   4.850   0.928   1.715
 1612SOL    HW1 5735   4.882   0.836   1.739
 1612SOL    HW2 5736   4.813   0.926   1.622
 1613SOL     OW 5737   0.354   6.258   2.441
 1613SOL    HW1 5738   0.276   6.198   2.425
 1613SOL    HW2 5739   0.436   6.202   2.454
 1614SOL     OW 5740   6.236   2.011   5.270
 1614SOL    HW1 5741   6.185   2.071   5.208
 1614SOL    HW2 5742   6.187   1.925   5.281
 1615SOL     OW 5743   0.072   3.463   4.868
 1615SOL    HW1 5744   0.001   3.439   4.934
 1615SOL    HW2 5745   0.089   3.385   4.808
 1616SOL     OW 5746   0.865   1.294   3.304
 1616SOL    HW1 5747   0.855   1.372   3.366
 1616SOL    HW2 5748   0.884   1.211   3.356
 1617SOL     OW 5749   6.474   5.398   4.144
 1617SOL    HW1 5750   6.377   5.377   4.135
 1617SOL    HW2 5751   6.499   5.468   4.078
 1618SOL     OW 5752   3.195   5.508   2.944
 1618SOL    HW1 5753   3.150   5.421   2.963
 1618SOL    HW2 5754   3.127   5.582   2.948
 1619SOL     OW 5755   0.744   3.692   6.653
 1619SOL    HW1 5756   0.842   3.712   6.652
 1619SOL    HW2 5757   0.694   3.772   6.687
 1620SOL     OW 5758   3.003   6.762   4.644
 1620SOL    HW1 5759   3.038   6.717   4.562
 1620SOL    HW2 5760   2.945   6.840   4.618
 1621SOL     OW 5761   5.495   4.513   1.080
 1621SOL    HW1 5762   5.524   4.608   1.084
 1621SOL    HW2 5763   5.411   4.501   1.132
 1622SOL     OW 5764   6.499   4.042   3.102
 1622SOL    HW1 5765   6.542   4.021   3.014
 1622SOL    HW2 5766   6.527   4.133   3.132
 1623SOL     OW 5767   0.982   2.393   3.938
 1623SOL    HW1 5768   0.967   2.418   4.033
 1623SOL    HW2 5769   0.926   2.312   3.915
 1624SOL     OW 5770   3.875   3.013   0.582
 1624SOL    HW1 5771   3.876   2.953   0.501
 1624SOL    HW2 5772   3.830   2.966   0.658
 1625SOL     OW 5773   0.774   6.661   0.237
 1625SOL    HW1 5774   0.754   6.640   0.333
 1625SOL    HW2 5775   0.828   6.587   0.197
 1626SOL     OW 5776   2.471   1.912   2.057
 1626SOL    HW1 5777   2.511   1.860   1.981
 1626SOL    HW2 5778   2.533   1.985   2.084
 1627SOL     OW 5779   4.343   1.528   5.834
 1627SOL    HW1 5780   4.302   1.555   5.921
 1627SOL    HW2 5781   4.442   1.523   5.844
 1628SOL     OW 5782   5.318   6.028   1.336
 1628SOL    HW1 5783   5.329   5.933   1.306
 1628SOL    HW2 5784   5.251   6.074   1.278
 1629SOL     OW 5785   1.655   6.825   3.490
 1629SOL    HW1 5786   1.617   6.916   3.506
 1629SOL    HW2 5787   1.638   6.767   3.570
 1630SOL     OW 5788   0.719   4.447   6.038
 1630SOL    HW1 5789   0.746   4.360   6.080
 1630SOL    HW2 5790   0.731   4.441   5.939
 1631SOL     OW 5791   5.033   3.682   0.354
 1631SOL    HW1 5792   5.065   3.777   0.343
 1631SOL    HW2 5793   4.942   3.673   0.313
 1632SOL     OW 5794   6.012   6.377   2.269
 1632SOL    HW1 5795   6.024   6.391   2.368
 1632SOL    HW2 5796   5.915   6.366   2.248
 1633SOL     OW 5797   5.747   3.820   4.615
 1633SOL    HW1 5798   5.755   3.772   4.528
 1633SOL    HW2 5799   5.783   3.764   4.689
 1634SOL     OW 5800   1.322   3.745   6.119
 1634SOL    HW1 5801   1.293   3.834   6.151
 1634SOL    HW2 5802   1.407   3.754   6.067
 1635SOL     OW 5803   2.111   0.472   3.565
 1635SOL    HW1 5804   2.160   0.512   3.487
 1635SOL    HW2 5805   2.013   0.470   3.545
 1636SOL     OW 5806   0.204   6.141   1.695
 1636SOL    HW1 5807   0.266   6.095   1.758
 1636SOL    HW2 5808   0.252   6.216   1.649
 1637SOL     OW 5809   1.263   1.362   2.575
 1637SOL    HW1 5810   1.323   1.282   2.576
 1637SOL    HW2 5811   1.213   1.367   2.662
 1638SOL     OW 5812   5.476   2.180   3.363
 1638SOL    HW1 5813   5.392   2.180   3.417
 1638SOL    HW2 5814   5.465   2.119   3.285
 1639SOL     OW 5815   4.981   2.291   1.692
 1639SOL    HW1 5816   4.930   2.302   1.607
 1639SOL    HW2 5817   4.922   2.312   1.770
 1640SOL     OW 5818   6.267   0.656   6.631
 1640SOL    HW1 5819   6.272   0.737   6.573
 1640SOL    HW2 5820   6.172   0.637   6.654
 1641SOL     OW 5821   5.727   1.052   3.342
 1641SOL    HW1 5822   5.791   1.123   3.313
 1641SOL    HW2 5823   5.774   0.964   3.345
 1642SOL     OW 5824   6.967   3.366   5.656
 1642SOL    HW1 5825   6.907   3.400   5.728
 1642SOL    HW2 5826   6.912   3.340   5.577
 1643SOL     OW 5827   2.520   5.182   3.800
 1643SOL    HW1 5828   2.502   5.086   3.819
 1643SOL    HW2 5829   2.437   5.236   3.817
 1644SOL     OW 5830   6.201   1.522   1.918
 1644SOL    HW1 5831   6.180   1.618   1.900
 1644SOL    HW2 5832   6.249   1.482   1.840
 1645SOL     OW 5833   2.642   0.416   4.761
 1645SOL    HW1 5834   2.693   0.331   4.771
 1645SOL    HW2 5835   2.662   0.477   4.838
 1646SOL     OW 5836   0.033   4.882   1.586
 1646SOL    HW1 5837   0.092   4.925   1.655
 1646SOL    HW2 5838   7.016   4.796   1.622
 1647SOL     OW 5839   6.518   3.416   4.957
 1647SOL    HW1 5840   6.546   3.480   4.886
 1647SOL    HW2 5841   6.431   3.374   4.932
 1648SOL     OW 5842   5.328   6.580   1.740
 1648SOL    HW1 5843   5.341   6.520   1.662
 1648SOL    HW2 5844   5.289   6.528   1.816
 1649SOL     OW 5845   3.510   1.289   2.867
 1649SOL    HW1 5846   3.482   1.363   2.805
 1649SOL    HW2 5847   3.490   1.315   2.961
 1650SOL     OW 5848   2.436   2.675   4.970
 1650SOL    HW1 5849   2.365   2.633   5.028
 1650SOL    HW2 5850   2.427   2.774   4.974
 1651SOL     OW 5851   1.114   2.098   4.002
 1651SOL    HW1 5852   1.088   2.169   3.936
 1651SOL    HW2 5853   1.082   2.009   3.970
 1652SOL     OW 5854   6.717   4.109   1.696
 1652SOL    HW1 5855   6.750   4.042   1.629
 1652SOL    HW2 5856   6.741   4.201   1.665
 1653SOL     OW 5857   6.733   4.721   1.764
 1653SOL    HW1 5858   6.832   4.720   1.746
 1653SOL    HW2 5859   6.686   4.765   1.688
 1654SOL     OW 5860   0.345   4.194   1.448
 1654SOL    HW1 5861   0.251   4.165   1.433
 1654SOL    HW2 5862   0.405   4.114   1.451
 1655SOL     OW 5863   0.303   0.558   5.945
 1655SOL    HW1 5864   0.377   0.568   6.011
 1655SOL    HW2 5865   0.320   0.616   5.866
 1656SOL     OW 5866   1.930   3.960   3.037
 1656SOL    HW1 5867   1.864   3.969   2.962
 1656SOL    HW2 5868   1.913   4.031   3.105
 1657SOL     OW 5869   1.026   0.702   6.304
 1657SOL    HW1 5870   1.035   0.795   6.338
 1657SOL    HW2 5871   0.986   0.644   6.375
 1658SOL     OW 5872   5.451   6.587   5.894
 1658SOL    HW1 5873   5.517   6.662   5.905
 1658SOL    HW2 5874   5.492   6.515   5.838
 1659SOL     OW 5875   3.702   0.056   6.048
 1659SOL    HW1 5876   3.612   0.038   6.008
 1659SOL    HW2 5877   3.749   0.125   5.994
 1660SOL     OW 5878   2.343   0.701   1.830
 1660SOL    HW1 5879   2.411   0.752   1.777
 1660SOL    HW2 5880   2.268   0.762   1.854
 1661SOL     OW 5881   5.231   3.967   3.168
 1661SOL    HW1 5882   5.264   4.043   3.112
 1661SOL    HW2 5883   5.144   3.935   3.131
 1662SOL     OW 5884   0.359   1.465   3.589
 1662SOL    HW1 5885   0.282   1.493   3.533
 1662SOL    HW2 5886   0.438   1.448   3.531
 1663SOL     OW 5887   5.184   3.998   1.048
 1663SOL    HW1 5888   5.270   4.022   1.093
 1663SOL    HW2 5889   5.111   3.989   1.117
 1664SOL     OW 5890   1.122   1.266   6.285
 1664SOL    HW1 5891   1.147   1.363   6.295
 1664SOL    HW2 5892   1.025   1.260   6.262
 1665SOL     OW 5893   2.371   3.809   6.458
 1665SOL    HW1 5894   2.279   3.771   6.474
 1665SOL    HW2 5895   2.427   3.740   6.411
 1666SOL     OW 5896   5.742   6.331   6.186
 1666SOL    HW1 5897   5.814   6.294   6.245
 1666SOL    HW2 5898   5.780   6.403   6.128
 1667SOL     OW 5899   0.005   5.460   1.110
 1667SOL    HW1 5900   6.939   5.509   1.128
 1667SOL    HW2 5901   7.013   5.403   1.028
 1668SOL     OW 5902   6.236   3.159   2.225
 1668SOL    HW1 5903   6.220   3.169   2.127
 1668SOL    HW2 5904   6.300   3.084   2.241
 1669SOL     OW 5905   6.397   2.928   5.542
 1669SOL    HW1 5906   6.337   3.002   5.572
 1669SOL    HW2 5907   6.423   2.944   5.446
 1670SOL     OW 5908   3.202   4.435   5.784
 1670SOL    HW1 5909   3.300   4.433   5.765
 1670SOL    HW2 5910   3.153   4.399   5.704
 1671SOL     OW 5911   5.419   2.027   0.840
 1671SOL    HW1 5912   5.423   2.055   0.744
 1671SOL    HW2 5913   5.387   2.104   0.896
 1672SOL     OW 5914   0.418   1.851   1.594
 1672SOL    HW1 5915   0.345   1.819   1.533
 1672SOL    HW2 5916   0.416   1.951   1.600
 1673SOL     OW 5917   1.819   0.352   5.082
 1673SOL    HW1 5918   1.749   0.290   5.046
 1673SOL    HW2 5919   1.777   0.440   5.103
 1674SOL     OW 5920   5.107   2.339   3.951
 1674SOL    HW1 5921   5.144   2.254   3.914
 1674SOL    HW2 5922   5.178   2.386   4.004
 1675SOL     OW 5923   5.466   0.385   1.893
 1675SOL    HW1 5924   5.433   0.458   1.954
 1675SOL    HW2 5925   5.534   0.330   1.942
 1676SOL     OW 5926   1.224   2.435   3.599
 1676SOL    HW1 5927   1.243   2.500   3.672
 1676SOL    HW2 5928   1.270   2.348   3.618
 1677SOL     OW 5929   3.054   3.421   2.797
 1677SOL    HW1 5930   3.011   3.405   2.708
 1677SOL    HW2 5931   3.033   3.344   2.857
 1678SOL     OW 5932   0.069   6.405   6.854
 1678SOL    HW1 5933   0.150   6.461   6.838
 1678SOL    HW2 5934   0.007   6.453   6.917
 1679SOL     OW 5935   6.049   1.857   0.513
 1679SOL    HW1 5936   6.043   1.862   0.413
 1679SOL    HW2 5937   6.145   1.858   0.541
 1680SOL     OW 5938   6.374   2.790   2.961
 1680SOL    HW1 5939   6.326   2.729   3.024
 1680SOL    HW2 5940   6.313   2.863   2.931
 1681SOL     OW 5941   3.384   5.945   5.123
 1681SOL    HW1 5942   3.430   5.872   5.072
 1681SOL    HW2 5943   3.438   5.967   5.205
 1682SOL     OW 5944   4.420   1.023   4.692
 1682SOL    HW1 5945   4.449   0.961   4.619
 1682SOL    HW2 5946   4.428   1.118   4.662
 1683SOL     OW 5947   0.978   2.541   3.112
 1683SOL    HW1 5948   1.008   2.447   3.105
 1683SOL    HW2 5949   0.890   2.545   3.160
 1684SOL     OW 5950   2.664   5.493   1.351
 1684SOL    HW1 5951   2.580   5.487   1.405
 1684SOL    HW2 5952   2.674   5.411   1.296
 1685SOL     OW 5953   0.170   1.240   5.457
 1685SOL    HW1 5954   0.102   1.311   5.444
 1685SOL    HW2 5955   0.150   1.163   5.395
 1686SOL     OW 5956   3.708   5.303   1.885
 1686SOL    HW1 5957   3.705   5.343   1.794
 1686SOL    HW2 5958   3.688   5.206   1.880
 1687SOL     OW 5959   5.002   3.884   0.712
 1687SOL    HW1 5960   4.994   3.950   0.638
 1687SOL    HW2 5961   5.041   3.927   0.793
 1688SOL     OW 5962   2.709   0.292   2.838
 1688SOL    HW1 5963   2.758   0.378   2.849
 1688SOL    HW2 5964   2.670   0.264   2.925
 1689SOL     OW 5965   3.747   0.628   2.044
 1689SOL    HW1 5966   3.694   0.681   2.111
 1689SOL    HW2 5967   3.721   0.532   2.050
 1690SOL     OW 5968   6.718   4.817   4.218
 1690SOL    HW1 5969   6.642   4.828   4.154
 1690SOL    HW2 5970   6.700   4.869   4.301
 1691SOL     OW 5971   3.961   2.754   5.331
 1691SOL    HW1 5972   3.985   2.849   5.313
 1691SOL    HW2 5973   4.032   2.694   5.296
 1692SOL     OW 5974   6.174   5.518   2.035
 1692SOL    HW1 5975   6.175   5.454   2.113
 1692SOL    HW2 5976   6.089   5.506   1.984
 1693SOL     OW 5977   5.537   6.816   5.644
 1693SOL    HW1 5978   5.626   6.862   5.648
 1693SOL    HW2 5979   5.550   6.720   5.618
 1694SOL     OW 5980   4.625   1.371   6.377
 1694SOL    HW1 5981   4.647   1.315   6.457
 1694SOL    HW2 5982   4.704   1.375   6.317
 1695SOL     OW 5983   4.331   0.151   4.919
 1695SOL    HW1 5984   4.378   0.159   5.007
 1695SOL    HW2 5985   4.237   0.183   4.928
 1696SOL     OW 5986   5.256   6.931   0.859
 1696SOL    HW1 5987   5.228   6.884   0.943
 1696SOL    HW2 5988   5.237   6.872   0.780
 1697SOL     OW 5989   4.617   2.849   1.691
 1697SOL    HW1 5990   4.616   2.930   1.750
 1697SOL    HW2 5991   4.672   2.777   1.733
 1698SOL     OW 5992   4.015   1.269   1.715
 1698SOL    HW1 5993   3.968   1.355   1.696
 1698SOL    HW2 5994   3.989   1.235   1.805
 1699SOL     OW 5995   1.741   0.821   1.160
 1699SOL    HW1 5996   1.823   0.834   1.104
 1699SOL    HW2 5997   1.763   0.762   1.238
 1700SOL     OW 5998   5.537   3.093   2.760
 1700SOL    HW1 5999   5.514   3.037   2.841
 1700SOL    HW2 6000   5.464   3.082   2.692
 1701SOL     OW 6001   0.987   5.666   5.081
 1701SOL    HW1 6002   0.895   5.635   5.108
 1701SOL    HW2 6003   1.015   5.617   4.998
 1702SOL     OW 6004   1.751   2.620   6.359
 1702SOL    HW1 6005   1.739   2.559   6.281
 1702SOL    HW2 6006   1.805   2.699   6.331
 1703SOL     OW 6007   1.291   1.752   2.090
 1703SOL    HW1 6008   1.332   1.733   2.180
 1703SOL    HW2 6009   1.335   1.695   2.021
 1704SOL     OW 6010   2.812   2.836   6.687
 1704SOL    HW1 6011   2.751   2.914   6.698
 1704SOL    HW2 6012   2.759   2.751   6.685
 1705SOL     OW 6013   5.245   3.201   0.418
 1705SOL    HW1 6014   5.302   3.215   0.499
 1705SOL    HW2 6015   5.300   3.214   0.336
 1706SOL     OW 6016   5.321   1.184   6.298
 1706SOL    HW1 6017   5.420   1.186   6.314
 1706SOL    HW2 6018   5.293   1.268   6.250
 1707SOL     OW 6019   3.771   1.074   1.702
 1707SOL    HW1 6020   3.869   1.061   1.687
 1707SOL    HW2 6021   3.750   1.172   1.698
 1708SOL     OW 6022   2.619   4.656   1.940
 1708SOL    HW1 6023   2.712   4.619   1.939
 1708SOL    HW2 6024   2.610   4.725   1.868
 1709SOL     OW 6025   5.166   4.388   1.449
 1709SOL    HW1 6026   5.072   4.374   1.478
 1709SOL    HW2 6027   5.226   4.325   1.499
 1710SOL     OW 6028   4.822   2.883   2.197
 1710SOL    HW1 6029   4.784   2.930   2.117
 1710SOL    HW2 6030   4.759   2.892   2.274
 1711SOL     OW 6031   4.141   5.573   0.098
 1711SOL    HW1 6032   4.062   5.616   0.054
 1711SOL    HW2 6033   4.135   5.587   0.197
 1712SOL     OW 6034   0.380   1.552   2.038
 1712SOL    HW1 6035   0.398   1.454   2.026
 1712SOL    HW2 6036   0.408   1.601   1.955
 1713SOL     OW 6037   3.220   1.358   2.263
 1713SOL    HW1 6038   3.203   1.280   2.203
 1713SOL    HW2 6039   3.154   1.430   2.243
 1714SOL     OW 6040   2.477   4.648   1.017
 1714SOL    HW1 6041   2.437   4.714   1.081
 1714SOL    HW2 6042   2.576   4.659   1.016
 1715SOL     OW 6043   0.882   6.031   1.166
 1715SOL    HW1 6044   0.958   6.016   1.229
 1715SOL    HW2 6045   0.895   5.975   1.084
 1716SOL     OW 6046   5.123   1.742   2.955
 1716SOL    HW1 6047   5.031   1.777   2.970
 1716SOL    HW2 6048   5.127   1.696   2.867
 1717SOL     OW 6049   3.713   6.354   3.503
 1717SOL    HW1 6050   3.709   6.255   3.517
 1717SOL    HW2 6051   3.808   6.385   3.507
 1718SOL     OW 6052   1.703   3.408   1.778
 1718SOL    HW1 6053   1.711   3.494   1.727
 1718SOL    HW2 6054   1.756   3.337   1.733
 1719SOL     OW 6055   1.060   5.071   3.085
 1719SOL    HW1 6056   1.070   5.064   3.185
 1719SOL    HW2 6057   0.970   5.107   3.063
 1720SOL     OW 6058   1.180   2.880   5.522
 1720SOL    HW1 6059   1.101   2.871   5.583
 1720SOL    HW2 6060   1.261   2.839   5.565
 1721SOL     OW 6061   2.115   2.501   0.509
 1721SOL    HW1 6062   2.121   2.558   0.591
 1721SOL    HW2 6063   2.019   2.489   0.483
 1722SOL     OW 6064   2.720   2.212   3.506
 1722SOL    HW1 6065   2.817   2.200   3.526
 1722SOL    HW2 6066   2.703   2.306   3.478
 1723SOL     OW 6067   6.430   4.597   1.187
 1723SOL    HW1 6068   6.349   4.565   1.137
 1723SOL    HW2 6069   6.489   4.519   1.207
 1724SOL     OW 6070   5.643   3.167   0.774
 1724SOL    HW1 6071   5.710   3.241   0.774
 1724SOL    HW2 6072   5.690   3.079   0.781
 1725SOL     OW 6073   2.097   6.375   6.034
 1725SOL    HW1 6074   2.121   6.447   5.970
 1725SOL    HW2 6075   2.002   6.385   6.062
 1726SOL     OW 6076   4.832   4.661   3.377
 1726SOL    HW1 6077   4.907   4.716   3.414
 1726SOL    HW2 6078   4.821   4.578   3.433
 1727SOL     OW 6079   3.380   2.900   3.096
 1727SOL    HW1 6080   3.479   2.900   3.083
 1727SOL    HW2 6081   3.359   2.875   3.191
 1728SOL     OW 6082   5.779   2.083   4.432
 1728SOL    HW1 6083   5.757   2.029   4.513
 1728SOL    HW2 6084   5.696   2.125   4.396
 1729SOL     OW 6085   1.222   3.006   2.829
 1729SOL    HW1 6086   1.272   2.920   2.815
 1729SOL    HW2 6087   1.282   3.083   2.812
 1730SOL     OW 6088   2.436   0.242   4.518
 1730SOL    HW1 6089   2.476   0.319   4.567
 1730SOL    HW2 6090   2.504   0.169   4.509
 1731SOL     OW 6091   5.053   4.317   3.502
 1731SOL    HW1 6092   5.043   4.357   3.593
 1731SOL    HW2 6093   5.145   4.335   3.468
 1732SOL     OW 6094   4.204   3.345   5.241
 1732SOL    HW1 6095   4.163   3.304   5.160
 1732SOL    HW2 6096   4.183   3.443   5.244
 1733SOL     OW 6097   1.613   2.145   6.270
 1733SOL    HW1 6098   1.612   2.227   6.327
 1733SOL    HW2 6099   1.519   2.117   6.252
 1734SOL     OW 6100   0.696   4.611   1.189
 1734SOL    HW1 6101   0.770   4.678   1.201
 1734SOL    HW2 6102   0.610   4.650   1.221
 1735SOL     OW 6103   2.823   5.096   5.855
 1735SOL    HW1 6104   2.913   5.089   5.899
 1735SOL    HW2 6105   2.783   5.185   5.875
 1736SOL     OW 6106   5.191   1.845   6.116
 1736SOL    HW1 6107   5.273   1.899   6.132
 1736SOL    HW2 6108   5.118   1.905   6.084
 1737SOL     OW 6109   2.642   1.084   6.187
 1737SOL    HW1 6110   2.731   1.038   6.181
 1737SOL    HW2 6111   2.650   1.164   6.246
 1738SOL     OW 6112   1.081   4.361   2.004
 1738SOL    HW1 6113   1.118   4.268   1.995
 1738SOL    HW2 6114   1.099   4.395   2.097
 1739SOL     OW 6115   4.635   5.117   2.850
 1739SOL    HW1 6116   4.627   5.030   2.800
 1739SOL    HW2 6117   4.677   5.101   2.939
 1740SOL     OW 6118   6.945   2.130   5.047
 1740SOL    HW1 6119   6.945   2.224   5.014
 1740SOL    HW2 6120   0.014   2.109   5.089
 1741SOL     OW 6121   1.153   2.991   4.687
 1741SOL    HW1 6122   1.178   2.935   4.609
 1741SOL    HW2 6123   1.097   2.938   4.751
 1742SOL     OW 6124   6.066   0.064   6.941
 1742SOL    HW1 6125   6.094   0.159   6.955
 1742SOL    HW2 6126   6.063   0.018   0.011
 1743SOL     OW 6127   1.496   2.067   1.800
 1743SOL    HW1 6128   1.524   2.163   1.797
 1743SOL    HW2 6129   1.537   2.023   1.880
 1744SOL     OW 6130   3.099   2.178   5.343
 1744SOL    HW1 6131   3.148   2.102   5.299
 1744SOL    HW2 6132   3.110   2.260   5.287
 1745SOL     OW 6133   6.505   6.254   0.397
 1745SOL    HW1 6134   6.545   6.292   0.314
 1745SOL    HW2 6135   6.540   6.305   0.476
 1746SOL     OW 6136   2.514   4.908   2.619
 1746SOL    HW1 6137   2.459   4.835   2.580
 1746SOL    HW2 6138   2.508   4.904   2.719
 1747SOL     OW 6139   2.981   0.262   2.299
 1747SOL    HW1 6140   2.887   0.243   2.271
 1747SOL    HW2 6141   2.982   0.344   2.357
 1748SOL     OW 6142   6.937   1.936   3.750
 1748SOL    HW1 6143   6.899   1.933   3.842
 1748SOL    HW2 6144   6.902   1.859   3.696
 1749SOL     OW 6145   6.341   5.644   2.557
 1749SOL    HW1 6146   6.365   5.660   2.461
 1749SOL    HW2 6147   6.423   5.654   2.614
 1750SOL     OW 6148   3.137   1.660   0.798
 1750SOL    HW1 6149   3.074   1.685   0.725
 1750SOL    HW2 6150   3.098   1.585   0.852
 1751SOL     OW 6151   6.147   4.436   4.722
 1751SOL    HW1 6152   6.149   4.406   4.626
 1751SOL    HW2 6153   6.227   4.492   4.741
 1752SOL     OW 6154   5.947   0.771   2.486
 1752SOL    HW1 6155   6.003   0.792   2.565
 1752SOL    HW2 6156   6.005   0.740   2.411
 1753SOL     OW 6157   6.467   1.239   1.532
 1753SOL    HW1 6158   6.440   1.187   1.451
 1753SOL    HW2 6159   6.404   1.315   1.546
 1754SOL     OW 6160   2.558   5.691   3.673
 1754SOL    HW1 6161   2.491   5.765   3.678
 1754SOL    HW2 6162   2.569   5.663   3.577
 1755SOL     OW 6163   6.207   6.618   4.907
 1755SOL    HW1 6164   6.200   6.594   5.004
 1755SOL    HW2 6165   6.303   6.619   4.880
 1756SOL     OW 6166   4.354   5.960   1.451
 1756SOL    HW1 6167   4.378   5.885   1.513
 1756SOL    HW2 6168   4.360   6.047   1.500
 1757SOL     OW 6169   2.839   5.101   5.032
 1757SOL    HW1 6170   2.846   5.002   5.019
 1757SOL    HW2 6171   2.796   5.120   5.121
 1758SOL     OW 6172   0.879   6.028   3.954
 1758SOL    HW1 6173   0.929   5.948   3.921
 1758SOL    HW2 6174   0.781   6.014   3.941
 1759SOL     OW 6175   1.689   5.035   6.348
 1759SOL    HW1 6176   1.718   5.084   6.265
 1759SOL    HW2 6177   1.650   4.947   6.323
 1760SOL     OW 6178   6.173   1.767   3.938
 1760SOL    HW1 6179   6.147   1.829   4.012
 1760SOL    HW2 6180   6.266   1.732   3.955
 1761SOL     OW 6181   5.335   2.427   3.771
 1761SOL    HW1 6182   5.416   2.376   3.743
 1761SOL    HW2 6183   5.257   2.399   3.714
 1762SOL     OW 6184   0.680   1.277   5.900
 1762SOL    HW1 6185   0.663   1.309   5.993
 1762SOL    HW2 6186   0.594   1.274   5.849
 1763SOL     OW 6187   1.797   4.872   3.924
 1763SOL    HW1 6188   1.758   4.832   3.841
 1763SOL    HW2 6189   1.804   4.802   3.995
 1764SOL     OW 6190   1.402   6.021   3.321
 1764SOL    HW1 6191   1.440   5.988   3.408
 1764SOL    HW2 6192   1.425   5.957   3.248
 1765SOL     OW 6193   5.317   3.690   2.046
 1765SOL    HW1 6194   5.254   3.630   2.096
 1765SOL    HW2 6195   5.355   3.640   1.968
 1766SOL     OW 6196   4.680   4.717   3.954
 1766SOL    HW1 6197   4.751   4.665   3.906
 1766SOL    HW2 6198   4.698   4.715   4.052
 1767SOL     OW 6199   1.059   4.100   1.501
 1767SOL    HW1 6200   1.054   4.200   1.490
 1767SOL    HW2 6201   0.973   4.059   1.470
 1768SOL     OW 6202   3.806   4.868   2.755
 1768SOL    HW1 6203   3.895   4.833   2.784
 1768SOL    HW2 6204   3.788   4.838   2.661
 1769SOL     OW 6205   5.436   0.726   0.871
 1769SOL    HW1 6206   5.419   0.801   0.807
 1769SOL    HW2 6207   5.519   0.746   0.924
 1770SOL     OW 6208   2.280   5.275   0.848
 1770SOL    HW1 6209   2.188   5.260   0.884
 1770SOL    HW2 6210   2.320   5.186   0.825
 1771SOL     OW 6211   0.869   2.781   5.961
 1771SOL    HW1 6212   0.875   2.688   5.995
 1771SOL    HW2 6213   0.776   2.815   5.970
 1772SOL     OW 6214   1.977   4.365   2.859
 1772SOL    HW1 6215   2.054   4.411   2.814
 1772SOL    HW2 6216   1.947   4.288   2.803
 1773SOL     OW 6217   2.175   6.568   5.186
 1773SOL    HW1 6218   2.196   6.536   5.279
 1773SOL    HW2 6219   2.201   6.498   5.120
 1774SOL     OW 6220   5.476   5.755   1.909
 1774SOL    HW1 6221   5.561   5.807   1.896
 1774SOL    HW2 6222   5.498   5.665   1.945
 1775SOL     OW 6223   1.083   6.243   1.112
 1775SOL    HW1 6224   1.058   6.338   1.091
 1775SOL    HW2 6225   1.001   6.191   1.132
 1776SOL     OW 6226   4.458   3.326   6.204
 1776SOL    HW1 6227   4.459   3.298   6.108
 1776SOL    HW2 6228   4.393   3.401   6.215
 1777SOL     OW 6229   4.519   5.971   0.372
 1777SOL    HW1 6230   4.439   5.912   0.372
 1777SOL    HW2 6231   4.522   6.022   0.458
 1778SOL     OW 6232   6.931   0.033   3.010
 1778SOL    HW1 6233   6.837   0.042   3.042
 1778SOL    HW2 6234   6.969   6.964   3.040
 1779SOL     OW 6235   6.218   0.082   4.769
 1779SOL    HW1 6236   6.253   0.043   4.684
 1779SOL    HW2 6237   6.216   0.012   4.840
 1780SOL     OW 6238   3.495   6.443   5.115
 1780SOL    HW1 6239   3.517   6.457   5.019
 1780SOL    HW2 6240   3.579   6.443   5.169
 1781SOL     OW 6241   4.628   1.543   5.920
 1781SOL    HW1 6242   4.660   1.630   5.882
 1781SOL    HW2 6243   4.686   1.469   5.886
 1782SOL     OW 6244   5.177   0.533   2.776
 1782SOL    HW1 6245   5.117   0.607   2.746
 1782SOL    HW2 6246   5.174   0.526   2.876
 1783SOL     OW 6247   1.437   3.262   6.923
 1783SOL    HW1 6248   1.342   3.270   6.951
 1783SOL    HW2 6249   1.442   3.234   6.827
 1784SOL     OW 6250   2.190   6.432   1.399
 1784SOL    HW1 6251   2.139   6.482   1.329
 1784SOL    HW2 6252   2.255   6.495   1.442
 1785SOL     OW 6253   1.651   6.013   4.376
 1785SOL    HW1 6254   1.655   5.950   4.298
 1785SOL    HW2 6255   1.687   5.967   4.458
 1786SOL     OW 6256   0.495   5.812   1.777
 1786SOL    HW1 6257   0.562   5.839   1.707
 1786SOL    HW2 6258   0.434   5.889   1.795
 1787SOL     OW 6259   1.978   2.482   5.702
 1787SOL    HW1 6260   1.941   2.573   5.723
 1787SOL    HW2 6261   1.902   2.421   5.679
 1788SOL     OW 6262   3.429   4.073   0.891
 1788SOL    HW1 6263   3.393   3.981   0.875
 1788SOL    HW2 6264   3.368   4.122   0.953
 1789SOL     OW 6265   5.933   2.834   2.002
 1789SOL    HW1 6266   5.902   2.831   2.097
 1789SOL    HW2 6267   6.033   2.834   2.000
 1790SOL     OW 6268   2.312   1.617   4.459
 1790SOL    HW1 6269   2.409   1.604   4.437
 1790SOL    HW2 6270   2.278   1.536   4.507
 1791SOL     OW 6271   6.395   0.591   3.757
 1791SOL    HW1 6272   6.455   0.551   3.688
 1791SOL    HW2 6273   6.304   0.605   3.718
 1792SOL     OW 6274   0.128   2.538   6.418
 1792SOL    HW1 6275   0.161   2.621   6.462
 1792SOL    HW2 6276   0.028   2.536   6.421
 1793SOL     OW 6277   0.303   1.202   4.800
 1793SOL    HW1 6278   0.394   1.229   4.768
 1793SOL    HW2 6279   0.237   1.273   4.779
 1794SOL     OW 6280   0.055   1.743   6.626
 1794SOL    HW1 6281   0.108   1.824   6.600
 1794SOL    HW2 6282   0.008   1.760   6.712
 1795SOL     OW 6283   5.417   4.763   0.471
 1795SOL    HW1 6284   5.354   4.840   0.483
 1795SOL    HW2 6285   5.464   4.772   0.382
 1796SOL     OW 6286   6.009   6.534   0.044
 1796SOL    HW1 6287   5.952   6.480   7.002
 1796SOL    HW2 6288   5.984   6.515   0.139
 1797SOL     OW 6289   2.591   6.166   5.262
 1797SOL    HW1 6290   2.664   6.230   5.234
 1797SOL    HW2 6291   2.626   6.073   5.261
 1798SOL     OW 6292   2.490   3.833   6.026
 1798SOL    HW1 6293   2.465   3.883   5.943
 1798SOL    HW2 6294   2.490   3.896   6.104
 1799SOL     OW 6295   3.478   1.403   2.114
 1799SOL    HW1 6296   3.387   1.396   2.153
 1799SOL    HW2 6297   3.471   1.425   2.016
 1800SOL     OW 6298   6.155   2.545   5.742
 1800SOL    HW1 6299   6.062   2.584   5.747
 1800SOL    HW2 6300   6.214   2.608   5.691
 1801SOL     OW 6301   0.213   1.219   2.330
 1801SOL    HW1 6302   0.127   1.207   2.281
 1801SOL    HW2 6303   0.194   1.256   2.421
 1802SOL     OW 6304   6.473   4.609   4.081
 1802SOL    HW1 6305   6.491   4.696   4.035
 1802SOL    HW2 6306   6.503   4.616   4.177
 1803SOL     OW 6307   7.000   6.519   3.872
 1803SOL    HW1 6308   6.968   6.501   3.779
 1803SOL    HW2 6309   0.020   6.611   3.876
 1804SOL     OW 6310   0.987   2.853   6.274
 1804SOL    HW1 6311   0.894   2.866   6.239
 1804SOL    HW2 6312   0.982   2.811   6.365
 1805SOL     OW 6313   6.289   4.917   6.327
 1805SOL    HW1 6314   6.279   4.957   6.418
 1805SOL    HW2 6315   6.202   4.875   6.300
 1806SOL     OW 6316   0.772   1.694   1.347
 1806SOL    HW1 6317   0.789   1.684   1.445
 1806SOL    HW2 6318   0.804   1.785   1.317
 1807SOL     OW 6319   6.607   2.524   2.033
 1807SOL    HW1 6320   6.552   2.550   2.112
 1807SOL    HW2 6321   6.616   2.425   2.029
 1808SOL     OW 6322   5.925   0.708   6.625
 1808SOL    HW1 6323   5.945   0.781   6.560
 1808SOL    HW2 6324   5.845   0.733   6.680
 1809SOL     OW 6325   5.134   0.342   5.301
 1809SOL    HW1 6326   5.176   0.427   5.269
 1809SOL    HW2 6327   5.150   0.330   5.398
 1810SOL     OW 6328   1.057   1.390   4.338
 1810SOL    HW1 6329   1.113   1.434   4.409
 1810SOL    HW2 6330   1.044   1.293   4.362
 1811SOL     OW 6331   3.271   5.744   2.020
 1811SOL    HW1 6332   3.236   5.727   1.928
 1811SOL    HW2 6333   3.371   5.753   2.017
 1812SOL     OW 6334   3.998   0.715   6.615
 1812SOL    HW1 6335   3.951   0.753   6.535
 1812SOL    HW2 6336   3.976   0.618   6.624
 1813SOL     OW 6337   5.262   3.158   2.217
 1813SOL    HW1 6338   5.344   3.108   2.189
 1813SOL    HW2 6339   5.246   3.143   2.315
 1814SOL     OW 6340   6.476   5.311   0.603
 1814SOL    HW1 6341   6.556   5.297   0.661
 1814SOL    HW2 6342   6.395   5.276   0.648
 1815SOL     OW 6343   6.064   5.084   1.036
 1815SOL    HW1 6344   6.015   5.132   0.963
 1815SOL    HW2 6345   6.156   5.121   1.044
 1816SOL     OW 6346   3.696   5.003   4.641
 1816SOL    HW1 6347   3.612   4.961   4.607
 1816SOL    HW2 6348   3.679   5.098   4.666
 1817SOL     OW 6349   6.921   3.158   3.594
 1817SOL    HW1 6350   6.965   3.068   3.591
 1817SOL    HW2 6351   6.872   3.169   3.681
 1818SOL     OW 6352   2.208   1.585   1.200
 1818SOL    HW1 6353   2.252   1.497   1.184
 1818SOL    HW2 6354   2.270   1.659   1.170
 1819SOL     OW 6355   1.011   4.161   1.132
 1819SOL    HW1 6356   1.093   4.174   1.187
 1819SOL    HW2 6357   1.013   4.071   1.088
 1820SOL     OW 6358   4.092   0.155   5.186
 1820SOL    HW1 6359   4.176   0.107   5.212
 1820SOL    HW2 6360   4.054   0.113   5.104
 1821SOL     OW 6361   4.007   1.776   2.661
 1821SOL    HW1 6362   3.967   1.809   2.747
 1821SOL    HW2 6363   4.010   1.676   2.663
 1822SOL     OW 6364   1.707   3.814   4.199
 1822SOL    HW1 6365   1.798   3.828   4.238
 1822SOL    HW2 6366   1.638   3.844   4.265
 1823SOL     OW 6367   3.612   0.097   3.676
 1823SOL    HW1 6368   3.559   0.054   3.750
 1823SOL    HW2 6369   3.550   0.125   3.603
 1824SOL     OW 6370   4.773   2.719   1.885
 1824SOL    HW1 6371   4.763   2.810   1.925
 1824SOL    HW2 6372   4.866   2.686   1.900
 1825SOL     OW 6373   1.125   3.614   0.350
 1825SOL    HW1 6374   1.119   3.712   0.367
 1825SOL    HW2 6375   1.170   3.570   0.427
 1826SOL     OW 6376   3.542   3.063   0.693
 1826SOL    HW1 6377   3.602   3.143   0.689
 1826SOL    HW2 6378   3.593   2.984   0.728
 1827SOL     OW 6379   5.128   4.741   0.710
 1827SOL    HW1 6380   5.085   4.669   0.656
 1827SOL    HW2 6381   5.149   4.819   0.652
 1828SOL     OW 6382   2.612   4.947   4.767
 1828SOL    HW1 6383   2.516   4.962   4.745
 1828SOL    HW2 6384   2.669   5.009   4.712
 1829SOL     OW 6385   1.865   6.239   1.977
 1829SOL    HW1 6386   1.835   6.324   2.021
 1829SOL    HW2 6387   1.816   6.226   1.892
 1830SOL     OW 6388   4.255   1.612   6.545
 1830SOL    HW1 6389   4.278   1.515   6.560
 1830SOL    HW2 6390   4.318   1.669   6.598
 1831SOL     OW 6391   3.673   4.788   0.694
 1831SOL    HW1 6392   3.652   4.693   0.674
 1831SOL    HW2 6393   3.676   4.840   0.609
 1832SOL     OW 6394   1.888   3.357   5.900
 1832SOL    HW1 6395   1.939   3.271   5.900
 1832SOL    HW2 6396   1.844   3.370   5.812
 1833SOL     OW 6397   6.095   0.982   0.172
 1833SOL    HW1 6398   6.163   0.909   0.173
 1833SOL    HW2 6399   6.108   1.039   0.090
 1834SOL     OW 6400   1.899   3.645   6.224
 1834SOL    HW1 6401   1.911   3.613   6.130
 1834SOL    HW2 6402   1.827   3.592   6.268
 1835SOL     OW 6403   6.360   6.634   0.561
 1835SOL    HW1 6404   6.349   6.593   0.652
 1835SOL    HW2 6405   6.447   6.682   0.555
 1836SOL     OW 6406   6.413   1.941   4.241
 1836SOL    HW1 6407   6.418   2.020   4.303
 1836SOL    HW2 6408   6.318   1.922   4.219
 1837SOL     OW 6409   1.260   1.878   0.346
 1837SOL    HW1 6410   1.320   1.902   0.423
 1837SOL    HW2 6411   1.171   1.850   0.381
 1838SOL     OW 6412   5.186   0.404   1.186
 1838SOL    HW1 6413   5.248   0.444   1.118
 1838SOL    HW2 6414   5.236   0.343   1.245
 1839SOL     OW 6415   6.617   1.491   6.437
 1839SOL    HW1 6416   6.547   1.456   6.499
 1839SOL    HW2 6417   6.606   1.590   6.426
 1840SOL     OW 6418   3.466   0.043   5.190
 1840SOL    HW1 6419   3.532   0.009   5.258
 1840SOL    HW2 6420   3.509   0.115   5.136
 1841SOL     OW 6421   2.062   0.425   1.747
 1841SOL    HW1 6422   2.116   0.359   1.799
 1841SOL    HW2 6423   2.092   0.425   1.651
 1842SOL     OW 6424   6.884   4.923   0.936
 1842SOL    HW1 6425   6.923   4.836   0.906
 1842SOL    HW2 6426   6.944   4.963   1.006
 1843SOL     OW 6427   3.375   1.388   6.895
 1843SOL    HW1 6428   3.372   1.360   6.991
 1843SOL    HW2 6429   3.331   1.319   6.838
 1844SOL     OW 6430   4.978   3.381   0.755
 1844SOL    HW1 6431   4.898   3.396   0.813
 1844SOL    HW2 6432   4.997   3.465   0.703
 1845SOL     OW 6433   1.206   2.848   4.469
 1845SOL    HW1 6434   1.122   2.802   4.440
 1845SOL    HW2 6435   1.249   2.892   4.390
 1846SOL     OW 6436   3.521   1.681   2.381
 1846SOL    HW1 6437   3.433   1.709   2.418
 1846SOL    HW2 6438   3.527   1.708   2.285
 1847SOL     OW 6439   2.612   5.844   0.014
 1847SOL    HW1 6440   2.563   5.862   0.100
 1847SOL    HW2 6441   2.628   5.930   6.985
 1848SOL     OW 6442   3.375   6.024   4.671
 1848SOL    HW1 6443   3.452   6.031   4.607
 1848SOL    HW2 6444   3.387   6.092   4.744
 1849SOL     OW 6445   4.899   2.745   3.051
 1849SOL    HW1 6446   4.890   2.837   3.091
 1849SOL    HW2 6447   4.824   2.688   3.083
 1850SOL     OW 6448   4.460   1.883   0.978
 1850SOL    HW1 6449   4.506   1.827   1.047
 1850SOL    HW2 6450   4.409   1.956   1.022
 1851SOL     OW 6451   0.712   5.082   4.365
 1851SOL    HW1 6452   0.676   5.175   4.370
 1851SOL    HW2 6453   0.665   5.023   4.432
 1852SOL     OW 6454   0.375   0.068   3.879
 1852SOL    HW1 6455   0.330   0.156   3.872
 1852SOL    HW2 6456   0.427   0.050   3.795
 1853SOL     OW 6457   0.741   1.867   5.658
 1853SOL    HW1 6458   0.793   1.950   5.676
 1853SOL    HW2 6459   0.742   1.808   5.738
 1854SOL     OW 6460   0.197   6.877   4.545
 1854SOL    HW1 6461   0.215   6.972   4.570
 1854SOL    HW2 6462   0.271   6.819   4.580
 1855SOL     OW 6463   6.599   1.105   4.871
 1855SOL    HW1 6464   6.664   1.155   4.929
 1855SOL    HW2 6465   6.505   1.126   4.902
 1856SOL     OW 6466   5.328   4.002   6.501
 1856SOL    HW1 6467   5.376   3.980   6.416
 1856SOL    HW2 6468   5.314   3.918   6.554
 1857SOL     OW 6469   4.206   1.188   6.451
 1857SOL    HW1 6470   4.244   1.232   6.370
 1857SOL    HW2 6471   4.107   1.178   6.440
 1858SOL     OW 6472   5.633   1.825   4.958
 1858SOL    HW1 6473   5.672   1.745   4.913
 1858SOL    HW2 6474   5.565   1.796   5.026
 1859SOL     OW 6475   6.841   6.733   2.423
 1859SOL    HW1 6476   6.810   6.826   2.408
 1859SOL    HW2 6477   6.864   6.720   2.520
 1860SOL     OW 6478   2.562   1.134   6.571
 1860SOL    HW1 6479   2.576   1.108   6.666
 1860SOL    HW2 6480   2.532   1.054   6.518
 1861SOL     OW 6481   6.701   6.508   5.233
 1861SOL    HW1 6482   6.763   6.537   5.161
 1861SOL    HW2 6483   6.640   6.584   5.257
 1862SOL     OW 6484   3.939   5.884   5.962
 1862SOL    HW1 6485   3.997   5.960   5.991
 1862SOL    HW2 6486   3.947   5.808   6.027
 1863SOL     OW 6487   6.835   1.143   1.332
 1863SOL    HW1 6488   6.920   1.152   1.279
 1863SOL    HW2 6489   6.827   1.220   1.395
 1864SOL     OW 6490   2.106   6.470   2.882
 1864SOL    HW1 6491   2.163   6.405   2.933
 1864SOL    HW2 6492   2.027   6.422   2.843
 1865SOL     OW 6493   6.534   2.094   6.259
 1865SOL    HW1 6494   6.545   2.193   6.246
 1865SOL    HW2 6495   6.579   2.067   6.345
 1866SOL     OW 6496   6.930   4.452   4.642
 1866SOL    HW1 6497   6.923   4.546   4.608
 1866SOL    HW2 6498   6.931   4.452   4.742
 1867SOL     OW 6499   1.100   1.241   1.421
 1867SOL    HW1 6500   1.112   1.333   1.382
 1867SOL    HW2 6501   1.014   1.237   1.472
 1868SOL     OW 6502   4.964   3.707   5.989
 1868SOL    HW1 6503   4.946   3.805   5.999
 1868SOL    HW2 6504   4.975   3.666   6.079
 1869SOL     OW 6505   5.009   0.691   5.382
 1869SOL    HW1 6506   4.953   0.612   5.405
 1869SOL    HW2 6507   4.951   0.773   5.379
 1870SOL     OW 6508   6.009   0.184   6.007
 1870SOL    HW1 6509   5.989   0.277   5.977
 1870SOL    HW2 6510   6.075   0.187   6.082
 1871SOL     OW 6511   1.992   5.215   6.978
 1871SOL    HW1 6512   1.898   5.198   6.949
 1871SOL    HW2 6513   2.050   5.234   6.899
 1872SOL     OW 6514   2.384   3.409   0.922
 1872SOL    HW1 6515   2.296   3.371   0.894
 1872SOL    HW2 6516   2.439   3.429   0.841
 1873SOL     OW 6517   5.764   1.671   2.513
 1873SOL    HW1 6518   5.717   1.666   2.602
 1873SOL    HW2 6519   5.742   1.758   2.469
 1874SOL     OW 6520   1.986   5.460   6.604
 1874SOL    HW1 6521   2.019   5.552   6.583
 1874SOL    HW2 6522   2.063   5.399   6.620
 1875SOL     OW 6523   0.995   6.497   2.393
 1875SOL    HW1 6524   0.928   6.468   2.462
 1875SOL    HW2 6525   1.085   6.505   2.435
 1876SOL     OW 6526   0.992   4.890   0.174
 1876SOL    HW1 6527   0.990   4.907   0.273
 1876SOL    HW2 6528   0.963   4.972   0.126
 1877SOL     OW 6529   1.049   0.954   3.193
 1877SOL    HW1 6530   1.147   0.941   3.205
 1877SOL    HW2 6531   1.029   0.977   3.098
 1878SOL     OW 6532   5.740   4.003   4.297
 1878SOL    HW1 6533   5.818   3.940   4.294
 1878SOL    HW2 6534   5.657   3.952   4.316
 1879SOL     OW 6535   4.144   6.408   5.312
 1879SOL    HW1 6536   4.068   6.457   5.355
 1879SOL    HW2 6537   4.138   6.311   5.334
 1880SOL     OW 6538   1.352   2.971   4.282
 1880SOL    HW1 6539   1.423   2.972   4.353
 1880SOL    HW2 6540   1.331   3.065   4.255
 1881SOL     OW 6541   1.957   1.492   3.416
 1881SOL    HW1 6542   2.009   1.452   3.492
 1881SOL    HW2 6543   1.963   1.592   3.421
 1882SOL     OW 6544   3.691   5.858   0.711
 1882SOL    HW1 6545   3.597   5.871   0.743
 1882SOL    HW2 6546   3.693   5.860   0.611
 1883SOL     OW 6547   2.158   3.247   2.516
 1883SOL    HW1 6548   2.139   3.160   2.471
 1883SOL    HW2 6549   2.253   3.272   2.502
 1884SOL     OW 6550   5.266   0.765   0.235
 1884SOL    HW1 6551   5.313   0.831   0.294
 1884SOL    HW2 6552   5.227   0.813   0.156
 1885SOL     OW 6553   0.243   1.303   0.664
 1885SOL    HW1 6554   0.249   1.395   0.626
 1885SOL    HW2 6555   0.216   1.309   0.760
 1886SOL     OW 6556   3.264   3.084   5.404
 1886SOL    HW1 6557   3.313   3.170   5.389
 1886SOL    HW2 6558   3.168   3.096   5.379
 1887SOL     OW 6559   0.827   5.989   4.724
 1887SOL    HW1 6560   0.803   5.950   4.813
 1887SOL    HW2 6561   0.926   5.990   4.713
 1888SOL     OW 6562   2.108   1.602   6.194
 1888SOL    HW1 6563   2.157   1.680   6.232
 1888SOL    HW2 6564   2.142   1.583   6.101
 1889SOL     OW 6565   3.624   3.414   0.188
 1889SOL    HW1 6566   3.599   3.505   0.156
 1889SOL    HW2 6567   3.692   3.374   0.127
 1890SOL     OW 6568   6.163   5.878   6.325
 1890SOL    HW1 6569   6.154   5.868   6.424
 1890SOL    HW2 6570   6.117   5.801   6.280
 1891SOL     OW 6571   5.058   3.376   6.377
 1891SOL    HW1 6572   5.035   3.301   6.314
 1891SOL    HW2 6573   4.977   3.401   6.430
 1892SOL     OW 6574   4.405   0.562   3.083
 1892SOL    HW1 6575   4.504   0.565   3.093
 1892SOL    HW2 6576   4.363   0.530   3.167
 1893SOL     OW 6577   2.929   1.424   6.658
 1893SOL    HW1 6578   2.847   1.468   6.620
 1893SOL    HW2 6579   2.918   1.325   6.654
 1894SOL     OW 6580   4.971   3.261   0.490
 1894SOL    HW1 6581   4.981   3.258   0.589
 1894SOL    HW2 6582   5.062   3.264   0.447
 1895SOL     OW 6583   4.461   5.573   3.268
 1895SOL    HW1 6584   4.434   5.642   3.201
 1895SOL    HW2 6585   4.412   5.589   3.354
 1896SOL     OW 6586   6.190   1.547   4.805
 1896SOL    HW1 6587   6.129   1.625   4.817
 1896SOL    HW2 6588   6.138   1.462   4.818
 1897SOL     OW 6589   4.944   5.400   3.070
 1897SOL    HW1 6590   4.896   5.312   3.069
 1897SOL    HW2 6591   4.915   5.455   2.992
 1898SOL     OW 6592   5.574   6.297   6.844
 1898SOL    HW1 6593   5.513   6.227   6.807
 1898SOL    HW2 6594   5.534   6.388   6.831
 1899SOL     OW 6595   2.235   2.619   3.430
 1899SOL    HW1 6596   2.136   2.625   3.415
 1899SOL    HW2 6597   2.258   2.672   3.512
 1900SOL     OW 6598   2.906   5.593   1.953
 1900SOL    HW1 6599   2.959   5.549   2.026
 1900SOL    HW2 6600   2.966   5.649   1.897
 1901SOL     OW 6601   1.230   0.949   5.701
 1901SOL    HW1 6602   1.276   0.895   5.772
 1901SOL    HW2 6603   1.279   1.035   5.687
 1902SOL     OW 6604   1.006   2.601   4.191
 1902SOL    HW1 6605   1.009   2.699   4.172
 1902SOL    HW2 6606   0.911   2.572   4.204
 1903SOL     OW 6607   6.523   4.867   4.046
 1903SOL    HW1 6608   6.513   4.900   3.952
 1903SOL    HW2 6609   6.509   4.942   4.110
 1904SOL     OW 6610   0.884   0.925   4.249
 1904SOL    HW1 6611   0.910   0.986   4.324
 1904SOL    HW2 6612   0.913   0.964   4.162
 1905SOL     OW 6613   5.994   3.088   5.349
 1905SOL    HW1 6614   6.025   3.178   5.318
 1905SOL    HW2 6615   6.054   3.056   5.423
 1906SOL     OW 6616   2.270   6.965   5.673
 1906SOL    HW1 6617   2.283   0.029   5.618
 1906SOL    HW2 6618   2.257   6.990   5.769
 1907SOL     OW 6619   4.268   0.110   3.004
 1907SOL    HW1 6620   4.213   0.034   2.970
 1907SOL    HW2 6621   4.207   0.183   3.038
 1908SOL     OW 6622   4.990   5.325   0.822
 1908SOL    HW1 6623   4.976   5.364   0.732
 1908SOL    HW2 6624   5.086   5.296   0.832
 1909SOL     OW 6625   5.432   5.386   3.747
 1909SOL    HW1 6626   5.462   5.482   3.743
 1909SOL    HW2 6627   5.339   5.382   3.784
 1910SOL     OW 6628   4.827   3.829   4.453
 1910SOL    HW1 6629   4.808   3.810   4.550
 1910SOL    HW2 6630   4.844   3.743   4.405
 1911SOL     OW 6631   0.904   2.398   5.793
 1911SOL    HW1 6632   0.843   2.440   5.861
 1911SOL    HW2 6633   0.999   2.412   5.820
 1912SOL     OW 6634   3.250   6.094   2.867
 1912SOL    HW1 6635   3.226   6.181   2.824
 1912SOL    HW2 6636   3.330   6.055   2.820
 1913SOL     OW 6637   2.807   3.977   6.593
 1913SOL    HW1 6638   2.890   3.955   6.542
 1913SOL    HW2 6639   2.778   4.070   6.571
 1914SOL     OW 6640   4.519   1.608   5.079
 1914SOL    HW1 6641   4.539   1.578   4.986
 1914SOL    HW2 6642   4.422   1.633   5.087
 1915SOL     OW 6643   2.804   6.824   5.574
 1915SOL    HW1 6644   2.873   6.888   5.610
 1915SOL    HW2 6645   2.850   6.741   5.543
 1916SOL     OW 6646   3.722   5.957   2.546
 1916SOL    HW1 6647   3.710   6.040   2.491
 1916SOL    HW2 6648   3.638   5.903   2.545
 1917SOL     OW 6649   3.509   3.995   3.777
 1917SOL    HW1 6650   3.530   4.047   3.861
 1917SOL    HW2 6651   3.581   4.009   3.710
 1918SOL     OW 6652   0.556   6.421   5.419
 1918SOL    HW1 6653   0.535   6.393   5.325
 1918SOL    HW2 6654   0.648   6.459   5.424
 1919SOL     OW 6655   5.711   0.802   2.376
 1919SOL    HW1 6656   5.747   0.843   2.292
 1919SOL    HW2 6657   5.786   0.795   2.443
 1920SOL     OW 6658   6.195   6.411   4.666
 1920SOL    HW1 6659   6.171   6.496   4.714
 1920SOL    HW2 6660   6.252   6.354   4.726
 1921SOL     OW 6661   2.520   6.750   0.301
 1921SOL    HW1 6662   2.433   6.762   0.252
 1921SOL    HW2 6663   2.580   6.828   0.281
 1922SOL     OW 6664   3.764   4.498   0.315
 1922SOL    HW1 6665   3.732   4.556   0.241
 1922SOL    HW2 6666   3.698   4.500   0.390
 1923SOL     OW 6667   1.970   2.995   0.900
 1923SOL    HW1 6668   2.065   2.990   0.932
 1923SOL    HW2 6669   1.908   2.987   0.978
 1924SOL     OW 6670   0.573   3.287   0.911
 1924SOL    HW1 6671   0.527   3.224   0.848
 1924SOL    HW2 6672   0.528   3.283   1.000
 1925SOL     OW 6673   3.094   4.271   0.207
 1925SOL    HW1 6674   3.189   4.263   0.237
 1925SOL    HW2 6675   3.080   4.216   0.125
 1926SOL     OW 6676   0.517   0.854   3.882
 1926SOL    HW1 6677   0.575   0.773   3.890
 1926SOL    HW2 6678   0.573   0.936   3.889
 1927SOL     OW 6679   5.313   3.290   1.386
 1927SOL    HW1 6680   5.252   3.211   1.379
 1927SOL    HW2 6681   5.383   3.273   1.455
 1928SOL     OW 6682   0.208   5.548   4.530
 1928SOL    HW1 6683   0.262   5.569   4.612
 1928SOL    HW2 6684   0.244   5.466   4.487
 1929SOL     OW 6685   0.684   5.467   3.282
 1929SOL    HW1 6686   0.606   5.488   3.341
 1929SOL    HW2 6687   0.679   5.522   3.198
 1930SOL     OW 6688   6.763   5.138   6.183
 1930SOL    HW1 6689   6.723   5.184   6.104
 1930SOL    HW2 6690   6.798   5.048   6.156
 1931SOL     OW 6691   1.058   2.174   4.268
 1931SOL    HW1 6692   0.961   2.155   4.284
 1931SOL    HW2 6693   1.080   2.157   4.172
 1932SOL     OW 6694   6.092   3.500   2.563
 1932SOL    HW1 6695   6.118   3.577   2.505
 1932SOL    HW2 6696   6.033   3.533   2.636
 1933SOL     OW 6697   2.972   5.125   0.207
 1933SOL    HW1 6698   2.994   5.033   0.239
 1933SOL    HW2 6699   2.910   5.169   0.272
 1934SOL     OW 6700   0.130   5.579   2.820
 1934SOL    HW1 6701   0.170   5.618   2.738
 1934SOL    HW2 6702   0.151   5.636   2.899
 1935SOL     OW 6703   1.234   1.325   3.345
 1935SOL    HW1 6704   1.199   1.260   3.413
 1935SOL    HW2 6705   1.232   1.283   3.254
 1936SOL     OW 6706   0.254   5.971   5.260
 1936SOL    HW1 6707   0.224   5.999   5.168
 1936SOL    HW2 6708   0.230   5.876   5.275
 1937SOL     OW 6709   4.306   1.626   2.975
 1937SOL    HW1 6710   4.287   1.641   2.877
 1937SOL    HW2 6711   4.290   1.711   3.025
 1938SOL     OW 6712   5.526   0.076   4.439
 1938SOL    HW1 6713   5.524   0.028   4.351
 1938SOL    HW2 6714   5.598   0.146   4.436
 1939SOL     OW 6715   3.380   0.033   4.307
 1939SOL    HW1 6716   3.358   6.977   4.370
 1939SOL    HW2 6717   3.307   0.042   4.240
 1940SOL     OW 6718   6.764   6.278   6.505
 1940SOL    HW1 6719   6.819   6.362   6.511
 1940SOL    HW2 6720   6.798   6.211   6.570
 1941SOL     OW 6721   4.626   5.160   2.161
 1941SOL    HW1 6722   4.571   5.164   2.245
 1941SOL    HW2 6723   4.568   5.173   2.082
 1942SOL     OW 6724   0.550   3.674   2.536
 1942SOL    HW1 6725   0.478   3.606   2.540
 1942SOL    HW2 6726   0.517   3.755   2.487
 1943SOL     OW 6727   2.651   5.614   3.427
 1943SOL    HW1 6728   2.667   5.521   3.395
 1943SOL    HW2 6729   2.700   5.679   3.369
 1944SOL     OW 6730   0.134   6.605   1.759
 1944SOL    HW1 6731   0.051   6.578   1.709
 1944SOL    HW2 6732   0.115   6.602   1.857
 1945SOL     OW 6733   3.021   4.798   2.970
 1945SOL    HW1 6734   2.931   4.820   2.932
 1945SOL    HW2 6735   3.074   4.747   2.903
 1946SOL     OW 6736   1.621   6.795   6.854
 1946SOL    HW1 6737   1.648   6.873   6.911
 1946SOL    HW2 6738   1.565   6.828   6.778
 1947SOL     OW 6739   4.673   0.237   3.092
 1947SOL    HW1 6740   4.585   0.192   3.109
 1947SOL    HW2 6741   4.690   0.306   3.163
 1948SOL     OW 6742   6.121   3.335   5.283
 1948SOL    HW1 6743   6.096   3.367   5.192
 1948SOL    HW2 6744   6.068   3.385   5.352
 1949SOL     OW 6745   4.516   4.343   6.362
 1949SOL    HW1 6746   4.536   4.399   6.442
 1949SOL    HW2 6747   4.417   4.326   6.358
 1950SOL     OW 6748   3.574   5.148   0.513
 1950SOL    HW1 6749   3.578   5.178   0.609
 1950SOL    HW2 6750   3.598   5.051   0.507
 1951SOL     OW 6751   6.256   2.314   0.349
 1951SOL    HW1 6752   6.270   2.297   0.252
 1951SOL    HW2 6753   6.282   2.232   0.401
 1952SOL     OW 6754   3.556   2.945   4.161
 1952SOL    HW1 6755   3.542   2.884   4.238
 1952SOL    HW2 6756   3.479   3.009   4.154
 1953SOL     OW 6757   0.715   2.838   4.468
 1953SOL    HW1 6758   0.694   2.860   4.373
 1953SOL    HW2 6759   0.662   2.897   4.529
 1954SOL     OW 6760   2.239   1.957   4.218
 1954SOL    HW1 6761   2.265   2.045   4.258
 1954SOL    HW2 6762   2.179   1.908   4.283
 1955SOL     OW 6763   5.959   5.515   1.882
 1955SOL    HW1 6764   5.917   5.569   1.955
 1955SOL    HW2 6765   5.949   5.564   1.795
 1956SOL     OW 6766   5.020   6.674   2.972
 1956SOL    HW1 6767   5.053   6.603   3.034
 1956SOL    HW2 6768   4.924   6.658   2.951
 1957SOL     OW 6769   1.866   6.194   4.712
 1957SOL    HW1 6770   1.775   6.197   4.672
 1957SOL    HW2 6771   1.933   6.225   4.645
 1958SOL     OW 6772   3.604   3.508   5.972
 1958SOL    HW1 6773   3.532   3.573   5.947
 1958SOL    HW2 6774   3.627   3.451   5.893
 1959SOL     OW 6775   2.567   0.779   0.605
 1959SOL    HW1 6776   2.531   0.872   0.594
 1959SOL    HW2 6777   2.495   0.713   0.584
 1960SOL     OW 6778   5.303   6.038   2.797
 1960SOL    HW1 6779   5.334   6.123   2.839
 1960SOL    HW2 6780   5.217   6.054   2.748
 1961SOL     OW 6781   5.568   5.436   5.386
 1961SOL    HW1 6782   5.539   5.495   5.461
 1961SOL    HW2 6783   5.650   5.474   5.343
 1962SOL     OW 6784   7.006   6.602   4.238
 1962SOL    HW1 6785   6.932   6.626   4.175
 1962SOL    HW2 6786   0.074   6.605   4.188
 1963SOL     OW 6787   2.414   0.826   3.444
 1963SOL    HW1 6788   2.443   0.868   3.358
 1963SOL    HW2 6789   2.494   0.809   3.501
 1964SOL     OW 6790   5.966   3.179   2.402
 1964SOL    HW1 6791   6.054   3.173   2.356
 1964SOL    HW2 6792   5.980   3.179   2.501
 1965SOL     OW 6793   2.019   6.378   3.496
 1965SOL    HW1 6794   1.990   6.471   3.519
 1965SOL    HW2 6795   1.997   6.359   3.400
 1966SOL     OW 6796   6.422   0.183   6.697
 1966SOL    HW1 6797   6.380   0.119   6.634
 1966SOL    HW2 6798   6.522   0.171   6.696
 1967SOL     OW 6799   5.538   3.393   5.080
 1967SOL    HW1 6800   5.581   3.480   5.101
 1967SOL    HW2 6801   5.478   3.403   5.001
 1968SOL     OW 6802   4.035   5.402   4.753
 1968SOL    HW1 6803   4.038   5.500   4.777
 1968SOL    HW2 6804   4.128   5.365   4.756
 1969SOL     OW 6805   6.969   1.336   1.873
 1969SOL    HW1 6806   6.929   1.244   1.877
 1969SOL    HW2 6807   6.950   1.385   1.958
 1970SOL     OW 6808   1.520   0.615   3.972
 1970SOL    HW1 6809   1.539   0.697   3.918
 1970SOL    HW2 6810   1.577   0.615   4.054
 1971SOL     OW 6811   0.193   1.559   6.289
 1971SOL    HW1 6812   0.221   1.630   6.354
 1971SOL    HW2 6813   0.120   1.505   6.330
 1972SOL     OW 6814   1.368   0.378   4.052
 1972SOL    HW1 6815   1.409   0.411   4.138
 1972SOL    HW2 6816   1.413   0.422   3.975
 1973SOL     OW 6817   2.171   3.372   0.243
 1973SOL    HW1 6818   2.082   3.412   0.223
 1973SOL    HW2 6819   2.179   3.358   0.342
 1974SOL     OW 6820   5.981   6.837   4.472
 1974SOL    HW1 6821   5.958   6.759   4.414
 1974SOL    HW2 6822   5.994   6.918   4.415
 1975SOL     OW 6823   2.363   0.301   3.031
 1975SOL    HW1 6824   2.460   0.301   3.053
 1975SOL    HW2 6825   2.310   0.316   3.114
 1976SOL     OW 6826   6.519   4.118   6.129
 1976SOL    HW1 6827   6.500   4.127   6.227
 1976SOL    HW2 6828   6.438   4.084   6.082
 1977SOL     OW 6829   3.457   2.232   5.239
 1977SOL    HW1 6830   3.374   2.262   5.192
 1977SOL    HW2 6831   3.479   2.297   5.312
 1978SOL     OW 6832   6.966   2.393   5.010
 1978SOL    HW1 6833   6.871   2.412   5.035
 1978SOL    HW2 6834   7.014   2.479   4.996
 1979SOL     OW 6835   6.640   3.947   2.391
 1979SOL    HW1 6836   6.596   4.015   2.332
 1979SOL    HW2 6837   6.654   3.863   2.338
 1980SOL     OW 6838   2.470   0.575   2.664
 1980SOL    HW1 6839   2.463   0.570   2.564
 1980SOL    HW2 6840   2.539   0.510   2.696
 1981SOL     OW 6841   5.119   3.077   2.004
 1981SOL    HW1 6842   5.181   3.024   1.946
 1981SOL    HW2 6843   5.170   3.116   2.080
 1982SOL     OW 6844   0.150   6.652   5.360
 1982SOL    HW1 6845   0.064   6.607   5.385
 1982SOL    HW2 6846   0.176   6.624   5.267
 1983SOL     OW 6847   0.743   4.734   1.860
 1983SOL    HW1 6848   0.667   4.670   1.846
 1983SOL    HW2 6849   0.817   4.688   1.908
 1984SOL     OW 6850   5.201   0.702   5.174
 1984SOL    HW1 6851   5.111   0.712   5.217
 1984SOL    HW2 6852   5.198   0.742   5.083
 1985SOL     OW 6853   1.422   5.938   1.209
 1985SOL    HW1 6854   1.498   5.924   1.146
 1985SOL    HW2 6855   1.452   5.995   1.286
 1986SOL     OW 6856   6.948   2.204   0.349
 1986SOL    HW1 6857   7.010   2.156   0.287
 1986SOL    HW2 6858   6.885   2.261   0.296
 1987SOL     OW 6859   2.512   3.984   6.662
 1987SOL    HW1 6860   2.458   3.921   6.607
 1987SOL    HW2 6861   2.599   4.002   6.615
 1988SOL     OW 6862   4.450   3.490   0.859
 1988SOL    HW1 6863   4.384   3.559   0.888
 1988SOL    HW2 6864   4.461   3.494   0.759
 1989SOL     OW 6865   2.042   2.197   4.066
 1989SOL    HW1 6866   2.111   2.262   4.037
 1989SOL    HW2 6867   1.985   2.172   3.988
 1990SOL     OW 6868   1.336   0.310   3.105
 1990SOL    HW1 6869   1.436   0.305   3.110
 1990SOL    HW2 6870   1.297   0.291   3.195
 1991SOL     OW 6871   4.569   6.376   2.999
 1991SOL    HW1 6872   4.562   6.326   3.085
 1991SOL    HW2 6873   4.478   6.393   2.962
 1992SOL     OW 6874   2.237   6.132   5.646
 1992SOL    HW1 6875   2.329   6.102   5.621
 1992SOL    HW2 6876   2.206   6.080   5.726
 1993SOL     OW 6877   3.083   3.093   3.947
 1993SOL    HW1 6878   3.066   3.073   3.850
 1993SOL    HW2 6879   3.021   3.165   3.978
 1994SOL     OW 6880   6.393   2.487   2.230
 1994SOL    HW1 6881   6.300   2.515   2.208
 1994SOL    HW2 6882   6.401   2.388   2.225
 1995SOL     OW 6883   3.963   2.142   1.503
 1995SOL    HW1 6884   3.935   2.059   1.455
 1995SOL    HW2 6885   3.979   2.121   1.600
 1996SOL     OW 6886   2.606   4.447   5.236
 1996SOL    HW1 6887   2.546   4.483   5.163
 1996SOL    HW2 6888   2.698   4.485   5.225
 1997SOL     OW 6889   5.858   6.523   3.465
 1997SOL    HW1 6890   5.779   6.566   3.509
 1997SOL    HW2 6891   5.940   6.577   3.485
 1998SOL     OW 6892   3.112   4.583   5.346
 1998SOL    HW1 6893   3.037   4.540   5.296
 1998SOL    HW2 6894   3.127   4.675   5.310
 1999SOL     OW 6895   2.257   1.756   1.781
 1999SOL    HW1 6896   2.235   1.670   1.827
 1999SOL    HW2 6897   2.356   1.765   1.770
 2000SOL     OW 6898   3.059   1.117   5.188
 2000SOL    HW1 6899   3.131   1.127   5.257
 2000SOL    HW2 6900   2.971   1.144   5.227
 2001SOL     OW 6901   2.497   2.965   6.928
 2001SOL    HW1 6902   2.535   3.002   6.843
 2001SOL    HW2 6903   2.488   2.866   6.920
 2002SOL     OW 6904   1.279   5.028   4.828
 2002SOL    HW1 6905   1.218   4.988   4.760
 2002SOL    HW2 6906   1.232   5.035   4.916
 2003SOL     OW 6907   6.647   4.295   3.206
 2003SOL    HW1 6908   6.735   4.281   3.160
 2003SOL    HW2 6909   6.624   4.393   3.203
 2004SOL     OW 6910   3.384   6.862   6.489
 2004SOL    HW1 6911   3.336   6.939   6.531
 2004SOL    HW2 6912   3.361   6.778   6.537
 2005SOL     OW 6913   2.542   6.427   5.046
 2005SOL    HW1 6914   2.506   6.340   5.011
 2005SOL    HW2 6915   2.547   6.424   5.145
 2006SOL     OW 6916   4.716   6.528   3.302
 2006SOL    HW1 6917   4.631   6.546   3.251
 2006SOL    HW2 6918   4.784   6.597   3.277
 2007SOL     OW 6919   6.599   5.410   6.773
 2007SOL    HW1 6920   6.528   5.388   6.841
 2007SOL    HW2 6921   6.689   5.394   6.812
 2008SOL     OW 6922   0.232   5.943   5.679
 2008SOL    HW1 6923   0.179   5.899   5.607
 2008SOL    HW2 6924   0.183   6.024   5.711
 2009SOL     OW 6925   1.201   0.436   6.830
 2009SOL    HW1 6926   1.239   0.432   6.922
 2009SOL    HW2 6927   1.110   0.396   6.829
 2010SOL     OW 6928   2.224   0.927   1.030
 2010SOL    HW1 6929   2.148   0.890   0.977
 2010SOL    HW2 6930   2.208   1.024   1.049
 2011SOL     OW 6931   0.352   1.965   5.136
 2011SOL    HW1 6932   0.394   1.980   5.046
 2011SOL    HW2 6933   0.346   1.867   5.154
 2012SOL     OW 6934   6.851   2.954   1.156
 2012SOL    HW1 6935   6.777   3.009   1.117
 2012SOL    HW2 6936   6.921   2.939   1.087
 2013SOL     OW 6937   4.185   2.318   1.933
 2013SOL    HW1 6938   4.194   2.244   2.000
 2013SOL    HW2 6939   4.274   2.338   1.892
 2014SOL     OW 6940   3.442   5.519   3.378
 2014SOL    HW1 6941   3.360   5.465   3.365
 2014SOL    HW2 6942   3.510   5.466   3.427
 2015SOL     OW 6943   3.363   6.451   0.563
 2015SOL    HW1 6944   3.408   6.512   0.629
 2015SOL    HW2 6945   3.431   6.388   0.526
 2016SOL     OW 6946   6.266   5.866   3.917
 2016SOL    HW1 6947   6.354   5.895   3.955
 2016SOL    HW2 6948   6.263   5.888   3.820
 2017SOL     OW 6949   2.326   5.042   2.304
 2017SOL    HW1 6950   2.240   5.019   2.351
 2017SOL    HW2 6951   2.321   5.010   2.210
 2018SOL     OW 6952   0.659   3.717   6.368
 2018SOL    HW1 6953   0.711   3.696   6.450
 2018SOL    HW2 6954   0.633   3.632   6.322
 2019SOL     OW 6955   5.348   1.308   2.936
 2019SOL    HW1 6956   5.298   1.335   2.853
 2019SOL    HW2 6957   5.308   1.353   3.015
 2020SOL     OW 6958   2.176   5.304   3.412
 2020SOL    HW1 6959   2.202   5.391   3.455
 2020SOL    HW2 6960   2.109   5.258   3.470
 2021SOL     OW 6961   2.290   6.435   1.791
 2021SOL    HW1 6962   2.323   6.477   1.706
 2021SOL    HW2 6963   2.307   6.337   1.788
 2022SOL     OW 6964   3.143   5.314   0.911
 2022SOL    HW1 6965   3.199   5.245   0.956
 2022SOL    HW2 6966   3.074   5.269   0.855
 2023SOL     OW 6967   6.347   1.898   6.242
 2023SOL    HW1 6968   6.267   1.956   6.259
 2023SOL    HW2 6969   6.430   1.952   6.254
 2024SOL     OW 6970   6.359   0.666   3.196
 2024SOL    HW1 6971   6.338   0.708   3.285
 2024SOL    HW2 6972   6.283   0.683   3.133
 2025SOL     OW 6973   6.179   0.719   0.761
 2025SOL    HW1 6974   6.158   0.777   0.682
 2025SOL    HW2 6975   6.248   0.652   0.736
 2026SOL     OW 6976   2.058   1.903   4.984
 2026SOL    HW1 6977   2.069   1.915   4.885
 2026SOL    HW2 6978   1.972   1.946   5.012
 2027SOL     OW 6979   0.036   0.722   2.318
 2027SOL    HW1 6980   0.091   0.785   2.264
 2027SOL    HW2 6981   6.958   0.743   2.306
 2028SOL     OW 6982   3.408   4.423   6.066
 2028SOL    HW1 6983   3.414   4.329   6.030
 2028SOL    HW2 6984   3.480   4.437   6.134
 2029SOL     OW 6985   1.963   0.532   0.793
 2029SOL    HW1 6986   1.924   0.621   0.770
 2029SOL    HW2 6987   2.049   0.519   0.742
 2030SOL     OW 6988   1.880   2.524   3.035
 2030SOL    HW1 6989   1.918   2.530   2.943
 2030SOL    HW2 6990   1.833   2.610   3.057
 2031SOL     OW 6991   6.022   0.229   3.038
 2031SOL    HW1 6992   5.976   0.162   3.096
 2031SOL    HW2 6993   6.116   0.240   3.069
 2032SOL     OW 6994   4.254   6.163   1.984
 2032SOL    HW1 6995   4.187   6.149   1.911
 2032SOL    HW2 6996   4.217   6.225   2.053
 2033SOL     OW 6997   6.978   4.962   6.596
 2033SOL    HW1 6998   6.948   5.048   6.554
 2033SOL    HW2 6999   6.958   4.965   6.694
 2034SOL     OW 7000   2.265   5.947   3.938
 2034SOL    HW1 7001   2.295   5.911   3.850
 2034SOL    HW2 7002   2.332   6.012   3.972
 2035SOL     OW 7003   0.464   2.112   2.360
 2035SOL    HW1 7004   0.371   2.095   2.326
 2035SOL    HW2 7005   0.464   2.106   2.460
 2036SOL     OW 7006   0.745   5.071   0.937
 2036SOL    HW1 7007   0.764   5.168   0.926
 2036SOL    HW2 7008   0.735   5.049   1.035
 2037SOL     OW 7009   0.347   1.645   6.780
 2037SOL    HW1 7010   0.361   1.744   6.773
 2037SOL    HW2 7011   0.435   1.598   6.769
 2038SOL     OW 7012   1.354   0.081   4.949
 2038SOL    HW1 7013   1.426   0.029   4.902
 2038SOL    HW2 7014   1.312   0.023   5.019
 2039SOL     OW 7015   1.309   5.476   1.755
 2039SOL    HW1 7016   1.232   5.517   1.803
 2039SOL    HW2 7017   1.275   5.409   1.689
 2040SOL     OW 7018   3.834   4.084   4.386
 2040SOL    HW1 7019   3.764   4.026   4.427
 2040SOL    HW2 7020   3.903   4.106   4.454
 2041SOL     OW 7021   5.426   2.652   6.343
 2041SOL    HW1 7022   5.463   2.737   6.381
 2041SOL    HW2 7023   5.393   2.594   6.417
 2042SOL     OW 7024   3.269   5.948   0.364
 2042SOL    HW1 7025   3.174   5.974   0.348
 2042SOL    HW2 7026   3.278   5.848   0.356
 2043SOL     OW 7027   4.559   5.243   2.621
 2043SOL    HW1 7028   4.613   5.199   2.693
 2043SOL    HW2 7029   4.551   5.341   2.640
 2044SOL     OW 7030   6.574   0.522   2.029
 2044SOL    HW1 7031   6.559   0.474   1.942
 2044SOL    HW2 7032   6.579   0.456   2.103
 2045SOL     OW 7033   3.099   6.280   6.511
 2045SOL    HW1 7034   3.119   6.366   6.557
 2045SOL    HW2 7035   3.142   6.205   6.561
 2046SOL     OW 7036   6.368   6.912   5.767
 2046SOL    HW1 7037   6.294   6.974   5.742
 2046SOL    HW2 7038   6.453   6.964   5.774
 2047SOL     OW 7039   4.952   2.643   6.998
 2047SOL    HW1 7040   4.935   2.623   6.902
 2047SOL    HW2 7041   4.876   2.697   0.015
 2048SOL     OW 7042   4.907   6.322   5.725
 2048SOL    HW1 7043   5.004   6.334   5.750
 2048SOL    HW2 7044   4.900   6.252   5.654
 2049SOL     OW 7045   4.869   5.859   0.044
 2049SOL    HW1 7046   4.944   5.812   0.090
 2049SOL    HW2 7047   4.849   5.813   6.977
 2050SOL     OW 7048   5.654   0.423   3.834
 2050SOL    HW1 7049   5.651   0.509   3.885
 2050SOL    HW2 7050   5.604   0.353   3.885
 2051SOL     OW 7051   2.791   5.372   1.065
 2051SOL    HW1 7052   2.795   5.305   0.991
 2051SOL    HW2 7053   2.871   5.362   1.124
 2052SOL     OW 7054   1.251   3.154   0.832
 2052SOL    HW1 7055   1.191   3.081   0.800
 2052SOL    HW2 7056   1.212   3.243   0.808
 2053SOL     OW 7057   4.978   1.430   0.747
 2053SOL    HW1 7058   4.970   1.529   0.735
 2053SOL    HW2 7059   5.075   1.405   0.749
 2054SOL     OW 7060   0.518   3.294   1.192
 2054SOL    HW1 7061   0.588   3.223   1.203
 2054SOL    HW2 7062   0.436   3.268   1.244
 2055SOL     OW 7063   6.418   1.621   4.040
 2055SOL    HW1 7064   6.450   1.533   4.075
 2055SOL    HW2 7065   6.492   1.688   4.042
 2056SOL     OW 7066   1.153   6.848   2.155
 2056SOL    HW1 7067   1.068   6.831   2.204
 2056SOL    HW2 7068   1.147   6.934   2.106
 2057SOL     OW 7069   5.541   2.908   4.315
 2057SOL    HW1 7070   5.609   2.960   4.367
 2057SOL    HW2 7071   5.549   2.930   4.218
 2058SOL     OW 7072   0.399   1.304   1.683
 2058SOL    HW1 7073   0.425   1.227   1.624
 2058SOL    HW2 7074   0.333   1.272   1.752
 2059SOL     OW 7075   1.384   0.716   6.450
 2059SOL    HW1 7076   1.337   0.691   6.534
 2059SOL    HW2 7077   1.372   0.643   6.382
 2060SOL     OW 7078   0.279   5.436   2.417
 2060SOL    HW1 7079   0.295   5.359   2.355
 2060SOL    HW2 7080   0.181   5.439   2.441
 2061SOL     OW 7081   1.141   0.909   1.006
 2061SOL    HW1 7082   1.088   0.978   1.057
 2061SOL    HW2 7083   1.219   0.881   1.061
 2062SOL     OW 7084   4.159   0.201   4.071
 2062SOL    HW1 7085   4.255   0.176   4.087
 2062SOL    HW2 7086   4.107   0.187   4.154
 2063SOL     OW 7087   2.216   2.006   0.711
 2063SOL    HW1 7088   2.220   1.952   0.626
 2063SOL    HW2 7089   2.198   2.102   0.689
 2064SOL     OW 7090   1.029   1.814   0.480
 2064SOL    HW1 7091   0.957   1.883   0.495
 2064SOL    HW2 7092   0.987   1.726   0.459
 2065SOL     OW 7093   6.995   3.756   2.823
 2065SOL    HW1 7094   0.067   3.779   2.857
 2065SOL    HW2 7095   6.989   3.657   2.806
 2066SOL     OW 7096   1.176   6.093   3.160
 2066SOL    HW1 7097   1.169   6.192   3.174
 2066SOL    HW2 7098   1.251   6.057   3.215
 2067SOL     OW 7099   0.292   6.789   0.296
 2067SOL    HW1 7100   0.337   6.801   0.208
 2067SOL    HW2 7101   0.354   6.814   0.370
 2068SOL     OW 7102   2.036   1.457   5.278
 2068SOL    HW1 7103   1.960   1.517   5.302
 2068SOL    HW2 7104   2.084   1.429   5.361
 2069SOL     OW 7105   1.266   2.228   1.823
 2069SOL    HW1 7106   1.362   2.198   1.815
 2069SOL    HW2 7107   1.223   2.227   1.733
 2070SOL     OW 7108   0.632   0.907   2.829
 2070SOL    HW1 7109   0.700   0.951   2.770
 2070SOL    HW2 7110   0.549   0.962   2.832
 2071SOL     OW 7111   2.334   6.226   5.289
 2071SOL    HW1 7112   2.334   6.272   5.378
 2071SOL    HW2 7113   2.427   6.193   5.269
 2072SOL     OW 7114   5.038   4.652   2.157
 2072SOL    HW1 7115   5.117   4.674   2.213
 2072SOL    HW2 7116   5.047   4.559   2.122
 2073SOL     OW 7117   3.056   6.229   5.245
 2073SOL    HW1 7118   3.110   6.145   5.254
 2073SOL    HW2 7119   3.116   6.302   5.212
 2074SOL     OW 7120   6.037   2.531   2.790
 2074SOL    HW1 7121   6.069   2.625   2.776
 2074SOL    HW2 7122   6.111   2.476   2.830
 2075SOL     OW 7123   3.319   3.376   6.080
 2075SOL    HW1 7124   3.296   3.472   6.065
 2075SOL    HW2 7125   3.361   3.339   5.997
 2076SOL     OW 7126   5.714   0.363   1.070
 2076SOL    HW1 7127   5.620   0.390   1.047
 2076SOL    HW2 7128   5.715   0.268   1.100
 2077SOL     OW 7129   4.925   1.424   3.809
 2077SOL    HW1 7130   4.969   1.514   3.809
 2077SOL    HW2 7131   4.914   1.393   3.904
 2078SOL     OW 7132   4.085   5.516   5.124
 2078SOL    HW1 7133   4.032   5.451   5.070
 2078SOL    HW2 7134   4.110   5.474   5.211
 2079SOL     OW 7135   5.895   0.592   3.708
 2079SOL    HW1 7136   5.829   0.589   3.783
 2079SOL    HW2 7137   5.983   0.625   3.743
 2080SOL     OW 7138   3.112   1.739   3.464
 2080SOL    HW1 7139   3.021   1.773   3.491
 2080SOL    HW2 7140   3.153   1.690   3.540
 2081SOL     OW 7141   1.311   6.363   4.219
 2081SOL    HW1 7142   1.343   6.283   4.168
 2081SOL    HW2 7143   1.365   6.443   4.192
 2082SOL     OW 7144   4.744   0.333   2.204
 2082SOL    HW1 7145   4.675   0.406   2.200
 2082SOL    HW2 7146   4.715   0.258   2.145
 2083SOL     OW 7147   4.107   4.377   5.882
 2083SOL    HW1 7148   4.079   4.332   5.797
 2083SOL    HW2 7149   4.038   4.444   5.909
 2084SOL     OW 7150   6.805   2.386   2.544
 2084SOL    HW1 7151   6.811   2.437   2.630
 2084SOL    HW2 7152   6.791   2.450   2.468
 2085SOL     OW 7153   5.667   6.143   6.588
 2085SOL    HW1 7154   5.577   6.186   6.586
 2085SOL    HW2 7155   5.696   6.132   6.683
 2086SOL     OW 7156   3.694   5.264   0.034
 2086SOL    HW1 7157   3.649   5.286   0.121
 2086SOL    HW2 7158   3.751   5.183   0.047
 2087SOL     OW 7159   6.052   6.216   3.483
 2087SOL    HW1 7160   6.008   6.271   3.553
 2087SOL    HW2 7161   6.007   6.231   3.395
 2088SOL     OW 7162   2.301   6.844   1.578
 2088SOL    HW1 7163   2.221   6.873   1.525
 2088SOL    HW2 7164   2.382   6.892   1.545
 2089SOL     OW 7165   2.665   1.014   0.233
 2089SOL    HW1 7166   2.757   1.040   0.203
 2089SOL    HW2 7167   2.601   1.088   0.211
 2090SOL     OW 7168   3.224   3.390   3.649
 2090SOL    HW1 7169   3.130   3.413   3.673
 2090SOL    HW2 7170   3.278   3.474   3.640
 2091SOL     OW 7171   2.376   4.850   1.184
 2091SOL    HW1 7172   2.314   4.916   1.142
 2091SOL    HW2 7173   2.420   4.892   1.264
 2092SOL     OW 7174   0.265   5.796   0.971
 2092SOL    HW1 7175   0.165   5.792   0.974
 2092SOL    HW2 7176   0.299   5.742   0.894
 2093SOL     OW 7177   0.921   2.852   1.626
 2093SOL    HW1 7178   0.832   2.863   1.580
 2093SOL    HW2 7179   0.989   2.910   1.581
 2094SOL     OW 7180   6.159   0.531   1.716
 2094SOL    HW1 7181   6.087   0.566   1.656
 2094SOL    HW2 7182   6.183   0.437   1.689
 2095SOL     OW 7183   6.603   5.023   4.745
 2095SOL    HW1 7184   6.533   5.095   4.746
 2095SOL    HW2 7185   6.608   4.981   4.836
 2096SOL     OW 7186   5.036   3.846   3.559
 2096SOL    HW1 7187   4.994   3.831   3.648
 2096SOL    HW2 7188   5.128   3.806   3.558
 2097SOL     OW 7189   6.482   3.577   6.305
 2097SOL    HW1 7190   6.392   3.610   6.333
 2097SOL    HW2 7191   6.543   3.576   6.383
 2098SOL     OW 7192   3.657   6.974   4.100
 2098SOL    HW1 7193   3.665   6.980   4.199
 2098SOL    HW2 7194   3.736   6.925   4.063
 2099SOL     OW 7195   2.667   1.758   3.108
 2099SOL    HW1 7196   2.730   1.833   3.133
 2099SOL    HW2 7197   2.579   1.772   3.153
 2100SOL     OW 7198   4.001   4.915   6.933
 2100SOL    HW1 7199   4.068   4.854   6.976
 2100SOL    HW2 7200   3.953   4.967   7.004
 2101SOL     OW 7201   6.841   0.362   1.920
 2101SOL    HW1 7202   6.930   0.377   1.876
 2101SOL    HW2 7203   6.854   0.355   2.019
 2102SOL     OW 7204   6.871   5.525   1.692
 2102SOL    HW1 7205   6.962   5.552   1.662
 2102SOL    HW2 7206   6.847   5.576   1.774
 2103SOL     OW 7207   3.460   3.380   6.311
 2103SOL    HW1 7208   3.416   3.360   6.223
 2103SOL    HW2 7209   3.395   3.366   6.385
 2104SOL     OW 7210   1.614   4.199   5.783
 2104SOL    HW1 7211   1.590   4.191   5.686
 2104SOL    HW2 7212   1.711   4.176   5.795
 2105SOL     OW 7213   5.540   6.323   1.756
 2105SOL    HW1 7214   5.508   6.369   1.838
 2105SOL    HW2 7215   5.494   6.234   1.748
 2106SOL     OW 7216   5.869   5.606   6.534
 2106SOL    HW1 7217   5.829   5.696   6.550
 2106SOL    HW2 7218   5.930   5.611   6.454
 2107SOL     OW 7219   2.601   5.223   0.562
 2107SOL    HW1 7220   2.542   5.154   0.519
 2107SOL    HW2 7221   2.544   5.292   0.606
 2108SOL     OW 7222   5.683   4.301   6.282
 2108SOL    HW1 7223   5.661   4.390   6.243
 2108SOL    HW2 7224   5.782   4.286   6.277
 2109SOL     OW 7225   5.495   5.712   2.727
 2109SOL    HW1 7226   5.589   5.726   2.760
 2109SOL    HW2 7227   5.432   5.760   2.789
 2110SOL     OW 7228   1.555   5.079   5.394
 2110SOL    HW1 7229   1.492   5.020   5.445
 2110SOL    HW2 7230   1.584   5.031   5.311
 2111SOL     OW 7231   1.927   2.518   0.005
 2111SOL    HW1 7232   1.976   2.600   0.035
 2111SOL    HW2 7233   1.892   2.532   6.931
 2112SOL     OW 7234   5.246   3.582   0.150
 2112SOL    HW1 7235   5.186   3.622   0.218
 2112SOL    HW2 7236   5.205   3.499   0.113
 2113SOL     OW 7237   6.544   1.639   2.842
 2113SOL    HW1 7238   6.569   1.735   2.832
 2113SOL    HW2 7239   6.574   1.588   2.762
 2114SOL     OW 7240   1.880   3.371   6.973
 2114SOL    HW1 7241   1.871   3.324   6.885
 2114SOL    HW2 7242   1.803   3.432   6.987
 2115SOL     OW 7243   3.335   5.691   1.561
 2115SOL    HW1 7244   3.287   5.760   1.507
 2115SOL    HW2 7245   3.433   5.694   1.540
 2116SOL     OW 7246   0.965   4.071   4.003
 2116SOL    HW1 7247   0.961   3.993   4.065
 2116SOL    HW2 7248   0.877   4.081   3.957
 2117SOL     OW 7249   6.997   5.849   6.158
 2117SOL    HW1 7250   6.921   5.815   6.103
 2117SOL    HW2 7251   6.961   5.899   6.237
 2118SOL     OW 7252   0.107   3.416   2.051
 2118SOL    HW1 7253   0.144   3.352   2.118
 2118SOL    HW2 7254   0.082   3.366   1.968
 2119SOL     OW 7255   3.978   6.534   0.690
 2119SOL    HW1 7256   3.963   6.581   0.777
 2119SOL    HW2 7257   3.936   6.444   0.692
 2120SOL     OW 7258   6.373   4.419   2.203
 2120SOL    HW1 7259   6.273   4.421   2.208
 2120SOL    HW2 7260   6.402   4.396   2.110
 2121SOL     OW 7261   0.600   4.058   4.922
 2121SOL    HW1 7262   0.602   3.978   4.862
 2121SOL    HW2 7263   0.511   4.103   4.913
 2122SOL     OW 7264   4.337   5.060   5.539
 2122SOL    HW1 7265   4.293   5.045   5.451
 2122SOL    HW2 7266   4.356   4.972   5.582
 2123SOL     OW 7267   4.714   4.436   3.597
 2123SOL    HW1 7268   4.670   4.357   3.554
 2123SOL    HW2 7269   4.791   4.405   3.653
 2124SOL     OW 7270   2.990   1.991   1.462
 2124SOL    HW1 7271   3.083   2.026   1.448
 2124SOL    HW2 7272   2.969   1.924   1.390
 2125SOL     OW 7273   5.260   6.300   0.619
 2125SOL    HW1 7274   5.266   6.217   0.564
 2125SOL    HW2 7275   5.164   6.329   0.626
 2126SOL     OW 7276   3.097   1.227   1.743
 2126SOL    HW1 7277   3.052   1.288   1.809
 2126SOL    HW2 7278   3.194   1.220   1.765
 2127SOL     OW 7279   5.601   3.131   4.930
 2127SOL    HW1 7280   5.586   3.219   4.975
 2127SOL    HW2 7281   5.516   3.077   4.933
 2128SOL     OW 7282   0.415   4.278   4.455
 2128SOL    HW1 7283   0.328   4.296   4.501
 2128SOL    HW2 7284   0.485   4.255   4.523
 2129SOL     OW 7285   4.363   2.273   5.345
 2129SOL    HW1 7286   4.442   2.263   5.285
 2129SOL    HW2 7287   4.391   2.325   5.427
 2130SOL     OW 7288   5.459   0.964   3.571
 2130SOL    HW1 7289   5.430   0.886   3.515
 2130SOL    HW2 7290   5.413   1.047   3.538
 2131SOL     OW 7291   5.188   1.852   6.716
 2131SOL    HW1 7292   5.200   1.813   6.807
 2131SOL    HW2 7293   5.090   1.853   6.693
 2132SOL     OW 7294   1.816   3.652   1.141
 2132SOL    HW1 7295   1.724   3.628   1.110
 2132SOL    HW2 7296   1.810   3.731   1.203
 2133SOL     OW 7297   2.262   4.037   6.097
 2133SOL    HW1 7298   2.237   4.112   6.036
 2133SOL    HW2 7299   2.184   3.975   6.106
 2134SOL     OW 7300   0.180   6.507   0.604
 2134SOL    HW1 7301   0.202   6.409   0.600
 2134SOL    HW2 7302   0.130   6.526   0.688
 2135SOL     OW 7303   6.632   4.459   5.279
 2135SOL    HW1 7304   6.639   4.436   5.376
 2135SOL    HW2 7305   6.544   4.503   5.262
 2136SOL     OW 7306   1.636   5.376   0.114
 2136SOL    HW1 7307   1.569   5.448   0.131
 2136SOL    HW2 7308   1.588   5.292   0.088
 2137SOL     OW 7309   1.599   6.463   3.836
 2137SOL    HW1 7310   1.574   6.368   3.813
 2137SOL    HW2 7311   1.556   6.488   3.922
 2138SOL     OW 7312   5.123   2.066   2.305
 2138SOL    HW1 7313   5.210   2.028   2.336
 2138SOL    HW2 7314   5.128   2.085   2.207
 2139SOL     OW 7315   2.536   6.730   5.514
 2139SOL    HW1 7316   2.512   6.740   5.418
 2139SOL    HW2 7317   2.633   6.747   5.527
 2140SOL     OW 7318   2.530   1.686   3.998
 2140SOL    HW1 7319   2.566   1.673   4.091
 2140SOL    HW2 7320   2.486   1.602   3.968
 2141SOL     OW 7321   6.690   3.560   3.309
 2141SOL    HW1 7322   6.776   3.520   3.279
 2141SOL    HW2 7323   6.616   3.529   3.249
 2142SOL     OW 7324   1.525   2.468   2.250
 2142SOL    HW1 7325   1.468   2.478   2.169
 2142SOL    HW2 7326   1.586   2.389   2.238
 2143SOL     OW 7327   0.273   5.370   5.942
 2143SOL    HW1 7328   0.227   5.314   5.872
 2143SOL    HW2 7329   0.351   5.320   5.979
 2144SOL     OW 7330   6.211   4.623   2.995
 2144SOL    HW1 7331   6.171   4.583   2.913
 2144SOL    HW2 7332   6.280   4.691   2.969
 2145SOL     OW 7333   4.291   1.370   3.103
 2145SOL    HW1 7334   4.282   1.457   3.055
 2145SOL    HW2 7335   4.383   1.363   3.143
 2146SOL     OW 7336   2.373   2.420   6.060
 2146SOL    HW1 7337   2.376   2.322   6.039
 2146SOL    HW2 7338   2.311   2.466   5.995
 2147SOL     OW 7339   5.904   6.580   4.402
 2147SOL    HW1 7340   5.872   6.520   4.329
 2147SOL    HW2 7341   5.942   6.524   4.477
 2148SOL     OW 7342   0.161   2.342   5.274
 2148SOL    HW1 7343   0.064   2.320   5.269
 2148SOL    HW2 7344   0.174   2.420   5.335
 2149SOL     OW 7345   0.907   6.677   6.979
 2149SOL    HW1 7346   0.959   6.747   0.008
 2149SOL    HW2 7347   0.818   6.666   0.005
 2150SOL     OW 7348   1.521   3.193   0.806
 2150SOL    HW1 7349   1.545   3.263   0.874
 2150SOL    HW2 7350   1.436   3.148   0.834
 2151SOL     OW 7351   0.771   4.553   6.854
 2151SOL    HW1 7352   0.758   4.484   6.783
 2151SOL    HW2 7353   0.843   4.617   6.826
 2152SOL     OW 7354   5.482   6.341   3.735
 2152SOL    HW1 7355   5.541   6.262   3.751
 2152SOL    HW2 7356   5.423   6.356   3.814
 2153SOL     OW 7357   5.390   0.009   4.166
 2153SOL    HW1 7358   5.340   0.092   4.140
 2153SOL    HW2 7359   5.325   6.956   4.189
 2154SOL     OW 7360   2.330   6.596   2.507
 2154SOL    HW1 7361   2.267   6.648   2.565
 2154SOL    HW2 7362   2.279   6.556   2.431
 2155SOL     OW 7363   4.120   1.065   0.926
 2155SOL    HW1 7364   4.089   1.150   0.968
 2155SOL    HW2 7365   4.186   1.020   0.986
 2156SOL     OW 7366   5.782   2.552   4.976
 2156SOL    HW1 7367   5.790   2.475   5.040
 2156SOL    HW2 7368   5.709   2.534   4.911
 2157SOL     OW 7369   3.865   6.014   5.040
 2157SOL    HW1 7370   3.805   5.987   4.964
 2157SOL    HW2 7371   3.949   5.961   5.037
 2158SOL     OW 7372   2.871   6.990   0.585
 2158SOL    HW1 7373   2.940   6.936   0.634
 2158SOL    HW2 7374   2.785   6.939   0.581
 2159SOL     OW 7375   0.806   0.512   5.824
 2159SOL    HW1 7376   0.771   0.606   5.833
 2159SOL    HW2 7377   0.729   0.450   5.808
 2160SOL     OW 7378   5.467   0.067   6.268
 2160SOL    HW1 7379   5.411   7.004   6.277
 2160SOL    HW2 7380   5.539   0.066   6.337
 2161SOL     OW 7381   1.721   3.852   0.794
 2161SOL    HW1 7382   1.729   3.879   0.698
 2161SOL    HW2 7383   1.789   3.781   0.814
 2162SOL     OW 7384   1.924   0.279   1.130
 2162SOL    HW1 7385   1.933   0.267   1.031
 2162SOL    HW2 7386   1.888   0.371   1.149
 2163SOL     OW 7387   1.684   2.991   3.354
 2163SOL    HW1 7388   1.719   3.056   3.287
 2163SOL    HW2 7389   1.721   3.013   3.444
 2164SOL     OW 7390   2.130   3.632   2.176
 2164SOL    HW1 7391   2.151   3.588   2.089
 2164SOL    HW2 7392   2.168   3.578   2.251
 2165SOL     OW 7393   6.369   1.062   4.666
 2165SOL    HW1 7394   6.344   1.079   4.761
 2165SOL    HW2 7395   6.287   1.039   4.614
 2166SOL     OW 7396   6.962   3.011   1.957
 2166SOL    HW1 7397   6.903   2.937   1.925
 2166SOL    HW2 7398   6.955   3.088   1.894
 2167SOL     OW 7399   1.654   2.154   3.016
 2167SOL    HW1 7400   1.722   2.221   3.047
 2167SOL    HW2 7401   1.702   2.072   2.981
 2168SOL     OW 7402   2.063   2.152   3.314
 2168SOL    HW1 7403   2.046   2.127   3.409
 2168SOL    HW2 7404   2.112   2.078   3.268
 2169SOL     OW 7405   6.509   6.984   1.222
 2169SOL    HW1 7406   6.481   6.931   1.143
 2169SOL    HW2 7407   6.440   0.035   1.241
 2170SOL     OW 7408   1.255   3.641   6.393
 2170SOL    HW1 7409   1.323   3.666   6.462
 2170SOL    HW2 7410   1.287   3.669   6.303
 2171SOL     OW 7411   6.841   5.981   0.893
 2171SOL    HW1 7412   6.871   6.075   0.908
 2171SOL    HW2 7413   6.899   5.919   0.945
 2172SOL     OW 7414   2.764   1.944   4.731
 2172SOL    HW1 7415   2.791   1.948   4.635
 2172SOL    HW2 7416   2.696   1.872   4.743
 2173SOL     OW 7417   4.913   0.816   4.829
 2173SOL    HW1 7418   4.822   0.825   4.787
 2173SOL    HW2 7419   4.942   0.721   4.827
 2174SOL     OW 7420   5.535   0.710   6.045
 2174SOL    HW1 7421   5.516   0.808   6.055
 2174SOL    HW2 7422   5.452   0.658   6.064
 2175SOL     OW 7423   3.443   3.728   5.864
 2175SOL    HW1 7424   3.521   3.751   5.806
 2175SOL    HW2 7425   3.380   3.805   5.868
 2176SOL     OW 7426   5.955   2.326   3.477
 2176SOL    HW1 7427   6.035   2.358   3.427
 2176SOL    HW2 7428   5.984   2.281   3.562
 2177SOL     OW 7429   1.162   1.139   4.778
 2177SOL    HW1 7430   1.107   1.186   4.847
 2177SOL    HW2 7431   1.214   1.066   4.822
 2178SOL     OW 7432   1.487   2.464   2.544
 2178SOL    HW1 7433   1.491   2.557   2.582
 2178SOL    HW2 7434   1.465   2.469   2.447
 2179SOL     OW 7435   1.378   3.786   6.800
 2179SOL    HW1 7436   1.428   3.713   6.753
 2179SOL    HW2 7437   1.329   3.841   6.732
 2180SOL     OW 7438   0.592   5.695   2.801
 2180SOL    HW1 7439   0.674   5.704   2.744
 2180SOL    HW2 7440   0.519   5.653   2.748
 2181SOL     OW 7441   4.263   4.797   4.353
 2181SOL    HW1 7442   4.308   4.884   4.332
 2181SOL    HW2 7443   4.317   4.722   4.315
 2182SOL     OW 7444   0.082   6.440   1.222
 2182SOL    HW1 7445   0.073   6.371   1.293
 2182SOL    HW2 7446   0.002   6.436   1.161
 2183SOL     OW 7447   3.503   3.000   6.893
 2183SOL    HW1 7448   3.486   3.007   6.991
 2183SOL    HW2 7449   3.588   2.950   6.877
 2184SOL     OW 7450   6.475   1.361   0.703
 2184SOL    HW1 7451   6.434   1.392   0.789
 2184SOL    HW2 7452   6.418   1.288   0.664
 2185SOL     OW 7453   0.878   1.302   6.206
 2185SOL    HW1 7454   0.880   1.401   6.218
 2185SOL    HW2 7455   0.783   1.272   6.196
 2186SOL     OW 7456   6.617   6.219   5.243
 2186SOL    HW1 7457   6.657   6.308   5.219
 2186SOL    HW2 7458   6.591   6.171   5.159
 2187SOL     OW 7459   5.510   4.791   1.857
 2187SOL    HW1 7460   5.571   4.778   1.934
 2187SOL    HW2 7461   5.521   4.883   1.820
 2188SOL     OW 7462   3.101   1.040   0.697
 2188SOL    HW1 7463   3.055   1.128   0.691
 2188SOL    HW2 7464   3.093   1.004   0.790
 2189SOL     OW 7465   2.014   0.469   2.043
 2189SOL    HW1 7466   2.056   0.477   1.952
 2189SOL    HW2 7467   1.936   0.407   2.038
 2190SOL     OW 7468   6.348   4.686   2.082
 2190SOL    HW1 7469   6.299   4.641   2.008
 2190SOL    HW2 7470   6.383   4.617   2.146
 2191SOL     OW 7471   3.372   0.396   0.229
 2191SOL    HW1 7472   3.283   0.426   0.196
 2191SOL    HW2 7473   3.435   0.386   0.152
 2192SOL     OW 7474   5.080   1.795   2.018
 2192SOL    HW1 7475   4.995   1.826   1.976
 2192SOL    HW2 7476   5.143   1.872   2.026
 2193SOL     OW 7477   2.298   0.573   4.965
 2193SOL    HW1 7478   2.349   0.582   5.050
 2193SOL    HW2 7479   2.207   0.537   4.984
 2194SOL     OW 7480   0.349   4.059   5.918
 2194SOL    HW1 7481   0.339   4.031   5.823
 2194SOL    HW2 7482   0.445   4.077   5.938
 2195SOL     OW 7483   0.141   4.041   4.801
 2195SOL    HW1 7484   0.157   3.982   4.721
 2195SOL    HW2 7485   0.065   4.103   4.781
 2196SOL     OW 7486   3.800   0.570   6.839
 2196SOL    HW1 7487   3.810   0.569   6.938
 2196SOL    HW2 7488   3.868   0.509   6.798
 2197SOL     OW 7489   3.417   5.636   6.351
 2197SOL    HW1 7490   3.417   5.724   6.303
 2197SOL    HW2 7491   3.412   5.652   6.450
 2198SOL     OW 7492   1.334   0.981   6.909
 2198SOL    HW1 7493   1.304   1.067   6.949
 2198SOL    HW2 7494   1.369   0.997   6.817
 2199SOL     OW 7495   4.050   6.672   3.860
 2199SOL    HW1 7496   4.022   6.576   3.858
 2199SOL    HW2 7497   3.980   6.725   3.908
 2200SOL     OW 7498   2.188   2.425   4.088
 2200SOL    HW1 7499   2.122   2.477   4.143
 2200SOL    HW2 7500   2.281   2.452   4.115
 2201SOL     OW 7501   5.718   3.861   5.057
 2201SOL    HW1 7502   5.813   3.852   5.029
 2201SOL    HW2 7503   5.684   3.951   5.032
 2202SOL     OW 7504   3.297   6.820   3.357
 2202SOL    HW1 7505   3.390   6.810   3.322
 2202SOL    HW2 7506   3.241   6.871   3.292
 2203SOL     OW 7507   2.361   5.712   1.337
 2203SOL    HW1 7508   2.266   5.745   1.339
 2203SOL    HW2 7509   2.365   5.619   1.371
 2204SOL     OW 7510   5.594   2.209   1.146
 2204SOL    HW1 7511   5.533   2.268   1.199
 2204SOL    HW2 7512   5.556   2.117   1.141
 2205SOL     OW 7513   6.070   5.896   1.156
 2205SOL    HW1 7514   6.002   5.833   1.193
 2205SOL    HW2 7515   6.024   5.973   1.112
 2206SOL     OW 7516   3.683   2.590   5.596
 2206SOL    HW1 7517   3.775   2.627   5.610
 2206SOL    HW2 7518   3.676   2.551   5.504
 2207SOL     OW 7519   4.708   5.736   2.057
 2207SOL    HW1 7520   4.618   5.694   2.067
 2207SOL    HW2 7521   4.707   5.827   2.099
 2208SOL     OW 7522   0.206   6.565   3.033
 2208SOL    HW1 7523   0.154   6.532   3.112
 2208SOL    HW2 7524   0.266   6.640   3.061
 2209SOL     OW 7525   2.901   5.575   3.285
 2209SOL    HW1 7526   2.880   5.550   3.379
 2209SOL    HW2 7527   2.852   5.659   3.261
 2210SOL     OW 7528   5.377   0.120   1.567
 2210SOL    HW1 7529   5.439   0.168   1.629
 2210SOL    HW2 7530   5.329   0.049   1.618
 2211SOL     OW 7531   1.437   2.062   1.010
 2211SOL    HW1 7532   1.520   2.112   0.983
 2211SOL    HW2 7533   1.357   2.121   0.997
 2212SOL     OW 7534   2.970   5.954   6.272
 2212SOL    HW1 7535   2.923   5.952   6.184
 2212SOL    HW2 7536   2.973   5.861   6.310
 2213SOL     OW 7537   3.478   1.543   4.892
 2213SOL    HW1 7538   3.469   1.572   4.796
 2213SOL    HW2 7539   3.492   1.624   4.949
 2214SOL     OW 7540   4.137   4.262   6.596
 2214SOL    HW1 7541   4.045   4.224   6.606
 2214SOL    HW2 7542   4.175   4.282   6.686
 2215SOL     OW 7543   4.883   6.043   0.652
 2215SOL    HW1 7544   4.820   6.073   0.725
 2215SOL    HW2 7545   4.891   6.114   0.583
 2216SOL     OW 7546   0.675   6.049   0.038
 2216SOL    HW1 7547   0.620   6.101   6.992
 2216SOL    HW2 7548   0.766   6.090   0.046
 2217SOL     OW 7549   4.235   1.394   3.757
 2217SOL    HW1 7550   4.239   1.295   3.769
 2217SOL    HW2 7551   4.180   1.417   3.677
 2218SOL     OW 7552   6.469   5.445   5.267
 2218SOL    HW1 7553   6.563   5.411   5.262
 2218SOL    HW2 7554   6.457   5.519   5.200
 2219SOL     OW 7555   5.325   1.500   0.549
 2219SOL    HW1 7556   5.391   1.554   0.496
 2219SOL    HW2 7557   5.357   1.493   0.644
 2220SOL     OW 7558   6.897   6.030   4.187
 2220SOL    HW1 7559   6.925   5.962   4.119
 2220SOL    HW2 7560   6.806   6.066   4.164
 2221SOL     OW 7561   5.829   0.821   4.490
 2221SOL    HW1 7562   5.875   0.872   4.417
 2221SOL    HW2 7563   5.747   0.777   4.452
 2222SOL     OW 7564   3.732   0.608   3.237
 2222SOL    HW1 7565   3.669   0.590   3.161
 2222SOL    HW2 7566   3.701   0.559   3.318
 2223SOL     OW 7567   0.969   0.106   5.223
 2223SOL    HW1 7568   0.918   0.081   5.140
 2223SOL    HW2 7569   1.067   0.095   5.206
 2224SOL     OW 7570   5.323   4.626   6.886
 2224SOL    HW1 7571   5.320   4.604   6.789
 2224SOL    HW2 7572   5.257   4.568   6.935
 2225SOL     OW 7573   6.669   6.633   1.265
 2225SOL    HW1 7574   6.664   6.724   1.307
 2225SOL    HW2 7575   6.713   6.570   1.329
 2226SOL     OW 7576   2.646   3.802   6.940
 2226SOL    HW1 7577   2.712   3.752   6.997
 2226SOL    HW2 7578   2.678   3.803   6.846
 2227SOL     OW 7579   3.853   2.068   2.080
 2227SOL    HW1 7580   3.765   2.103   2.049
 2227SOL    HW2 7581   3.843   1.972   2.107
 2228SOL     OW 7582   5.738   5.840   6.595
 2228SOL    HW1 7583   5.757   5.938   6.584
 2228SOL    HW2 7584   5.658   5.828   6.654
 2229SOL     OW 7585   2.918   3.251   4.129
 2229SOL    HW1 7586   2.913   3.158   4.165
 2229SOL    HW2 7587   2.968   3.309   4.193
 2230SOL     OW 7588   6.256   0.442   6.349
 2230SOL    HW1 7589   6.249   0.522   6.289
 2230SOL    HW2 7590   6.313   0.464   6.428
 2231SOL     OW 7591   1.606   0.389   6.006
 2231SOL    HW1 7592   1.679   0.439   5.960
 2231SOL    HW2 7593   1.619   0.396   6.105
 2232SOL     OW 7594   1.781   0.879   6.062
 2232SOL    HW1 7595   1.701   0.819   6.058
 2232SOL    HW2 7596   1.851   0.838   6.121
 2233SOL     OW 7597   2.877   4.970   1.042
 2233SOL    HW1 7598   2.872   5.060   0.998
 2233SOL    HW2 7599   2.794   4.953   1.093
 2234SOL     OW 7600   5.143   2.083   1.721
 2234SOL    HW1 7601   5.079   2.160   1.717
 2234SOL    HW2 7602   5.139   2.031   1.636
 2235SOL     OW 7603   0.604   1.864   2.524
 2235SOL    HW1 7604   0.682   1.907   2.479
 2235SOL    HW2 7605   0.534   1.932   2.542
 2236SOL     OW 7606   2.248   5.241   5.432
 2236SOL    HW1 7607   2.190   5.318   5.404
 2236SOL    HW2 7608   2.201   5.155   5.413
 2237SOL     OW 7609   6.663   6.381   6.082
 2237SOL    HW1 7610   6.597   6.331   6.027
 2237SOL    HW2 7611   6.640   6.372   6.179
 2238SOL     OW 7612   6.497   3.342   2.539
 2238SOL    HW1 7613   6.562   3.289   2.484
 2238SOL    HW2 7614   6.448   3.405   2.480
 2239SOL     OW 7615   4.458   0.130   2.790
 2239SOL    HW1 7616   4.504   0.219   2.791
 2239SOL    HW2 7617   4.380   0.133   2.854
 2240SOL     OW 7618   4.911   5.353   2.567
 2240SOL    HW1 7619   4.984   5.361   2.635
 2240SOL    HW2 7620   4.845   5.426   2.581
 2241SOL     OW 7621   0.553   1.632   2.671
 2241SOL    HW1 7622   0.623   1.686   2.624
 2241SOL    HW2 7623   0.569   1.636   2.770
 2242SOL     OW 7624   5.454   2.258   4.590
 2242SOL    HW1 7625   5.429   2.339   4.644
 2242SOL    HW2 7626   5.516   2.201   4.643
 2243SOL     OW 7627   2.310   6.928   0.490
 2243SOL    HW1 7628   2.338   6.979   0.408
 2243SOL    HW2 7629   2.261   6.845   0.462
 2244SOL     OW 7630   2.591   1.668   0.743
 2244SOL    HW1 7631   2.575   1.713   0.831
 2244SOL    HW2 7632   2.543   1.581   0.740
 2245SOL     OW 7633   0.541   0.412   0.213
 2245SOL    HW1 7634   0.553   0.348   0.137
 2245SOL    HW2 7635   0.568   0.503   0.184
 2246SOL     OW 7636   4.238   1.868   5.580
 2246SOL    HW1 7637   4.152   1.862   5.528
 2246SOL    HW2 7638   4.315   1.869   5.516
 2247SOL     OW 7639   2.840   3.315   2.119
 2247SOL    HW1 7640   2.869   3.286   2.028
 2247SOL    HW2 7641   2.751   3.274   2.140
 2248SOL     OW 7642   5.225   3.626   5.026
 2248SOL    HW1 7643   5.173   3.673   4.954
 2248SOL    HW2 7644   5.295   3.568   4.984
 2249SOL     OW 7645   2.281   6.298   3.879
 2249SOL    HW1 7646   2.368   6.348   3.885
 2249SOL    HW2 7647   2.267   6.247   3.964
 2250SOL     OW 7648   4.505   6.202   6.481
 2250SOL    HW1 7649   4.567   6.233   6.409
 2250SOL    HW2 7650   4.439   6.275   6.501
 2251SOL     OW 7651   4.500   6.268   4.942
 2251SOL    HW1 7652   4.455   6.182   4.967
 2251SOL    HW2 7653   4.587   6.275   4.989
 2252SOL     OW 7654   3.678   0.803   2.645
 2252SOL    HW1 7655   3.683   0.745   2.727
 2252SOL    HW2 7656   3.583   0.831   2.631
 2253SOL     OW 7657   0.557   3.417   1.910
 2253SOL    HW1 7658   0.583   3.503   1.952
 2253SOL    HW2 7659   0.457   3.407   1.913
 2254SOL     OW 7660   4.057   3.264   2.516
 2254SOL    HW1 7661   4.050   3.166   2.531
 2254SOL    HW2 7662   4.069   3.283   2.419
 2255SOL     OW 7663   1.332   2.555   6.343
 2255SOL    HW1 7664   1.392   2.498   6.286
 2255SOL    HW2 7665   1.379   2.640   6.366
 2256SOL     OW 7666   5.841   0.528   1.270
 2256SOL    HW1 7667   5.940   0.537   1.257
 2256SOL    HW2 7668   5.802   0.473   1.196
 2257SOL     OW 7669   0.019   0.570   5.540
 2257SOL    HW1 7670   0.057   0.490   5.586
 2257SOL    HW2 7671   0.081   0.648   5.552
 2258SOL     OW 7672   2.401   6.785   4.391
 2258SOL    HW1 7673   2.318   6.729   4.399
 2258SOL    HW2 7674   2.380   6.879   4.418
 2259SOL     OW 7675   5.971   1.358   4.497
 2259SOL    HW1 7676   6.065   1.392   4.500
 2259SOL    HW2 7677   5.955   1.309   4.411
 2260SOL     OW 7678   1.075   3.907   0.986
 2260SOL    HW1 7679   0.993   3.855   0.963
 2260SOL    HW2 7680   1.103   3.963   0.908
 2261SOL     OW 7681   5.209   4.431   6.672
 2261SOL    HW1 7682   5.255   4.439   6.584
 2261SOL    HW2 7683   5.180   4.336   6.686
 2262SOL     OW 7684   6.709   6.756   4.399
 2262SOL    HW1 7685   6.806   6.772   4.418
 2262SOL    HW2 7686   6.677   6.823   4.333
 2263SOL     OW 7687   2.005   4.221   6.544
 2263SOL    HW1 7688   1.928   4.284   6.546
 2263SOL    HW2 7689   2.017   4.179   6.635
 2264SOL     OW 7690   2.305   0.245   5.786
 2264SOL    HW1 7691   2.218   0.289   5.765
 2264SOL    HW2 7692   2.297   0.192   5.870
 2265SOL     OW 7693   6.935   6.243   3.962
 2265SOL    HW1 7694   6.944   6.340   3.938
 2265SOL    HW2 7695   6.901   6.192   3.883
 2266SOL     OW 7696   4.677   2.667   6.592
 2266SOL    HW1 7697   4.592   2.718   6.604
 2266SOL    HW2 7698   4.705   2.672   6.496
 2267SOL     OW 7699   5.746   3.034   4.464
 2267SOL    HW1 7700   5.783   2.954   4.418
 2267SOL    HW2 7701   5.743   3.019   4.563
 2268SOL     OW 7702   1.193   6.545   4.739
 2268SOL    HW1 7703   1.238   6.499   4.663
 2268SOL    HW2 7704   1.135   6.619   4.704
 2269SOL     OW 7705   1.825   2.368   5.238
 2269SOL    HW1 7706   1.830   2.456   5.191
 2269SOL    HW2 7707   1.914   2.347   5.279
 2270SOL     OW 7708   4.875   1.391   6.251
 2270SOL    HW1 7709   4.920   1.447   6.320
 2270SOL    HW2 7710   4.929   1.391   6.167
 2271SOL     OW 7711   4.238   5.720   5.408
 2271SOL    HW1 7712   4.291   5.798   5.441
 2271SOL    HW2 7713   4.154   5.712   5.462
 2272SOL     OW 7714   5.590   1.584   6.035
 2272SOL    HW1 7715   5.578   1.531   5.951
 2272SOL    HW2 7716   5.517   1.560   6.100
 2273SOL     OW 7717   1.088   3.102   3.632
 2273SOL    HW1 7718   1.177   3.106   3.678
 2273SOL    HW2 7719   1.082   3.017   3.580
 2274SOL     OW 7720   1.332   1.116   0.340
 2274SOL    HW1 7721   1.296   1.206   0.314
 2274SOL    HW2 7722   1.275   1.044   0.300
 2275SOL     OW 7723   5.532   3.976   2.893
 2275SOL    HW1 7724   5.500   4.005   2.803
 2275SOL    HW2 7725   5.574   4.054   2.940
 2276SOL     OW 7726   1.687   2.014   1.167
 2276SOL    HW1 7727   1.680   1.979   1.260
 2276SOL    HW2 7728   1.596   2.036   1.132
 2277SOL     OW 7729   4.003   3.086   3.337
 2277SOL    HW1 7730   4.102   3.075   3.327
 2277SOL    HW2 7731   3.960   3.078   3.248
 2278SOL     OW 7732   0.615   2.669   3.958
 2278SOL    HW1 7733   0.535   2.675   3.899
 2278SOL    HW2 7734   0.675   2.747   3.940
 2279SOL     OW 7735   1.257   4.944   6.237
 2279SOL    HW1 7736   1.233   4.847   6.244
 2279SOL    HW2 7737   1.204   4.997   6.303
 2280SOL     OW 7738   4.839   1.961   5.633
 2280SOL    HW1 7739   4.878   2.008   5.712
 2280SOL    HW2 7740   4.753   1.917   5.660
 2281SOL     OW 7741   5.618   0.053   2.496
 2281SOL    HW1 7742   5.554   0.072   2.422
 2281SOL    HW2 7743   5.570   0.059   2.584
 2282SOL     OW 7744   3.634   5.814   6.074
 2282SOL    HW1 7745   3.670   5.903   6.045
 2282SOL    HW2 7746   3.534   5.816   6.074
 2283SOL     OW 7747   0.314   0.685   4.462
 2283SOL    HW1 7748   0.228   0.696   4.413
 2283SOL    HW2 7749   0.353   0.775   4.482
 2284SOL     OW 7750   0.909   3.285   6.370
 2284SOL    HW1 7751   0.923   3.364   6.430
 2284SOL    HW2 7752   0.871   3.210   6.423
 2285SOL     OW 7753   1.683   3.948   0.037
 2285SOL    HW1 7754   1.709   4.044   0.032
 2285SOL    HW2 7755   1.600   3.939   0.092
 2286SOL     OW 7756   4.344   5.050   2.992
 2286SOL    HW1 7757   4.415   5.099   3.043
 2286SOL    HW2 7758   4.266   5.110   2.978
 2287SOL     OW 7759   0.908   1.606   4.238
 2287SOL    HW1 7760   0.946   1.515   4.257
 2287SOL    HW2 7761   0.898   1.618   4.139
 2288SOL     OW 7762   6.746   5.587   2.790
 2288SOL    HW1 7763   6.648   5.583   2.771
 2288SOL    HW2 7764   6.771   5.515   2.854
 2289SOL     OW 7765   0.580   5.605   0.593
 2289SOL    HW1 7766   0.578   5.701   0.564
 2289SOL    HW2 7767   0.514   5.553   0.540
 2290SOL     OW 7768   0.975   5.082   6.991
 2290SOL    HW1 7769   1.066   5.083   6.952
 2290SOL    HW2 7770   0.946   5.175   7.013
 2291SOL     OW 7771   2.231   1.586   6.905
 2291SOL    HW1 7772   2.153   1.578   6.967
 2291SOL    HW2 7773   2.199   1.587   6.811
 2292SOL     OW 7774   2.378   1.305   4.079
 2292SOL    HW1 7775   2.362   1.356   3.995
 2292SOL    HW2 7776   2.304   1.324   4.144
 2293SOL     OW 7777   5.715   3.592   2.547
 2293SOL    HW1 7778   5.790   3.585   2.612
 2293SOL    HW2 7779   5.630   3.609   2.597
 2294SOL     OW 7780   4.278   6.346   0.107
 2294SOL    HW1 7781   4.339   6.336   0.029
 2294SOL    HW2 7782   4.264   6.443   0.127
 2295SOL     OW 7783   0.487   1.715   1.861
 2295SOL    HW1 7784   0.445   1.747   1.776
 2295SOL    HW2 7785   0.524   1.793   1.911
 2296SOL     OW 7786   3.046   6.815   0.756
 2296SOL    HW1 7787   2.957   6.769   0.757
 2296SOL    HW2 7788   3.118   6.749   0.777
 2297SOL     OW 7789   4.305   6.397   6.537
 2297SOL    HW1 7790   4.210   6.366   6.537
 2297SOL    HW2 7791   4.318   6.463   6.611
 2298SOL     OW 7792   4.360   2.921   6.793
 2298SOL    HW1 7793   4.376   2.874   6.706
 2298SOL    HW2 7794   4.448   2.943   6.835
 2299SOL     OW 7795   4.608   0.076   0.108
 2299SOL    HW1 7796   4.689   0.081   0.166
 2299SOL    HW2 7797   4.632   0.104   0.015
 2300SOL     OW 7798   1.261   4.511   1.013
 2300SOL    HW1 7799   1.286   4.444   0.943
 2300SOL    HW2 7800   1.344   4.545   1.058
 2301SOL     OW 7801   4.093   3.564   1.829
 2301SOL    HW1 7802   4.074   3.658   1.802
 2301SOL    HW2 7803   4.014   3.507   1.808
 2302SOL     OW 7804   2.253   5.029   2.741
 2302SOL    HW1 7805   2.326   5.004   2.677
 2302SOL    HW2 7806   2.289   5.091   2.811
 2303SOL     OW 7807   7.000   3.130   5.000
 2303SOL    HW1 7808   0.006   3.051   4.945
 2303SOL    HW2 7809   6.933   3.185   4.951
 2304SOL     OW 7810   2.498   1.118   4.475
 2304SOL    HW1 7811   2.446   1.074   4.401
 2304SOL    HW2 7812   2.581   1.066   4.493
 2305SOL     OW 7813   4.096   4.742   1.886
 2305SOL    HW1 7814   4.146   4.796   1.819
 2305SOL    HW2 7815   4.010   4.710   1.846
 2306SOL     OW 7816   0.092   4.089   0.469
 2306SOL    HW1 7817   0.145   4.148   0.408
 2306SOL    HW2 7818   0.113   3.993   0.450
 2307SOL     OW 7819   0.149   1.896   2.672
 2307SOL    HW1 7820   0.177   1.898   2.768
 2307SOL    HW2 7821   0.185   1.813   2.628
 2308SOL     OW 7822   0.030   6.944   0.232
 2308SOL    HW1 7823   0.058   0.021   0.236
 2308SOL    HW2 7824   0.091   6.894   0.169
 2309SOL     OW 7825   3.654   5.007   5.815
 2309SOL    HW1 7826   3.751   5.026   5.828
 2309SOL    HW2 7827   3.602   5.047   5.891
 2310SOL     OW 7828   5.543   1.371   2.637
 2310SOL    HW1 7829   5.575   1.329   2.722
 2310SOL    HW2 7830   5.583   1.462   2.629
 2311SOL     OW 7831   2.329   0.207   2.529
 2311SOL    HW1 7832   2.418   0.228   2.489
 2311SOL    HW2 7833   2.333   0.120   2.578
 2312SOL     OW 7834   2.606   1.064   2.554
 2312SOL    HW1 7835   2.584   0.990   2.490
 2312SOL    HW2 7836   2.523   1.095   2.600
 2313SOL     OW 7837   5.367   3.530   1.855
 2313SOL    HW1 7838   5.290   3.513   1.793
 2313SOL    HW2 7839   5.389   3.446   1.904
 2314SOL     OW 7840   6.825   6.601   3.117
 2314SOL    HW1 7841   6.867   6.517   3.082
 2314SOL    HW2 7842   6.730   6.583   3.141
 2315SOL     OW 7843   4.480   5.846   4.643
 2315SOL    HW1 7844   4.544   5.922   4.640
 2315SOL    HW2 7845   4.477   5.809   4.736
 2316SOL     OW 7846   2.871   1.747   5.887
 2316SOL    HW1 7847   2.967   1.720   5.898
 2316SOL    HW2 7848   2.867   1.840   5.851
 2317SOL     OW 7849   0.000   5.348   2.893
 2317SOL    HW1 7850   0.035   5.437   2.865
 2317SOL    HW2 7851   6.928   5.358   2.934
 2318SOL     OW 7852   0.997   4.623   5.573
 2318SOL    HW1 7853   1.067   4.553   5.562
 2318SOL    HW2 7854   1.031   4.711   5.542
 2319SOL     OW 7855   1.795   4.891   3.621
 2319SOL    HW1 7856   1.832   4.808   3.580
 2319SOL    HW2 7857   1.870   4.952   3.647
 2320SOL     OW 7858   0.964   1.927   5.082
 2320SOL    HW1 7859   0.990   1.933   5.178
 2320SOL    HW2 7860   1.047   1.923   5.025
 2321SOL     OW 7861   2.076   4.466   5.408
 2321SOL    HW1 7862   2.141   4.506   5.342
 2321SOL    HW2 7863   2.004   4.417   5.358
 2322SOL     OW 7864   1.560   3.975   1.812
 2322SOL    HW1 7865   1.527   3.923   1.733
 2322SOL    HW2 7866   1.484   4.026   1.852
 2323SOL     OW 7867   2.459   5.439   0.710
 2323SOL    HW1 7868   2.400   5.389   0.774
 2323SOL    HW2 7869   2.547   5.458   0.754
 2324SOL     OW 7870   6.499   5.270   2.805
 2324SOL    HW1 7871   6.515   5.191   2.864
 2324SOL    HW2 7872   6.554   5.261   2.722
 2325SOL     OW 7873   6.478   5.698   1.771
 2325SOL    HW1 7874   6.436   5.690   1.681
 2325SOL    HW2 7875   6.410   5.730   1.837
 2326SOL     OW 7876   2.008   0.538   0.221
 2326SOL    HW1 7877   1.930   0.523   0.281
 2326SOL    HW2 7878   2.090   0.555   0.276
 2327SOL     OW 7879   0.214   6.949   2.655
 2327SOL    HW1 7880   0.114   6.941   2.646
 2327SOL    HW2 7881   0.252   6.859   2.676
 2328SOL     OW 7882   1.950   3.493   2.804
 2328SOL    HW1 7883   1.931   3.591   2.802
 2328SOL    HW2 7884   1.876   3.442   2.760
 2329SOL     OW 7885   0.497   5.389   2.875
 2329SOL    HW1 7886   0.519   5.312   2.815
 2329SOL    HW2 7887   0.575   5.408   2.935
 2330SOL     OW 7888   6.440   3.238   0.904
 2330SOL    HW1 7889   6.350   3.205   0.933
 2330SOL    HW2 7890   6.469   3.190   0.821
 2331SOL     OW 7891   4.743   5.919   1.257
 2331SOL    HW1 7892   4.674   5.864   1.209
 2331SOL    HW2 7893   4.738   5.901   1.355
 2332SOL     OW 7894   6.015   6.795   5.914
 2332SOL    HW1 7895   5.951   6.871   5.923
 2332SOL    HW2 7896   6.095   6.812   5.972
 2333SOL     OW 7897   0.434   4.594   2.396
 2333SOL    HW1 7898   0.335   4.582   2.405
 2333SOL    HW2 7899   0.480   4.547   2.472
 2334SOL     OW 7900   2.746   1.811   6.283
 2334SOL    HW1 7901   2.732   1.910   6.285
 2334SOL    HW2 7902   2.834   1.791   6.240
 2335SOL     OW 7903   6.569   1.136   3.206
 2335SOL    HW1 7904   6.658   1.096   3.184
 2335SOL    HW2 7905   6.576   1.187   3.292
 2336SOL     OW 7906   1.757   1.493   2.865
 2336SOL    HW1 7907   1.705   1.432   2.925
 2336SOL    HW2 7908   1.845   1.515   2.907
 2337SOL     OW 7909   4.513   1.763   1.671
 2337SOL    HW1 7910   4.523   1.819   1.754
 2337SOL    HW2 7911   4.443   1.694   1.686
 2338SOL     OW 7912   0.303   3.715   3.435
 2338SOL    HW1 7913   0.366   3.649   3.478
 2338SOL    HW2 7914   0.214   3.671   3.421
 2339SOL     OW 7915   3.446   2.871   2.584
 2339SOL    HW1 7916   3.434   2.781   2.626
 2339SOL    HW2 7917   3.482   2.935   2.652
 2340SOL     OW 7918   2.252   4.709   6.555
 2340SOL    HW1 7919   2.176   4.692   6.618
 2340SOL    HW2 7920   2.338   4.685   6.600
 2341SOL     OW 7921   2.275   4.148   3.808
 2341SOL    HW1 7922   2.242   4.104   3.724
 2341SOL    HW2 7923   2.372   4.170   3.797
 2342SOL     OW 7924   3.207   0.615   3.807
 2342SOL    HW1 7925   3.257   0.692   3.845
 2342SOL    HW2 7926   3.163   0.563   3.880
 2343SOL     OW 7927   1.053   0.345   1.705
 2343SOL    HW1 7928   1.044   0.258   1.658
 2343SOL    HW2 7929   1.089   0.330   1.797
 2344SOL     OW 7930   5.290   3.771   0.485
 2344SOL    HW1 7931   5.355   3.837   0.522
 2344SOL    HW2 7932   5.220   3.820   0.433
 2345SOL     OW 7933   2.933   5.809   4.757
 2345SOL    HW1 7934   2.910   5.713   4.773
 2345SOL    HW2 7935   3.022   5.814   4.711
 2346SOL     OW 7936   4.042   3.699   6.681
 2346SOL    HW1 7937   4.012   3.607   6.656
 2346SOL    HW2 7938   3.969   3.764   6.660
 2347SOL     OW 7939   1.291   1.842   1.501
 2347SOL    HW1 7940   1.357   1.767   1.497
 2347SOL    HW2 7941   1.209   1.811   1.549
 2348SOL     OW 7942   0.156   5.057   2.583
 2348SOL    HW1 7943   0.219   4.985   2.609
 2348SOL    HW2 7944   0.095   5.024   2.511
 2349SOL     OW 7945   0.399   4.430   5.293
 2349SOL    HW1 7946   0.398   4.502   5.363
 2349SOL    HW2 7947   0.474   4.366   5.313
 2350SOL     OW 7948   6.037   3.545   6.854
 2350SOL    HW1 7949   6.104   3.521   6.784
 2350SOL    HW2 7950   6.048   3.486   6.933
 2351SOL     OW 7951   2.801   5.213   2.514
 2351SOL    HW1 7952   2.739   5.169   2.449
 2351SOL    HW2 7953   2.890   5.166   2.511
 2352SOL     OW 7954   0.426   2.672   3.754
 2352SOL    HW1 7955   0.335   2.676   3.712
 2352SOL    HW2 7956   0.495   2.663   3.683
 2353SOL     OW 7957   3.396   5.250   4.732
 2353SOL    HW1 7958   3.494   5.272   4.739
 2353SOL    HW2 7959   3.366   5.265   4.638
 2354SOL     OW 7960   1.972   2.892   3.506
 2354SOL    HW1 7961   1.995   2.798   3.532
 2354SOL    HW2 7962   2.022   2.956   3.564
 2355SOL     OW 7963   2.125   6.138   4.969
 2355SOL    HW1 7964   2.037   6.179   4.990
 2355SOL    HW2 7965   2.154   6.081   5.046
 2356SOL     OW 7966   6.279   2.767   0.019
 2356SOL    HW1 7967   6.250   2.838   6.974
 2356SOL    HW2 7968   6.222   2.771   0.101
 2357SOL     OW 7969   2.567   6.456   2.465
 2357SOL    HW1 7970   2.647   6.515   2.471
 2357SOL    HW2 7971   2.485   6.509   2.485
 2358SOL     OW 7972   3.916   5.037   6.522
 2358SOL    HW1 7973   3.913   5.068   6.426
 2358SOL    HW2 7974   3.828   5.056   6.566
 2359SOL     OW 7975   1.816   0.180   4.672
 2359SOL    HW1 7976   1.813   0.081   4.653
 2359SOL    HW2 7977   1.780   0.230   4.593
 2360SOL     OW 7978   6.748   3.375   6.918
 2360SOL    HW1 7979   6.676   3.444   6.930
 2360SOL    HW2 7980   6.837   3.414   6.941
 2361SOL     OW 7981   3.599   1.058   6.644
 2361SOL    HW1 7982   3.553   1.041   6.732
 2361SOL    HW2 7983   3.574   0.987   6.579
 2362SOL     OW 7984   3.181   5.437   3.350
 2362SOL    HW1 7985   3.124   5.380   3.409
 2362SOL    HW2 7986   3.127   5.514   3.315
 2363SOL     OW 7987   3.855   0.418   4.256
 2363SOL    HW1 7988   3.918   0.491   4.228
 2363SOL    HW2 7989   3.762   0.454   4.258
 2364SOL     OW 7990   0.754   2.391   0.930
 2364SOL    HW1 7991   0.662   2.425   0.914
 2364SOL    HW2 7992   0.820   2.465   0.921
 2365SOL     OW 7993   5.303   2.192   6.458
 2365SOL    HW1 7994   5.281   2.125   6.529
 2365SOL    HW2 7995   5.224   2.202   6.397
 2366SOL     OW 7996   4.044   5.391   0.877
 2366SOL    HW1 7997   3.959   5.352   0.842
 2366SOL    HW2 7998   4.114   5.385   0.806
 2367SOL     OW 7999   2.390   3.273   6.079
 2367SOL    HW1 8000   2.468   3.327   6.049
 2367SOL    HW2 8001   2.339   3.240   5.999
 2368SOL     OW 8002   6.168   5.966   2.247
 2368SOL    HW1 8003   6.212   5.878   2.265
 2368SOL    HW2 8004   6.069   5.954   2.251
 2369SOL     OW 8005   2.501   0.964   3.228
 2369SOL    HW1 8006   2.498   1.041   3.291
 2369SOL    HW2 8007   2.549   0.990   3.145
 2370SOL     OW 8008   6.289   2.035   6.628
 2370SOL    HW1 8009   6.360   1.965   6.617
 2370SOL    HW2 8010   6.199   1.993   6.611
 2371SOL     OW 8011   2.659   6.465   1.656
 2371SOL    HW1 8012   2.683   6.555   1.692
 2371SOL    HW2 8013   2.609   6.476   1.570
 2372SOL     OW 8014   6.552   2.939   2.782
 2372SOL    HW1 8015   6.507   2.900   2.862
 2372SOL    HW2 8016   6.515   3.030   2.764
 2373SOL     OW 8017   2.433   3.445   6.545
 2373SOL    HW1 8018   2.479   3.483   6.465
 2373SOL    HW2 8019   2.338   3.474   6.546
 2374SOL     OW 8020   5.879   3.341   4.690
 2374SOL    HW1 8021   5.839   3.259   4.732
 2374SOL    HW2 8022   5.974   3.321   4.664
 2375SOL     OW 8023   2.789   6.581   5.169
 2375SOL    HW1 8024   2.856   6.612   5.101
 2375SOL    HW2 8025   2.749   6.494   5.139
 2376SOL     OW 8026   6.450   3.451   4.634
 2376SOL    HW1 8027   6.514   3.511   4.684
 2376SOL    HW2 8028   6.499   3.370   4.602
 2377SOL     OW 8029   4.088   3.201   3.939
 2377SOL    HW1 8030   4.001   3.248   3.945
 2377SOL    HW2 8031   4.094   3.152   3.852
 2378SOL     OW 8032   5.369   2.623   6.885
 2378SOL    HW1 8033   5.318   2.538   6.870
 2378SOL    HW2 8034   5.465   2.601   6.904
 2379SOL     OW 8035   6.866   6.535   0.021
 2379SOL    HW1 8036   6.803   6.458   0.025
 2379SOL    HW2 8037   6.815   6.620   0.010
 2380SOL     OW 8038   6.164   1.837   2.256
 2380SOL    HW1 8039   6.100   1.769   2.289
 2380SOL    HW2 8040   6.146   1.925   2.300
 2381SOL     OW 8041   1.628   6.709   3.243
 2381SOL    HW1 8042   1.693   6.636   3.224
 2381SOL    HW2 8043   1.652   6.756   3.328
 2382SOL     OW 8044   1.195   3.508   5.340
 2382SOL    HW1 8045   1.289   3.474   5.328
 2382SOL    HW2 8046   1.191   3.605   5.320
 2383SOL     OW 8047   6.172   6.281   1.510
 2383SOL    HW1 8048   6.098   6.214   1.506
 2383SOL    HW2 8049   6.258   6.235   1.533
 2384SOL     OW 8050   4.556   1.935   1.895
 2384SOL    HW1 8051   4.465   1.970   1.918
 2384SOL    HW2 8052   4.590   1.879   1.970
 2385SOL     OW 8053   0.635   2.164   6.754
 2385SOL    HW1 8054   0.612   2.072   6.721
 2385SOL    HW2 8055   0.653   2.224   6.676
 2386SOL     OW 8056   4.515   5.245   4.135
 2386SOL    HW1 8057   4.552   5.337   4.119
 2386SOL    HW2 8058   4.499   5.200   4.047
 2387SOL     OW 8059   1.977   1.159   3.215
 2387SOL    HW1 8060   2.015   1.246   3.182
 2387SOL    HW2 8061   1.878   1.161   3.205
 2388SOL     OW 8062   6.498   1.364   4.082
 2388SOL    HW1 8063   6.597   1.353   4.085
 2388SOL    HW2 8064   6.456   1.314   4.158
 2389SOL     OW 8065   4.143   5.943   2.469
 2389SOL    HW1 8066   4.235   5.941   2.507
 2389SOL    HW2 8067   4.076   5.940   2.544
 2390SOL     OW 8068   3.091   4.429   1.374
 2390SOL    HW1 8069   3.159   4.422   1.448
 2390SOL    HW2 8070   3.030   4.506   1.392
 2391SOL     OW 8071   3.915   4.945   5.457
 2391SOL    HW1 8072   3.987   4.878   5.475
 2391SOL    HW2 8073   3.848   4.906   5.394
 2392SOL     OW 8074   4.245   1.098   6.755
 2392SOL    HW1 8075   4.212   1.190   6.732
 2392SOL    HW2 8076   4.314   1.070   6.688
 2393SOL     OW 8077   3.804   5.248   5.597
 2393SOL    HW1 8078   3.830   5.217   5.689
 2393SOL    HW2 8079   3.734   5.187   5.560
 2394SOL     OW 8080   0.031   4.882   5.681
 2394SOL    HW1 8081   0.104   4.816   5.695
 2394SOL    HW2 8082   0.026   4.944   5.759
 2395SOL     OW 8083   4.371   0.188   6.122
 2395SOL    HW1 8084   4.277   0.222   6.124
 2395SOL    HW2 8085   4.416   0.219   6.038
 2396SOL     OW 8086   3.842   4.466   0.795
 2396SOL    HW1 8087   3.911   4.527   0.836
 2396SOL    HW2 8088   3.765   4.457   0.857
 2397SOL     OW 8089   0.124   3.841   3.722
 2397SOL    HW1 8090   0.172   3.928   3.710
 2397SOL    HW2 8091   0.044   3.840   3.662
 2398SOL     OW 8092   4.426   4.281   5.729
 2398SOL    HW1 8093   4.516   4.323   5.720
 2398SOL    HW2 8094   4.402   4.271   5.825
 2399SOL     OW 8095   4.150   2.080   1.727
 2399SOL    HW1 8096   4.097   2.163   1.715
 2399SOL    HW2 8097   4.158   2.059   1.824
 2400SOL     OW 8098   2.200   5.090   1.434
 2400SOL    HW1 8099   2.274   5.132   1.382
 2400SOL    HW2 8100   2.210   5.113   1.531
 2401SOL     OW 8101   0.079   6.290   6.347
 2401SOL    HW1 8102   0.103   6.198   6.315
 2401SOL    HW2 8103   0.047   6.344   6.269
 2402SOL     OW 8104   6.713   6.304   4.137
 2402SOL    HW1 8105   6.656   6.237   4.092
 2402SOL    HW2 8106   6.807   6.296   4.104
 2403SOL     OW 8107   0.314   1.216   5.114
 2403SOL    HW1 8108   0.258   1.283   5.065
 2403SOL    HW2 8109   0.263   1.130   5.121
 2404SOL     OW 8110   1.305   0.568   0.402
 2404SOL    HW1 8111   1.242   0.576   0.325
 2404SOL    HW2 8112   1.304   0.653   0.455
 2405SOL     OW 8113   2.981   4.172   1.509
 2405SOL    HW1 8114   2.882   4.159   1.497
 2405SOL    HW2 8115   3.009   4.257   1.463
 2406SOL     OW 8116   4.620   0.901   1.249
 2406SOL    HW1 8117   4.559   0.822   1.253
 2406SOL    HW2 8118   4.679   0.894   1.169
 2407SOL     OW 8119   4.855   0.712   4.057
 2407SOL    HW1 8120   4.839   0.630   4.002
 2407SOL    HW2 8121   4.947   0.709   4.096
 2408SOL     OW 8122   4.508   4.471   2.164
 2408SOL    HW1 8123   4.594   4.521   2.151
 2408SOL    HW2 8124   4.513   4.384   2.115
 2409SOL     OW 8125   1.159   4.146   0.364
 2409SOL    HW1 8126   1.230   4.153   0.295
 2409SOL    HW2 8127   1.166   4.223   0.428
 2410SOL     OW 8128   3.239   2.976   2.424
 2410SOL    HW1 8129   3.337   2.971   2.445
 2410SOL    HW2 8130   3.224   2.943   2.331
 2411SOL     OW 8131   4.181   6.761   4.174
 2411SOL    HW1 8132   4.209   6.669   4.203
 2411SOL    HW2 8133   4.242   6.792   4.101
 2412SOL     OW 8134   4.031   3.678   0.881
 2412SOL    HW1 8135   4.050   3.630   0.796
 2412SOL    HW2 8136   4.032   3.612   0.957
 2413SOL     OW 8137   4.588   6.899   2.821
 2413SOL    HW1 8138   4.548   6.990   2.808
 2413SOL    HW2 8139   4.666   6.905   2.883
 2414SOL     OW 8140   5.745   3.481   4.097
 2414SOL    HW1 8141   5.821   3.526   4.143
 2414SOL    HW2 8142   5.680   3.447   4.165
 2415SOL     OW 8143   4.509   1.395   3.246
 2415SOL    HW1 8144   4.523   1.359   3.339
 2415SOL    HW2 8145   4.589   1.375   3.190
 2416SOL     OW 8146   5.651   1.824   6.558
 2416SOL    HW1 8147   5.645   1.810   6.460
 2416SOL    HW2 8148   5.676   1.738   6.603
 2417SOL     OW 8149   3.537   3.976   4.752
 2417SOL    HW1 8150   3.456   3.940   4.705
 2417SOL    HW2 8151   3.508   4.035   4.827
 2418SOL     OW 8152   3.269   3.049   2.779
 2418SOL    HW1 8153   3.352   3.102   2.793
 2418SOL    HW2 8154   3.266   3.018   2.684
 2419SOL     OW 8155   0.207   0.384   2.970
 2419SOL    HW1 8156   0.275   0.317   2.938
 2419SOL    HW2 8157   0.131   0.336   3.014
 2420SOL     OW 8158   2.150   7.018   1.906
 2420SOL    HW1 8159   2.142   6.920   1.892
 2420SOL    HW2 8160   2.224   0.018   1.972
 2421SOL     OW 8161   3.667   1.692   3.714
 2421SOL    HW1 8162   3.652   1.651   3.624
 2421SOL    HW2 8163   3.764   1.685   3.738
 2422SOL     OW 8164   4.662   1.543   0.801
 2422SOL    HW1 8165   4.706   1.553   0.890
 2422SOL    HW2 8166   4.564   1.560   0.810
 2423SOL     OW 8167   1.861   5.001   2.340
 2423SOL    HW1 8168   1.817   4.916   2.369
 2423SOL    HW2 8169   1.800   5.078   2.360
 2424SOL     OW 8170   6.175   0.038   0.564
 2424SOL    HW1 8171   6.106   0.110   0.562
 2424SOL    HW2 8172   6.132   6.968   0.551
 2425SOL     OW 8173   6.970   6.737   4.493
 2425SOL    HW1 8174   0.031   6.790   4.519
 2425SOL    HW2 8175   6.995   6.672   4.421
 2426SOL     OW 8176   2.580   4.558   4.365
 2426SOL    HW1 8177   2.648   4.553   4.438
 2426SOL    HW2 8178   2.491   4.529   4.400
 2427SOL     OW 8179   6.185   0.099   5.744
 2427SOL    HW1 8180   6.155   0.121   5.837
 2427SOL    HW2 8181   6.108   0.103   5.681
 2428SOL     OW 8182   6.125   0.883   0.524
 2428SOL    HW1 8183   6.198   0.841   0.471
 2428SOL    HW2 8184   6.049   0.907   0.464
 2429SOL     OW 8185   5.152   5.094   2.235
 2429SOL    HW1 8186   5.078   5.064   2.175
 2429SOL    HW2 8187   5.236   5.105   2.182
 2430SOL     OW 8188   5.271   0.081   2.677
 2430SOL    HW1 8189   5.278   0.056   2.581
 2430SOL    HW2 8190   5.210   0.159   2.687
 2431SOL     OW 8191   4.407   0.122   2.154
 2431SOL    HW1 8192   4.415   0.167   2.243
 2431SOL    HW2 8193   4.327   0.160   2.106
 2432SOL     OW 8194   2.194   5.936   2.622
 2432SOL    HW1 8195   2.229   5.891   2.540
 2432SOL    HW2 8196   2.230   5.890   2.703
 2433SOL     OW 8197   4.780   0.396   1.050
 2433SOL    HW1 8198   4.825   0.481   1.079
 2433SOL    HW2 8199   4.830   0.318   1.087
 2434SOL     OW 8200   3.568   2.916   4.774
 2434SOL    HW1 8201   3.597   2.985   4.708
 2434SOL    HW2 8202   3.638   2.845   4.780
 2435SOL     OW 8203   6.389   5.797   5.791
 2435SOL    HW1 8204   6.342   5.884   5.779
 2435SOL    HW2 8205   6.487   5.812   5.803
 2436SOL     OW 8206   2.825   5.182   0.866
 2436SOL    HW1 8207   2.856   5.131   0.785
 2436SOL    HW2 8208   2.729   5.159   0.884
 2437SOL     OW 8209   6.605   0.529   5.803
 2437SOL    HW1 8210   6.672   0.600   5.827
 2437SOL    HW2 8211   6.558   0.554   5.719
 2438SOL     OW 8212   2.873   3.332   0.808
 2438SOL    HW1 8213   2.854   3.249   0.860
 2438SOL    HW2 8214   2.963   3.368   0.834
 2439SOL     OW 8215   5.734   4.519   5.800
 2439SOL    HW1 8216   5.708   4.589   5.734
 2439SOL    HW2 8217   5.816   4.547   5.849
 2440SOL     OW 8218   5.677   4.957   5.599
 2440SOL    HW1 8219   5.761   4.950   5.547
 2440SOL    HW2 8220   5.650   5.053   5.608
 2441SOL     OW 8221   6.121   2.298   1.000
 2441SOL    HW1 8222   6.134   2.265   0.906
 2441SOL    HW2 8223   6.210   2.310   1.044
 2442SOL     OW 8224   0.326   2.118   5.353
 2442SOL    HW1 8225   0.323   2.050   5.280
 2442SOL    HW2 8226   0.269   2.197   5.328
 2443SOL     OW 8227   2.761   4.798   5.258
 2443SOL    HW1 8228   2.796   4.730   5.193
 2443SOL    HW2 8229   2.835   4.828   5.318
 2444SOL     OW 8230   3.327   2.745   5.836
 2444SOL    HW1 8231   3.362   2.732   5.929
 2444SOL    HW2 8232   3.272   2.665   5.810
 2445SOL     OW 8233   0.906   0.304   0.649
 2445SOL    HW1 8234   0.832   0.308   0.582
 2445SOL    HW2 8235   0.898   0.381   0.712
 2446SOL     OW 8236   5.032   2.934   6.007
 2446SOL    HW1 8237   5.076   2.881   6.080
 2446SOL    HW2 8238   5.096   3.005   5.976
 2447SOL     OW 8239   0.693   3.134   6.550
 2447SOL    HW1 8240   0.631   3.159   6.475
 2447SOL    HW2 8241   0.731   3.217   6.590
 2448SOL     OW 8242   0.239   6.917   4.265
 2448SOL    HW1 8243   0.216   6.880   4.355
 2448SOL    HW2 8244   0.322   6.973   4.272
 2449SOL     OW 8245   0.696   3.212   4.991
 2449SOL    HW1 8246   0.753   3.145   5.038
 2449SOL    HW2 8247   0.745   3.299   4.985
 2450SOL     OW 8248   1.958   2.966   1.442
 2450SOL    HW1 8249   1.992   3.058   1.465
 2450SOL    HW2 8250   1.874   2.974   1.388
 2451SOL     OW 8251   2.045   6.224   4.399
 2451SOL    HW1 8252   2.144   6.218   4.404
 2451SOL    HW2 8253   2.018   6.263   4.312
 2452SOL     OW 8254   2.809   2.334   4.677
 2452SOL    HW1 8255   2.860   2.369   4.599
 2452SOL    HW2 8256   2.857   2.257   4.718
 2453SOL     OW 8257   0.872   3.723   0.939
 2453SOL    HW1 8258   0.808   3.781   0.889
 2453SOL    HW2 8259   0.843   3.627   0.933
 2454SOL     OW 8260   1.934   0.111   1.776
 2454SOL    HW1 8261   1.999   0.054   1.826
 2454SOL    HW2 8262   1.973   0.138   1.688
 2455SOL     OW 8263   5.453   3.662   1.159
 2455SOL    HW1 8264   5.444   3.761   1.153
 2455SOL    HW2 8265   5.467   3.624   1.067
 2456SOL     OW 8266   3.037   6.623   1.068
 2456SOL    HW1 8267   2.959   6.564   1.044
 2456SOL    HW2 8268   3.122   6.571   1.061
 2457SOL     OW 8269   5.589   6.093   1.377
 2457SOL    HW1 8270   5.618   6.061   1.286
 2457SOL    HW2 8271   5.490   6.083   1.386
 2458SOL     OW 8272   0.311   6.427   2.109
 2458SOL    HW1 8273   0.376   6.485   2.157
 2458SOL    HW2 8274   0.330   6.331   2.130
 2459SOL     OW 8275   1.286   1.366   0.248
 2459SOL    HW1 8276   1.378   1.374   0.209
 2459SOL    HW2 8277   1.235   1.450   0.231
 2460SOL     OW 8278   2.968   4.688   1.460
 2460SOL    HW1 8279   2.959   4.635   1.544
 2460SOL    HW2 8280   2.980   4.785   1.483
 2461SOL     OW 8281   4.725   1.034   2.492
 2461SOL    HW1 8282   4.815   0.992   2.502
 2461SOL    HW2 8283   4.736   1.128   2.460
 2462SOL     OW 8284   2.790   3.960   6.209
 2462SOL    HW1 8285   2.709   4.007   6.173
 2462SOL    HW2 8286   2.865   4.025   6.218
 2463SOL     OW 8287   0.797   2.706   5.154
 2463SOL    HW1 8288   0.823   2.610   5.141
 2463SOL    HW2 8289   0.870   2.754   5.203
 2464SOL     OW 8290   1.125   3.340   0.617
 2464SOL    HW1 8291   1.049   3.405   0.620
 2464SOL    HW2 8292   1.118   3.285   0.534
 2465SOL     OW 8293   6.146   5.061   2.347
 2465SOL    HW1 8294   6.154   5.014   2.259
 2465SOL    HW2 8295   6.217   5.131   2.354
 2466SOL     OW 8296   3.668   1.315   1.700
 2466SOL    HW1 8297   3.736   1.381   1.667
 2466SOL    HW2 8298   3.578   1.341   1.667
 2467SOL     OW 8299   0.859   1.090   4.577
 2467SOL    HW1 8300   0.786   1.079   4.645
 2467SOL    HW2 8301   0.828   1.151   4.504
 2468SOL     OW 8302   6.079   4.577   6.803
 2468SOL    HW1 8303   6.008   4.560   6.735
 2468SOL    HW2 8304   6.101   4.675   6.804
 2469SOL     OW 8305   2.928   2.453   5.601
 2469SOL    HW1 8306   2.962   2.359   5.601
 2469SOL    HW2 8307   2.916   2.484   5.506
 2470SOL     OW 8308   5.586   2.829   0.819
 2470SOL    HW1 8309   5.575   2.772   0.900
 2470SOL    HW2 8310   5.663   2.892   0.832
 2471SOL     OW 8311   0.346   1.224   2.643
 2471SOL    HW1 8312   0.286   1.145   2.626
 2471SOL    HW2 8313   0.407   1.236   2.564
 2472SOL     OW 8314   5.990   1.216   3.785
 2472SOL    HW1 8315   5.991   1.264   3.697
 2472SOL    HW2 8316   5.993   1.117   3.769
 2473SOL     OW 8317   0.550   6.185   5.603
 2473SOL    HW1 8318   0.507   6.101   5.570
 2473SOL    HW2 8319   0.529   6.260   5.540
 2474SOL     OW 8320   6.335   6.492   4.306
 2474SOL    HW1 8321   6.311   6.574   4.359
 2474SOL    HW2 8322   6.430   6.499   4.275
 2475SOL     OW 8323   4.308   1.997   6.278
 2475SOL    HW1 8324   4.312   2.081   6.225
 2475SOL    HW2 8325   4.328   2.017   6.374
 2476SOL     OW 8326   0.578   1.232   3.282
 2476SOL    HW1 8327   0.559   1.176   3.363
 2476SOL    HW2 8328   0.676   1.228   3.261
 2477SOL     OW 8329   4.555   4.769   2.360
 2477SOL    HW1 8330   4.588   4.807   2.274
 2477SOL    HW2 8331   4.621   4.787   2.433
 2478SOL     OW 8332   0.189   0.037   2.173
 2478SOL    HW1 8333   0.249   0.110   2.141
 2478SOL    HW2 8334   0.235   6.967   2.162
 2479SOL     OW 8335   0.796   2.804   6.966
 2479SOL    HW1 8336   0.716   2.762   6.922
 2479SOL    HW2 8337   0.879   2.767   6.925
 2480SOL     OW 8338   6.287   5.342   1.776
 2480SOL    HW1 8339   6.347   5.393   1.714
 2480SOL    HW2 8340   6.341   5.306   1.852
 2481SOL     OW 8341   3.938   5.041   2.456
 2481SOL    HW1 8342   3.930   5.131   2.413
 2481SOL    HW2 8343   3.848   4.998   2.462
 2482SOL     OW 8344   4.399   2.333   4.931
 2482SOL    HW1 8345   4.322   2.377   4.979
 2482SOL    HW2 8346   4.367   2.297   4.843
 2483SOL     OW 8347   0.769   3.095   6.954
 2483SOL    HW1 8348   0.671   3.111   6.948
 2483SOL    HW2 8349   0.786   2.996   6.954
 2484SOL     OW 8350   3.604   4.139   5.739
 2484SOL    HW1 8351   3.593   4.071   5.666
 2484SOL    HW2 8352   3.532   4.127   5.807
 2485SOL     OW 8353   0.890   6.234   7.018
 2485SOL    HW1 8354   0.949   6.300   0.046
 2485SOL    HW2 8355   0.870   6.267   6.926
 2486SOL     OW 8356   0.500   5.591   3.962
 2486SOL    HW1 8357   0.435   5.519   3.937
 2486SOL    HW2 8358   0.566   5.555   4.028
 2487SOL     OW 8359   3.299   1.575   1.472
 2487SOL    HW1 8360   3.332   1.502   1.413
 2487SOL    HW2 8361   3.232   1.631   1.423
 2488SOL     OW 8362   3.409   5.997   6.508
 2488SOL    HW1 8363   3.427   6.089   6.473
 2488SOL    HW2 8364   3.406   5.999   6.608
 2489SOL     OW 8365   0.049   5.894   4.503
 2489SOL    HW1 8366   0.060   5.821   4.436
 2489SOL    HW2 8367   0.000   5.971   4.462
 2490SOL     OW 8368   5.746   3.214   1.097
 2490SOL    HW1 8369   5.744   3.220   0.997
 2490SOL    HW2 8370   5.667   3.261   1.135
 2491SOL     OW 8371   6.989   4.310   3.358
 2491SOL    HW1 8372   6.995   4.322   3.259
 2491SOL    HW2 8373   6.955   4.218   3.378
 2492SOL     OW 8374   4.247   1.560   6.086
 2492SOL    HW1 8375   4.166   1.605   6.123
 2492SOL    HW2 8376   4.294   1.511   6.160
 2493SOL     OW 8377   6.570   0.508   4.916
 2493SOL    HW1 8378   6.545   0.414   4.893
 2493SOL    HW2 8379   6.522   0.537   4.998
 2494SOL     OW 8380   4.745   5.044   1.044
 2494SOL    HW1 8381   4.693   5.107   0.986
 2494SOL    HW2 8382   4.781   4.970   0.989
 2495SOL     OW 8383   6.911   0.991   2.465
 2495SOL    HW1 8384   6.889   0.904   2.421
 2495SOL    HW2 8385   7.000   0.984   2.510
 2496SOL     OW 8386   2.046   5.139   0.929
 2496SOL    HW1 8387   1.968   5.154   0.989
 2496SOL    HW2 8388   2.027   5.063   0.867
 2497SOL     OW 8389   5.361   0.630   6.484
 2497SOL    HW1 8390   5.410   0.648   6.399
 2497SOL    HW2 8391   5.299   0.707   6.503
 2498SOL     OW 8392   0.848   3.449   4.629
 2498SOL    HW1 8393   0.798   3.363   4.630
 2498SOL    HW2 8394   0.945   3.431   4.644
 2499SOL     OW 8395   5.574   1.473   0.286
 2499SOL    HW1 8396   5.509   1.398   0.281
 2499SOL    HW2 8397   5.623   1.470   0.373
 2500SOL     OW 8398   4.552   3.628   6.238
 2500SOL    HW1 8399   4.633   3.572   6.218
 2500SOL    HW2 8400   4.573   3.724   6.221
 2501SOL     OW 8401   6.816   4.948   0.668
 2501SOL    HW1 8402   6.842   4.959   0.764
 2501SOL    HW2 8403   6.811   4.850   0.646
 2502SOL     OW 8404   0.624   0.578   3.853
 2502SOL    HW1 8405   0.638   0.485   3.887
 2502SOL    HW2 8406   0.554   0.577   3.783
 2503SOL     OW 8407   5.649   6.281   4.444
 2503SOL    HW1 8408   5.733   6.290   4.499
 2503SOL    HW2 8409   5.573   6.255   4.504
 2504SOL     OW 8410   2.352   4.423   3.123
 2504SOL    HW1 8411   2.336   4.399   3.027
 2504SOL    HW2 8412   2.437   4.474   3.130
 2505SOL     OW 8413   4.922   4.188   4.918
 2505SOL    HW1 8414   4.924   4.229   4.827
 2505SOL    HW2 8415   4.917   4.089   4.909
 2506SOL     OW 8416   0.572   0.782   0.452
 2506SOL    HW1 8417   0.602   0.699   0.500
 2506SOL    HW2 8418   0.648   0.846   0.447
 2507SOL     OW 8419   6.467   6.112   6.728
 2507SOL    HW1 8420   6.549   6.057   6.711
 2507SOL    HW2 8421   6.474   6.155   6.818
 2508SOL     OW 8422   1.569   1.975   2.061
 2508SOL    HW1 8423   1.579   1.878   2.042
 2508SOL    HW2 8424   1.657   2.021   2.048
 2509SOL     OW 8425   6.119   0.736   3.775
 2509SOL    HW1 8426   6.082   0.829   3.768
 2509SOL    HW2 8427   6.185   0.732   3.850
 2510SOL     OW 8428   3.971   6.121   2.361
 2510SOL    HW1 8429   4.024   6.047   2.402
 2510SOL    HW2 8430   3.953   6.192   2.430
 2511SOL     OW 8431   0.503   6.306   3.746
 2511SOL    HW1 8432   0.558   6.233   3.707
 2511SOL    HW2 8433   0.560   6.365   3.803
 2512SOL     OW 8434   5.973   3.591   4.198
 2512SOL    HW1 8435   5.998   3.526   4.269
 2512SOL    HW2 8436   6.016   3.680   4.218
 2513SOL     OW 8437   0.028   4.688   0.505
 2513SOL    HW1 8438   6.954   4.688   0.542
 2513SOL    HW2 8439   0.084   4.754   0.555
 2514SOL     OW 8440   6.994   2.213   3.770
 2514SOL    HW1 8441   7.005   2.231   3.868
 2514SOL    HW2 8442   6.985   2.114   3.756
 2515SOL     OW 8443   0.955   4.762   6.871
 2515SOL    HW1 8444   0.919   4.764   6.965
 2515SOL    HW2 8445   1.023   4.834   6.860
 2516SOL     OW 8446   5.261   6.782   4.122
 2516SOL    HW1 8447   5.215   6.710   4.069
 2516SOL    HW2 8448   5.247   6.766   4.219
 2517SOL     OW 8449   1.977   5.656   1.041
 2517SOL    HW1 8450   1.935   5.661   0.951
 2517SOL    HW2 8451   1.915   5.695   1.109
 2518SOL     OW 8452   2.470   2.257   0.211
 2518SOL    HW1 8453   2.486   2.262   0.310
 2518SOL    HW2 8454   2.431   2.343   0.179
 2519SOL     OW 8455   5.616   4.130   5.074
 2519SOL    HW1 8456   5.576   4.192   5.006
 2519SOL    HW2 8457   5.576   4.149   5.164
 2520SOL     OW 8458   3.502   5.278   1.096
 2520SOL    HW1 8459   3.458   5.190   1.077
 2520SOL    HW2 8460   3.449   5.327   1.165
 2521SOL     OW 8461   5.874   6.556   6.066
 2521SOL    HW1 8462   5.964   6.568   6.025
 2521SOL    HW2 8463   5.882   6.561   6.166
 2522SOL     OW 8464   2.177   4.998   5.291
 2522SOL    HW1 8465   2.079   4.980   5.283
 2522SOL    HW2 8466   2.226   4.945   5.222
 2523SOL     OW 8467   0.822   1.695   5.865
 2523SOL    HW1 8468   0.885   1.769   5.885
 2523SOL    HW2 8469   0.872   1.608   5.864
 2524SOL     OW 8470   1.564   6.922   4.473
 2524SOL    HW1 8471   1.628   6.942   4.547
 2524SOL    HW2 8472   1.470   6.923   4.507
 2525SOL     OW 8473   2.805   4.687   2.225
 2525SOL    HW1 8474   2.813   4.703   2.127
 2525SOL    HW2 8475   2.828   4.592   2.245
 2526SOL     OW 8476   1.467   2.695   4.533
 2526SOL    HW1 8477   1.398   2.767   4.524
 2526SOL    HW2 8478   1.513   2.683   4.445
 2527SOL     OW 8479   0.010   6.776   3.861
 2527SOL    HW1 8480   0.033   6.796   3.766
 2527SOL    HW2 8481   0.042   6.851   3.920
 2528SOL     OW 8482   5.137   5.616   0.621
 2528SOL    HW1 8483   5.074   5.583   0.550
 2528SOL    HW2 8484   5.106   5.705   0.654
 2529SOL     OW 8485   5.236   4.420   5.537
 2529SOL    HW1 8486   5.183   4.339   5.513
 2529SOL    HW2 8487   5.204   4.498   5.484
 2530SOL     OW 8488   0.751   6.219   3.385
 2530SOL    HW1 8489   0.715   6.175   3.467
 2530SOL    HW2 8490   0.843   6.254   3.402
 2531SOL     OW 8491   5.445   2.060   6.912
 2531SOL    HW1 8492   5.436   2.036   6.816
 2531SOL    HW2 8493   5.459   2.158   6.921
 2532SOL     OW 8494   0.997   5.155   5.442
 2532SOL    HW1 8495   1.034   5.246   5.460
 2532SOL    HW2 8496   0.937   5.159   5.362
 2533SOL     OW 8497   5.964   0.527   5.246
 2533SOL    HW1 8498   6.031   0.468   5.202
 2533SOL    HW2 8499   5.874   0.483   5.243
 2534SOL     OW 8500   6.572   1.315   3.482
 2534SOL    HW1 8501   6.566   1.332   3.581
 2534SOL    HW2 8502   6.663   1.339   3.450
 2535SOL     OW 8503   2.930   1.173   2.179
 2535SOL    HW1 8504   2.906   1.259   2.135
 2535SOL    HW2 8505   2.899   1.174   2.274
 2536SOL     OW 8506   0.304   0.468   4.074
 2536SOL    HW1 8507   0.220   0.468   4.128
 2536SOL    HW2 8508   0.340   0.561   4.067
 2537SOL     OW 8509   3.218   6.169   2.576
 2537SOL    HW1 8510   3.138   6.229   2.578
 2537SOL    HW2 8511   3.248   6.156   2.482
 2538SOL     OW 8512   0.383   5.213   5.268
 2538SOL    HW1 8513   0.407   5.304   5.301
 2538SOL    HW2 8514   0.454   5.148   5.298
 2539SOL     OW 8515   2.074   0.337   5.665
 2539SOL    HW1 8516   2.061   0.435   5.645
 2539SOL    HW2 8517   1.986   0.297   5.690
 2540SOL     OW 8518   4.633   2.334   2.372
 2540SOL    HW1 8519   4.626   2.253   2.314
 2540SOL    HW2 8520   4.590   2.315   2.460
 2541SOL     OW 8521   1.369   1.611   6.898
 2541SOL    HW1 8522   1.343   1.634   6.991
 2541SOL    HW2 8523   1.456   1.560   6.899
 2542SOL     OW 8524   3.919   1.642   3.393
 2542SOL    HW1 8525   3.876   1.596   3.315
 2542SOL    HW2 8526   3.891   1.738   3.395
 2543SOL     OW 8527   5.971   0.412   5.558
 2543SOL    HW1 8528   5.881   0.404   5.601
 2543SOL    HW2 8529   5.999   0.323   5.522
 2544SOL     OW 8530   0.120   6.857   0.931
 2544SOL    HW1 8531   0.140   6.952   0.905
 2544SOL    HW2 8532   0.156   6.839   1.022
 2545SOL     OW 8533   6.954   1.602   6.876
 2545SOL    HW1 8534   6.945   1.698   6.903
 2545SOL    HW2 8535   6.968   1.546   6.958
 2546SOL     OW 8536   6.427   3.567   2.410
 2546SOL    HW1 8537   6.353   3.627   2.381
 2546SOL    HW2 8538   6.500   3.622   2.452
 2547SOL     OW 8539   5.590   3.577   0.887
 2547SOL    HW1 8540   5.659   3.632   0.839
 2547SOL    HW2 8541   5.614   3.480   0.881
 2548SOL     OW 8542   6.452   0.221   5.162
 2548SOL    HW1 8543   6.456   0.140   5.103
 2548SOL    HW2 8544   6.531   0.221   5.224
 2549SOL     OW 8545   3.067   5.290   0.604
 2549SOL    HW1 8546   3.151   5.297   0.550
 2549SOL    HW2 8547   2.988   5.286   0.544
 2550SOL     OW 8548   3.615   0.303   1.084
 2550SOL    HW1 8549   3.533   0.288   1.140
 2550SOL    HW2 8550   3.694   0.262   1.130
 2551SOL     OW 8551   3.723   4.478   1.411
 2551SOL    HW1 8552   3.792   4.448   1.346
 2551SOL    HW2 8553   3.702   4.574   1.395
 2552SOL     OW 8554   2.500   4.675   1.659
 2552SOL    HW1 8555   2.589   4.672   1.614
 2552SOL    HW2 8556   2.454   4.587   1.647
 2553SOL     OW 8557   4.697   1.316   0.195
 2553SOL    HW1 8558   4.765   1.348   0.261
 2553SOL    HW2 8559   4.608   1.357   0.216
 2554SOL     OW 8560   0.791   5.597   0.781
 2554SOL    HW1 8561   0.732   5.594   0.701
 2554SOL    HW2 8562   0.781   5.685   0.827
 2555SOL     OW 8563   0.819   6.510   5.433
 2555SOL    HW1 8564   0.832   6.583   5.366
 2555SOL    HW2 8565   0.879   6.526   5.512
 2556SOL     OW 8566   5.395   6.979   0.608
 2556SOL    HW1 8567   5.373   6.983   0.705
 2556SOL    HW2 8568   5.354   6.896   0.568
 2557SOL     OW 8569   2.861   1.571   6.984
 2557SOL    HW1 8570   2.951   1.578   6.940
 2557SOL    HW2 8571   2.808   1.653   6.964
 2558SOL     OW 8572   5.080   1.959   1.456
 2558SOL    HW1 8573   5.143   2.025   1.414
 2558SOL    HW2 8574   5.132   1.883   1.493
 2559SOL     OW 8575   6.175   5.122   3.565
 2559SOL    HW1 8576   6.120   5.041   3.586
 2559SOL    HW2 8577   6.115   5.196   3.534
 2560SOL     OW 8578   4.425   2.384   1.820
 2560SOL    HW1 8579   4.423   2.433   1.733
 2560SOL    HW2 8580   4.456   2.445   1.892
 2561SOL     OW 8581   3.449   0.042   4.838
 2561SOL    HW1 8582   3.438   0.140   4.855
 2561SOL    HW2 8583   3.360   7.018   4.829
 2562SOL     OW 8584   1.510   6.755   4.964
 2562SOL    HW1 8585   1.578   6.681   4.964
 2562SOL    HW2 8586   1.461   6.755   5.052
 2563SOL     OW 8587   4.046   2.192   6.254
 2563SOL    HW1 8588   4.023   2.249   6.175
 2563SOL    HW2 8589   3.972   2.127   6.271
 2564SOL     OW 8590   1.476   1.423   0.635
 2564SOL    HW1 8591   1.538   1.381   0.569
 2564SOL    HW2 8592   1.529   1.457   0.713
 2565SOL     OW 8593   0.432   0.704   1.173
 2565SOL    HW1 8594   0.411   0.691   1.076
 2565SOL    HW2 8595   0.531   0.698   1.186
 2566SOL     OW 8596   3.121   1.403   0.910
 2566SOL    HW1 8597   3.091   1.363   0.823
 2566SOL    HW2 8598   3.161   1.331   0.967
 2567SOL     OW 8599   1.855   0.855   6.498
 2567SOL    HW1 8600   1.882   0.896   6.585
 2567SOL    HW2 8601   1.807   0.923   6.442
 2568SOL     OW 8602   2.470   6.043   0.990
 2568SOL    HW1 8603   2.418   6.115   1.036
 2568SOL    HW2 8604   2.421   6.016   0.906
 2569SOL     OW 8605   2.228   6.293   6.670
 2569SOL    HW1 8606   2.136   6.302   6.632
 2569SOL    HW2 8607   2.279   6.225   6.619
 2570SOL     OW 8608   0.577   6.711   3.952
 2570SOL    HW1 8609   0.501   6.680   3.894
 2570SOL    HW2 8610   0.607   6.636   4.010
 2571SOL     OW 8611   3.653   3.321   2.798
 2571SOL    HW1 8612   3.726   3.371   2.844
 2571SOL    HW2 8613   3.604   3.265   2.865
 2572SOL     OW 8614   2.276   5.812   2.384
 2572SOL    HW1 8615   2.218   5.865   2.322
 2572SOL    HW2 8616   2.370   5.845   2.377
 2573SOL     OW 8617   0.006   1.273   3.142
 2573SOL    HW1 8618   0.093   1.279   3.190
 2573SOL    HW2 8619   6.992   1.366   3.121
 2574SOL     OW 8620   0.352   3.630   2.170
 2574SOL    HW1 8621   0.425   3.565   2.189
 2574SOL    HW2 8622   0.265   3.582   2.157
 2575SOL     OW 8623   4.627   3.961   5.334
 2575SOL    HW1 8624   4.561   3.887   5.337
 2575SOL    HW2 8625   4.715   3.926   5.300
 2576SOL     OW 8626   0.624   0.195   3.128
 2576SOL    HW1 8627   0.573   0.242   3.056
 2576SOL    HW2 8628   0.689   0.132   3.086
 2577SOL     OW 8629   1.765   4.719   1.050
 2577SOL    HW1 8630   1.845   4.663   1.070
 2577SOL    HW2 8631   1.683   4.661   1.047
 2578SOL     OW 8632   4.589   2.774   4.970
 2578SOL    HW1 8633   4.509   2.832   4.956
 2578SOL    HW2 8634   4.672   2.825   4.945
 2579SOL     OW 8635   0.243   0.989   6.658
 2579SOL    HW1 8636   0.314   0.920   6.647
 2579SOL    HW2 8637   0.182   0.963   6.733
 2580SOL     OW 8638   1.907   2.007   5.406
 2580SOL    HW1 8639   1.833   1.966   5.459
 2580SOL    HW2 8640   1.907   2.106   5.418
 2581SOL     OW 8641   5.615   6.819   4.313
 2581SOL    HW1 8642   5.643   6.745   4.374
 2581SOL    HW2 8643   5.611   6.785   4.219
 2582SOL     OW 8644   6.584   4.560   3.174
 2582SOL    HW1 8645   6.514   4.603   3.229
 2582SOL    HW2 8646   6.637   4.631   3.127
 2583SOL     OW 8647   3.144   1.080   0.186
 2583SOL    HW1 8648   3.210   1.028   0.133
 2583SOL    HW2 8649   3.187   1.113   0.270
 2584SOL     OW 8650   4.249   0.923   3.309
 2584SOL    HW1 8651   4.298   0.989   3.367
 2584SOL    HW2 8652   4.188   0.972   3.247
 2585SOL     OW 8653   3.566   0.528   2.392
 2585SOL    HW1 8654   3.491   0.464   2.377
 2585SOL    HW2 8655   3.653   0.479   2.385
 2586SOL     OW 8656   0.814   1.691   3.712
 2586SOL    HW1 8657   0.816   1.603   3.664
 2586SOL    HW2 8658   0.719   1.723   3.718
 2587SOL     OW 8659   6.437   5.053   2.411
 2587SOL    HW1 8660   6.403   4.971   2.365
 2587SOL    HW2 8661   6.467   5.030   2.503
 2588SOL     OW 8662   3.832   6.500   2.663
 2588SOL    HW1 8663   3.807   6.555   2.743
 2588SOL    HW2 8664   3.836   6.558   2.582
 2589SOL     OW 8665   4.356   6.268   1.461
 2589SOL    HW1 8666   4.389   6.297   1.550
 2589SOL    HW2 8667   4.433   6.241   1.403
 2590SOL     OW 8668   3.981   5.821   3.977
 2590SOL    HW1 8669   4.060   5.786   4.028
 2590SOL    HW2 8670   4.006   5.832   3.881
 2591SOL     OW 8671   6.192   0.287   0.346
 2591SOL    HW1 8672   6.113   0.227   0.334
 2591SOL    HW2 8673   6.165   0.368   0.397
 2592SOL     OW 8674   2.807   4.815   1.762
 2592SOL    HW1 8675   2.790   4.871   1.843
 2592SOL    HW2 8676   2.850   4.729   1.790
 2593SOL     OW 8677   3.084   0.044   3.724
 2593SOL    HW1 8678   3.165   0.016   3.775
 2593SOL    HW2 8679   3.068   0.141   3.738
 2594SOL     OW 8680   1.837   6.241   7.018
 2594SOL    HW1 8681   1.894   6.198   0.070
 2594SOL    HW2 8682   1.824   6.177   6.942
 2595SOL     OW 8683   0.116   3.215   4.229
 2595SOL    HW1 8684   0.086   3.120   4.231
 2595SOL    HW2 8685   0.202   3.221   4.178
 2596SOL     OW 8686   4.297   2.078   1.114
 2596SOL    HW1 8687   4.384   2.117   1.144
 2596SOL    HW2 8688   4.224   2.108   1.175
 2597SOL     OW 8689   2.673   2.483   6.001
 2597SOL    HW1 8690   2.749   2.524   6.052
 2597SOL    HW2 8691   2.598   2.463   6.063
 2598SOL     OW 8692   0.038   1.240   2.841
 2598SOL    HW1 8693   6.978   1.301   2.853
 2598SOL    HW2 8694   0.070   1.209   2.931
 2599SOL     OW 8695   4.682   6.018   6.208
 2599SOL    HW1 8696   4.691   6.113   6.179
 2599SOL    HW2 8697   4.746   5.961   6.156
 2600SOL     OW 8698   0.732   2.550   4.835
 2600SOL    HW1 8699   0.770   2.519   4.922
 2600SOL    HW2 8700   0.795   2.527   4.761
 2601SOL     OW 8701   4.076   3.611   5.239
 2601SOL    HW1 8702   4.071   3.590   5.142
 2601SOL    HW2 8703   3.986   3.599   5.280
 2602SOL     OW 8704   5.871   6.562   6.339
 2602SOL    HW1 8705   5.924   6.598   6.415
 2602SOL    HW2 8706   5.815   6.485   6.371
 2603SOL     OW 8707   1.555   1.924   6.500
 2603SOL    HW1 8708   1.639   1.973   6.476
 2603SOL    HW2 8709   1.491   1.986   6.544
 2604SOL     OW 8710   5.279   1.659   1.050
 2604SOL    HW1 8711   5.363   1.605   1.054
 2604SOL    HW2 8712   5.276   1.709   0.964
 2605SOL     OW 8713   5.716   3.438   4.491
 2605SOL    HW1 8714   5.798   3.418   4.545
 2605SOL    HW2 8715   5.706   3.371   4.418
 2606SOL     OW 8716   6.546   4.796   1.543
 2606SOL    HW1 8717   6.507   4.882   1.578
 2606SOL    HW2 8718   6.471   4.733   1.523
 2607SOL     OW 8719   0.602   1.201   4.183
 2607SOL    HW1 8720   0.502   1.197   4.180
 2607SOL    HW2 8721   0.638   1.205   4.090
 2608SOL     OW 8722   4.532   0.540   0.395
 2608SOL    HW1 8723   4.583   0.567   0.478
 2608SOL    HW2 8724   4.570   0.587   0.316
 2609SOL     OW 8725   0.986   3.239   3.310
 2609SOL    HW1 8726   1.052   3.220   3.238
 2609SOL    HW2 8727   0.951   3.153   3.348
 2610SOL     OW 8728   5.105   5.794   4.488
 2610SOL    HW1 8729   5.079   5.712   4.539
 2610SOL    HW2 8730   5.025   5.854   4.479
 2611SOL     OW 8731   3.048   5.506   2.384
 2611SOL    HW1 8732   2.961   5.484   2.430
 2611SOL    HW2 8733   3.047   5.468   2.292
 2612SOL     OW 8734   0.472   0.165   5.158
 2612SOL    HW1 8735   0.508   0.129   5.071
 2612SOL    HW2 8736   0.446   0.089   5.217
 2613SOL     OW 8737   4.242   1.181   0.508
 2613SOL    HW1 8738   4.305   1.165   0.431
 2613SOL    HW2 8739   4.254   1.109   0.576
 2614SOL     OW 8740   6.255   5.970   6.879
 2614SOL    HW1 8741   6.176   6.031   6.890
 2614SOL    HW2 8742   6.321   6.012   6.817
 2615SOL     OW 8743   6.088   3.829   1.346
 2615SOL    HW1 8744   6.051   3.836   1.438
 2615SOL    HW2 8745   6.050   3.901   1.289
 2616SOL     OW 8746   3.998   3.844   1.825
 2616SOL    HW1 8747   4.002   3.847   1.925
 2616SOL    HW2 8748   4.070   3.902   1.787
 2617SOL     OW 8749   2.330   6.253   1.072
 2617SOL    HW1 8750   2.254   6.226   1.131
 2617SOL    HW2 8751   2.394   6.311   1.123
 2618SOL     OW 8752   1.426   6.579   0.343
 2618SOL    HW1 8753   1.387   6.656   0.393
 2618SOL    HW2 8754   1.475   6.613   0.262
 2619SOL     OW 8755   6.436   1.446   1.825
 2619SOL    HW1 8756   6.449   1.450   1.925
 2619SOL    HW2 8757   6.517   1.408   1.783
 2620SOL     OW 8758   1.691   5.841   4.158
 2620SOL    HW1 8759   1.621   5.770   4.153
 2620SOL    HW2 8760   1.752   5.833   4.079
 2621SOL     OW 8761   0.764   5.846   4.526
 2621SOL    HW1 8762   0.794   5.886   4.440
 2621SOL    HW2 8763   0.799   5.899   4.602
 2622SOL     OW 8764   2.306   2.441   4.772
 2622SOL    HW1 8765   2.362   2.374   4.725
 2622SOL    HW2 8766   2.364   2.506   4.821
 2623SOL     OW 8767   3.282   0.464   6.165
 2623SOL    HW1 8768   3.279   0.514   6.079
 2623SOL    HW2 8769   3.293   0.528   6.241
 2624SOL     OW 8770   5.991   2.131   4.211
 2624SOL    HW1 8771   5.931   2.151   4.134
 2624SOL    HW2 8772   5.936   2.103   4.290
 2625SOL     OW 8773   3.094   0.273   5.987
 2625SOL    HW1 8774   3.093   0.321   6.075
 2625SOL    HW2 8775   3.153   0.322   5.923
 2626SOL     OW 8776   1.391   6.954   2.801
 2626SOL    HW1 8777   1.447   6.904   2.867
 2626SOL    HW2 8778   1.348   0.013   2.845
 2627SOL     OW 8779   0.410   6.858   4.959
 2627SOL    HW1 8780   0.397   6.759   4.958
 2627SOL    HW2 8781   0.340   6.900   5.016
 2628SOL     OW 8782   4.288   5.821   0.293
 2628SOL    HW1 8783   4.346   5.778   0.224
 2628SOL    HW2 8784   4.258   5.910   0.260
 2629SOL     OW 8785   2.913   3.697   1.801
 2629SOL    HW1 8786   2.937   3.790   1.831
 2629SOL    HW2 8787   2.874   3.647   1.878
 2630SOL     OW 8788   3.095   2.185   2.819
 2630SOL    HW1 8789   3.063   2.183   2.914
 2630SOL    HW2 8790   3.028   2.233   2.762
 2631SOL     OW 8791   4.009   6.204   4.778
 2631SOL    HW1 8792   3.913   6.187   4.800
 2631SOL    HW2 8793   4.048   6.122   4.737
 2632SOL     OW 8794   4.927   1.392   1.192
 2632SOL    HW1 8795   4.905   1.404   1.289
 2632SOL    HW2 8796   4.910   1.297   1.166
 2633SOL     OW 8797   6.935   2.560   6.708
 2633SOL    HW1 8798   6.929   2.659   6.724
 2633SOL    HW2 8799   6.874   2.535   6.633
 2634SOL     OW 8800   2.886   4.914   0.695
 2634SOL    HW1 8801   2.893   4.940   0.599
 2634SOL    HW2 8802   2.977   4.908   0.735
 2635SOL     OW 8803   5.958   4.804   3.570
 2635SOL    HW1 8804   5.908   4.720   3.549
 2635SOL    HW2 8805   5.989   4.802   3.665
 2636SOL     OW 8806   6.050   6.041   5.552
 2636SOL    HW1 8807   5.964   6.025   5.601
 2636SOL    HW2 8808   6.063   5.969   5.484
 2637SOL     OW 8809   4.764   6.583   2.678
 2637SOL    HW1 8810   4.757   6.619   2.771
 2637SOL    HW2 8811   4.853   6.538   2.667
 2638SOL     OW 8812   4.478   5.778   1.140
 2638SOL    HW1 8813   4.385   5.815   1.141
 2638SOL    HW2 8814   4.504   5.753   1.233
 2639SOL     OW 8815   6.584   6.487   6.805
 2639SOL    HW1 8816   6.544   6.531   6.724
 2639SOL    HW2 8817   6.627   6.401   6.779
 2640SOL     OW 8818   6.570   6.817   6.399
 2640SOL    HW1 8819   6.622   6.740   6.434
 2640SOL    HW2 8820   6.511   6.787   6.325
 2641SOL     OW 8821   0.075   5.515   0.413
 2641SOL    HW1 8822   0.092   5.584   0.483
 2641SOL    HW2 8823   0.018   5.442   0.450
 2642SOL     OW 8824   6.703   0.445   3.820
 2642SOL    HW1 8825   6.682   0.533   3.863
 2642SOL    HW2 8826   6.742   0.384   3.888
 2643SOL     OW 8827   2.061   0.146   2.325
 2643SOL    HW1 8828   2.007   0.152   2.242
 2643SOL    HW2 8829   2.000   0.137   2.404
 2644SOL     OW 8830   6.892   6.073   4.888
 2644SOL    HW1 8831   6.886   6.169   4.861
 2644SOL    HW2 8832   6.921   6.018   4.809
 2645SOL     OW 8833   5.823   6.347   6.512
 2645SOL    HW1 8834   5.770   6.269   6.544
 2645SOL    HW2 8835   5.911   6.316   6.477
 2646SOL     OW 8836   5.961   6.131   6.374
 2646SOL    HW1 8837   6.053   6.168   6.383
 2646SOL    HW2 8838   5.966   6.033   6.357
 2647SOL     OW 8839   3.509   3.627   0.030
 2647SOL    HW1 8840   3.449   3.548   0.043
 2647SOL    HW2 8841   3.456   3.711   0.028
 2648SOL     OW 8842   4.150   1.556   3.530
 2648SOL    HW1 8843   4.058   1.591   3.516
 2648SOL    HW2 8844   4.212   1.631   3.552
 2649SOL     OW 8845   3.079   3.407   5.386
 2649SOL    HW1 8846   3.093   3.351   5.305
 2649SOL    HW2 8847   2.983   3.401   5.415
 2650SOL     OW 8848   0.299   6.601   2.596
 2650SOL    HW1 8849   0.352   6.525   2.634
 2650SOL    HW2 8850   0.240   6.566   2.523
 2651SOL     OW 8851   0.930   0.140   3.311
 2651SOL    HW1 8852   0.946   0.237   3.331
 2651SOL    HW2 8853   0.841   0.113   3.346
 2652SOL     OW 8854   3.029   3.125   2.634
 2652SOL    HW1 8855   2.991   3.034   2.620
 2652SOL    HW2 8856   3.093   3.124   2.711
 2653SOL     OW 8857   0.035   5.987   0.618
 2653SOL    HW1 8858   0.043   5.986   0.518
 2653SOL    HW2 8859   7.007   5.904   0.649
 2654SOL     OW 8860   6.574   1.887   5.782
 2654SOL    HW1 8861   6.534   1.824   5.848
 2654SOL    HW2 8862   6.668   1.908   5.809
 2655SOL     OW 8863   5.494   5.245   4.656
 2655SOL    HW1 8864   5.542   5.314   4.602
 2655SOL    HW2 8865   5.495   5.158   4.607
 2656SOL     OW 8866   6.086   3.462   5.006
 2656SOL    HW1 8867   6.174   3.446   4.961
 2656SOL    HW2 8868   6.021   3.390   4.979
 2657SOL     OW 8869   3.745   2.201   5.902
 2657SOL    HW1 8870   3.777   2.158   5.818
 2657SOL    HW2 8871   3.716   2.129   5.966
 2658SOL     OW 8872   5.889   4.140   4.987
 2658SOL    HW1 8873   5.790   4.139   5.000
 2658SOL    HW2 8874   5.934   4.150   5.075
 2659SOL     OW 8875   6.871   1.663   3.636
 2659SOL    HW1 8876   6.876   1.662   3.536
 2659SOL    HW2 8877   6.902   1.576   3.672
 2660SOL     OW 8878   0.460   2.488   3.092
 2660SOL    HW1 8879   0.471   2.579   3.050
 2660SOL    HW2 8880   0.544   2.436   3.079
 2661SOL     OW 8881   3.188   7.004   3.161
 2661SOL    HW1 8882   3.272   0.002   3.111
 2661SOL    HW2 8883   3.126   0.063   3.150
 2662SOL     OW 8884   3.576   0.758   3.735
 2662SOL    HW1 8885   3.488   0.718   3.760
 2662SOL    HW2 8886   3.563   0.853   3.707
 2663SOL     OW 8887   0.633   4.274   3.092
 2663SOL    HW1 8888   0.637   4.296   3.190
 2663SOL    HW2 8889   0.663   4.180   3.078
 2664SOL     OW 8890   4.516   4.096   1.626
 2664SOL    HW1 8891   4.505   4.164   1.699
 2664SOL    HW2 8892   4.444   4.108   1.558
 2665SOL     OW 8893   4.596   6.611   4.702
 2665SOL    HW1 8894   4.576   6.709   4.708
 2665SOL    HW2 8895   4.526   6.560   4.753
 2666SOL     OW 8896   4.618   5.838   1.820
 2666SOL    HW1 8897   4.648   5.771   1.888
 2666SOL    HW2 8898   4.572   5.915   1.867
 2667SOL     OW 8899   1.858   5.172   3.291
 2667SOL    HW1 8900   1.893   5.234   3.221
 2667SOL    HW2 8901   1.873   5.211   3.382
 2668SOL     OW 8902   6.712   2.381   5.101
 2668SOL    HW1 8903   6.673   2.321   5.170
 2668SOL    HW2 8904   6.645   2.398   5.029
 2669SOL     OW 8905   4.122   5.894   4.950
 2669SOL    HW1 8906   4.199   5.846   4.994
 2669SOL    HW2 8907   4.157   5.965   4.889
 2670SOL     OW 8908   2.863   6.670   4.393
 2670SOL    HW1 8909   2.879   6.578   4.428
 2670SOL    HW2 8910   2.772   6.701   4.422
 2671SOL     OW 8911   3.283   4.154   6.571
 2671SOL    HW1 8912   3.249   4.117   6.485
 2671SOL    HW2 8913   3.317   4.247   6.556
 2672SOL     OW 8914   0.694   4.359   0.007
 2672SOL    HW1 8915   0.608   4.400   0.036
 2672SOL    HW2 8916   0.744   4.425   6.969
 2673SOL     OW 8917   3.454   2.114   3.234
 2673SOL    HW1 8918   3.487   2.126   3.140
 2673SOL    HW2 8919   3.527   2.138   3.298
 2674SOL     OW 8920   6.400   5.757   5.339
 2674SOL    HW1 8921   6.454   5.821   5.394
 2674SOL    HW2 8922   6.304   5.762   5.365
 2675SOL     OW 8923   0.255   4.720   5.736
 2675SOL    HW1 8924   0.289   4.810   5.709
 2675SOL    HW2 8925   0.297   4.693   5.823
 2676SOL     OW 8926   4.605   0.433   1.949
 2676SOL    HW1 8927   4.529   0.490   1.983
 2676SOL    HW2 8928   4.581   0.337   1.959
 2677SOL     OW 8929   2.426   4.328   2.248
 2677SOL    HW1 8930   2.521   4.301   2.228
 2677SOL    HW2 8931   2.366   4.295   2.175
 2678SOL     OW 8932   0.418   6.089   6.639
 2678SOL    HW1 8933   0.417   6.111   6.541
 2678SOL    HW2 8934   0.439   5.993   6.652
 2679SOL     OW 8935   2.672   5.298   1.979
 2679SOL    HW1 8936   2.679   5.277   1.881
 2679SOL    HW2 8937   2.738   5.369   2.002
 2680SOL     OW 8938   0.815   2.685   1.149
 2680SOL    HW1 8939   0.914   2.701   1.151
 2680SOL    HW2 8940   0.782   2.672   1.242
 2681SOL     OW 8941   2.113   1.950   1.933
 2681SOL    HW1 8942   2.183   2.023   1.931
 2681SOL    HW2 8943   2.139   1.877   1.870
 2682SOL     OW 8944   6.744   2.881   4.333
 2682SOL    HW1 8945   6.784   2.966   4.298
 2682SOL    HW2 8946   6.666   2.856   4.277
 2683SOL     OW 8947   1.533   6.941   0.297
 2683SOL    HW1 8948   1.449   6.914   0.345
 2683SOL    HW2 8949   1.568   6.863   0.246
 2684SOL     OW 8950   2.220   5.392   2.621
 2684SOL    HW1 8951   2.142   5.330   2.631
 2684SOL    HW2 8952   2.292   5.364   2.684
 2685SOL     OW 8953   5.334   5.496   5.584
 2685SOL    HW1 8954   5.316   5.511   5.681
 2685SOL    HW2 8955   5.316   5.580   5.533
 2686SOL     OW 8956   1.161   3.274   5.174
 2686SOL    HW1 8957   1.163   3.197   5.237
 2686SOL    HW2 8958   1.186   3.358   5.222
 2687SOL     OW 8959   4.463   4.836   3.244
 2687SOL    HW1 8960   4.429   4.911   3.301
 2687SOL    HW2 8961   4.542   4.868   3.191
 2688SOL     OW 8962   3.636   4.447   5.906
 2688SOL    HW1 8963   3.568   4.432   5.978
 2688SOL    HW2 8964   3.615   4.389   5.827
 2689SOL     OW 8965   6.651   2.733   4.829
 2689SOL    HW1 8966   6.575   2.747   4.765
 2689SOL    HW2 8967   6.666   2.818   4.881
 2690SOL     OW 8968   3.006   3.555   3.492
 2690SOL    HW1 8969   2.948   3.526   3.416
 2690SOL    HW2 8970   2.960   3.537   3.579
 2691SOL     OW 8971   1.581   6.196   1.994
 2691SOL    HW1 8972   1.551   6.173   2.087
 2691SOL    HW2 8973   1.572   6.295   1.980
 2692SOL     OW 8974   0.082   5.024   3.345
 2692SOL    HW1 8975   0.078   5.068   3.255
 2692SOL    HW2 8976   0.137   4.941   3.338
 2693SOL     OW 8977   1.564   3.474   2.980
 2693SOL    HW1 8978   1.637   3.454   2.915
 2693SOL    HW2 8979   1.479   3.491   2.931
 2694SOL     OW 8980   2.135   1.524   2.649
 2694SOL    HW1 8981   2.072   1.589   2.607
 2694SOL    HW2 8982   2.220   1.572   2.674
 2695SOL     OW 8983   4.215   2.291   2.709
 2695SOL    HW1 8984   4.153   2.338   2.647
 2695SOL    HW2 8985   4.202   2.192   2.701
 2696SOL     OW 8986   3.745   3.788   5.748
 2696SOL    HW1 8987   3.796   3.703   5.752
 2696SOL    HW2 8988   3.718   3.807   5.653
 2697SOL     OW 8989   2.599   1.074   4.876
 2697SOL    HW1 8990   2.517   1.034   4.836
 2697SOL    HW2 8991   2.676   1.063   4.812
 2698SOL     OW 8992   1.851   2.183   6.465
 2698SOL    HW1 8993   1.924   2.235   6.421
 2698SOL    HW2 8994   1.774   2.243   6.485
 2699SOL     OW 8995   1.458   5.518   3.111
 2699SOL    HW1 8996   1.396   5.495   3.036
 2699SOL    HW2 8997   1.447   5.450   3.184
 2700SOL     OW 8998   1.861   4.493   3.076
 2700SOL    HW1 8999   1.907   4.475   3.163
 2700SOL    HW2 9000   1.897   4.432   3.006
 2701SOL     OW 9001   3.215   0.464   5.504
 2701SOL    HW1 9002   3.248   0.558   5.499
 2701SOL    HW2 9003   3.146   0.449   5.433
 2702SOL     OW 9004   6.795   6.411   2.700
 2702SOL    HW1 9005   6.859   6.374   2.767
 2702SOL    HW2 9006   6.842   6.422   2.612
 2703SOL     OW 9007   1.933   2.027   3.018
 2703SOL    HW1 9008   1.986   2.102   2.979
 2703SOL    HW2 9009   1.973   1.999   3.105
 2704SOL     OW 9010   1.449   6.025   0.356
 2704SOL    HW1 9011   1.421   6.117   0.385
 2704SOL    HW2 9012   1.375   5.983   0.304
 2705SOL     OW 9013   0.026   3.533   2.548
 2705SOL    HW1 9014   0.021   3.447   2.497
 2705SOL    HW2 9015   0.008   3.514   2.645
 2706SOL     OW 9016   6.668   2.291   3.454
 2706SOL    HW1 9017   6.740   2.222   3.462
 2706SOL    HW2 9018   6.709   2.379   3.429
 2707SOL     OW 9019   2.695   1.567   6.441
 2707SOL    HW1 9020   2.668   1.597   6.533
 2707SOL    HW2 9021   2.702   1.647   6.381
 2708SOL     OW 9022   1.751   4.492   0.155
 2708SOL    HW1 9023   1.753   4.508   0.254
 2708SOL    HW2 9024   1.814   4.555   0.110
 2709SOL     OW 9025   4.817   6.586   1.570
 2709SOL    HW1 9026   4.821   6.604   1.668
 2709SOL    HW2 9027   4.790   6.491   1.555
 2710SOL     OW 9028   6.642   4.359   2.596
 2710SOL    HW1 9029   6.569   4.405   2.546
 2710SOL    HW2 9030   6.632   4.376   2.694
 2711SOL     OW 9031   1.369   6.771   2.285
 2711SOL    HW1 9032   1.335   6.779   2.378
 2711SOL    HW2 9033   1.293   6.767   2.221
 2712SOL     OW 9034   3.339   5.249   2.861
 2712SOL    HW1 9035   3.305   5.211   2.947
 2712SOL    HW2 9036   3.408   5.188   2.821
 2713SOL     OW 9037   2.130   2.491   5.471
 2713SOL    HW1 9038   2.075   2.516   5.551
 2713SOL    HW2 9039   2.153   2.573   5.420
 2714SOL     OW 9040   5.633   6.938   6.539
 2714SOL    HW1 9041   5.543   6.894   6.529
 2714SOL    HW2 9042   5.692   6.880   6.595
 2715SOL     OW 9043   6.228   0.566   6.923
 2715SOL    HW1 9044   6.323   0.552   6.895
 2715SOL    HW2 9045   6.167   0.526   6.855
 2716SOL     OW 9046   6.409   6.885   1.963
 2716SOL    HW1 9047   6.343   6.923   2.028
 2716SOL    HW2 9048   6.424   6.788   1.982
 2717SOL     OW 9049   0.677   0.066   3.359
 2717SOL    HW1 9050   0.598   0.069   3.421
 2717SOL    HW2 9051   0.659   0.122   3.279
 2718SOL     OW 9052   0.621   4.302   3.378
 2718SOL    HW1 9053   0.634   4.362   3.457
 2718SOL    HW2 9054   0.703   4.245   3.366
 2719SOL     OW 9055   4.209   4.798   3.009
 2719SOL    HW1 9056   4.278   4.734   3.044
 2719SOL    HW2 9057   4.249   4.889   3.002
 2720SOL     OW 9058   1.095   6.190   4.163
 2720SOL    HW1 9059   1.093   6.146   4.073
 2720SOL    HW2 9060   1.183   6.234   4.177
 2721SOL     OW 9061   5.311   6.483   3.562
 2721SOL    HW1 9062   5.374   6.428   3.617
 2721SOL    HW2 9063   5.219   6.446   3.568
 2722SOL     OW 9064   0.989   6.066   1.723
 2722SOL    HW1 9065   1.040   6.107   1.799
 2722SOL    HW2 9066   1.049   6.007   1.670
 2723SOL     OW 9067   2.137   1.806   4.445
 2723SOL    HW1 9068   2.212   1.740   4.448
 2723SOL    HW2 9069   2.118   1.838   4.538
 2724SOL     OW 9070   4.325   6.039   6.344
 2724SOL    HW1 9071   4.389   6.080   6.409
 2724SOL    HW2 9072   4.376   5.986   6.276
 2725SOL     OW 9073   2.816   4.788   3.666
 2725SOL    HW1 9074   2.768   4.851   3.727
 2725SOL    HW2 9075   2.755   4.713   3.641
 2726SOL     OW 9076   4.527   6.537   2.557
 2726SOL    HW1 9077   4.499   6.458   2.610
 2726SOL    HW2 9078   4.608   6.579   2.599
 2727SOL     OW 9079   1.924   6.073   4.125
 2727SOL    HW1 9080   1.891   6.031   4.210
 2727SOL    HW2 9081   1.854   6.135   4.090
 2728SOL     OW 9082   2.792   6.900   5.258
 2728SOL    HW1 9083   2.753   6.822   5.307
 2728SOL    HW2 9084   2.766   6.896   5.161
 2729SOL     OW 9085   6.959   4.884   2.786
 2729SOL    HW1 9086   6.990   4.962   2.732
 2729SOL    HW2 9087   6.916   4.917   2.870
 2730SOL     OW 9088   1.497   4.649   1.098
 2730SOL    HW1 9089   1.502   4.591   1.180
 2730SOL    HW2 9090   1.517   4.744   1.122
 2731SOL     OW 9091   2.860   3.907   1.012
 2731SOL    HW1 9092   2.805   3.865   1.084
 2731SOL    HW2 9093   2.955   3.917   1.044
 2732SOL     OW 9094   5.367   3.292   4.326
 2732SOL    HW1 9095   5.308   3.289   4.406
 2732SOL    HW2 9096   5.348   3.375   4.273
 2733SOL     OW 9097   2.133   0.648   6.451
 2733SOL    HW1 9098   2.065   0.681   6.386
 2733SOL    HW2 9099   2.196   0.722   6.474
 2734SOL     OW 9100   2.172   0.293   4.434
 2734SOL    HW1 9101   2.177   0.318   4.338
 2734SOL    HW2 9102   2.265   0.278   4.470
 2735SOL     OW 9103   1.344   5.477   1.404
 2735SOL    HW1 9104   1.411   5.422   1.455
 2735SOL    HW2 9105   1.256   5.472   1.450
 2736SOL     OW 9106   4.334   0.019   6.352
 2736SOL    HW1 9107   4.253   6.992   6.317
 2736SOL    HW2 9108   4.359   0.094   6.291
 2737SOL     OW 9109   4.056   3.678   5.554
 2737SOL    HW1 9110   3.996   3.670   5.474
 2737SOL    HW2 9111   4.004   3.655   5.636
 2738SOL     OW 9112   6.088   3.830   4.302
 2738SOL    HW1 9113   6.010   3.846   4.362
 2738SOL    HW2 9114   6.173   3.850   4.351
 2739SOL     OW 9115   4.521   4.401   0.165
 2739SOL    HW1 9116   4.552   4.496   0.173
 2739SOL    HW2 9117   4.596   4.340   0.186
 2740SOL     OW 9118   6.434   2.656   4.378
 2740SOL    HW1 9119   6.393   2.581   4.327
 2740SOL    HW2 9120   6.492   2.710   4.317
 2741SOL     OW 9121   2.042   3.248   4.948
 2741SOL    HW1 9122   2.096   3.272   4.868
 2741SOL    HW2 9123   2.059   3.152   4.972
 2742SOL     OW 9124   2.778   6.386   5.577
 2742SOL    HW1 9125   2.822   6.296   5.575
 2742SOL    HW2 9126   2.696   6.381   5.635
 2743SOL     OW 9127   5.624   4.623   6.812
 2743SOL    HW1 9128   5.530   4.599   6.834
 2743SOL    HW2 9129   5.680   4.620   6.895
 2744SOL     OW 9130   4.826   6.754   0.289
 2744SOL    HW1 9131   4.913   6.733   0.244
 2744SOL    HW2 9132   4.807   6.852   0.280
 2745SOL     OW 9133   3.060   5.869   2.136
 2745SOL    HW1 9134   3.078   5.966   2.119
 2745SOL    HW2 9135   3.128   5.814   2.087
 2746SOL     OW 9136   1.066   2.126   6.215
 2746SOL    HW1 9137   1.003   2.049   6.211
 2746SOL    HW2 9138   1.100   2.138   6.308
 2747SOL     OW 9139   5.327   5.937   3.703
 2747SOL    HW1 9140   5.291   6.026   3.733
 2747SOL    HW2 9141   5.284   5.864   3.757
 2748SOL     OW 9142   5.616   0.977   5.063
 2748SOL    HW1 9143   5.545   0.985   5.132
 2748SOL    HW2 9144   5.624   1.063   5.012
 2749SOL     OW 9145   4.798   4.903   3.601
 2749SOL    HW1 9146   4.747   4.831   3.555
 2749SOL    HW2 9147   4.887   4.869   3.630
 2750SOL     OW 9148   1.098   6.695   0.701
 2750SOL    HW1 9149   1.131   6.775   0.750
 2750SOL    HW2 9150   1.176   6.640   0.672
 2751SOL     OW 9151   1.952   0.031   6.905
 2751SOL    HW1 9152   1.859   0.028   6.941
 2751SOL    HW2 9153   1.954   0.088   6.822
 2752SOL     OW 9154   0.902   6.452   6.203
 2752SOL    HW1 9155   0.959   6.502   6.269
 2752SOL    HW2 9156   0.888   6.509   6.122
 2753SOL     OW 9157   3.580   5.094   5.265
 2753SOL    HW1 9158   3.529   5.102   5.350
 2753SOL    HW2 9159   3.652   5.164   5.262
 2754SOL     OW 9160   0.899   6.031   4.327
 2754SOL    HW1 9161   0.939   5.941   4.305
 2754SOL    HW2 9162   0.960   6.103   4.294
 2755SOL     OW 9163   4.782   6.124   2.637
 2755SOL    HW1 9164   4.742   6.204   2.592
 2755SOL    HW2 9165   4.778   6.136   2.736
 2756SOL     OW 9166   0.316   2.865   5.139
 2756SOL    HW1 9167   0.343   2.820   5.224
 2756SOL    HW2 9168   0.362   2.820   5.062
 2757SOL     OW 9169   5.396   3.932   6.096
 2757SOL    HW1 9170   5.473   3.982   6.056
 2757SOL    HW2 9171   5.313   3.949   6.042
 2758SOL     OW 9172   0.344   6.628   1.544
 2758SOL    HW1 9173   0.302   6.609   1.633
 2758SOL    HW2 9174   0.277   6.675   1.485
 2759SOL     OW 9175   3.154   3.589   5.114
 2759SOL    HW1 9176   3.057   3.585   5.135
 2759SOL    HW2 9177   3.186   3.499   5.083
 2760SOL     OW 9178   5.358   5.445   2.643
 2760SOL    HW1 9179   5.417   5.366   2.660
 2760SOL    HW2 9180   5.409   5.529   2.662
 2761SOL     OW 9181   1.232   3.406   4.053
 2761SOL    HW1 9182   1.305   3.408   3.985
 2761SOL    HW2 9183   1.197   3.499   4.067
 2762SOL     OW 9184   4.247   1.359   1.549
 2762SOL    HW1 9185   4.331   1.305   1.555
 2762SOL    HW2 9186   4.178   1.321   1.610
 2763SOL     OW 9187   5.964   1.023   4.295
 2763SOL    HW1 9188   6.063   1.024   4.281
 2763SOL    HW2 9189   5.927   1.113   4.274
 2764SOL     OW 9190   0.224   2.965   3.722
 2764SOL    HW1 9191   0.312   2.975   3.677
 2764SOL    HW2 9192   0.159   2.920   3.660
 2765SOL     OW 9193   0.329   6.492   6.381
 2765SOL    HW1 9194   0.338   6.536   6.470
 2765SOL    HW2 9195   0.418   6.491   6.334
 2766SOL     OW 9196   4.842   0.017   0.240
 2766SOL    HW1 9197   4.801   0.044   0.328
 2766SOL    HW2 9198   4.929   0.065   0.228
 2767SOL     OW 9199   0.442   5.590   5.793
 2767SOL    HW1 9200   0.348   5.570   5.820
 2767SOL    HW2 9201   0.476   5.669   5.845
 2768SOL     OW 9202   3.854   6.192   1.491
 2768SOL    HW1 9203   3.939   6.225   1.449
 2768SOL    HW2 9204   3.876   6.132   1.568
 2769SOL     OW 9205   0.676   4.977   5.653
 2769SOL    HW1 9206   0.775   4.968   5.656
 2769SOL    HW2 9207   0.650   5.042   5.582
 2770SOL     OW 9208   2.625   6.884   0.518
 2770SOL    HW1 9209   2.573   6.825   0.458
 2770SOL    HW2 9210   2.565   6.921   0.589
 2771SOL     OW 9211   3.975   6.890   5.256
 2771SOL    HW1 9212   3.991   6.841   5.342
 2771SOL    HW2 9213   4.062   6.907   5.210
 2772SOL     OW 9214   5.389   2.087   3.822
 2772SOL    HW1 9215   5.423   1.993   3.825
 2772SOL    HW2 9216   5.306   2.090   3.766
 2773SOL     OW 9217   5.522   2.210   6.310
 2773SOL    HW1 9218   5.449   2.202   6.377
 2773SOL    HW2 9219   5.540   2.307   6.290
 2774SOL     OW 9220   6.817   0.339   4.043
 2774SOL    HW1 9221   6.767   0.411   4.091
 2774SOL    HW2 9222   6.797   0.250   4.085
 2775SOL     OW 9223   0.006   1.995   4.835
 2775SOL    HW1 9224   6.977   2.057   4.897
 2775SOL    HW2 9225   0.064   1.933   4.888
 2776SOL     OW 9226   4.578   3.895   6.236
 2776SOL    HW1 9227   4.574   3.926   6.331
 2776SOL    HW2 9228   4.557   3.972   6.175
 2777SOL     OW 9229   1.882   2.235   6.907
 2777SOL    HW1 9230   1.846   2.287   6.830
 2777SOL    HW2 9231   1.902   2.296   6.983
 2778SOL     OW 9232   3.214   0.125   5.579
 2778SOL    HW1 9233   3.281   0.156   5.511
 2778SOL    HW2 9234   3.186   0.202   5.636
 2779SOL     OW 9235   5.193   1.052   2.846
 2779SOL    HW1 9236   5.169   1.004   2.761
 2779SOL    HW2 9237   5.256   1.126   2.825
 2780SOL     OW 9238   0.578   1.250   4.742
 2780SOL    HW1 9239   0.609   1.157   4.761
 2780SOL    HW2 9240   0.636   1.316   4.789
 2781SOL     OW 9241   0.491   0.287   2.905
 2781SOL    HW1 9242   0.491   0.252   2.812
 2781SOL    HW2 9243   0.544   0.372   2.909
 2782SOL     OW 9244   5.467   6.803   5.123
 2782SOL    HW1 9245   5.516   6.884   5.157
 2782SOL    HW2 9246   5.388   6.786   5.182
 2783SOL     OW 9247   5.699   2.520   1.773
 2783SOL    HW1 9248   5.766   2.474   1.714
 2783SOL    HW2 9249   5.661   2.599   1.725
 2784SOL     OW 9250   0.325   2.723   1.985
 2784SOL    HW1 9251   0.425   2.724   1.978
 2784SOL    HW2 9252   0.286   2.758   1.899
 2785SOL     OW 9253   5.577   3.780   3.343
 2785SOL    HW1 9254   5.577   3.837   3.425
 2785SOL    HW2 9255   5.664   3.790   3.295
 2786SOL     OW 9256   0.174   5.741   0.544
 2786SOL    HW1 9257   0.197   5.789   0.460
 2786SOL    HW2 9258   0.254   5.739   0.605
 2787SOL     OW 9259   0.741   6.567   5.799
 2787SOL    HW1 9260   0.833   6.558   5.759
 2787SOL    HW2 9261   0.673   6.568   5.725
 2788SOL     OW 9262   2.920   6.464   0.419
 2788SOL    HW1 9263   2.860   6.520   0.477
 2788SOL    HW2 9264   2.962   6.392   0.474
 2789SOL     OW 9265   1.900   1.578   3.704
 2789SOL    HW1 9266   1.929   1.501   3.760
 2789SOL    HW2 9267   1.977   1.640   3.690
 2790SOL     OW 9268   6.696   5.451   1.495
 2790SOL    HW1 9269   6.722   5.364   1.451
 2790SOL    HW2 9270   6.766   5.477   1.561
 2791SOL     OW 9271   0.482   3.225   5.154
 2791SOL    HW1 9272   0.393   3.228   5.108
 2791SOL    HW2 9273   0.555   3.236   5.086
 2792SOL     OW 9274   3.144   1.752   5.953
 2792SOL    HW1 9275   3.153   1.851   5.941
 2792SOL    HW2 9276   3.232   1.708   5.935
 2793SOL     OW 9277   3.823   3.471   6.668
 2793SOL    HW1 9278   3.835   3.518   6.581
 2793SOL    HW2 9279   3.750   3.516   6.720
 2794SOL     OW 9280   1.946   1.846   6.832
 2794SOL    HW1 9281   1.969   1.934   6.873
 2794SOL    HW2 9282   1.847   1.837   6.826
 2795SOL     OW 9283   1.540   6.744   0.839
 2795SOL    HW1 9284   1.495   6.831   0.859
 2795SOL    HW2 9285   1.521   6.680   0.914
 2796SOL     OW 9286   2.803   6.089   6.984
 2796SOL    HW1 9287   2.803   6.185   7.011
 2796SOL    HW2 9288   2.813   6.032   0.047
 2797SOL     OW 9289   4.830   3.936   4.174
 2797SOL    HW1 9290   4.798   4.027   4.202
 2797SOL    HW2 9291   4.830   3.874   4.252
 2798SOL     OW 9292   5.336   2.206   2.120
 2798SOL    HW1 9293   5.257   2.267   2.115
 2798SOL    HW2 9294   5.420   2.259   2.106
 2799SOL     OW 9295   3.351   6.013   5.520
 2799SOL    HW1 9296   3.260   6.033   5.486
 2799SOL    HW2 9297   3.418   6.029   5.448
 2800SOL     OW 9298   5.118   1.284   0.017
 2800SOL    HW1 9299   5.123   1.209   0.082
 2800SOL    HW2 9300   5.029   1.329   0.025
 2801SOL     OW 9301   0.256   4.669   3.617
 2801SOL    HW1 9302   0.203   4.592   3.582
 2801SOL    HW2 9303   0.314   4.638   3.693
 2802SOL     OW 9304   1.092   4.887   4.657
 2802SOL    HW1 9305   1.136   4.797   4.666
 2802SOL    HW2 9306   1.075   4.907   4.561
 2803SOL     OW 9307   3.355   2.232   6.681
 2803SOL    HW1 9308   3.417   2.277   6.616
 2803SOL    HW2 9309   3.347   2.288   6.764
 2804SOL     OW 9310   6.542   2.839   4.115
 2804SOL    HW1 9311   6.473   2.775   4.081
 2804SOL    HW2 9312   6.616   2.847   4.048
 2805SOL     OW 9313   4.353   4.569   0.766
 2805SOL    HW1 9314   4.423   4.618   0.714
 2805SOL    HW2 9315   4.391   4.483   0.799
 2806SOL     OW 9316   0.499   3.374   4.576
 2806SOL    HW1 9317   0.481   3.407   4.669
 2806SOL    HW2 9318   0.417   3.328   4.541
 2807SOL     OW 9319   4.478   1.588   4.201
 2807SOL    HW1 9320   4.476   1.611   4.298
 2807SOL    HW2 9321   4.544   1.648   4.154
 2808SOL     OW 9322   1.510   6.080   6.162
 2808SOL    HW1 9323   1.453   6.130   6.097
 2808SOL    HW2 9324   1.495   5.982   6.150
 2809SOL     OW 9325   0.675   5.779   0.947
 2809SOL    HW1 9326   0.652   5.754   1.041
 2809SOL    HW2 9327   0.611   5.849   0.914
 2810SOL     OW 9328   0.446   6.129   2.835
 2810SOL    HW1 9329   0.509   6.068   2.882
 2810SOL    HW2 9330   0.389   6.177   2.903
 2811SOL     OW 9331   0.819   0.931   0.582
 2811SOL    HW1 9332   0.754   1.007   0.581
 2811SOL    HW2 9333   0.891   0.950   0.648
 2812SOL     OW 9334   2.137   1.198   0.996
 2812SOL    HW1 9335   2.043   1.207   0.960
 2812SOL    HW2 9336   2.140   1.231   1.090
 2813SOL     OW 9337   6.726   1.924   1.065
 2813SOL    HW1 9338   6.639   1.905   1.021
 2813SOL    HW2 9339   6.781   1.983   1.006
 2814SOL     OW 9340   2.689   4.041   0.076
 2814SOL    HW1 9341   2.643   3.956   0.104
 2814SOL    HW2 9342   2.757   4.020   0.006
 2815SOL     OW 9343   6.670   5.494   4.718
 2815SOL    HW1 9344   6.594   5.510   4.654
 2815SOL    HW2 9345   6.757   5.505   4.670
 2816SOL     OW 9346   0.956   5.078   4.813
 2816SOL    HW1 9347   0.897   5.141   4.763
 2816SOL    HW2 9348   1.007   5.022   4.748
 2817SOL     OW 9349   2.694   0.852   2.146
 2817SOL    HW1 9350   2.668   0.806   2.061
 2817SOL    HW2 9351   2.616   0.854   2.209
 2818SOL     OW 9352   1.610   0.989   0.589
 2818SOL    HW1 9353   1.608   1.065   0.523
 2818SOL    HW2 9354   1.666   0.915   0.552
 2819SOL     OW 9355   6.738   0.778   6.471
 2819SOL    HW1 9356   6.693   0.695   6.505
 2819SOL    HW2 9357   6.757   0.768   6.374
 2820SOL     OW 9358   2.100   1.873   0.232
 2820SOL    HW1 9359   2.129   1.920   0.149
 2820SOL    HW2 9360   2.124   1.776   0.226
 2821SOL     OW 9361   3.213   2.187   6.162
 2821SOL    HW1 9362   3.301   2.158   6.126
 2821SOL    HW2 9363   3.140   2.133   6.119
 2822SOL     OW 9364   4.274   2.939   1.294
 2822SOL    HW1 9365   4.290   2.896   1.384
 2822SOL    HW2 9366   4.361   2.967   1.254
 2823SOL     OW 9367   6.020   3.549   2.118
 2823SOL    HW1 9368   5.926   3.552   2.152
 2823SOL    HW2 9369   6.072   3.480   2.169
 2824SOL     OW 9370   0.652   4.756   5.281
 2824SOL    HW1 9371   0.690   4.711   5.200
 2824SOL    HW2 9372   0.552   4.748   5.280
 2825SOL     OW 9373   5.431   2.095   5.881
 2825SOL    HW1 9374   5.454   2.119   5.786
 2825SOL    HW2 9375   5.420   1.996   5.888
 2826SOL     OW 9376   2.772   3.267   6.864
 2826SOL    HW1 9377   2.809   3.247   6.954
 2826SOL    HW2 9378   2.824   3.341   6.822
 2827SOL     OW 9379   6.539   1.649   6.826
 2827SOL    HW1 9380   6.489   1.703   6.894
 2827SOL    HW2 9381   6.475   1.590   6.777
 2828SOL     OW 9382   1.672   3.889   0.524
 2828SOL    HW1 9383   1.695   3.984   0.507
 2828SOL    HW2 9384   1.574   3.875   0.510
 2829SOL     OW 9385   3.302   4.156   1.829
 2829SOL    HW1 9386   3.212   4.192   1.806
 2829SOL    HW2 9387   3.302   4.056   1.821
 2830SOL     OW 9388   3.106   5.467   4.440
 2830SOL    HW1 9389   3.152   5.533   4.381
 2830SOL    HW2 9390   3.007   5.473   4.428
 2831SOL     OW 9391   6.663   1.348   1.725
 2831SOL    HW1 9392   6.609   1.289   1.664
 2831SOL    HW2 9393   6.748   1.301   1.749
 2832SOL     OW 9394   1.169   3.896   1.794
 2832SOL    HW1 9395   1.248   3.861   1.744
 2832SOL    HW2 9396   1.114   3.954   1.733
 2833SOL     OW 9397   6.615   3.286   3.688
 2833SOL    HW1 9398   6.651   3.373   3.655
 2833SOL    HW2 9399   6.686   3.237   3.739
 2834SOL     OW 9400   3.158   0.529   4.289
 2834SOL    HW1 9401   3.247   0.503   4.326
 2834SOL    HW2 9402   3.104   0.574   4.361
 2835SOL     OW 9403   7.009   1.239   6.967
 2835SOL    HW1 9404   0.039   1.166   7.015
 2835SOL    HW2 9405   0.012   1.327   7.010
 2836SOL     OW 9406   2.953   5.816   1.472
 2836SOL    HW1 9407   2.947   5.791   1.375
 2836SOL    HW2 9408   2.864   5.848   1.504
 2837SOL     OW 9409   5.778   3.538   2.261
 2837SOL    HW1 9410   5.794   3.546   2.359
 2837SOL    HW2 9411   5.681   3.518   2.244
 2838SOL     OW 9412   0.100   3.691   5.842
 2838SOL    HW1 9413   0.157   3.732   5.771
 2838SOL    HW2 9414   0.120   3.593   5.848
 2839SOL     OW 9415   5.923   2.868   5.859
 2839SOL    HW1 9416   5.913   2.967   5.851
 2839SOL    HW2 9417   5.833   2.825   5.863
 2840SOL     OW 9418   5.854   6.715   5.290
 2840SOL    HW1 9419   5.878   6.643   5.225
 2840SOL    HW2 9420   5.861   6.804   5.244
 2841SOL     OW 9421   5.884   3.554   2.768
 2841SOL    HW1 9422   5.831   3.470   2.777
 2841SOL    HW2 9423   5.921   3.580   2.858
 2842SOL     OW 9424   0.708   6.978   3.848
 2842SOL    HW1 9425   0.677   6.893   3.804
 2842SOL    HW2 9426   0.708   6.966   3.948
 2843SOL     OW 9427   1.421   2.948   4.729
 2843SOL    HW1 9428   1.444   2.934   4.825
 2843SOL    HW2 9429   1.324   2.970   4.720
 2844SOL     OW 9430   5.209   4.460   0.303
 2844SOL    HW1 9431   5.213   4.444   0.204
 2844SOL    HW2 9432   5.231   4.556   0.322
 2845SOL     OW 9433   3.941   1.904   1.337
 2845SOL    HW1 9434   3.874   1.951   1.280
 2845SOL    HW2 9435   3.984   1.831   1.285
 2846SOL     OW 9436   4.855   6.711   6.742
 2846SOL    HW1 9437   4.816   6.652   6.670
 2846SOL    HW2 9438   4.784   6.734   6.808
 2847SOL     OW 9439   5.308   4.650   2.324
 2847SOL    HW1 9440   5.263   4.655   2.413
 2847SOL    HW2 9441   5.367   4.730   2.311
 2848SOL     OW 9442   0.684   3.642   7.007
 2848SOL    HW1 9443   0.645   3.731   0.011
 2848SOL    HW2 9444   0.617   3.587   6.958
 2849SOL     OW 9445   5.749   0.722   1.733
 2849SOL    HW1 9446   5.767   0.729   1.635
 2849SOL    HW2 9447   5.677   0.655   1.750
 2850SOL     OW 9448   0.695   1.128   1.076
 2850SOL    HW1 9449   0.740   1.194   1.016
 2850SOL    HW2 9450   0.621   1.174   1.126
 2851SOL     OW 9451   3.387   3.504   1.648
 2851SOL    HW1 9452   3.347   3.582   1.600
 2851SOL    HW2 9453   3.447   3.537   1.721
 2852SOL     OW 9454   0.242   5.689   5.225
 2852SOL    HW1 9455   0.221   5.661   5.319
 2852SOL    HW2 9456   0.331   5.651   5.198
 2853SOL     OW 9457   0.361   4.804   5.246
 2853SOL    HW1 9458   0.318   4.715   5.263
 2853SOL    HW2 9459   0.291   4.870   5.219
 2854SOL     OW 9460   3.207   0.314   6.887
 2854SOL    HW1 9461   3.223   0.250   6.812
 2854SOL    HW2 9462   3.125   0.368   6.868
 2855SOL     OW 9463   2.218   2.198   4.335
 2855SOL    HW1 9464   2.155   2.225   4.261
 2855SOL    HW2 9465   2.302   2.251   4.328
 2856SOL     OW 9466   1.166   5.786   4.881
 2856SOL    HW1 9467   1.127   5.790   4.973
 2856SOL    HW2 9468   1.265   5.775   4.888
 2857SOL     OW 9469   0.151   4.388   0.446
 2857SOL    HW1 9470   0.221   4.348   0.387
 2857SOL    HW2 9471   0.162   4.487   0.449
 2858SOL     OW 9472   5.427   4.579   3.554
 2858SOL    HW1 9473   5.523   4.553   3.564
 2858SOL    HW2 9474   5.376   4.503   3.513
 2859SOL     OW 9475   6.384   4.977   2.074
 2859SOL    HW1 9476   6.288   5.005   2.067
 2859SOL    HW2 9477   6.391   4.878   2.062
 2860SOL     OW 9478   1.394   6.499   3.624
 2860SOL    HW1 9479   1.404   6.449   3.539
 2860SOL    HW2 9480   1.484   6.515   3.665
 2861SOL     OW 9481   5.331   3.894   5.332
 2861SOL    HW1 9482   5.245   3.943   5.345
 2861SOL    HW2 9483   5.332   3.853   5.240
 2862SOL     OW 9484   4.358   0.721   6.955
 2862SOL    HW1 9485   4.441   0.673   6.927
 2862SOL    HW2 9486   4.382   0.815   6.980
 2863SOL     OW 9487   5.462   1.801   5.837
 2863SOL    HW1 9488   5.434   1.766   5.748
 2863SOL    HW2 9489   5.480   1.723   5.898
 2864SOL     OW 9490   4.310   4.433   1.126
 2864SOL    HW1 9491   4.404   4.462   1.106
 2864SOL    HW2 9492   4.266   4.401   1.042
 2865SOL     OW 9493   5.290   5.086   5.994
 2865SOL    HW1 9494   5.346   5.016   6.037
 2865SOL    HW2 9495   5.314   5.094   5.897
 2866SOL     OW 9496   3.844   5.677   0.817
 2866SOL    HW1 9497   3.817   5.585   0.787
 2866SOL    HW2 9498   3.788   5.745   0.769
 2867SOL     OW 9499   0.146   6.315   2.867
 2867SOL    HW1 9500   0.220   6.380   2.886
 2867SOL    HW2 9501   0.107   6.334   2.777
 2868SOL     OW 9502   6.876   6.812   5.517
 2868SOL    HW1 9503   6.899   6.715   5.501
 2868SOL    HW2 9504   6.957   6.859   5.551
 2869SOL     OW 9505   5.275   4.976   5.333
 2869SOL    HW1 9506   5.312   5.069   5.333
 2869SOL    HW2 9507   5.350   4.910   5.334
 2870SOL     OW 9508   0.718   1.325   1.439
 2870SOL    HW1 9509   0.664   1.401   1.402
 2870SOL    HW2 9510   0.657   1.253   1.472
 2871SOL     OW 9511   4.801   1.508   3.562
 2871SOL    HW1 9512   4.832   1.483   3.653
 2871SOL    HW2 9513   4.879   1.508   3.499
 2872SOL     OW 9514   3.604   2.016   2.645
 2872SOL    HW1 9515   3.554   2.063   2.572
 2872SOL    HW2 9516   3.539   1.967   2.704
 2873SOL     OW 9517   0.774   6.898   2.554
 2873SOL    HW1 9518   0.802   6.967   2.487
 2873SOL    HW2 9519   0.698   6.845   2.516
 2874SOL     OW 9520   1.803   0.940   3.083
 2874SOL    HW1 9521   1.730   0.967   3.146
 2874SOL    HW2 9522   1.871   0.886   3.131
 2875SOL     OW 9523   2.139   0.341   2.659
 2875SOL    HW1 9524   2.192   0.381   2.734
 2875SOL    HW2 9525   2.201   0.307   2.588
 2876SOL     OW 9526   0.693   6.973   0.850
 2876SOL    HW1 9527   0.676   6.906   0.923
 2876SOL    HW2 9528   0.690   0.046   0.890
 2877SOL     OW 9529   1.477   3.421   5.994
 2877SOL    HW1 9530   1.560   3.474   5.975
 2877SOL    HW2 9531   1.452   3.432   6.090
 2878SOL     OW 9532   3.161   3.107   4.391
 2878SOL    HW1 9533   3.185   3.150   4.478
 2878SOL    HW2 9534   3.197   3.014   4.389
 2879SOL     OW 9535   5.504   5.570   0.355
 2879SOL    HW1 9536   5.433   5.640   0.348
 2879SOL    HW2 9537   5.507   5.534   0.448
 2880SOL     OW 9538   1.386   1.817   3.016
 2880SOL    HW1 9539   1.478   1.826   3.052
 2880SOL    HW2 9540   1.349   1.727   3.040
 2881SOL     OW 9541   5.226   5.250   7.017
 2881SOL    HW1 9542   5.235   5.251   6.918
 2881SOL    HW2 9543   5.195   5.160   0.028
 2882SOL     OW 9544   4.365   6.557   6.744
 2882SOL    HW1 9545   4.420   6.628   6.700
 2882SOL    HW2 9546   4.313   6.598   6.819
 2883SOL     OW 9547   5.351   6.146   3.324
 2883SOL    HW1 9548   5.337   6.235   3.366
 2883SOL    HW2 9549   5.262   6.101   3.313
 2884SOL     OW 9550   6.135   5.705   3.451
 2884SOL    HW1 9551   6.077   5.743   3.524
 2884SOL    HW2 9552   6.120   5.607   3.444
 2885SOL     OW 9553   0.435   3.506   3.572
 2885SOL    HW1 9554   0.424   3.411   3.600
 2885SOL    HW2 9555   0.471   3.510   3.479
 2886SOL     OW 9556   2.238   4.304   4.795
 2886SOL    HW1 9557   2.145   4.294   4.760
 2886SOL    HW2 9558   2.262   4.225   4.852
 2887SOL     OW 9559   0.048   5.304   2.615
 2887SOL    HW1 9560   0.086   5.217   2.585
 2887SOL    HW2 9561   0.064   5.315   2.713
 2888SOL     OW 9562   4.753   6.543   6.497
 2888SOL    HW1 9563   4.729   6.488   6.417
 2888SOL    HW2 9564   4.811   6.619   6.469
 2889SOL     OW 9565   3.697   5.747   4.310
 2889SOL    HW1 9566   3.687   5.742   4.211
 2889SOL    HW2 9567   3.776   5.691   4.338
 2890SOL     OW 9568   1.742   2.436   0.205
 2890SOL    HW1 9569   1.646   2.460   0.189
 2890SOL    HW2 9570   1.798   2.473   0.131
 2891SOL     OW 9571   1.002   1.534   5.166
 2891SOL    HW1 9572   0.931   1.556   5.099
 2891SOL    HW2 9573   1.083   1.590   5.148
 2892SOL     OW 9574   5.512   4.301   2.193
 2892SOL    HW1 9575   5.605   4.294   2.156
 2892SOL    HW2 9576   5.461   4.371   2.142
 2893SOL     OW 9577   6.749   5.145   5.193
 2893SOL    HW1 9578   6.709   5.109   5.277
 2893SOL    HW2 9579   6.676   5.173   5.131
 2894SOL     OW 9580   1.615   5.498   0.916
 2894SOL    HW1 9581   1.649   5.435   0.847
 2894SOL    HW2 9582   1.570   5.448   0.989
 2895SOL     OW 9583   4.777   6.943   6.256
 2895SOL    HW1 9584   4.753   6.994   6.338
 2895SOL    HW2 9585   4.769   7.002   6.176
 2896SOL     OW 9586   6.255   0.419   5.415
 2896SOL    HW1 9587   6.158   0.397   5.424
 2896SOL    HW2 9588   6.310   0.341   5.444
 2897SOL     OW 9589   3.641   5.790   3.344
 2897SOL    HW1 9590   3.626   5.727   3.419
 2897SOL    HW2 9591   3.554   5.817   3.304
 2898SOL     OW 9592   5.249   2.745   3.301
 2898SOL    HW1 9593   5.344   2.740   3.331
 2898SOL    HW2 9594   5.202   2.660   3.325
 2899SOL     OW 9595   6.274   2.785   1.080
 2899SOL    HW1 9596   6.202   2.795   1.149
 2899SOL    HW2 9597   6.232   2.768   0.991
 2900SOL     OW 9598   2.638   2.837   5.571
 2900SOL    HW1 9599   2.697   2.918   5.576
 2900SOL    HW2 9600   2.682   2.761   5.618
 2901SOL     OW 9601   1.506   3.846   1.575
 2901SOL    HW1 9602   1.512   3.763   1.520
 2901SOL    HW2 9603   1.416   3.888   1.563
 2902SOL     OW 9604   5.520   5.987   3.508
 2902SOL    HW1 9605   5.458   6.035   3.446
 2902SOL    HW2 9606   5.467   5.945   3.582
 2903SOL     OW 9607   0.394   5.356   1.074
 2903SOL    HW1 9608   0.419   5.401   1.160
 2903SOL    HW2 9609   0.477   5.323   1.028
 2904SOL     OW 9610   2.838   4.840   4.897
 2904SOL    HW1 9611   2.753   4.880   4.864
 2904SOL    HW2 9612   2.819   4.753   4.942
 2905SOL     OW 9613   1.053   5.091   1.471
 2905SOL    HW1 9614   1.034   5.000   1.509
 2905SOL    HW2 9615   0.967   5.142   1.463
 2906SOL     OW 9616   6.958   6.059   5.937
 2906SOL    HW1 9617   6.954   6.116   6.019
 2906SOL    HW2 9618   6.866   6.054   5.896
 2907SOL     OW 9619   6.889   1.129   5.712
 2907SOL    HW1 9620   6.801   1.089   5.738
 2907SOL    HW2 9621   6.890   1.146   5.614
 2908SOL     OW 9622   4.083   6.356   4.131
 2908SOL    HW1 9623   4.068   6.391   4.038
 2908SOL    HW2 9624   4.007   6.298   4.158
 2909SOL     OW 9625   0.038   0.049   1.514
 2909SOL    HW1 9626   0.109   0.015   1.576
 2909SOL    HW2 9627   6.993   6.995   1.492
 2910SOL     OW 9628   1.208   0.997   4.187
 2910SOL    HW1 9629   1.220   0.916   4.131
 2910SOL    HW2 9630   1.171   0.971   4.276
 2911SOL     OW 9631   6.724   4.018   4.242
 2911SOL    HW1 9632   6.699   4.083   4.313
 2911SOL    HW2 9633   6.784   3.947   4.281
 2912SOL     OW 9634   0.646   1.438   2.295
 2912SOL    HW1 9635   0.604   1.529   2.297
 2912SOL    HW2 9636   0.625   1.394   2.207
 2913SOL     OW 9637   1.000   6.658   3.988
 2913SOL    HW1 9638   1.088   6.616   3.965
 2913SOL    HW2 9639   1.013   6.757   4.000
 2914SOL     OW 9640   3.643   4.250   1.144
 2914SOL    HW1 9641   3.587   4.307   1.203
 2914SOL    HW2 9642   3.599   4.161   1.132
 2915SOL     OW 9643   1.975   1.062   4.273
 2915SOL    HW1 9644   2.010   1.143   4.319
 2915SOL    HW2 9645   2.045   1.025   4.212
 2916SOL     OW 9646   0.500   5.287   6.510
 2916SOL    HW1 9647   0.552   5.358   6.558
 2916SOL    HW2 9648   0.489   5.313   6.414
 2917SOL     OW 9649   2.222   0.349   3.250
 2917SOL    HW1 9650   2.134   0.340   3.203
 2917SOL    HW2 9651   2.231   0.442   3.285
 2918SOL     OW 9652   5.066   2.517   1.173
 2918SOL    HW1 9653   5.009   2.454   1.120
 2918SOL    HW2 9654   5.040   2.514   1.269
 2919SOL     OW 9655   1.032   6.540   4.992
 2919SOL    HW1 9656   1.094   6.532   4.914
 2919SOL    HW2 9657   0.945   6.496   4.969
 2920SOL     OW 9658   2.819   2.576   1.737
 2920SOL    HW1 9659   2.849   2.564   1.642
 2920SOL    HW2 9660   2.873   2.517   1.796
 2921SOL     OW 9661   0.496   5.603   3.462
 2921SOL    HW1 9662   0.570   5.634   3.522
 2921SOL    HW2 9663   0.408   5.615   3.508
 2922SOL     OW 9664   3.801   4.875   3.520
 2922SOL    HW1 9665   3.766   4.880   3.427
 2922SOL    HW2 9666   3.733   4.912   3.584
 2923SOL     OW 9667   1.772   5.591   4.534
 2923SOL    HW1 9668   1.710   5.667   4.555
 2923SOL    HW2 9669   1.865   5.615   4.562
 2924SOL     OW 9670   5.281   1.603   6.559
 2924SOL    HW1 9671   5.288   1.676   6.627
 2924SOL    HW2 9672   5.358   1.541   6.569
 2925SOL     OW 9673   5.420   0.014   4.693
 2925SOL    HW1 9674   5.463   6.947   4.722
 2925SOL    HW2 9675   5.439   0.028   4.596
 2926SOL     OW 9676   6.125   2.920   4.751
 2926SOL    HW1 9677   6.195   2.958   4.812
 2926SOL    HW2 9678   6.050   2.882   4.805
 2927SOL     OW 9679   1.233   2.347   2.271
 2927SOL    HW1 9680   1.294   2.281   2.228
 2927SOL    HW2 9681   1.196   2.409   2.202
 2928SOL     OW 9682   5.181   4.319   0.549
 2928SOL    HW1 9683   5.222   4.343   0.461
 2928SOL    HW2 9684   5.249   4.329   0.621
 2929SOL     OW 9685   2.104   1.911   3.204
 2929SOL    HW1 9686   2.183   1.860   3.172
 2929SOL    HW2 9687   2.053   1.856   3.271
 2930SOL     OW 9688   0.707   3.230   4.308
 2930SOL    HW1 9689   0.786   3.289   4.299
 2930SOL    HW2 9690   0.624   3.282   4.288
 2931SOL     OW 9691   6.343   4.391   6.341
 2931SOL    HW1 9692   6.311   4.311   6.290
 2931SOL    HW2 9693   6.406   4.362   6.413
 2932SOL     OW 9694   6.359   5.950   0.984
 2932SOL    HW1 9695   6.343   5.948   1.083
 2932SOL    HW2 9696   6.457   5.943   0.966
 2933SOL     OW 9697   1.077   0.085   0.046
 2933SOL    HW1 9698   1.144   0.115   0.114
 2933SOL    HW2 9699   1.041   0.165   7.017
 2934SOL     OW 9700   5.719   5.239   1.836
 2934SOL    HW1 9701   5.778   5.164   1.867
 2934SOL    HW2 9702   5.623   5.209   1.838
 2935SOL     OW 9703   0.814   4.042   5.723
 2935SOL    HW1 9704   0.892   3.988   5.755
 2935SOL    HW2 9705   0.730   4.006   5.764
 2936SOL     OW 9706   4.062   5.914   2.035
 2936SOL    HW1 9707   3.992   5.984   2.019
 2936SOL    HW2 9708   4.120   5.905   1.955
 2937SOL     OW 9709   6.160   3.757   3.103
 2937SOL    HW1 9710   6.124   3.849   3.088
 2937SOL    HW2 9711   6.161   3.707   3.016
 2938SOL     OW 9712   0.401   5.441   0.487
 2938SOL    HW1 9713   0.316   5.459   0.537
 2938SOL    HW2 9714   0.420   5.343   0.487
 2939SOL     OW 9715   6.299   6.621   1.439
 2939SOL    HW1 9716   6.331   6.615   1.344
 2939SOL    HW2 9717   6.356   6.563   1.497
 2940SOL     OW 9718   4.588   6.727   4.104
 2940SOL    HW1 9719   4.659   6.781   4.060
 2940SOL    HW2 9720   4.499   6.749   4.063
 2941SOL     OW 9721   2.771   4.821   2.842
 2941SOL    HW1 9722   2.775   4.916   2.874
 2941SOL    HW2 9723   2.675   4.794   2.833
 2942SOL     OW 9724   3.386   2.400   1.750
 2942SOL    HW1 9725   3.408   2.491   1.713
 2942SOL    HW2 9726   3.464   2.366   1.802
 2943SOL     OW 9727   0.365   3.695   3.805
 2943SOL    HW1 9728   0.366   3.638   3.722
 2943SOL    HW2 9729   0.291   3.762   3.798
 2944SOL     OW 9730   0.537   5.950   3.353
 2944SOL    HW1 9731   0.587   5.909   3.276
 2944SOL    HW2 9732   0.584   5.928   3.438
 2945SOL     OW 9733   6.059   3.811   0.839
 2945SOL    HW1 9734   6.040   3.838   0.744
 2945SOL    HW2 9735   5.987   3.846   0.899
 2946SOL     OW 9736   3.373   3.534   4.112
 2946SOL    HW1 9737   3.332   3.583   4.036
 2946SOL    HW2 9738   3.371   3.591   4.194
 2947SOL     OW 9739   6.184   5.468   6.834
 2947SOL    HW1 9740   6.246   5.537   6.798
 2947SOL    HW2 9741   6.090   5.503   6.831
 2948SOL     OW 9742   6.301   3.986   0.990
 2948SOL    HW1 9743   6.209   3.954   0.966
 2948SOL    HW2 9744   6.366   3.956   0.919
 2949SOL     OW 9745   1.534   6.341   1.024
 2949SOL    HW1 9746   1.556   6.351   0.927
 2949SOL    HW2 9747   1.439   6.366   1.039
 2950SOL     OW 9748   5.679   5.302   2.522
 2950SOL    HW1 9749   5.764   5.253   2.506
 2950SOL    HW2 9750   5.633   5.265   2.602
 2951SOL     OW 9751   0.662   2.106   1.422
 2951SOL    HW1 9752   0.640   2.190   1.374
 2951SOL    HW2 9753   0.738   2.060   1.376
 2952SOL     OW 9754   0.319   1.446   4.172
 2952SOL    HW1 9755   0.264   1.529   4.161
 2952SOL    HW2 9756   0.411   1.462   4.135
 2953SOL     OW 9757   1.349   5.956   2.977
 2953SOL    HW1 9758   1.264   5.992   3.014
 2953SOL    HW2 9759   1.386   5.887   3.038
 2954SOL     OW 9760   0.818   4.196   6.131
 2954SOL    HW1 9761   0.806   4.123   6.197
 2954SOL    HW2 9762   0.915   4.217   6.120
 2955SOL     OW 9763   1.772   4.653   6.484
 2955SOL    HW1 9764   1.836   4.698   6.546
 2955SOL    HW2 9765   1.679   4.685   6.504
 2956SOL     OW 9766   5.525   4.021   4.655
 2956SOL    HW1 9767   5.588   3.944   4.663
 2956SOL    HW2 9768   5.577   4.107   4.654
 2957SOL     OW 9769   1.500   5.358   2.780
 2957SOL    HW1 9770   1.531   5.269   2.810
 2957SOL    HW2 9771   1.408   5.376   2.815
 2958SOL     OW 9772   1.614   4.773   1.639
 2958SOL    HW1 9773   1.694   4.799   1.585
 2958SOL    HW2 9774   1.588   4.679   1.617
 2959SOL     OW 9775   0.193   4.715   3.970
 2959SOL    HW1 9776   0.178   4.723   4.069
 2959SOL    HW2 9777   0.106   4.691   3.926
 2960SOL     OW 9778   4.992   6.603   1.149
 2960SOL    HW1 9779   4.892   6.611   1.152
 2960SOL    HW2 9780   5.028   6.600   1.242
 2961SOL     OW 9781   5.944   2.415   1.674
 2961SOL    HW1 9782   5.971   2.501   1.718
 2961SOL    HW2 9783   5.995   2.340   1.715
 2962SOL     OW 9784   0.149   6.986   4.005
 2962SOL    HW1 9785   0.235   7.010   3.960
 2962SOL    HW2 9786   0.169   6.938   4.091
 2963SOL     OW 9787   1.953   1.360   5.604
 2963SOL    HW1 9788   1.873   1.412   5.575
 2963SOL    HW2 9789   1.995   1.404   5.683
 2964SOL     OW 9790   1.707   0.202   6.422
 2964SOL    HW1 9791   1.642   0.161   6.485
 2964SOL    HW2 9792   1.775   0.134   6.395
 2965SOL     OW 9793   5.838   0.602   6.362
 2965SOL    HW1 9794   5.805   0.509   6.346
 2965SOL    HW2 9795   5.886   0.606   6.449
 2966SOL     OW 9796   3.777   5.794   3.012
 2966SOL    HW1 9797   3.786   5.717   3.074
 2966SOL    HW2 9798   3.701   5.852   3.041
 2967SOL     OW 9799   5.499   6.764   4.845
 2967SOL    HW1 9800   5.458   6.756   4.936
 2967SOL    HW2 9801   5.593   6.729   4.847
 2968SOL     OW 9802   1.314   4.265   1.658
 2968SOL    HW1 9803   1.214   4.267   1.654
 2968SOL    HW2 9804   1.351   4.241   1.568
 2969SOL     OW 9805   4.648   2.683   4.555
 2969SOL    HW1 9806   4.736   2.671   4.509
 2969SOL    HW2 9807   4.595   2.598   4.548
 2970SOL     OW 9808   2.578   2.323   5.765
 2970SOL    HW1 9809   2.568   2.229   5.798
 2970SOL    HW2 9810   2.603   2.382   5.842
 2971SOL     OW 9811   4.276   3.605   6.263
 2971SOL    HW1 9812   4.374   3.614   6.278
 2971SOL    HW2 9813   4.238   3.694   6.236
 2972SOL     OW 9814   0.610   5.966   6.415
 2972SOL    HW1 9815   0.556   6.047   6.392
 2972SOL    HW2 9816   0.647   5.926   6.332
 2973SOL     OW 9817   5.425   0.830   4.264
 2973SOL    HW1 9818   5.492   0.763   4.297
 2973SOL    HW2 9819   5.472   0.916   4.244
 2974SOL     OW 9820   5.740   6.085   2.410
 2974SOL    HW1 9821   5.700   6.135   2.333
 2974SOL    HW2 9822   5.740   6.144   2.491
 2975SOL     OW 9823   6.908   3.456   4.381
 2975SOL    HW1 9824   6.933   3.476   4.287
 2975SOL    HW2 9825   6.981   3.402   4.424
 2976SOL     OW 9826   3.658   0.344   1.697
 2976SOL    HW1 9827   3.734   0.281   1.678
 2976SOL    HW2 9828   3.694   0.437   1.700
 2977SOL     OW 9829   1.859   1.461   2.097
 2977SOL    HW1 9830   1.895   1.523   2.166
 2977SOL    HW2 9831   1.884   1.367   2.119
 2978SOL     OW 9832   3.663   5.943   0.450
 2978SOL    HW1 9833   3.623   6.015   0.394
 2978SOL    HW2 9834   3.747   5.911   0.407
 2979SOL     OW 9835   2.316   1.184   5.869
 2979SOL    HW1 9836   2.305   1.141   5.780
 2979SOL    HW2 9837   2.406   1.161   5.906
 2980SOL     OW 9838   3.581   2.849   3.841
 2980SOL    HW1 9839   3.511   2.919   3.828
 2980SOL    HW2 9840   3.577   2.814   3.935
 2981SOL     OW 9841   3.155   2.246   1.741
 2981SOL    HW1 9842   3.238   2.283   1.698
 2981SOL    HW2 9843   3.113   2.315   1.799
 2982SOL     OW 9844   1.788   1.167   1.199
 2982SOL    HW1 9845   1.846   1.236   1.242
 2982SOL    HW2 9846   1.746   1.110   1.270
 2983SOL     OW 9847   6.200   2.855   6.584
 2983SOL    HW1 9848   6.135   2.785   6.615
 2983SOL    HW2 9849   6.247   2.823   6.502
 2984SOL     OW 9850   0.499   6.101   1.229
 2984SOL    HW1 9851   0.496   6.001   1.224
 2984SOL    HW2 9852   0.427   6.140   1.170
 2985SOL     OW 9853   6.403   0.205   5.583
 2985SOL    HW1 9854   6.327   0.162   5.633
 2985SOL    HW2 9855   6.469   0.242   5.648
 2986SOL     OW 9856   3.475   3.476   2.606
 2986SOL    HW1 9857   3.419   3.403   2.568
 2986SOL    HW2 9858   3.529   3.440   2.682
 2987SOL     OW 9859   2.129   5.630   4.983
 2987SOL    HW1 9860   2.057   5.574   5.025
 2987SOL    HW2 9861   2.173   5.685   5.054
 2988SOL     OW 9862   0.618   1.246   6.786
 2988SOL    HW1 9863   0.521   1.223   6.793
 2988SOL    HW2 9864   0.659   1.197   6.710
 2989SOL     OW 9865   5.665   3.726   5.653
 2989SOL    HW1 9866   5.764   3.724   5.667
 2989SOL    HW2 9867   5.632   3.633   5.639
 2990SOL     OW 9868   4.859   1.165   5.561
 2990SOL    HW1 9869   4.864   1.109   5.644
 2990SOL    HW2 9870   4.763   1.175   5.533
 2991SOL     OW 9871   6.541   2.891   0.049
 2991SOL    HW1 9872   6.462   2.830   0.057
 2991SOL    HW2 9873   6.551   2.919   6.973
 2992SOL     OW 9874   0.901   4.044   5.212
 2992SOL    HW1 9875   0.845   4.048   5.295
 2992SOL    HW2 9876   0.979   4.106   5.222
 2993SOL     OW 9877   3.333   4.984   0.124
 2993SOL    HW1 9878   3.339   5.049   0.048
 2993SOL    HW2 9879   3.337   4.891   0.088
 2994SOL     OW 9880   2.450   5.083   5.005
 2994SOL    HW1 9881   2.452   5.175   5.045
 2994SOL    HW2 9882   2.542   5.055   4.980
 2995SOL     OW 9883   4.996   0.128   1.711
 2995SOL    HW1 9884   5.038   0.215   1.738
 2995SOL    HW2 9885   5.059   0.053   1.733
 2996SOL     OW 9886   6.860   0.812   4.206
 2996SOL    HW1 9887   6.878   0.839   4.111
 2996SOL    HW2 9888   6.790   0.873   4.245
 2997SOL     OW 9889   4.792   5.824   4.179
 2997SOL    HW1 9890   4.849   5.744   4.165
 2997SOL    HW2 9891   4.719   5.802   4.244
 2998SOL     OW 9892   2.713   0.195   2.190
 2998SOL    HW1 9893   2.633   0.255   2.192
 2998SOL    HW2 9894   2.686   0.102   2.217
 2999SOL     OW 9895   1.548   4.662   0.243
 2999SOL    HW1 9896   1.467   4.622   0.285
 2999SOL    HW2 9897   1.578   4.604   0.168
 3000SOL     OW 9898   2.057   3.867   6.152
 3000SOL    HW1 9899   2.067   3.910   6.241
 3000SOL    HW2 9900   1.972   3.814   6.150
 3001SOL     OW 9901   3.830   0.823   6.428
 3001SOL    HW1 9902   3.830   0.894   6.499
 3001SOL    HW2 9903   3.754   0.841   6.364
 3002SOL     OW 9904   1.077   1.942   2.133
 3002SOL    HW1 9905   1.155   1.879   2.126
 3002SOL    HW2 9906   1.086   1.995   2.218
 3003SOL     OW 9907   0.837   5.970   0.540
 3003SOL    HW1 9908   0.874   6.003   0.453
 3003SOL    HW2 9909   0.890   5.890   0.570
 3004SOL     OW 9910   3.144   6.669   4.284
 3004SOL    HW1 9911   3.102   6.759   4.298
 3004SOL    HW2 9912   3.146   6.648   4.186
 3005SOL     OW 9913   2.365   2.295   0.934
 3005SOL    HW1 9914   2.297   2.326   1.001
 3005SOL    HW2 9915   2.360   2.195   0.925
 3006SOL     OW 9916   5.541   1.471   5.806
 3006SOL    HW1 9917   5.624   1.419   5.786
 3006SOL    HW2 9918   5.473   1.456   5.735
 3007SOL     OW 9919   6.282   5.635   5.986
 3007SOL    HW1 9920   6.327   5.685   5.912
 3007SOL    HW2 9921   6.183   5.646   5.979
 3008SOL     OW 9922   5.219   4.002   5.866
 3008SOL    HW1 9923   5.151   3.971   5.800
 3008SOL    HW2 9924   5.311   3.975   5.835
 3009SOL     OW 9925   5.508   3.350   2.007
 3009SOL    HW1 9926   5.558   3.384   2.086
 3009SOL    HW2 9927   5.503   3.250   2.011
 3010SOL     OW 9928   4.311   4.847   1.714
 3010SOL    HW1 9929   4.337   4.935   1.673
 3010SOL    HW2 9930   4.356   4.837   1.802
 3011SOL     OW 9931   6.179   6.748   0.052
 3011SOL    HW1 9932   6.138   6.822   0.105
 3011SOL    HW2 9933   6.112   6.675   0.039
 3012SOL     OW 9934   2.463   1.356   4.591
 3012SOL    HW1 9935   2.492   1.276   4.538
 3012SOL    HW2 9936   2.367   1.345   4.618
 3013SOL     OW 9937   0.745   5.602   5.203
 3013SOL    HW1 9938   0.658   5.640   5.173
 3013SOL    HW2 9939   0.777   5.651   5.284
 3014SOL     OW 9940   3.927   0.353   0.214
 3014SOL    HW1 9941   3.835   0.345   0.176
 3014SOL    HW2 9942   3.939   0.444   0.253
 3015SOL     OW 9943   2.229   7.002   5.968
 3015SOL    HW1 9944   2.190   0.007   6.057
 3015SOL    HW2 9945   2.326   6.982   5.978
 3016SOL     OW 9946   3.261   1.073   4.276
 3016SOL    HW1 9947   3.320   0.997   4.246
 3016SOL    HW2 9948   3.176   1.071   4.224
 3017SOL     OW 9949   1.190   6.129   6.934
 3017SOL    HW1 9950   1.247   6.212   6.936
 3017SOL    HW2 9951   1.095   6.154   6.955
 3018SOL     OW 9952   2.718   2.373   1.404
 3018SOL    HW1 9953   2.813   2.346   1.416
 3018SOL    HW2 9954   2.674   2.382   1.494
 3019SOL     OW 9955   1.606   0.495   5.331
 3019SOL    HW1 9956   1.644   0.544   5.252
 3019SOL    HW2 9957   1.651   0.406   5.339
 3020SOL     OW 9958   4.885   4.308   7.018
 3020SOL    HW1 9959   4.822   4.382   6.996
 3020SOL    HW2 9960   4.853   4.223   6.977
 3021SOL     OW 9961   4.447   6.365   4.213
 3021SOL    HW1 9962   4.359   6.411   4.225
 3021SOL    HW2 9963   4.521   6.430   4.230
 3022SOL     OW 9964   3.913   6.864   4.040
 3022SOL    HW1 9965   3.948   6.931   4.106
 3022SOL    HW2 9966   3.898   6.776   4.086
 3023SOL     OW 9967   5.116   4.558   5.317
 3023SOL    HW1 9968   5.170   4.595   5.241
 3023SOL    HW2 9969   5.043   4.501   5.280
 3024SOL     OW 9970   6.473   1.411   0.197
 3024SOL    HW1 9971   6.405   1.343   0.169
 3024SOL    HW2 9972   6.479   1.412   0.297
 3025SOL     OW 9973   4.439   5.355   0.895
 3025SOL    HW1 9974   4.436   5.281   0.962
 3025SOL    HW2 9975   4.349   5.365   0.852
 3026SOL     OW 9976   0.202   0.208   2.478
 3026SOL    HW1 9977   0.172   0.147   2.404
 3026SOL    HW2 9978   0.245   0.153   2.550
 3027SOL     OW 9979   4.275   0.046   0.799
 3027SOL    HW1 9980   4.201   7.000   0.779
 3027SOL    HW2 9981   4.353   7.015   0.836
 3028SOL     OW 9982   3.703   3.268   4.608
 3028SOL    HW1 9983   3.620   3.237   4.561
 3028SOL    HW2 9984   3.765   3.309   4.541
 3029SOL     OW 9985   0.239   2.193   5.053
 3029SOL    HW1 9986   0.294   2.131   5.110
 3029SOL    HW2 9987   0.212   2.273   5.108
 3030SOL     OW 9988   0.766   3.034   6.158
 3030SOL    HW1 9989   0.715   2.997   6.081
 3030SOL    HW2 9990   0.862   3.046   6.134
 3031SOL     OW 9991   0.581   4.742   6.825
 3031SOL    HW1 9992   0.633   4.814   6.779
 3031SOL    HW2 9993   0.641   4.664   6.842
 3032SOL     OW 9994   3.435   6.721   3.830
 3032SOL    HW1 9995   3.436   6.813   3.868
 3032SOL    HW2 9996   3.506   6.666   3.875
 3033SOL     OW 9997   1.942   1.025   6.710
 3033SOL    HW1 9998   1.989   1.113   6.705
 3033SOL    HW2 9999   1.946   0.991   6.804
 3034SOL     OW10000   5.604   3.521   3.392
 3034SOL    HW110001   5.603   3.620   3.406
 3034SOL    HW210002   5.524   3.480   3.435
 3035SOL     OW10003   6.693   3.267   6.526
 3035SOL    HW110004   6.665   3.362   6.510
 3035SOL    HW210005   6.752   3.237   6.452
 3036SOL     OW10006   3.415   1.709   5.914
 3036SOL    HW110007   3.414   1.610   5.901
 3036SOL    HW210008   3.509   1.743   5.910
 3037SOL     OW10009   0.524   4.832   6.334
 3037SOL    HW110010   0.568   4.746   6.361
 3037SOL    HW210011   0.594   4.901   6.317
 3038SOL     OW10012   6.163   4.634   5.055
 3038SOL    HW110013   6.144   4.566   5.126
 3038SOL    HW210014   6.086   4.638   4.992
 3039SOL     OW10015   5.724   3.240   6.153
 3039SOL    HW110016   5.687   3.333   6.153
 3039SOL    HW210017   5.652   3.176   6.126
 3040SOL     OW10018   3.861   6.636   6.462
 3040SOL    HW110019   3.785   6.659   6.401
 3040SOL    HW210020   3.930   6.586   6.411
 3041SOL     OW10021   2.088   5.559   6.915
 3041SOL    HW110022   2.141   5.517   6.989
 3041SOL    HW210023   1.992   5.562   6.942
 3042SOL     OW10024   0.146   5.203   3.964
 3042SOL    HW110025   0.144   5.187   4.063
 3042SOL    HW210026   0.195   5.129   3.919
 3043SOL     OW10027   2.709   4.133   1.174
 3043SOL    HW110028   2.702   4.187   1.090
 3043SOL    HW210029   2.725   4.037   1.151
 3044SOL     OW10030   3.994   3.363   4.785
 3044SOL    HW110031   4.032   3.345   4.694
 3044SOL    HW210032   3.938   3.286   4.814
 3045SOL     OW10033   5.458   0.335   2.989
 3045SOL    HW110034   5.385   0.282   3.033
 3045SOL    HW210035   5.459   0.427   3.027
 3046SOL     OW10036   6.216   5.525   1.335
 3046SOL    HW110037   6.197   5.553   1.241
 3046SOL    HW210038   6.254   5.602   1.386
 3047SOL     OW10039   5.408   1.692   3.493
 3047SOL    HW110040   5.477   1.664   3.426
 3047SOL    HW210041   5.444   1.766   3.549
 3048SOL     OW10042   4.450   4.801   1.224
 3048SOL    HW110043   4.396   4.790   1.307
 3048SOL    HW210044   4.517   4.874   1.238
 3049SOL     OW10045   0.449   0.862   1.851
 3049SOL    HW110046   0.513   0.936   1.832
 3049SOL    HW210047   0.482   0.809   1.930
 3050SOL     OW10048   3.976   2.366   6.043
 3050SOL    HW110049   3.965   2.444   5.982
 3050SOL    HW210050   3.922   2.289   6.008
 3051SOL     OW10051   2.165   5.258   6.781
 3051SOL    HW110052   2.254   5.248   6.827
 3051SOL    HW210053   2.177   5.242   6.683
 3052SOL     OW10054   5.968   6.335   3.742
 3052SOL    HW110055   5.950   6.432   3.733
 3052SOL    HW210056   6.020   6.318   3.826
 3053SOL     OW10057   0.734   5.005   6.297
 3053SOL    HW110058   0.777   4.972   6.213
 3053SOL    HW210059   0.763   5.099   6.315
 3054SOL     OW10060   6.197   6.635   3.144
 3054SOL    HW110061   6.119   6.697   3.158
 3054SOL    HW210062   6.164   6.548   3.107
 3055SOL     OW10063   5.037   6.530   0.493
 3055SOL    HW110064   5.087   6.589   0.557
 3055SOL    HW210065   4.990   6.588   0.426
 3056SOL     OW10066   4.500   2.298   1.176
 3056SOL    HW110067   4.489   2.350   1.260
 3056SOL    HW210068   4.554   2.216   1.194
 3057SOL     OW10069   6.693   3.830   3.381
 3057SOL    HW110070   6.668   3.735   3.363
 3057SOL    HW210071   6.738   3.868   3.301
 3058SOL     OW10072   6.894   4.558   5.810
 3058SOL    HW110073   6.960   4.487   5.786
 3058SOL    HW210074   6.941   4.631   5.860
 3059SOL     OW10075   1.367   2.447   3.309
 3059SOL    HW110076   1.336   2.426   3.402
 3059SOL    HW210077   1.461   2.415   3.297
 3060SOL     OW10078   5.812   3.731   3.196
 3060SOL    HW110079   5.744   3.731   3.123
 3060SOL    HW210080   5.888   3.671   3.170
 3061SOL     OW10081   6.009   6.378   2.558
 3061SOL    HW110082   6.029   6.471   2.588
 3061SOL    HW210083   5.913   6.356   2.578
 3062SOL     OW10084   4.033   4.969   1.332
 3062SOL    HW110085   4.006   4.995   1.239
 3062SOL    HW210086   3.972   4.896   1.364
 3063SOL     OW10087   6.441   4.616   0.353
 3063SOL    HW110088   6.439   4.608   0.253
 3063SOL    HW210089   6.370   4.558   0.392
 3064SOL     OW10090   4.723   2.240   6.045
 3064SOL    HW110091   4.655   2.169   6.023
 3064SOL    HW210092   4.692   2.290   6.126
 3065SOL     OW10093   5.594   0.984   6.563
 3065SOL    HW110094   5.638   0.908   6.611
 3065SOL    HW210095   5.643   1.069   6.582
 3066SOL     OW10096   5.652   0.451   6.043
 3066SOL    HW110097   5.614   0.543   6.042
 3066SOL    HW210098   5.580   0.385   6.020
 3067SOL     OW10099   2.192   2.156   4.604
 3067SOL    HW110100   2.200   2.184   4.508
 3067SOL    HW210101   2.165   2.235   4.659
 3068SOL     OW10102   5.823   7.011   0.705
 3068SOL    HW110103   5.900   6.951   0.686
 3068SOL    HW210104   5.750   6.995   0.638
 3069SOL     OW10105   5.554   6.596   3.511
 3069SOL    HW110106   5.469   6.548   3.531
 3069SOL    HW210107   5.535   6.676   3.454
 3070SOL     OW10108   3.163   1.055   1.412
 3070SOL    HW110109   3.126   0.997   1.484
 3070SOL    HW210110   3.201   0.999   1.339
 3071SOL     OW10111   5.610   4.693   5.091
 3071SOL    HW110112   5.669   4.615   5.111
 3071SOL    HW210113   5.563   4.678   5.004
 3072SOL     OW10114   1.454   6.705   5.241
 3072SOL    HW110115   1.513   6.743   5.312
 3072SOL    HW210116   1.377   6.658   5.284
 3073SOL     OW10117   6.525   5.876   2.689
 3073SOL    HW110118   6.522   5.853   2.591
 3073SOL    HW210119   6.467   5.813   2.740
 3074SOL     OW10120   3.293   2.821   1.723
 3074SOL    HW110121   3.392   2.835   1.730
 3074SOL    HW210122   3.246   2.904   1.753
 3075SOL     OW10123   3.943   5.022   1.036
 3075SOL    HW110124   3.923   4.951   0.968
 3075SOL    HW210125   3.867   5.086   1.042
 3076SOL     OW10126   2.078   1.622   3.962
 3076SOL    HW110127   2.121   1.666   3.884
 3076SOL    HW210128   2.053   1.690   4.030
 3077SOL     OW10129   0.017   3.676   2.107
 3077SOL    HW110130   0.033   3.580   2.127
 3077SOL    HW210131   7.010   3.724   2.191
 3078SOL     OW10132   6.723   4.297   0.937
 3078SOL    HW110133   6.694   4.392   0.924
 3078SOL    HW210134   6.822   4.290   0.920
 3079SOL     OW10135   0.858   3.894   3.779
 3079SOL    HW110136   0.780   3.932   3.829
 3079SOL    HW210137   0.849   3.916   3.682
 3080SOL     OW10138   3.852   4.726   1.770
 3080SOL    HW110139   3.864   4.661   1.694
 3080SOL    HW210140   3.760   4.718   1.807
 3081SOL     OW10141   1.885   2.851   6.315
 3081SOL    HW110142   1.974   2.837   6.272
 3081SOL    HW210143   1.833   2.919   6.263
 3082SOL     OW10144   5.497   4.287   4.888
 3082SOL    HW110145   5.409   4.241   4.895
 3082SOL    HW210146   5.540   4.263   4.801
 3083SOL     OW10147   4.258   5.514   1.140
 3083SOL    HW110148   4.274   5.415   1.134
 3083SOL    HW210149   4.218   5.546   1.055
 3084SOL     OW10150   6.991   5.356   4.246
 3084SOL    HW110151   0.060   5.311   4.233
 3084SOL    HW210152   6.977   5.373   4.344
 3085SOL     OW10153   6.617   5.695   6.940
 3085SOL    HW110154   6.568   5.728   0.002
 3085SOL    HW210155   6.607   5.596   6.932
 3086SOL     OW10156   6.085   6.363   6.420
 3086SOL    HW110157   6.164   6.356   6.482
 3086SOL    HW210158   6.051   6.456   6.420
 3087SOL     OW10159   2.973   0.563   1.967
 3087SOL    HW110160   3.002   0.587   1.875
 3087SOL    HW210161   3.053   0.535   2.021
 3088SOL     OW10162   2.608   3.465   5.385
 3088SOL    HW110163   2.575   3.517   5.464
 3088SOL    HW210164   2.673   3.521   5.334
 3089SOL     OW10165   4.038   6.560   6.984
 3089SOL    HW110166   3.965   6.625   6.965
 3089SOL    HW210167   4.024   6.476   6.931
 3090SOL     OW10168   1.574   2.099   2.434
 3090SOL    HW110169   1.560   2.092   2.533
 3090SOL    HW210170   1.485   2.107   2.388
 3091SOL     OW10171   1.211   2.585   6.811
 3091SOL    HW110172   1.213   2.530   6.727
 3091SOL    HW210173   1.125   2.636   6.816
 3092SOL     OW10174   5.045   1.253   3.486
 3092SOL    HW110175   5.053   1.353   3.475
 3092SOL    HW210176   4.971   1.219   3.428
 3093SOL     OW10177   6.405   4.844   6.854
 3093SOL    HW110178   6.443   4.928   6.815
 3093SOL    HW210179   6.313   4.829   6.818
 3094SOL     OW10180   2.489   1.431   5.955
 3094SOL    HW110181   2.403   1.473   5.928
 3094SOL    HW210182   2.557   1.502   5.973
 3095SOL     OW10183   1.630   3.555   5.286
 3095SOL    HW110184   1.561   3.495   5.245
 3095SOL    HW210185   1.633   3.540   5.385
 3096SOL     OW10186   1.969   2.629   3.616
 3096SOL    HW110187   1.877   2.657   3.644
 3096SOL    HW210188   2.018   2.593   3.696
 3097SOL     OW10189   5.558   2.843   5.636
 3097SOL    HW110190   5.459   2.847   5.642
 3097SOL    HW210191   5.587   2.857   5.541
 3098SOL     OW10192   1.416   3.275   2.371
 3098SOL    HW110193   1.321   3.301   2.353
 3098SOL    HW210194   1.418   3.187   2.417
 3099SOL     OW10195   0.790   6.815   5.663
 3099SOL    HW110196   0.809   6.858   5.574
 3099SOL    HW210197   0.840   6.729   5.669
 3100SOL     OW10198   6.106   4.402   2.145
 3100SOL    HW110199   6.102   4.470   2.071
 3100SOL    HW210200   6.016   4.395   2.189
 3101SOL     OW10201   5.212   0.711   4.880
 3101SOL    HW110202   5.235   0.650   4.804
 3101SOL    HW210203   5.255   0.800   4.867
 3102SOL     OW10204   5.971   3.973   2.418
 3102SOL    HW110205   5.880   3.936   2.398
 3102SOL    HW210206   6.014   4.004   2.333
 3103SOL     OW10207   1.496   1.411   2.354
 3103SOL    HW110208   1.521   1.452   2.442
 3103SOL    HW210209   1.398   1.424   2.337
 3104SOL     OW10210   5.936   1.953   6.191
 3104SOL    HW110211   5.976   1.935   6.101
 3104SOL    HW210212   5.842   1.985   6.180
 3105SOL     OW10213   5.750   4.278   0.389
 3105SOL    HW110214   5.679   4.303   0.455
 3105SOL    HW210215   5.767   4.179   0.395
 3106SOL     OW10216   5.390   1.635   6.243
 3106SOL    HW110217   5.326   1.559   6.244
 3106SOL    HW210218   5.340   1.721   6.243
 3107SOL     OW10219   4.108   2.241   4.885
 3107SOL    HW110220   4.135   2.313   4.949
 3107SOL    HW210221   4.060   2.168   4.934
 3108SOL     OW10222   1.886   4.634   3.663
 3108SOL    HW110223   1.985   4.640   3.671
 3108SOL    HW210224   1.854   4.554   3.715
 3109SOL     OW10225   6.911   5.565   3.187
 3109SOL    HW110226   6.967   5.538   3.265
 3109SOL    HW210227   6.814   5.548   3.208
 3110SOL     OW10228   1.334   5.959   4.492
 3110SOL    HW110229   1.345   5.861   4.476
 3110SOL    HW210230   1.422   5.998   4.518
 3111SOL     OW10231   6.711   3.932   3.811
 3111SOL    HW110232   6.696   4.020   3.857
 3111SOL    HW210233   6.746   3.866   3.878
 3112SOL     OW10234   4.479   0.822   0.738
 3112SOL    HW110235   4.550   0.869   0.686
 3112SOL    HW210236   4.514   0.796   0.828
 3113SOL     OW10237   1.197   0.185   4.113
 3113SOL    HW110238   1.230   0.164   4.205
 3113SOL    HW210239   1.260   0.248   4.069
 3114SOL     OW10240   4.640   6.138   5.365
 3114SOL    HW110241   4.657   6.236   5.375
 3114SOL    HW210242   4.641   6.113   5.268
 3115SOL     OW10243   4.526   5.816   4.294
 3115SOL    HW110244   4.574   5.789   4.378
 3115SOL    HW210245   4.485   5.906   4.306
 3116SOL     OW10246   0.936   2.002   6.551
 3116SOL    HW110247   0.919   1.976   6.646
 3116SOL    HW210248   0.863   1.967   6.493
 3117SOL     OW10249   4.172   6.742   0.926
 3117SOL    HW110250   4.096   6.797   0.892
 3117SOL    HW210251   4.228   6.711   0.849
 3118SOL     OW10252   1.015   1.975   3.088
 3118SOL    HW110253   1.111   1.998   3.103
 3118SOL    HW210254   1.004   1.934   2.997
 3119SOL     OW10255   4.539   6.470   3.733
 3119SOL    HW110256   4.498   6.402   3.794
 3119SOL    HW210257   4.601   6.529   3.785
 3120SOL     OW10258   3.082   6.143   6.904
 3120SOL    HW110259   3.111   6.235   6.930
 3120SOL    HW210260   2.987   6.129   6.932
 3121SOL     OW10261   3.690   2.148   3.386
 3121SOL    HW110262   3.751   2.174   3.461
 3121SOL    HW210263   3.740   2.150   3.300
 3122SOL     OW10264   5.701   3.777   6.015
 3122SOL    HW110265   5.697   3.677   6.019
 3122SOL    HW210266   5.620   3.812   5.968
 3123SOL     OW10267   1.991   2.817   2.770
 3123SOL    HW110268   2.082   2.854   2.753
 3123SOL    HW210269   1.935   2.886   2.816
 3124SOL     OW10270   5.023   6.775   5.658
 3124SOL    HW110271   5.017   6.756   5.756
 3124SOL    HW210272   5.118   6.791   5.633
 3125SOL     OW10273   1.666   1.788   5.114
 3125SOL    HW110274   1.688   1.695   5.086
 3125SOL    HW210275   1.598   1.786   5.187
 3126SOL     OW10276   4.690   4.357   5.667
 3126SOL    HW110277   4.690   4.312   5.577
 3126SOL    HW210278   4.766   4.423   5.671
 3127SOL     OW10279   6.413   2.021   5.624
 3127SOL    HW110280   6.356   1.952   5.580
 3127SOL    HW210281   6.476   1.976   5.687
 3128SOL     OW10282   3.868   0.948   0.967
 3128SOL    HW110283   3.953   0.994   0.940
 3128SOL    HW210284   3.803   1.016   1.001
 3129SOL     OW10285   4.175   4.528   0.551
 3129SOL    HW110286   4.244   4.480   0.496
 3129SOL    HW210287   4.215   4.555   0.638
 3130SOL     OW10288   6.636   6.107   2.150
 3130SOL    HW110289   6.727   6.117   2.190
 3130SOL    HW210290   6.581   6.188   2.171
 3131SOL     OW10291   6.985   2.865   3.165
 3131SOL    HW110292   6.888   2.852   3.144
 3131SOL    HW210293   0.020   2.852   3.082
 3132SOL     OW10294   4.714   4.175   6.510
 3132SOL    HW110295   4.652   4.097   6.502
 3132SOL    HW210296   4.674   4.253   6.461
 3133SOL     OW10297   5.199   6.594   3.339
 3133SOL    HW110298   5.259   6.661   3.295
 3133SOL    HW210299   5.242   6.558   3.421
 3134SOL     OW10300   5.172   4.704   2.871
 3134SOL    HW110301   5.120   4.787   2.849
 3134SOL    HW210302   5.130   4.625   2.827
 3135SOL     OW10303   3.427   0.269   6.407
 3135SOL    HW110304   3.449   0.245   6.501
 3135SOL    HW210305   3.485   0.344   6.376
 3136SOL     OW10306   6.651   6.926   2.380
 3136SOL    HW110307   6.648   6.916   2.281
 3136SOL    HW210308   6.562   6.903   2.419
 3137SOL     OW10309   4.639   5.023   6.962
 3137SOL    HW110310   4.716   5.084   6.942
 3137SOL    HW210311   4.555   5.063   6.926
 3138SOL     OW10312   6.801   6.829   4.697
 3138SOL    HW110313   6.719   6.830   4.640
 3138SOL    HW210314   6.878   6.793   4.645
 3139SOL     OW10315   1.604   5.003   1.996
 3139SOL    HW110316   1.530   4.978   1.932
 3139SOL    HW210317   1.688   5.021   1.945
 3140SOL     OW10318   4.954   6.173   0.098
 3140SOL    HW110319   5.014   6.122   0.159
 3140SOL    HW210320   4.886   6.111   0.060
 3141SOL     OW10321   5.600   1.566   0.017
 3141SOL    HW110322   5.582   1.496   6.968
 3141SOL    HW210323   5.591   1.527   0.109
 3142SOL     OW10324   4.615   1.235   3.963
 3142SOL    HW110325   4.577   1.327   3.956
 3142SOL    HW210326   4.561   1.181   4.027
 3143SOL     OW10327   6.946   1.243   0.518
 3143SOL    HW110328   6.877   1.304   0.557
 3143SOL    HW210329   0.017   1.268   0.552
 3144SOL     OW10330   4.271   5.012   0.099
 3144SOL    HW110331   4.247   5.014   0.002
 3144SOL    HW210332   4.265   4.919   0.133
 3145SOL     OW10333   1.156   5.559   5.846
 3145SOL    HW110334   1.110   5.589   5.762
 3145SOL    HW210335   1.168   5.460   5.844
 3146SOL     OW10336   6.096   1.911   4.157
 3146SOL    HW110337   6.070   2.001   4.190
 3146SOL    HW210338   6.042   1.841   4.205
 3147SOL     OW10339   4.778   6.936   1.144
 3147SOL    HW110340   4.826   7.005   1.199
 3147SOL    HW210341   4.758   6.856   1.201
 3148SOL     OW10342   6.265   5.082   6.987
 3148SOL    HW110343   6.323   5.015   6.941
 3148SOL    HW210344   6.258   5.060   0.065
 3149SOL     OW10345   4.105   2.966   6.882
 3149SOL    HW110346   4.202   2.946   6.868
 3149SOL    HW210347   4.064   2.996   6.796
 3150SOL     OW10348   7.003   0.247   5.331
 3150SOL    HW110349   7.019   0.244   5.430
 3150SOL    HW210350   0.052   0.306   5.288
 3151SOL     OW10351   6.693   1.081   5.966
 3151SOL    HW110352   6.631   1.024   5.912
 3151SOL    HW210353   6.644   1.115   6.047
 3152SOL     OW10354   2.476   1.879   5.518
 3152SOL    HW110355   2.494   1.871   5.616
 3152SOL    HW210356   2.497   1.793   5.473
 3153SOL     OW10357   5.732   5.910   1.881
 3153SOL    HW110358   5.721   5.949   1.790
 3153SOL    HW210359   5.708   5.978   1.950
 3154SOL     OW10360   3.327   1.870   0.794
 3154SOL    HW110361   3.328   1.922   0.709
 3154SOL    HW210362   3.239   1.823   0.803
 3155SOL     OW10363   0.276   5.553   6.656
 3155SOL    HW110364   0.297   5.531   6.561
 3155SOL    HW210365   0.339   5.623   6.689
 3156SOL     OW10366   3.278   4.422   1.164
 3156SOL    HW110367   3.198   4.427   1.225
 3156SOL    HW210368   3.357   4.390   1.217
 3157SOL     OW10369   1.639   1.446   3.920
 3157SOL    HW110370   1.645   1.487   3.829
 3157SOL    HW210371   1.556   1.476   3.966
 3158SOL     OW10372   2.786   0.735   6.256
 3158SOL    HW110373   2.700   0.704   6.297
 3158SOL    HW210374   2.793   0.701   6.162
 3159SOL     OW10375   5.119   6.991   1.242
 3159SOL    HW110376   5.148   0.061   1.207
 3159SOL    HW210377   5.103   6.998   1.341
 3160SOL     OW10378   2.361   1.051   4.759
 3160SOL    HW110379   2.348   1.016   4.666
 3160SOL    HW210380   2.317   0.989   4.825
 3161SOL     OW10381   1.703   2.853   1.865
 3161SOL    HW110382   1.766   2.833   1.789
 3161SOL    HW210383   1.753   2.901   1.938
 3162SOL     OW10384   1.229   5.843   1.841
 3162SOL    HW110385   1.199   5.896   1.762
 3162SOL    HW210386   1.317   5.800   1.821
 3163SOL     OW10387   4.830   4.532   1.351
 3163SOL    HW110388   4.922   4.543   1.313
 3163SOL    HW210389   4.769   4.496   1.280
 3164SOL     OW10390   2.446   0.098   4.206
 3164SOL    HW110391   2.413   0.191   4.190
 3164SOL    HW210392   2.377   0.033   4.175
 3165SOL     OW10393   0.780   5.675   6.809
 3165SOL    HW110394   0.764   5.764   6.767
 3165SOL    HW210395   0.844   5.684   6.884
 3166SOL     OW10396   4.130   2.080   4.454
 3166SOL    HW110397   4.165   1.997   4.410
 3166SOL    HW210398   4.036   2.097   4.424
 3167SOL     OW10399   6.423   2.969   1.736
 3167SOL    HW110400   6.463   2.910   1.806
 3167SOL    HW210401   6.449   2.935   1.645
 3168SOL     OW10402   5.607   1.323   1.427
 3168SOL    HW110403   5.637   1.259   1.498
 3168SOL    HW210404   5.517   1.296   1.393
 3169SOL     OW10405   0.744   3.702   1.713
 3169SOL    HW110406   0.661   3.668   1.758
 3169SOL    HW210407   0.722   3.725   1.618
 3170SOL     OW10408   2.217   4.186   3.527
 3170SOL    HW110409   2.253   4.194   3.433
 3170SOL    HW210410   2.117   4.189   3.525
 3171SOL     OW10411   5.420   1.360   4.913
 3171SOL    HW110412   5.505   1.310   4.929
 3171SOL    HW210413   5.359   1.304   4.856
 3172SOL     OW10414   5.946   4.071   1.270
 3172SOL    HW110415   5.864   4.083   1.327
 3172SOL    HW210416   5.977   4.160   1.237
 3173SOL     OW10417   5.657   3.266   7.011
 3173SOL    HW110418   5.590   3.195   6.992
 3173SOL    HW210419   5.610   3.349   0.023
 3174SOL     OW10420   3.545   2.391   6.514
 3174SOL    HW110421   3.551   2.366   6.418
 3174SOL    HW210422   3.494   2.477   6.523
 3175SOL     OW10423   5.851   6.325   5.331
 3175SOL    HW110424   5.776   6.301   5.393
 3175SOL    HW210425   5.911   6.391   5.375
 3176SOL     OW10426   0.612   5.082   4.113
 3176SOL    HW110427   0.683   5.071   4.044
 3176SOL    HW210428   0.650   5.067   4.204
 3177SOL     OW10429   4.835   3.022   3.031
 3177SOL    HW110430   4.811   3.017   3.128
 3177SOL    HW210431   4.845   3.118   3.005
 3178SOL     OW10432   0.880   0.462   2.694
 3178SOL    HW110433   0.972   0.435   2.723
 3178SOL    HW210434   0.885   0.547   2.642
 3179SOL     OW10435   0.891   3.162   2.141
 3179SOL    HW110436   0.867   3.258   2.152
 3179SOL    HW210437   0.968   3.153   2.078
 3180SOL     OW10438   6.564   6.622   0.033
 3180SOL    HW110439   6.555   6.561   6.974
 3180SOL    HW210440   6.500   6.699   0.023
 3181SOL     OW10441   0.554   6.097   4.662
 3181SOL    HW110442   0.635   6.054   4.702
 3181SOL    HW210443   0.539   6.186   4.705
 3182SOL     OW10444   1.269   6.774   1.403
 3182SOL    HW110445   1.316   6.819   1.479
 3182SOL    HW210446   1.184   6.822   1.384
 3183SOL     OW10447   4.111   4.057   0.593
 3183SOL    HW110448   4.092   4.021   0.685
 3183SOL    HW210449   4.091   4.155   0.591
 3184SOL     OW10450   6.153   1.468   4.202
 3184SOL    HW110451   6.203   1.392   4.244
 3184SOL    HW210452   6.204   1.553   4.216
 3185SOL     OW10453   1.059   6.755   5.881
 3185SOL    HW110454   1.112   6.830   5.842
 3185SOL    HW210455   1.109   6.715   5.958
 3186SOL     OW10456   0.391   2.486   5.754
 3186SOL    HW110457   0.434   2.438   5.830
 3186SOL    HW210458   0.299   2.451   5.739
 3187SOL     OW10459   5.332   0.075   3.529
 3187SOL    HW110460   5.363   0.165   3.558
 3187SOL    HW210461   5.380   0.048   3.446
 3188SOL     OW10462   1.665   6.172   1.200
 3188SOL    HW110463   1.645   6.240   1.130
 3188SOL    HW210464   1.594   6.175   1.271
 3189SOL     OW10465   2.423   1.582   6.421
 3189SOL    HW110466   2.404   1.677   6.395
 3189SOL    HW210467   2.519   1.573   6.447
 3190SOL     OW10468   6.025   6.466   4.068
 3190SOL    HW110469   6.074   6.380   4.053
 3190SOL    HW210470   5.957   6.454   4.140
 3191SOL     OW10471   3.712   4.763   1.446
 3191SOL    HW110472   3.797   4.763   1.498
 3191SOL    HW210473   3.641   4.811   1.498
 3192SOL     OW10474   5.398   0.626   3.049
 3192SOL    HW110475   5.303   0.655   3.062
 3192SOL    HW210476   5.444   0.691   2.987
 3193SOL     OW10477   3.164   5.363   4.871
 3193SOL    HW110478   3.196   5.342   4.963
 3193SOL    HW210479   3.229   5.330   4.804
 3194SOL     OW10480   2.146   6.987   5.027
 3194SOL    HW110481   2.157   0.017   4.941
 3194SOL    HW210482   2.051   6.957   5.036
 3195SOL     OW10483   0.594   6.515   0.091
 3195SOL    HW110484   0.639   6.427   0.108
 3195SOL    HW210485   0.633   6.585   0.151
 3196SOL     OW10486   6.283   0.091   2.701
 3196SOL    HW110487   6.243   0.176   2.665
 3196SOL    HW210488   6.212   0.035   2.743
 3197SOL     OW10489   2.886   0.758   6.992
 3197SOL    HW110490   2.950   0.773   0.048
 3197SOL    HW210491   2.794   0.744   0.009
 3198SOL     OW10492   5.333   3.452   4.114
 3198SOL    HW110493   5.287   3.526   4.163
 3198SOL    HW210494   5.385   3.490   4.037
 3199SOL     OW10495   4.949   3.938   3.201
 3199SOL    HW110496   4.916   3.859   3.254
 3199SOL    HW210497   4.989   4.005   3.263
 3200SOL     OW10498   5.962   3.863   4.926
 3200SOL    HW110499   6.032   3.845   4.858
 3200SOL    HW210500   5.955   3.962   4.941
 3201SOL     OW10501   6.586   4.051   1.955
 3201SOL    HW110502   6.559   4.091   2.042
 3201SOL    HW210503   6.676   4.086   1.929
 3202SOL     OW10504   2.913   2.599   6.085
 3202SOL    HW110505   2.990   2.648   6.124
 3202SOL    HW210506   2.946   2.540   6.011
 3203SOL     OW10507   3.389   6.571   2.015
 3203SOL    HW110508   3.478   6.609   2.040
 3203SOL    HW210509   3.363   6.602   1.924
 3204SOL     OW10510   4.502   0.430   4.082
 3204SOL    HW110511   4.516   0.528   4.072
 3204SOL    HW210512   4.484   0.408   4.178
 3205SOL     OW10513   4.416   2.447   6.221
 3205SOL    HW110514   4.342   2.509   6.246
 3205SOL    HW210515   4.462   2.416   6.304
 3206SOL     OW10516   3.200   4.669   1.007
 3206SOL    HW110517   3.264   4.711   0.943
 3206SOL    HW210518   3.236   4.580   1.037
 3207SOL     OW10519   2.280   6.299   3.564
 3207SOL    HW110520   2.289   6.291   3.663
 3207SOL    HW210521   2.183   6.300   3.540
 3208SOL     OW10522   6.807   4.108   5.793
 3208SOL    HW110523   6.878   4.150   5.851
 3208SOL    HW210524   6.754   4.044   5.847
 3209SOL     OW10525   4.974   6.737   5.921
 3209SOL    HW110526   5.021   6.649   5.924
 3209SOL    HW210527   5.031   6.806   5.965
 3210SOL     OW10528   5.264   5.480   1.982
 3210SOL    HW110529   5.212   5.534   2.048
 3210SOL    HW210530   5.360   5.480   2.008
 3211SOL     OW10531   2.147   6.335   6.408
 3211SOL    HW110532   2.235   6.377   6.385
 3211SOL    HW210533   2.152   6.236   6.396
 3212SOL     OW10534   3.409   6.593   4.323
 3212SOL    HW110535   3.425   6.553   4.233
 3212SOL    HW210536   3.311   6.612   4.333
 3213SOL     OW10537   1.324   0.634   5.816
 3213SOL    HW110538   1.228   0.641   5.790
 3213SOL    HW210539   1.373   0.579   5.748
 3214SOL     OW10540   3.716   0.640   2.844
 3214SOL    HW110541   3.811   0.623   2.873
 3214SOL    HW210542   3.655   0.586   2.901
 3215SOL     OW10543   1.994   3.118   2.218
 3215SOL    HW110544   1.914   3.160   2.261
 3215SOL    HW210545   2.022   3.174   2.140
 3216SOL     OW10546   6.250   5.207   0.746
 3216SOL    HW110547   6.151   5.220   0.755
 3216SOL    HW210548   6.293   5.221   0.835
 3217SOL     OW10549   6.707   5.749   4.146
 3217SOL    HW110550   6.786   5.776   4.092
 3217SOL    HW210551   6.736   5.726   4.239
 3218SOL     OW10552   5.805   1.483   3.482
 3218SOL    HW110553   5.873   1.411   3.496
 3218SOL    HW210554   5.821   1.557   3.546
 3219SOL     OW10555   5.660   1.964   4.641
 3219SOL    HW110556   5.578   1.910   4.659
 3219SOL    HW210557   5.666   2.039   4.707
 3220SOL     OW10558   0.256   3.667   5.628
 3220SOL    HW110559   0.300   3.706   5.547
 3220SOL    HW210560   0.163   3.637   5.604
 3221SOL     OW10561   4.125   1.503   2.117
 3221SOL    HW110562   4.030   1.534   2.117
 3221SOL    HW210563   4.131   1.414   2.163
 3222SOL     OW10564   3.372   0.868   3.481
 3222SOL    HW110565   3.414   0.921   3.555
 3222SOL    HW210566   3.443   0.836   3.419
 3223SOL     OW10567   1.646   6.029   0.670
 3223SOL    HW110568   1.597   5.983   0.744
 3223SOL    HW210569   1.654   5.966   0.592
 3224SOL     OW10570   4.869   2.744   4.705
 3224SOL    HW110571   4.779   2.720   4.668
 3224SOL    HW210572   4.859   2.774   4.800
 3225SOL     OW10573   4.715   1.256   5.030
 3225SOL    HW110574   4.653   1.275   5.106
 3225SOL    HW210575   4.718   1.158   5.013
 3226SOL     OW10576   6.490   0.952   0.669
 3226SOL    HW110577   6.491   0.958   0.769
 3226SOL    HW210578   6.580   0.977   0.633
 3227SOL     OW10579   6.003   4.569   5.442
 3227SOL    HW110580   6.037   4.631   5.513
 3227SOL    HW210581   5.963   4.488   5.485
 3228SOL     OW10582   2.372   4.037   0.321
 3228SOL    HW110583   2.284   4.003   0.355
 3228SOL    HW210584   2.399   4.117   0.375
 3229SOL     OW10585   1.518   1.535   0.880
 3229SOL    HW110586   1.586   1.605   0.903
 3229SOL    HW210587   1.434   1.553   0.930
 3230SOL     OW10588   2.809   6.251   5.116
 3230SOL    HW110589   2.889   6.246   5.175
 3230SOL    HW210590   2.813   6.178   5.048
 3231SOL     OW10591   2.312   2.728   2.378
 3231SOL    HW110592   2.263   2.656   2.429
 3231SOL    HW210593   2.264   2.815   2.389
 3232SOL     OW10594   2.584   4.556   3.098
 3232SOL    HW110595   2.663   4.613   3.123
 3232SOL    HW210596   2.582   4.544   2.999
 3233SOL     OW10597   2.672   0.115   6.653
 3233SOL    HW110598   2.611   0.136   6.730
 3233SOL    HW210599   2.620   0.071   6.580
 3234SOL     OW10600   3.370   3.267   1.010
 3234SOL    HW110601   3.349   3.192   1.072
 3234SOL    HW210602   3.465   3.258   0.979
 3235SOL     OW10603   6.602   1.370   2.753
 3235SOL    HW110604   6.632   1.378   2.658
 3235SOL    HW210605   6.506   1.343   2.756
 3236SOL     OW10606   5.325   0.211   0.539
 3236SOL    HW110607   5.340   0.114   0.555
 3236SOL    HW210608   5.411   0.261   0.553
 3237SOL     OW10609   5.940   1.258   5.480
 3237SOL    HW110610   5.915   1.164   5.454
 3237SOL    HW210611   5.880   1.323   5.433
 3238SOL     OW10612   6.472   5.107   1.448
 3238SOL    HW110613   6.440   5.072   1.536
 3238SOL    HW210614   6.459   5.037   1.378
 3239SOL     OW10615   5.931   0.185   5.230
 3239SOL    HW110616   6.007   0.238   5.193
 3239SOL    HW210617   5.844   0.228   5.205
 3240SOL     OW10618   0.544   1.538   0.926
 3240SOL    HW110619   0.579   1.625   0.890
 3240SOL    HW210620   0.555   1.536   1.025
 3241SOL     OW10621   0.150   3.035   5.257
 3241SOL    HW110622   0.082   3.080   5.200
 3241SOL    HW210623   0.212   2.980   5.200
 3242SOL     OW10624   6.911   4.103   4.708
 3242SOL    HW110625   6.879   4.015   4.744
 3242SOL    HW210626   6.874   4.117   4.616
 3243SOL     OW10627   5.681   5.498   3.946
 3243SOL    HW110628   5.637   5.537   3.865
 3243SOL    HW210629   5.647   5.543   4.028
 3244SOL     OW10630   4.910   7.011   6.830
 3244SOL    HW110631   5.003   6.994   6.864
 3244SOL    HW210632   4.863   6.924   6.817
 3245SOL     OW10633   3.364   6.349   4.449
 3245SOL    HW110634   3.360   6.315   4.355
 3245SOL    HW210635   3.393   6.445   4.448
 3246SOL     OW10636   6.676   5.778   3.075
 3246SOL    HW110637   6.612   5.854   3.087
 3246SOL    HW210638   6.761   5.813   3.036
 3247SOL     OW10639   1.944   3.916   3.862
 3247SOL    HW110640   1.848   3.920   3.890
 3247SOL    HW210641   1.990   3.842   3.910
 3248SOL     OW10642   6.084   2.501   3.817
 3248SOL    HW110643   6.148   2.576   3.798
 3248SOL    HW210644   5.991   2.530   3.795
 3249SOL     OW10645   3.582   4.177   3.984
 3249SOL    HW110646   3.657   4.144   4.041
 3249SOL    HW210647   3.527   4.242   4.036
 3250SOL     OW10648   4.728   6.118   3.568
 3250SOL    HW110649   4.702   6.116   3.664
 3250SOL    HW210650   4.694   6.203   3.526
 3251SOL     OW10651   2.536   2.177   2.164
 3251SOL    HW110652   2.481   2.147   2.242
 3251SOL    HW210653   2.523   2.275   2.149
 3252SOL     OW10654   2.011   1.809   2.864
 3252SOL    HW110655   1.996   1.872   2.940
 3252SOL    HW210656   2.039   1.861   2.783
 3253SOL     OW10657   6.871   3.803   0.129
 3253SOL    HW110658   6.914   3.870   0.068
 3253SOL    HW210659   6.773   3.823   0.136
 3254SOL     OW10660   6.190   6.405   0.383
 3254SOL    HW110661   6.267   6.374   0.440
 3254SOL    HW210662   6.226   6.449   0.301
 3255SOL     OW10663   3.540   5.718   2.003
 3255SOL    HW110664   3.637   5.734   1.988
 3255SOL    HW210665   3.501   5.669   1.926
 3256SOL     OW10666   5.543   2.530   1.458
 3256SOL    HW110667   5.588   2.445   1.485
 3256SOL    HW210668   5.521   2.526   1.360
 3257SOL     OW10669   3.043   1.077   3.422
 3257SOL    HW110670   2.951   1.065   3.384
 3257SOL    HW210671   3.110   1.049   3.354
 3258SOL     OW10672   1.445   5.644   4.002
 3258SOL    HW110673   1.376   5.711   4.029
 3258SOL    HW210674   1.406   5.552   4.008
 3259SOL     OW10675   5.591   4.431   4.408
 3259SOL    HW110676   5.636   4.521   4.410
 3259SOL    HW210677   5.661   4.359   4.413
 3260SOL     OW10678   1.442   4.671   2.906
 3260SOL    HW110679   1.350   4.637   2.885
 3260SOL    HW210680   1.436   4.758   2.954
 3261SOL     OW10681   5.972   0.036   4.317
 3261SOL    HW110682   6.016   0.015   4.230
 3261SOL    HW210683   5.905   0.109   4.305
 3262SOL     OW10684   3.041   1.868   3.126
 3262SOL    HW110685   3.033   1.858   3.027
 3262SOL    HW210686   3.044   1.777   3.168
 3263SOL     OW10687   6.248   0.558   1.296
 3263SOL    HW110688   6.200   0.564   1.384
 3263SOL    HW210689   6.343   0.585   1.309
 3264SOL     OW10690   1.744   4.256   7.000
 3264SOL    HW110691   1.684   4.269   6.921
 3264SOL    HW210692   1.741   4.336   0.040
 3265SOL     OW10693   0.157   5.598   6.354
 3265SOL    HW110694   0.130   5.558   6.267
 3265SOL    HW210695   0.075   5.627   6.404
 3266SOL     OW10696   3.708   5.206   6.178
 3266SOL    HW110697   3.652   5.157   6.111
 3266SOL    HW210698   3.749   5.141   6.242
 3267SOL     OW10699   3.696   6.910   1.142
 3267SOL    HW110700   3.752   6.990   1.122
 3267SOL    HW210701   3.634   6.892   1.066
 3268SOL     OW10702   5.686   4.170   1.797
 3268SOL    HW110703   5.776   4.138   1.770
 3268SOL    HW210704   5.694   4.256   1.846
 3269SOL     OW10705   2.117   4.782   1.553
 3269SOL    HW110706   2.022   4.769   1.523
 3269SOL    HW210707   2.162   4.847   1.492
 3270SOL     OW10708   1.375   2.986   5.905
 3270SOL    HW110709   1.354   3.062   5.843
 3270SOL    HW210710   1.358   2.900   5.858
 3271SOL     OW10711   1.194   3.243   1.126
 3271SOL    HW110712   1.289   3.264   1.152
 3271SOL    HW210713   1.181   3.264   1.029
 3272SOL     OW10714   4.287   6.541   1.107
 3272SOL    HW110715   4.246   6.595   1.034
 3272SOL    HW210716   4.226   6.466   1.133
 3273SOL     OW10717   3.977   3.902   6.458
 3273SOL    HW110718   3.915   3.917   6.381
 3273SOL    HW210719   4.070   3.927   6.431
 3274SOL     OW10720   4.608   7.005   1.776
 3274SOL    HW110721   4.654   0.072   1.754
 3274SOL    HW210722   4.512   7.011   1.750
 3275SOL     OW10723   4.935   0.689   1.832
 3275SOL    HW110724   5.009   0.659   1.894
 3275SOL    HW210725   4.864   0.735   1.886
 3276SOL     OW10726   6.409   5.513   0.121
 3276SOL    HW110727   6.429   5.426   0.075
 3276SOL    HW210728   6.493   5.549   0.162
 3277SOL     OW10729   3.813   1.883   2.507
 3277SOL    HW110730   3.871   1.848   2.580
 3277SOL    HW210731   3.729   1.920   2.546
 3278SOL     OW10732   4.794   1.125   6.223
 3278SOL    HW110733   4.701   1.115   6.257
 3278SOL    HW210734   4.832   1.211   6.256
 3279SOL     OW10735   3.821   0.369   2.369
 3279SOL    HW110736   3.862   0.422   2.296
 3279SOL    HW210737   3.778   0.287   2.331
 3280SOL     OW10738   0.460   2.899   4.304
 3280SOL    HW110739   0.529   2.931   4.239
 3280SOL    HW210740   0.456   2.961   4.382
 3281SOL     OW10741   5.845   2.050   2.218
 3281SOL    HW110742   5.795   2.121   2.170
 3281SOL    HW210743   5.869   2.082   2.310
 3282SOL     OW10744   6.368   4.526   5.433
 3282SOL    HW110745   6.273   4.553   5.426
 3282SOL    HW210746   6.419   4.594   5.487
 3283SOL     OW10747   3.030   1.719   0.530
 3283SOL    HW110748   2.939   1.751   0.555
 3283SOL    HW210749   3.080   1.794   0.486
 3284SOL     OW10750   2.077   0.211   5.227
 3284SOL    HW110751   2.047   0.181   5.136
 3284SOL    HW210752   1.997   0.227   5.284
 3285SOL     OW10753   3.918   2.151   3.853
 3285SOL    HW110754   3.834   2.153   3.908
 3285SOL    HW210755   3.903   2.200   3.768
 3286SOL     OW10756   1.673   3.165   2.922
 3286SOL    HW110757   1.640   3.071   2.909
 3286SOL    HW210758   1.597   3.229   2.916
 3287SOL     OW10759   2.442   1.196   0.710
 3287SOL    HW110760   2.429   1.136   0.789
 3287SOL    HW210761   2.487   1.145   0.637
 3288SOL     OW10762   2.816   6.025   2.135
 3288SOL    HW110763   2.888   5.954   2.136
 3288SOL    HW210764   2.784   6.038   2.042
 3289SOL     OW10765   4.826   0.703   0.065
 3289SOL    HW110766   4.861   0.610   0.070
 3289SOL    HW210767   4.790   0.720   6.992
 3290SOL     OW10768   0.799   5.420   0.268
 3290SOL    HW110769   0.779   5.497   0.207
 3290SOL    HW210770   0.831   5.454   0.357
 3291SOL     OW10771   4.834   6.119   5.111
 3291SOL    HW110772   4.787   6.074   5.034
 3291SOL    HW210773   4.845   6.216   5.091
 3292SOL     OW10774   0.171   2.268   0.104
 3292SOL    HW110775   0.116   2.186   0.087
 3292SOL    HW210776   0.121   2.348   0.071
 3293SOL     OW10777   6.446   4.756   2.366
 3293SOL    HW110778   6.491   4.671   2.393
 3293SOL    HW210779   6.351   4.755   2.397
 3294SOL     OW10780   3.508   2.870   5.640
 3294SOL    HW110781   3.455   2.805   5.694
 3294SOL    HW210782   3.507   2.841   5.544
 3295SOL     OW10783   1.591   2.641   3.375
 3295SOL    HW110784   1.636   2.668   3.290
 3295SOL    HW210785   1.597   2.542   3.386
 3296SOL     OW10786   2.430   0.851   6.779
 3296SOL    HW110787   2.457   0.939   6.817
 3296SOL    HW210788   2.449   0.850   6.680
 3297SOL     OW10789   3.728   0.493   5.628
 3297SOL    HW110790   3.708   0.486   5.530
 3297SOL    HW210791   3.825   0.517   5.640
 3298SOL     OW10792   3.471   4.683   5.634
 3298SOL    HW110793   3.542   4.691   5.705
 3298SOL    HW210794   3.381   4.690   5.676
 3299SOL     OW10795   3.137   6.692   3.948
 3299SOL    HW110796   3.166   6.663   3.857
 3299SOL    HW210797   3.200   6.761   3.983
 3300SOL     OW10798   1.887   0.687   3.448
 3300SOL    HW110799   1.907   0.690   3.350
 3300SOL    HW210800   1.844   0.773   3.476
 3301SOL     OW10801   1.082   1.638   2.715
 3301SOL    HW110802   1.164   1.695   2.714
 3301SOL    HW210803   1.106   1.546   2.749
 3302SOL     OW10804   1.361   5.338   5.243
 3302SOL    HW110805   1.420   5.336   5.163
 3302SOL    HW210806   1.316   5.249   5.255
 3303SOL     OW10807   3.810   4.019   0.475
 3303SOL    HW110808   3.858   4.107   0.476
 3303SOL    HW210809   3.825   3.971   0.561
 3304SOL     OW10810   2.130   4.067   0.488
 3304SOL    HW110811   2.073   3.999   0.443
 3304SOL    HW210812   2.173   4.025   0.569
 3305SOL     OW10813   2.765   2.727   0.270
 3305SOL    HW110814   2.756   2.763   0.177
 3305SOL    HW210815   2.844   2.769   0.315
 3306SOL     OW10816   2.634   0.355   0.665
 3306SOL    HW110817   2.706   0.421   0.643
 3306SOL    HW210818   2.624   0.291   0.589
 3307SOL     OW10819   1.939   5.430   4.762
 3307SOL    HW110820   1.960   5.491   4.839
 3307SOL    HW210821   1.952   5.335   4.791
 3308SOL     OW10822   4.664   5.213   1.513
 3308SOL    HW110823   4.760   5.194   1.496
 3308SOL    HW210824   4.610   5.195   1.431
 3309SOL     OW10825   5.751   3.936   3.555
 3309SOL    HW110826   5.715   4.029   3.546
 3309SOL    HW210827   5.823   3.934   3.625
 3310SOL     OW10828   5.938   4.452   6.000
 3310SOL    HW110829   5.938   4.420   6.095
 3310SOL    HW210830   6.013   4.408   5.950
 3311SOL     OW10831   2.230   3.014   0.009
 3311SOL    HW110832   2.196   3.106   7.008
 3311SOL    HW210833   2.305   2.993   6.965
 3312SOL     OW10834   4.869   3.113   0.003
 3312SOL    HW110835   4.794   3.129   6.958
 3312SOL    HW210836   4.867   3.182   0.075
 3313SOL     OW10837   0.237   0.145   4.612
 3313SOL    HW110838   0.197   0.157   4.703
 3313SOL    HW210839   0.238   0.232   4.563
 3314SOL     OW10840   3.513   6.408   2.953
 3314SOL    HW110841   3.489   6.337   3.020
 3314SOL    HW210842   3.538   6.365   2.866
 3315SOL     OW10843   1.466   6.544   4.063
 3315SOL    HW110844   1.494   6.634   4.095
 3315SOL    HW210845   1.387   6.554   4.002
 3316SOL     OW10846   3.512   2.003   0.094
 3316SOL    HW110847   3.553   1.999   0.003
 3316SOL    HW210848   3.430   1.946   0.096
 3317SOL     OW10849   5.869   1.964   1.694
 3317SOL    HW110850   5.955   2.015   1.693
 3317SOL    HW210851   5.872   1.892   1.625
 3318SOL     OW10852   3.331   3.096   0.362
 3318SOL    HW110853   3.244   3.062   0.326
 3318SOL    HW210854   3.352   3.049   0.448
 3319SOL     OW10855   6.624   6.533   4.301
 3319SOL    HW110856   6.674   6.607   4.345
 3319SOL    HW210857   6.685   6.485   4.237
 3320SOL     OW10858   6.253   0.601   2.381
 3320SOL    HW110859   6.341   0.553   2.381
 3320SOL    HW210860   6.241   0.647   2.293
 3321SOL     OW10861   4.783   1.975   6.994
 3321SOL    HW110862   4.856   2.012   6.937
 3321SOL    HW210863   4.777   2.028   0.060
 3322SOL     OW10864   6.077   2.710   1.249
 3322SOL    HW110865   6.029   2.667   1.173
 3322SOL    HW210866   6.012   2.733   1.321
 3323SOL     OW10867   1.765   1.458   1.543
 3323SOL    HW110868   1.746   1.480   1.638
 3323SOL    HW210869   1.711   1.377   1.517
 3324SOL     OW10870   5.598   5.102   5.840
 3324SOL    HW110871   5.691   5.066   5.848
 3324SOL    HW210872   5.596   5.176   5.773
 3325SOL     OW10873   2.799   5.102   5.581
 3325SOL    HW110874   2.813   5.102   5.680
 3325SOL    HW210875   2.839   5.019   5.543
 3326SOL     OW10876   3.562   1.969   2.197
 3326SOL    HW110877   3.506   1.990   2.277
 3326SOL    HW210878   3.588   2.054   2.151
 3327SOL     OW10879   1.422   5.555   5.927
 3327SOL    HW110880   1.331   5.592   5.907
 3327SOL    HW210881   1.440   5.476   5.868
 3328SOL     OW10882   5.006   2.994   5.245
 3328SOL    HW110883   4.963   3.084   5.241
 3328SOL    HW210884   5.103   3.005   5.269
 3329SOL     OW10885   0.096   6.198   5.761
 3329SOL    HW110886   0.055   6.151   5.840
 3329SOL    HW210887   0.183   6.238   5.788
 3330SOL     OW10888   6.883   3.374   3.218
 3330SOL    HW110889   6.906   3.369   3.121
 3330SOL    HW210890   6.846   3.286   3.248
 3331SOL     OW10891   1.931   3.159   0.675
 3331SOL    HW110892   1.931   3.100   0.755
 3331SOL    HW210893   2.011   3.138   0.619
 3332SOL     OW10894   6.584   4.049   1.180
 3332SOL    HW110895   6.613   4.016   1.090
 3332SOL    HW210896   6.536   3.977   1.229
 3333SOL     OW10897   2.690   5.627   5.668
 3333SOL    HW110898   2.626   5.555   5.695
 3333SOL    HW210899   2.766   5.630   5.733
 3334SOL     OW10900   1.456   3.337   1.176
 3334SOL    HW110901   1.447   3.410   1.109
 3334SOL    HW210902   1.553   3.314   1.188
 3335SOL     OW10903   5.478   4.653   4.837
 3335SOL    HW110904   5.548   4.597   4.792
 3335SOL    HW210905   5.445   4.723   4.774
 3336SOL     OW10906   3.043   6.074   5.714
 3336SOL    HW110907   2.998   6.059   5.801
 3336SOL    HW210908   2.974   6.087   5.642
 3337SOL     OW10909   3.352   1.482   0.724
 3337SOL    HW110910   3.306   1.460   0.638
 3337SOL    HW210911   3.300   1.553   0.772
 3338SOL     OW10912   6.797   4.765   0.095
 3338SOL    HW110913   6.891   4.754   0.062
 3338SOL    HW210914   6.777   4.694   0.162
 3339SOL     OW10915   1.076   4.980   6.050
 3339SOL    HW110916   1.152   4.965   6.113
 3339SOL    HW210917   1.110   4.986   5.957
 3340SOL     OW10918   4.147   0.196   2.001
 3340SOL    HW110919   4.128   0.147   1.916
 3340SOL    HW210920   4.083   0.167   2.071
 3341SOL     OW10921   0.874   7.006   0.620
 3341SOL    HW110922   0.894   0.077   0.660
 3341SOL    HW210923   0.823   6.951   0.687
 3342SOL     OW10924   2.659   0.115   5.196
 3342SOL    HW110925   2.567   0.077   5.205
 3342SOL    HW210926   2.722   0.064   5.254
 3343SOL     OW10927   0.398   2.704   1.663
 3343SOL    HW110928   0.446   2.777   1.614
 3343SOL    HW210929   0.461   2.628   1.678
 3344SOL     OW10930   0.601   2.302   6.240
 3344SOL    HW110931   0.658   2.244   6.181
 3344SOL    HW210932   0.535   2.352   6.184
 3345SOL     OW10933   2.243   3.595   5.308
 3345SOL    HW110934   2.179   3.556   5.243
 3345SOL    HW210935   2.227   3.557   5.399
 3346SOL     OW10936   1.967   5.830   2.538
 3346SOL    HW110937   1.970   5.730   2.529
 3346SOL    HW210938   2.058   5.864   2.562
 3347SOL     OW10939   5.952   3.642   3.560
 3347SOL    HW110940   5.868   3.632   3.613
 3347SOL    HW210941   6.020   3.577   3.593
 3348SOL     OW10942   3.860   3.497   2.949
 3348SOL    HW110943   3.924   3.487   2.873
 3348SOL    HW210944   3.899   3.560   3.016
 3349SOL     OW10945   5.355   3.122   6.317
 3349SOL    HW110946   5.360   3.174   6.402
 3349SOL    HW210947   5.331   3.183   6.242
 3350SOL     OW10948   1.581   2.652   1.106
 3350SOL    HW110949   1.625   2.640   1.195
 3350SOL    HW210950   1.604   2.576   1.046
 3351SOL     OW10951   5.641   2.473   0.508
 3351SOL    HW110952   5.573   2.544   0.523
 3351SOL    HW210953   5.667   2.432   0.595
 3352SOL     OW10954   0.246   2.973   0.447
 3352SOL    HW110955   0.232   2.880   0.412
 3352SOL    HW210956   0.175   3.034   0.412
 3353SOL     OW10957   1.753   6.444   6.008
 3353SOL    HW110958   1.811   6.367   6.034
 3353SOL    HW210959   1.664   6.410   5.976
 3354SOL     OW10960   0.816   0.458   1.746
 3354SOL    HW110961   0.903   0.411   1.734
 3354SOL    HW210962   0.777   0.433   1.835
 3355SOL     OW10963   6.140   1.016   2.488
 3355SOL    HW110964   6.160   1.054   2.578
 3355SOL    HW210965   6.048   1.044   2.459
 3356SOL     OW10966   1.606   3.710   6.025
 3356SOL    HW110967   1.698   3.746   6.013
 3356SOL    HW210968   1.547   3.745   5.952
 3357SOL     OW10969   2.817   5.347   2.264
 3357SOL    HW110970   2.740   5.408   2.282
 3357SOL    HW210971   2.827   5.283   2.340
 3358SOL     OW10972   6.794   4.795   3.705
 3358SOL    HW110973   6.732   4.873   3.708
 3358SOL    HW210974   6.888   4.827   3.697
 3359SOL     OW10975   2.384   1.511   1.860
 3359SOL    HW110976   2.372   1.435   1.796
 3359SOL    HW210977   2.474   1.553   1.845
 3360SOL     OW10978   2.525   0.823   6.514
 3360SOL    HW110979   2.434   0.852   6.485
 3360SOL    HW210980   2.561   0.757   6.447
 3361SOL     OW10981   3.628   0.814   3.360
 3361SOL    HW110982   3.707   0.844   3.413
 3361SOL    HW210983   3.659   0.756   3.284
 3362SOL     OW10984   3.258   1.799   3.906
 3362SOL    HW110985   3.241   1.897   3.896
 3362SOL    HW210986   3.312   1.765   3.829
 3363SOL     OW10987   6.989   0.902   6.239
 3363SOL    HW110988   6.980   0.966   6.163
 3363SOL    HW210989   6.910   0.840   6.241
 3364SOL     OW10990   2.620   4.937   5.744
 3364SOL    HW110991   2.652   4.851   5.785
 3364SOL    HW210992   2.675   5.013   5.779
 3365SOL     OW10993   6.474   2.480   5.449
 3365SOL    HW110994   6.449   2.402   5.391
 3365SOL    HW210995   6.394   2.539   5.463
 3366SOL     OW10996   5.254   1.338   6.824
 3366SOL    HW110997   5.207   1.314   6.909
 3366SOL    HW210998   5.188   1.360   6.753
 3367SOL     OW10999   1.572   0.044   2.603
 3367SOL    HW111000   1.510   0.098   2.545
 3367SOL    HW211001   1.519   7.016   2.674
 3368SOL     OW11002   6.536   1.509   4.851
 3368SOL    HW111003   6.449   1.498   4.901
 3368SOL    HW211004   6.522   1.486   4.755
 3369SOL     OW11005   3.768   6.183   6.479
 3369SOL    HW111006   3.809   6.173   6.389
 3369SOL    HW211007   3.775   6.096   6.529
 3370SOL     OW11008   5.808   6.947   5.634
 3370SOL    HW111009   5.821   6.987   5.725
 3370SOL    HW211010   5.888   6.893   5.610
 3371SOL     OW11011   6.743   4.683   1.139
 3371SOL    HW111012   6.737   4.771   1.092
 3371SOL    HW211013   6.667   4.625   1.110
 3372SOL     OW11014   0.218   2.306   2.660
 3372SOL    HW111015   0.247   2.322   2.755
 3372SOL    HW211016   0.282   2.243   2.616
 3373SOL     OW11017   0.645   2.530   6.803
 3373SOL    HW111018   0.736   2.489   6.799
 3373SOL    HW211019   0.577   2.458   6.817
 3374SOL     OW11020   3.626   5.692   5.317
 3374SOL    HW111021   3.646   5.621   5.384
 3374SOL    HW211022   3.661   5.780   5.349
 3375SOL     OW11023   3.604   3.907   4.382
 3375SOL    HW111024   3.632   3.821   4.339
 3375SOL    HW211025   3.522   3.942   4.337
 3376SOL     OW11026   2.904   3.003   1.812
 3376SOL    HW111027   2.873   3.098   1.820
 3376SOL    HW211028   2.844   2.953   1.750
 3377SOL     OW11029   2.484   5.450   5.464
 3377SOL    HW111030   2.484   5.357   5.500
 3377SOL    HW211031   2.401   5.498   5.495
 3378SOL     OW11032   0.383   1.082   0.577
 3378SOL    HW111033   0.477   1.111   0.565
 3378SOL    HW211034   0.329   1.158   0.614
 3379SOL     OW11035   6.208   4.868   5.479
 3379SOL    HW111036   6.292   4.834   5.435
 3379SOL    HW211037   6.225   4.881   5.577
 3380SOL     OW11038   0.695   3.814   5.092
 3380SOL    HW111039   0.720   3.910   5.088
 3380SOL    HW211040   0.733   3.773   5.175
 3381SOL     OW11041   3.536   2.585   1.415
 3381SOL    HW111042   3.620   2.596   1.363
 3381SOL    HW211043   3.557   2.584   1.513
 3382SOL     OW11044   0.085   6.673   0.035
 3382SOL    HW111045   0.001   6.619   0.045
 3382SOL    HW211046   0.164   6.617   0.060
 3383SOL     OW11047   0.706   4.203   1.908
 3383SOL    HW111048   0.701   4.169   1.814
 3383SOL    HW211049   0.654   4.143   1.968
 3384SOL     OW11050   3.084   3.369   4.325
 3384SOL    HW111051   3.106   3.273   4.340
 3384SOL    HW211052   3.146   3.426   4.380
 3385SOL     OW11053   6.685   4.412   4.030
 3385SOL    HW111054   6.744   4.462   4.093
 3385SOL    HW211055   6.606   4.469   4.005
 3386SOL     OW11056   6.310   3.900   4.947
 3386SOL    HW111057   6.368   3.972   4.909
 3386SOL    HW211058   6.244   3.870   4.878
 3387SOL     OW11059   3.317   1.831   2.964
 3387SOL    HW111060   3.234   1.789   2.926
 3387SOL    HW211061   3.378   1.858   2.890
 3388SOL     OW11062   5.596   2.273   1.516
 3388SOL    HW111063   5.570   2.202   1.450
 3388SOL    HW211064   5.641   2.230   1.594
 3389SOL     OW11065   4.149   5.250   2.914
 3389SOL    HW111066   4.179   5.194   2.836
 3389SOL    HW211067   4.219   5.317   2.936
 3390SOL     OW11068   4.396   2.278   5.835
 3390SOL    HW111069   4.442   2.200   5.878
 3390SOL    HW211070   4.355   2.336   5.906
 3391SOL     OW11071   3.459   2.111   3.876
 3391SOL    HW111072   3.517   2.061   3.812
 3391SOL    HW211073   3.364   2.108   3.846
 3392SOL     OW11074   4.621   5.881   3.214
 3392SOL    HW111075   4.542   5.939   3.235
 3392SOL    HW211076   4.666   5.855   3.299
 3393SOL     OW11077   0.278   0.486   0.274
 3393SOL    HW111078   0.229   0.568   0.248
 3393SOL    HW211079   0.371   0.489   0.237
 3394SOL     OW11080   5.687   1.110   2.617
 3394SOL    HW111081   5.624   1.187   2.615
 3394SOL    HW211082   5.641   1.029   2.581
 3395SOL     OW11083   1.205   3.863   5.528
 3395SOL    HW111084   1.232   3.856   5.432
 3395SOL    HW211085   1.123   3.807   5.544
 3396SOL     OW11086   6.112   3.460   4.406
 3396SOL    HW111087   6.174   3.520   4.458
 3396SOL    HW211088   6.068   3.396   4.469
 3397SOL     OW11089   3.413   5.896   6.262
 3397SOL    HW111090   3.387   5.927   6.353
 3397SOL    HW211091   3.414   5.974   6.199
 3398SOL     OW11092   0.820   0.764   3.198
 3398SOL    HW111093   0.822   0.673   3.157
 3398SOL    HW211094   0.912   0.791   3.226
 3399SOL     OW11095   4.262   5.705   5.094
 3399SOL    HW111096   4.204   5.624   5.084
 3399SOL    HW211097   4.287   5.716   5.190
 3400SOL     OW11098   5.022   2.489   0.183
 3400SOL    HW111099   5.116   2.505   0.214
 3400SOL    HW211100   5.003   2.546   0.103
 3401SOL     OW11101   6.952   4.505   6.712
 3401SOL    HW111102   6.893   4.496   6.792
 3401SOL    HW211103   6.920   4.581   6.656
 3402SOL     OW11104   5.412   5.060   2.427
 3402SOL    HW111105   5.360   5.008   2.359
 3402SOL    HW211106   5.350   5.123   2.474
 3403SOL     OW11107   3.193   2.008   5.142
 3403SOL    HW111108   3.211   2.098   5.101
 3403SOL    HW211109   3.151   1.948   5.074
 3404SOL     OW11110   4.626   0.361   1.462
 3404SOL    HW111111   4.531   0.390   1.464
 3404SOL    HW211112   4.654   0.330   1.553
 3405SOL     OW11113   6.008   3.816   0.112
 3405SOL    HW111114   5.924   3.762   0.107
 3405SOL    HW211115   6.033   3.847   0.020
 3406SOL     OW11116   0.877   4.417   1.387
 3406SOL    HW111117   0.812   4.440   1.315
 3406SOL    HW211118   0.964   4.390   1.346
 3407SOL     OW11119   1.539   5.059   2.899
 3407SOL    HW111120   1.615   5.120   2.878
 3407SOL    HW211121   1.531   4.990   2.827
 3408SOL     OW11122   5.408   3.724   2.940
 3408SOL    HW111123   5.452   3.813   2.927
 3408SOL    HW211124   5.461   3.669   3.003
 3409SOL     OW11125   2.743   0.957   5.573
 3409SOL    HW111126   2.782   0.929   5.486
 3409SOL    HW211127   2.693   1.043   5.562
 3410SOL     OW11128   0.147   1.080   0.102
 3410SOL    HW111129   0.247   1.073   0.100
 3410SOL    HW211130   0.115   1.064   0.196
 3411SOL     OW11131   4.354   2.324   2.425
 3411SOL    HW111132   4.366   2.311   2.327
 3411SOL    HW211133   4.256   2.322   2.447
 3412SOL     OW11134   4.022   5.644   6.579
 3412SOL    HW111135   3.948   5.668   6.642
 3412SOL    HW211136   3.983   5.593   6.502
 3413SOL     OW11137   4.456   1.381   2.472
 3413SOL    HW111138   4.415   1.446   2.408
 3413SOL    HW211139   4.476   1.427   2.558
 3414SOL     OW11140   3.521   0.982   5.320
 3414SOL    HW111141   3.523   1.001   5.418
 3414SOL    HW211142   3.569   0.896   5.302
 3415SOL     OW11143   1.265   5.335   4.492
 3415SOL    HW111144   1.297   5.429   4.501
 3415SOL    HW211145   1.168   5.330   4.518
 3416SOL     OW11146   2.679   4.655   6.292
 3416SOL    HW111147   2.644   4.719   6.225
 3416SOL    HW211148   2.643   4.564   6.274
 3417SOL     OW11149   5.977   1.150   1.261
 3417SOL    HW111150   6.014   1.113   1.176
 3417SOL    HW211151   5.908   1.088   1.297
 3418SOL     OW11152   3.078   2.716   6.396
 3418SOL    HW111153   3.081   2.734   6.297
 3418SOL    HW211154   3.125   2.789   6.445
 3419SOL     OW11155   4.903   3.940   6.981
 3419SOL    HW111156   4.884   3.900   0.051
 3419SOL    HW211157   4.822   3.931   6.922
 3420SOL     OW11158   4.197   1.700   3.880
 3420SOL    HW111159   4.166   1.792   3.860
 3420SOL    HW211160   4.289   1.687   3.844
 3421SOL     OW11161   0.099   6.652   2.794
 3421SOL    HW111162   0.146   6.623   2.877
 3421SOL    HW211163   0.158   6.635   2.715
 3422SOL     OW11164   2.927   2.266   2.622
 3422SOL    HW111165   2.947   2.229   2.531
 3422SOL    HW211166   2.831   2.290   2.628
 3423SOL     OW11167   2.861   0.380   1.711
 3423SOL    HW111168   2.957   0.385   1.683
 3423SOL    HW211169   2.856   0.344   1.804
 3424SOL     OW11170   4.399   0.957   1.861
 3424SOL    HW111171   4.432   0.873   1.817
 3424SOL    HW211172   4.438   0.964   1.953
 3425SOL     OW11173   4.749   3.952   1.586
 3425SOL    HW111174   4.672   4.013   1.603
 3425SOL    HW211175   4.782   3.916   1.674
 3426SOL     OW11176   4.510   3.881   0.665
 3426SOL    HW111177   4.438   3.881   0.735
 3426SOL    HW211178   4.502   3.964   0.609
 3427SOL     OW11179   1.429   1.688   0.622
 3427SOL    HW111180   1.421   1.589   0.625
 3427SOL    HW211181   1.355   1.728   0.677
 3428SOL     OW11182   4.161   4.757   3.315
 3428SOL    HW111183   4.124   4.763   3.408
 3428SOL    HW211184   4.256   4.788   3.315
 3429SOL     OW11185   6.990   2.502   0.370
 3429SOL    HW111186   0.004   2.561   0.443
 3429SOL    HW211187   0.007   2.410   0.383
 3430SOL     OW11188   1.374   5.222   6.651
 3430SOL    HW111189   1.435   5.300   6.637
 3430SOL    HW211190   1.286   5.254   6.685
 3431SOL     OW11191   1.849   6.372   6.687
 3431SOL    HW111192   1.772   6.436   6.694
 3431SOL    HW211193   1.933   6.423   6.667
 3432SOL     OW11194   2.745   2.197   6.818
 3432SOL    HW111195   2.686   2.173   6.895
 3432SOL    HW211196   2.689   2.219   6.738
 3433SOL     OW11197   5.090   1.002   4.791
 3433SOL    HW111198   5.030   0.924   4.808
 3433SOL    HW211199   5.152   1.014   4.869
 3434SOL     OW11200   4.311   1.845   3.461
 3434SOL    HW111201   4.357   1.930   3.438
 3434SOL    HW211202   4.318   1.781   3.385
 3435SOL     OW11203   0.717   0.987   0.037
 3435SOL    HW111204   0.771   1.069   0.059
 3435SOL    HW211205   0.746   0.951   6.967
 3436SOL     OW11206   4.683   0.093   3.369
 3436SOL    HW111207   4.617   0.088   3.293
 3436SOL    HW211208   4.760   0.149   3.341
 3437SOL     OW11209   4.708   0.785   6.845
 3437SOL    HW111210   4.656   0.721   6.789
 3437SOL    HW211211   4.665   0.875   6.842
 3438SOL     OW11212   1.189   4.939   6.833
 3438SOL    HW111213   1.208   4.909   6.740
 3438SOL    HW211214   1.263   4.910   6.894
 3439SOL     OW11215   2.405   0.099   3.520
 3439SOL    HW111216   2.344   0.168   3.559
 3439SOL    HW211217   2.370   0.072   3.430
 3440SOL     OW11218   3.015   2.328   0.640
 3440SOL    HW111219   2.945   2.349   0.708
 3440SOL    HW211220   3.106   2.344   0.679
 3441SOL     OW11221   4.456   0.374   4.340
 3441SOL    HW111222   4.375   0.378   4.399
 3441SOL    HW211223   4.534   0.413   4.389
 3442SOL     OW11224   0.837   4.791   3.186
 3442SOL    HW111225   0.854   4.837   3.273
 3442SOL    HW211226   0.916   4.734   3.162
 3443SOL     OW11227   5.776   6.381   4.225
 3443SOL    HW111228   5.718   6.342   4.297
 3443SOL    HW211229   5.719   6.405   4.147
 3444SOL     OW11230   4.593   4.782   0.336
 3444SOL    HW111231   4.664   4.725   0.293
 3444SOL    HW211232   4.609   4.878   0.313
 3445SOL     OW11233   5.502   5.032   4.493
 3445SOL    HW111234   5.455   4.971   4.429
 3445SOL    HW211235   5.560   4.978   4.554
 3446SOL     OW11236   3.223   6.378   2.832
 3446SOL    HW111237   3.225   6.374   2.732
 3446SOL    HW211238   3.279   6.454   2.863
 3447SOL     OW11239   6.060   4.703   5.677
 3447SOL    HW111240   6.118   4.723   5.756
 3447SOL    HW211241   5.965   4.726   5.698
 3448SOL     OW11242   3.234   2.783   1.004
 3448SOL    HW111243   3.279   2.795   1.093
 3448SOL    HW211244   3.268   2.700   0.960
 3449SOL     OW11245   6.633   6.095   2.802
 3449SOL    HW111246   6.698   6.072   2.874
 3449SOL    HW211247   6.585   6.013   2.771
 3450SOL     OW11248   0.855   1.981   1.274
 3450SOL    HW111249   0.867   2.056   1.210
 3450SOL    HW211250   0.942   1.959   1.317
 3451SOL     OW11251   1.509   4.836   4.288
 3451SOL    HW111252   1.556   4.773   4.227
 3451SOL    HW211253   1.411   4.816   4.287
 3452SOL     OW11254   6.815   2.048   0.698
 3452SOL    HW111255   6.821   2.140   0.659
 3452SOL    HW211256   6.805   1.981   0.625
 3453SOL     OW11257   6.099   6.592   5.741
 3453SOL    HW111258   6.197   6.603   5.728
 3453SOL    HW211259   6.063   6.669   5.795
 3454SOL     OW11260   1.597   1.227   0.414
 3454SOL    HW111261   1.506   1.189   0.401
 3454SOL    HW211262   1.648   1.222   0.328
 3455SOL     OW11263   2.290   2.821   3.936
 3455SOL    HW111264   2.210   2.761   3.930
 3455SOL    HW211265   2.266   2.911   3.899
 3456SOL     OW11266   6.566   6.980   0.766
 3456SOL    HW111267   6.659   6.989   0.732
 3456SOL    HW211268   6.504   0.014   0.708
 3457SOL     OW11269   1.930   6.638   3.565
 3457SOL    HW111270   1.860   6.697   3.604
 3457SOL    HW211271   2.009   6.693   3.537
 3458SOL     OW11272   5.216   4.945   0.561
 3458SOL    HW111273   5.171   4.951   0.472
 3458SOL    HW211274   5.258   5.033   0.583
 3459SOL     OW11275   6.774   6.374   3.341
 3459SOL    HW111276   6.736   6.292   3.298
 3459SOL    HW211277   6.715   6.453   3.322
 3460SOL     OW11278   3.504   3.027   5.942
 3460SOL    HW111279   3.526   3.014   6.038
 3460SOL    HW211280   3.489   2.938   5.899
 3461SOL     OW11281   2.409   5.342   3.243
 3461SOL    HW111282   2.449   5.434   3.239
 3461SOL    HW211283   2.322   5.346   3.292
 3462SOL     OW11284   5.027   2.812   2.657
 3462SOL    HW111285   5.007   2.811   2.559
 3462SOL    HW211286   4.960   2.754   2.704
 3463SOL     OW11287   1.731   2.635   1.420
 3463SOL    HW111288   1.719   2.537   1.440
 3463SOL    HW211289   1.792   2.675   1.488
 3464SOL     OW11290   5.114   2.172   6.257
 3464SOL    HW111291   5.177   2.130   6.191
 3464SOL    HW211292   5.085   2.261   6.224
 3465SOL     OW11293   1.955   4.417   1.615
 3465SOL    HW111294   1.878   4.462   1.662
 3465SOL    HW211295   2.034   4.414   1.676
 3466SOL     OW11296   6.381   4.237   3.777
 3466SOL    HW111297   6.446   4.276   3.713
 3466SOL    HW211298   6.397   4.275   3.868
 3467SOL     OW11299   2.832   2.973   1.194
 3467SOL    HW111300   2.810   2.905   1.124
 3467SOL    HW211301   2.774   3.054   1.180
 3468SOL     OW11302   3.714   1.527   0.734
 3468SOL    HW111303   3.628   1.521   0.784
 3468SOL    HW211304   3.753   1.435   0.724
 3469SOL     OW11305   3.921   5.893   5.674
 3469SOL    HW111306   3.974   5.814   5.644
 3469SOL    HW211307   3.929   5.902   5.773
 3470SOL     OW11308   1.132   2.436   2.028
 3470SOL    HW111309   1.094   2.347   2.004
 3470SOL    HW211310   1.070   2.509   1.998
 3471SOL     OW11311   4.828   2.901   4.935
 3471SOL    HW111312   4.861   2.995   4.932
 3471SOL    HW211313   4.867   2.853   5.014
 3472SOL     OW11314   4.508   1.851   3.088
 3472SOL    HW111315   4.439   1.923   3.083
 3472SOL    HW211316   4.533   1.822   2.996
 3473SOL     OW11317   5.940   4.792   2.074
 3473SOL    HW111318   6.006   4.793   2.148
 3473SOL    HW211319   5.958   4.713   2.015
 3474SOL     OW11320   4.880   4.570   3.844
 3474SOL    HW111321   4.886   4.647   3.780
 3474SOL    HW211322   4.965   4.517   3.840
 3475SOL     OW11323   0.011   4.323   3.927
 3475SOL    HW111324   7.008   4.285   3.838
 3475SOL    HW211325   7.010   4.256   3.998
 3476SOL     OW11326   1.534   1.363   3.014
 3476SOL    HW111327   1.512   1.309   3.095
 3476SOL    HW211328   1.469   1.438   3.005
 3477SOL     OW11329   0.428   4.396   2.102
 3477SOL    HW111330   0.455   4.485   2.139
 3477SOL    HW211331   0.509   4.340   2.086
 3478SOL     OW11332   2.290   0.573   1.400
 3478SOL    HW111333   2.306   0.655   1.345
 3478SOL    HW211334   2.197   0.540   1.385
 3479SOL     OW11335   1.475   4.754   4.762
 3479SOL    HW111336   1.513   4.787   4.848
 3479SOL    HW211337   1.375   4.746   4.770
 3480SOL     OW11338   1.554   4.806   6.541
 3480SOL    HW111339   1.462   4.846   6.538
 3480SOL    HW211340   1.619   4.875   6.571
 3481SOL     OW11341   6.120   0.600   4.801
 3481SOL    HW111342   6.107   0.505   4.827
 3481SOL    HW211343   6.071   0.618   4.715
 3482SOL     OW11344   5.832   2.972   6.466
 3482SOL    HW111345   5.739   2.945   6.491
 3482SOL    HW211346   5.837   3.071   6.455
 3483SOL     OW11347   5.452   2.744   5.265
 3483SOL    HW111348   5.396   2.826   5.257
 3483SOL    HW211349   5.411   2.682   5.332
 3484SOL     OW11350   1.023   3.828   5.026
 3484SOL    HW111351   0.969   3.744   5.023
 3484SOL    HW211352   0.983   3.891   5.093
 3485SOL     OW11353   6.990   2.852   6.729
 3485SOL    HW111354   0.048   2.894   6.682
 3485SOL    HW211355   6.936   2.923   6.775
 3486SOL     OW11356   1.791   6.655   5.858
 3486SOL    HW111357   1.760   6.573   5.906
 3486SOL    HW211358   1.855   6.629   5.786
 3487SOL     OW11359   4.365   1.273   0.153
 3487SOL    HW111360   4.407   1.350   0.201
 3487SOL    HW211361   4.332   1.302   0.064
 3488SOL     OW11362   5.659   0.307   4.470
 3488SOL    HW111363   5.732   0.285   4.405
 3488SOL    HW211364   5.626   0.399   4.454
 3489SOL     OW11365   3.041   6.312   1.385
 3489SOL    HW111366   3.070   6.239   1.446
 3489SOL    HW211367   3.031   6.397   1.437
 3490SOL     OW11368   3.172   6.532   0.781
 3490SOL    HW111369   3.245   6.512   0.846
 3490SOL    HW211370   3.209   6.533   0.688
 3491SOL     OW11371   3.927   4.775   6.020
 3491SOL    HW111372   3.985   4.838   6.072
 3491SOL    HW211373   3.928   4.801   5.923
 3492SOL     OW11374   5.934   4.519   3.184
 3492SOL    HW111375   5.954   4.446   3.118
 3492SOL    HW211376   6.016   4.539   3.238
 3493SOL     OW11377   6.875   2.843   5.569
 3493SOL    HW111378   6.887   2.800   5.659
 3493SOL    HW211379   6.807   2.916   5.576
 3494SOL     OW11380   4.223   1.798   2.378
 3494SOL    HW111381   4.199   1.703   2.398
 3494SOL    HW211382   4.142   1.848   2.348
 3495SOL     OW11383   1.399   3.299   3.156
 3495SOL    HW111384   1.413   3.212   3.109
 3495SOL    HW211385   1.455   3.369   3.113
 3496SOL     OW11386   5.916   4.861   1.462
 3496SOL    HW111387   6.001   4.883   1.414
 3496SOL    HW211388   5.864   4.946   1.478
 3497SOL     OW11389   3.094   6.935   2.429
 3497SOL    HW111390   3.039   6.998   2.483
 3497SOL    HW211391   3.034   6.871   2.380
 3498SOL     OW11392   1.891   2.768   1.642
 3498SOL    HW111393   1.964   2.727   1.698
 3498SOL    HW211394   1.932   2.830   1.575
 3499SOL     OW11395   6.129   6.327   4.409
 3499SOL    HW111396   6.188   6.372   4.341
 3499SOL    HW211397   6.170   6.336   4.500
 3500SOL     OW11398   2.425   2.365   4.352
 3500SOL    HW111399   2.516   2.356   4.312
 3500SOL    HW211400   2.405   2.461   4.369
 3501SOL     OW11401   1.233   0.008   5.831
 3501SOL    HW111402   1.204   0.098   5.798
 3501SOL    HW211403   1.224   0.006   5.930
 3502SOL     OW11404   4.512   2.528   2.616
 3502SOL    HW111405   4.593   2.566   2.571
 3502SOL    HW211406   4.444   2.503   2.548
 3503SOL     OW11407   6.991   5.736   6.487
 3503SOL    HW111408   6.935   5.813   6.457
 3503SOL    HW211409   6.934   5.654   6.498
 3504SOL     OW11410   1.869   0.427   0.472
 3504SOL    HW111411   1.892   0.478   0.555
 3504SOL    HW211412   1.777   0.389   0.482
 3505SOL     OW11413   4.944   3.990   6.004
 3505SOL    HW111414   4.914   4.012   6.096
 3505SOL    HW211415   4.971   4.074   5.956
 3506SOL     OW11416   4.232   5.175   5.027
 3506SOL    HW111417   4.163   5.157   5.098
 3506SOL    HW211418   4.283   5.258   5.051
 3507SOL     OW11419   3.244   1.148   0.468
 3507SOL    HW111420   3.208   1.082   0.533
 3507SOL    HW211421   3.333   1.180   0.499
 3508SOL     OW11422   3.312   1.342   5.154
 3508SOL    HW111423   3.307   1.436   5.186
 3508SOL    HW211424   3.241   1.327   5.084
 3509SOL     OW11425   3.806   5.770   6.298
 3509SOL    HW111426   3.853   5.682   6.301
 3509SOL    HW211427   3.767   5.783   6.207
 3510SOL     OW11428   2.674   1.247   0.929
 3510SOL    HW111429   2.578   1.220   0.926
 3510SOL    HW211430   2.694   1.306   0.851
 3511SOL     OW11431   2.676   4.368   1.630
 3511SOL    HW111432   2.758   4.371   1.687
 3511SOL    HW211433   2.666   4.276   1.592
 3512SOL     OW11434   0.222   5.590   5.514
 3512SOL    HW111435   0.309   5.544   5.499
 3512SOL    HW211436   0.221   5.632   5.604
 3513SOL     OW11437   6.136   1.746   0.790
 3513SOL    HW111438   6.067   1.774   0.857
 3513SOL    HW211439   6.102   1.667   0.739
 3514SOL     OW11440   3.391   1.683   1.892
 3514SOL    HW111441   3.337   1.601   1.905
 3514SOL    HW211442   3.333   1.757   1.856
 3515SOL     OW11443   0.323   5.274   4.435
 3515SOL    HW111444   0.291   5.244   4.525
 3515SOL    HW211445   0.421   5.258   4.427
 3516SOL     OW11446   4.950   0.816   1.467
 3516SOL    HW111447   4.851   0.807   1.463
 3516SOL    HW211448   4.991   0.725   1.465
 3517SOL     OW11449   5.773   0.718   1.458
 3517SOL    HW111450   5.761   0.641   1.395
 3517SOL    HW211451   5.773   0.803   1.406
 3518SOL     OW11452   5.395   0.549   5.285
 3518SOL    HW111453   5.467   0.527   5.218
 3518SOL    HW211454   5.330   0.613   5.244
 3519SOL     OW11455   3.274   0.643   1.084
 3519SOL    HW111456   3.248   0.547   1.090
 3519SOL    HW211457   3.362   0.651   1.036
 3520SOL     OW11458   2.779   5.931   4.400
 3520SOL    HW111459   2.687   5.892   4.402
 3520SOL    HW211460   2.815   5.936   4.493
 3521SOL     OW11461   2.782   2.994   6.142
 3521SOL    HW111462   2.686   3.006   6.167
 3521SOL    HW211463   2.834   2.966   6.223
 3522SOL     OW11464   0.934   6.144   6.175
 3522SOL    HW111465   0.893   6.145   6.266
 3522SOL    HW211466   0.891   6.214   6.118
 3523SOL     OW11467   2.362   6.207   6.924
 3523SOL    HW111468   2.327   6.219   7.017
 3523SOL    HW211469   2.309   6.264   6.861
 3524SOL     OW11470   4.866   1.299   4.047
 3524SOL    HW111471   4.777   1.270   4.011
 3524SOL    HW211472   4.902   1.228   4.108
 3525SOL     OW11473   0.300   3.042   3.082
 3525SOL    HW111474   0.341   3.120   3.034
 3525SOL    HW211475   0.310   3.055   3.181
 3526SOL     OW11476   0.018   6.718   2.244
 3526SOL    HW111477   6.961   6.741   2.304
 3526SOL    HW211478   0.101   6.761   2.278
 3527SOL     OW11479   0.551   2.641   6.549
 3527SOL    HW111480   0.571   2.732   6.586
 3527SOL    HW211481   0.553   2.573   6.622
 3528SOL     OW11482   2.313   5.977   4.454
 3528SOL    HW111483   2.217   5.960   4.477
 3528SOL    HW211484   2.321   5.994   4.356
 3529SOL     OW11485   4.723   4.800   0.899
 3529SOL    HW111486   4.676   4.820   0.813
 3529SOL    HW211487   4.809   4.754   0.880
 3530SOL     OW11488   6.353   6.554   0.821
 3530SOL    HW111489   6.263   6.563   0.864
 3530SOL    HW211490   6.423   6.543   0.892
 3531SOL     OW11491   4.604   2.495   0.670
 3531SOL    HW111492   4.704   2.494   0.671
 3531SOL    HW211493   4.572   2.481   0.577
 3532SOL     OW11494   1.894   0.913   1.651
 3532SOL    HW111495   1.914   0.966   1.733
 3532SOL    HW211496   1.979   0.894   1.602
 3533SOL     OW11497   1.029   1.697   3.219
 3533SOL    HW111498   0.958   1.768   3.225
 3533SOL    HW211499   1.118   1.738   3.237
 3534SOL     OW11500   6.978   1.214   1.106
 3534SOL    HW111501   6.894   1.180   1.064
 3534SOL    HW211502   7.013   1.292   1.053
 3535SOL     OW11503   3.030   5.822   4.409
 3535SOL    HW111504   3.091   5.828   4.329
 3535SOL    HW211505   2.940   5.857   4.384
 3536SOL     OW11506   3.666   1.593   3.209
 3536SOL    HW111507   3.630   1.656   3.140
 3536SOL    HW211508   3.641   1.500   3.186
 3537SOL     OW11509   1.598   0.072   3.573
 3537SOL    HW111510   1.535   0.085   3.649
 3537SOL    HW211511   1.692   0.070   3.607
 3538SOL     OW11512   2.742   5.748   2.592
 3538SOL    HW111513   2.763   5.656   2.559
 3538SOL    HW211514   2.819   5.809   2.571
 3539SOL     OW11515   3.706   3.563   3.927
 3539SOL    HW111516   3.717   3.466   3.904
 3539SOL    HW211517   3.724   3.618   3.846
 3540SOL     OW11518   1.828   2.302   3.173
 3540SOL    HW111519   1.849   2.385   3.121
 3540SOL    HW211520   1.912   2.268   3.217
 3541SOL     OW11521   3.824   4.089   4.108
 3541SOL    HW111522   3.899   4.139   4.064
 3541SOL    HW211523   3.804   4.131   4.197
 3542SOL     OW11524   6.616   5.332   1.165
 3542SOL    HW111525   6.524   5.321   1.201
 3542SOL    HW211526   6.682   5.292   1.229
 3543SOL     OW11527   5.886   3.266   5.009
 3543SOL    HW111528   5.787   3.280   5.019
 3543SOL    HW211529   5.911   3.177   5.047
 3544SOL     OW11530   2.027   6.702   0.007
 3544SOL    HW111531   2.094   6.628   0.005
 3544SOL    HW211532   2.015   6.737   6.933
 3545SOL     OW11533   3.263   4.956   0.385
 3545SOL    HW111534   3.171   4.917   0.377
 3545SOL    HW211535   3.297   4.978   0.293
 3546SOL     OW11536   7.016   4.930   2.387
 3546SOL    HW111537   0.008   4.949   2.290
 3546SOL    HW211538   6.945   4.860   2.400
 3547SOL     OW11539   4.938   4.658   4.533
 3547SOL    HW111540   5.003   4.655   4.609
 3547SOL    HW211541   4.874   4.581   4.540
 3548SOL     OW11542   4.850   3.492   5.295
 3548SOL    HW111543   4.813   3.521   5.383
 3548SOL    HW211544   4.802   3.539   5.222
 3549SOL     OW11545   6.188   3.403   2.266
 3549SOL    HW111546   6.225   3.312   2.246
 3549SOL    HW211547   6.178   3.414   2.365
 3550SOL     OW11548   5.706   1.741   3.148
 3550SOL    HW111549   5.771   1.817   3.148
 3550SOL    HW211550   5.663   1.733   3.058
 3551SOL     OW11551   2.044   6.704   3.031
 3551SOL    HW111552   2.109   6.718   3.106
 3551SOL    HW211553   2.065   6.618   2.985
 3552SOL     OW11554   6.898   4.666   3.343
 3552SOL    HW111555   6.835   4.611   3.397
 3552SOL    HW211556   6.878   4.763   3.355
 3553SOL     OW11557   5.736   2.144   3.481
 3553SOL    HW111558   5.650   2.169   3.436
 3553SOL    HW211559   5.796   2.224   3.486
 3554SOL     OW11560   3.907   5.732   0.012
 3554SOL    HW111561   3.849   5.702   6.956
 3554SOL    HW211562   3.976   5.796   6.997
 3555SOL     OW11563   0.056   2.231   3.314
 3555SOL    HW111564   0.135   2.292   3.314
 3555SOL    HW211565   7.015   2.253   3.237
 3556SOL     OW11566   4.534   1.134   6.632
 3556SOL    HW111567   4.601   1.207   6.649
 3556SOL    HW211568   4.541   1.064   6.703
 3557SOL     OW11569   0.662   0.283   4.338
 3557SOL    HW111570   0.749   0.235   4.327
 3557SOL    HW211571   0.629   0.270   4.432
 3558SOL     OW11572   6.866   5.938   1.862
 3558SOL    HW111573   6.845   5.930   1.959
 3558SOL    HW211574   6.791   5.987   1.816
 3559SOL     OW11575   1.216   0.634   5.427
 3559SOL    HW111576   1.159   0.574   5.483
 3559SOL    HW211577   1.166   0.718   5.406
 3560SOL     OW11578   6.568   6.459   1.770
 3560SOL    HW111579   6.653   6.411   1.745
 3560SOL    HW211580   6.590   6.534   1.832
 3561SOL     OW11581   5.153   4.467   3.762
 3561SOL    HW111582   5.146   4.389   3.824
 3561SOL    HW211583   5.249   4.489   3.747
 3562SOL     OW11584   3.897   2.149   3.215
 3562SOL    HW111585   3.916   2.147   3.117
 3562SOL    HW211586   3.962   2.209   3.261
 3563SOL     OW11587   5.010   0.277   1.451
 3563SOL    HW111588   5.107   0.281   1.474
 3563SOL    HW211589   4.974   0.186   1.474
 3564SOL     OW11590   6.952   4.348   3.094
 3564SOL    HW111591   6.886   4.400   3.039
 3564SOL    HW211592   0.023   4.391   3.087
 3565SOL     OW11593   1.451   0.611   5.556
 3565SOL    HW111594   1.515   0.541   5.524
 3565SOL    HW211595   1.376   0.620   5.491
 3566SOL     OW11596   0.894   4.643   6.482
 3566SOL    HW111597   0.903   4.733   6.527
 3566SOL    HW211598   0.854   4.655   6.392
 3567SOL     OW11599   0.210   2.845   1.352
 3567SOL    HW111600   0.309   2.827   1.348
 3567SOL    HW211601   0.193   2.919   1.417
 3568SOL     OW11602   4.981   4.075   3.409
 3568SOL    HW111603   5.016   4.004   3.469
 3568SOL    HW211604   5.012   4.165   3.441
 3569SOL     OW11605   4.013   3.453   3.613
 3569SOL    HW111606   4.093   3.465   3.672
 3569SOL    HW211607   3.997   3.356   3.597
 3570SOL     OW11608   0.370   1.704   5.229
 3570SOL    HW111609   0.313   1.707   5.311
 3570SOL    HW211610   0.466   1.714   5.255
 3571SOL     OW11611   2.221   6.940   4.638
 3571SOL    HW111612   2.206   6.968   4.544
 3571SOL    HW211613   2.203   7.018   4.699
 3572SOL     OW11614   5.563   3.690   1.607
 3572SOL    HW111615   5.597   3.645   1.690
 3572SOL    HW211616   5.639   3.734   1.559
 3573SOL     OW11617   6.994   4.596   3.775
 3573SOL    HW111618   6.916   4.645   3.736
 3573SOL    HW211619   6.962   4.514   3.824
 3574SOL     OW11620   1.742   1.862   5.565
 3574SOL    HW111621   1.771   1.821   5.651
 3574SOL    HW211622   1.665   1.811   5.528
 3575SOL     OW11623   5.342   0.131   6.709
 3575SOL    HW111624   5.310   0.061   6.645
 3575SOL    HW211625   5.322   0.222   6.673
 3576SOL     OW11626   1.261   2.991   0.434
 3576SOL    HW111627   1.346   3.040   0.417
 3576SOL    HW211628   1.184   3.049   0.408
 3577SOL     OW11629   1.688   2.761   4.694
 3577SOL    HW111630   1.747   2.842   4.691
 3577SOL    HW211631   1.605   2.778   4.642
 3578SOL     OW11632   3.713   2.666   6.502
 3578SOL    HW111633   3.624   2.633   6.534
 3578SOL    HW211634   3.700   2.729   6.425
 3579SOL     OW11635   0.739   4.104   1.125
 3579SOL    HW111636   0.702   4.193   1.103
 3579SOL    HW211637   0.839   4.111   1.135
 3580SOL     OW11638   6.879   4.384   1.785
 3580SOL    HW111639   6.814   4.362   1.712
 3580SOL    HW211640   6.937   4.305   1.804
 3581SOL     OW11641   0.965   0.803   2.828
 3581SOL    HW111642   1.052   0.829   2.869
 3581SOL    HW211643   0.914   0.885   2.803
 3582SOL     OW11644   4.360   5.843   6.894
 3582SOL    HW111645   4.360   5.934   6.937
 3582SOL    HW211646   4.349   5.773   6.964
 3583SOL     OW11647   1.434   5.444   1.133
 3583SOL    HW111648   1.391   5.458   1.222
 3583SOL    HW211649   1.388   5.369   1.085
 3584SOL     OW11650   5.711   4.900   4.614
 3584SOL    HW111651   5.718   4.879   4.712
 3584SOL    HW211652   5.801   4.926   4.579
 3585SOL     OW11653   3.676   1.995   3.735
 3585SOL    HW111654   3.730   2.038   3.663
 3585SOL    HW211655   3.675   1.896   3.722
 3586SOL     OW11656   6.753   1.596   5.686
 3586SOL    HW111657   6.695   1.633   5.758
 3586SOL    HW211658   6.702   1.530   5.631
 3587SOL     OW11659   2.992   0.668   5.854
 3587SOL    HW111660   2.974   0.655   5.757
 3587SOL    HW211661   3.088   0.645   5.873
 3588SOL     OW11662   5.709   4.536   4.717
 3588SOL    HW111663   5.733   4.569   4.626
 3588SOL    HW211664   5.786   4.550   4.779
 3589SOL     OW11665   1.084   0.126   6.103
 3589SOL    HW111666   1.140   0.197   6.060
 3589SOL    HW211667   0.988   0.153   6.100
 3590SOL     OW11668   6.723   5.695   5.619
 3590SOL    HW111669   6.649   5.628   5.613
 3590SOL    HW211670   6.713   5.747   5.704
 3591SOL     OW11671   5.231   1.864   0.552
 3591SOL    HW111672   5.238   1.925   0.473
 3591SOL    HW211673   5.152   1.804   0.541
 3592SOL     OW11674   1.221   6.219   1.399
 3592SOL    HW111675   1.199   6.221   1.496
 3592SOL    HW211676   1.155   6.274   1.348
 3593SOL     OW11677   3.884   3.340   5.620
 3593SOL    HW111678   3.880   3.364   5.523
 3593SOL    HW211679   3.927   3.250   5.629
 3594SOL     OW11680   4.595   4.994   5.281
 3594SOL    HW111681   4.575   4.915   5.338
 3594SOL    HW211682   4.677   5.040   5.315
 3595SOL     OW11683   5.294   6.038   4.381
 3595SOL    HW111684   5.224   6.057   4.449
 3595SOL    HW211685   5.378   6.010   4.426
 3596SOL     OW11686   4.197   1.999   2.698
 3596SOL    HW111687   4.293   1.981   2.676
 3596SOL    HW211688   4.143   1.917   2.682
 3597SOL     OW11689   3.272   3.943   5.771
 3597SOL    HW111690   3.199   4.008   5.792
 3597SOL    HW211691   3.283   3.936   5.671
 3598SOL     OW11692   6.817   5.688   5.003
 3598SOL    HW111693   6.835   5.731   4.914
 3598SOL    HW211694   6.725   5.713   5.033
 3599SOL     OW11695   2.557   1.508   5.130
 3599SOL    HW111696   2.522   1.452   5.055
 3599SOL    HW211697   2.639   1.557   5.100
 3600SOL     OW11698   2.847   3.725   6.725
 3600SOL    HW111699   2.941   3.725   6.759
 3600SOL    HW211700   2.835   3.800   6.660
 3601SOL     OW11701   4.803   0.811   5.115
 3601SOL    HW111702   4.867   0.859   5.175
 3601SOL    HW211703   4.835   0.817   5.021
 3602SOL     OW11704   1.436   2.065   1.541
 3602SOL    HW111705   1.374   1.987   1.525
 3602SOL    HW211706   1.456   2.072   1.638
 3603SOL     OW11707   2.286   1.076   5.610
 3603SOL    HW111708   2.339   0.992   5.607
 3603SOL    HW211709   2.325   1.143   5.547
 3604SOL     OW11710   0.237   1.260   3.282
 3604SOL    HW111711   0.285   1.194   3.223
 3604SOL    HW211712   0.239   1.228   3.376
 3605SOL     OW11713   1.418   0.360   4.918
 3605SOL    HW111714   1.470   0.399   4.842
 3605SOL    HW211715   1.434   0.262   4.924
 3606SOL     OW11716   2.032   6.842   2.432
 3606SOL    HW111717   1.944   6.801   2.455
 3606SOL    HW211718   2.026   6.941   2.443
 3607SOL     OW11719   6.508   1.438   3.024
 3607SOL    HW111720   6.552   1.354   2.991
 3607SOL    HW211721   6.510   1.507   2.952
 3608SOL     OW11722   3.380   2.025   5.465
 3608SOL    HW111723   3.387   2.116   5.424
 3608SOL    HW211724   3.399   1.955   5.396
 3609SOL     OW11725   3.612   0.227   5.606
 3609SOL    HW111726   3.645   0.208   5.513
 3609SOL    HW211727   3.662   0.305   5.643
 3610SOL     OW11728   1.884   1.316   5.912
 3610SOL    HW111729   1.823   1.300   5.835
 3610SOL    HW211730   1.882   1.412   5.937
 3611SOL     OW11731   5.449   4.048   2.644
 3611SOL    HW111732   5.398   3.966   2.620
 3611SOL    HW211733   5.478   4.095   2.561
 3612SOL     OW11734   4.431   1.938   0.377
 3612SOL    HW111735   4.511   1.997   0.361
 3612SOL    HW211736   4.460   1.854   0.422
 3613SOL     OW11737   3.589   6.814   3.310
 3613SOL    HW111738   3.582   6.815   3.410
 3613SOL    HW211739   3.640   6.732   3.282
 3614SOL     OW11740   3.387   6.009   6.781
 3614SOL    HW111741   3.340   6.083   6.830
 3614SOL    HW211742   3.440   5.954   6.846
 3615SOL     OW11743   4.773   3.156   5.504
 3615SOL    HW111744   4.767   3.141   5.405
 3615SOL    HW211745   4.763   3.254   5.524
 3616SOL     OW11746   1.492   2.536   0.148
 3616SOL    HW111747   1.507   2.621   0.198
 3616SOL    HW211748   1.398   2.534   0.112
 3617SOL     OW11749   4.209   5.388   5.337
 3617SOL    HW111750   4.296   5.346   5.312
 3617SOL    HW211751   4.221   5.487   5.346
 3618SOL     OW11752   1.555   5.474   4.451
 3618SOL    HW111753   1.644   5.510   4.479
 3618SOL    HW211754   1.567   5.416   4.370
 3619SOL     OW11755   6.452   2.098   2.480
 3619SOL    HW111756   6.383   2.170   2.488
 3619SOL    HW211757   6.526   2.115   2.545
 3620SOL     OW11758   5.389   5.722   5.112
 3620SOL    HW111759   5.404   5.674   5.025
 3620SOL    HW211760   5.471   5.774   5.135
 3621SOL     OW11761   3.932   3.003   3.767
 3621SOL    HW111762   3.858   2.945   3.733
 3621SOL    HW211763   3.913   3.027   3.863
 3622SOL     OW11764   1.939   5.166   6.464
 3622SOL    HW111765   1.876   5.100   6.425
 3622SOL    HW211766   1.906   5.259   6.444
 3623SOL     OW11767   1.464   5.822   6.114
 3623SOL    HW111768   1.411   5.737   6.122
 3623SOL    HW211769   1.562   5.800   6.114
 3624SOL     OW11770   2.334   2.099   2.338
 3624SOL    HW111771   2.271   2.153   2.281
 3624SOL    HW211772   2.326   2.003   2.314
 3625SOL     OW11773   6.215   2.498   1.361
 3625SOL    HW111774   6.172   2.571   1.309
 3625SOL    HW211775   6.144   2.437   1.398
 3626SOL     OW11776   1.821   2.678   5.764
 3626SOL    HW111777   1.725   2.653   5.755
 3626SOL    HW211778   1.830   2.760   5.821
 3627SOL     OW11779   3.428   1.522   2.622
 3627SOL    HW111780   3.489   1.582   2.569
 3627SOL    HW211781   3.411   1.438   2.570
 3628SOL     OW11782   6.850   1.357   1.506
 3628SOL    HW111783   6.932   1.403   1.543
 3628SOL    HW211784   6.769   1.410   1.530
 3629SOL     OW11785   1.458   1.073   4.145
 3629SOL    HW111786   1.367   1.074   4.186
 3629SOL    HW211787   1.527   1.064   4.217
 3630SOL     OW11788   6.406   2.423   3.067
 3630SOL    HW111789   6.409   2.341   3.123
 3630SOL    HW211790   6.364   2.401   2.979
 3631SOL     OW11791   1.920   6.159   2.589
 3631SOL    HW111792   1.934   6.074   2.538
 3631SOL    HW211793   2.005   6.211   2.591
 3632SOL     OW11794   5.059   3.227   2.461
 3632SOL    HW111795   4.990   3.173   2.509
 3632SOL    HW211796   5.014   3.286   2.394
 3633SOL     OW11797   3.948   4.541   6.976
 3633SOL    HW111798   3.910   4.459   0.001
 3633SOL    HW211799   4.016   4.583   0.017
 3634SOL     OW11800   3.027   5.715   6.786
 3634SOL    HW111801   3.002   5.703   6.882
 3634SOL    HW211802   2.957   5.770   6.740
 3635SOL     OW11803   1.189   6.499   2.601
 3635SOL    HW111804   1.252   6.577   2.605
 3635SOL    HW211805   1.227   6.424   2.656
 3636SOL     OW11806   0.178   5.683   4.940
 3636SOL    HW111807   0.180   5.705   5.038
 3636SOL    HW211808   0.083   5.678   4.909
 3637SOL     OW11809   5.970   2.636   6.790
 3637SOL    HW111810   5.973   2.727   6.750
 3637SOL    HW211811   6.035   2.631   6.867
 3638SOL     OW11812   0.381   3.178   3.507
 3638SOL    HW111813   0.407   3.091   3.550
 3638SOL    HW211814   0.331   3.234   3.572
 3639SOL     OW11815   4.120   3.607   4.547
 3639SOL    HW111816   4.138   3.509   4.558
 3639SOL    HW211817   4.205   3.654   4.523
 3640SOL     OW11818   4.433   1.558   2.260
 3640SOL    HW111819   4.504   1.541   2.192
 3640SOL    HW211820   4.343   1.543   2.219
 3641SOL     OW11821   6.556   3.643   1.981
 3641SOL    HW111822   6.648   3.608   1.959
 3641SOL    HW211823   6.530   3.711   1.912
 3642SOL     OW11824   5.106   4.160   6.669
 3642SOL    HW111825   5.159   4.118   6.596
 3642SOL    HW211826   5.016   4.116   6.675
 3643SOL     OW11827   4.598   5.966   5.122
 3643SOL    HW111828   4.616   5.903   5.197
 3643SOL    HW211829   4.511   6.014   5.138
 3644SOL     OW11830   2.652   0.836   1.852
 3644SOL    HW111831   2.694   0.923   1.828
 3644SOL    HW211832   2.681   0.766   1.786
 3645SOL     OW11833   1.907   4.165   3.219
 3645SOL    HW111834   1.901   4.262   3.196
 3645SOL    HW211835   1.939   4.155   3.314
 3646SOL     OW11836   1.949   5.147   5.459
 3646SOL    HW111837   1.994   5.076   5.513
 3646SOL    HW211838   1.883   5.195   5.517
 3647SOL     OW11839   3.922   0.350   0.597
 3647SOL    HW111840   4.017   0.354   0.628
 3647SOL    HW211841   3.883   0.442   0.595
 3648SOL     OW11842   5.200   4.326   3.197
 3648SOL    HW111843   5.232   4.309   3.103
 3648SOL    HW211844   5.122   4.389   3.195
 3649SOL     OW11845   5.158   2.578   0.466
 3649SOL    HW111846   5.207   2.558   0.381
 3649SOL    HW211847   5.171   2.673   0.492
 3650SOL     OW11848   5.713   6.109   6.061
 3650SOL    HW111849   5.670   6.068   6.142
 3650SOL    HW211850   5.736   6.204   6.080
 3651SOL     OW11851   0.816   2.175   6.039
 3651SOL    HW111852   0.802   2.256   5.983
 3651SOL    HW211853   0.881   2.195   6.112
 3652SOL     OW11854   4.828   2.672   2.775
 3652SOL    HW111855   4.855   2.581   2.806
 3652SOL    HW211856   4.798   2.726   2.854
 3653SOL     OW11857   2.397   1.479   0.750
 3653SOL    HW111858   2.408   1.395   0.696
 3653SOL    HW211859   2.401   1.456   0.848
 3654SOL     OW11860   4.091   6.308   1.429
 3654SOL    HW111861   4.074   6.406   1.419
 3654SOL    HW211862   4.188   6.289   1.412
 3655SOL     OW11863   1.075   1.137   3.830
 3655SOL    HW111864   1.165   1.107   3.861
 3655SOL    HW211865   1.042   1.210   3.890
 3656SOL     OW11866   0.196   0.045   0.577
 3656SOL    HW111867   0.136   6.986   0.561
 3656SOL    HW211868   0.141   0.128   0.589
 3657SOL     OW11869   5.716   5.087   6.200
 3657SOL    HW111870   5.704   5.097   6.101
 3657SOL    HW211871   5.814   5.084   6.222
 3658SOL     OW11872   1.583   4.214   5.260
 3658SOL    HW111873   1.592   4.174   5.169
 3658SOL    HW211874   1.669   4.261   5.284
 3659SOL     OW11875   0.948   2.300   6.528
 3659SOL    HW111876   0.932   2.202   6.522
 3659SOL    HW211877   0.935   2.342   6.439
 3660SOL     OW11878   3.768   5.321   5.189
 3660SOL    HW111879   3.813   5.286   5.107
 3660SOL    HW211880   3.828   5.309   5.268
 3661SOL     OW11881   0.892   1.504   4.720
 3661SOL    HW111882   0.885   1.597   4.684
 3661SOL    HW211883   0.979   1.464   4.693
 3662SOL     OW11884   3.325   1.545   5.329
 3662SOL    HW111885   3.233   1.505   5.332
 3662SOL    HW211886   3.393   1.472   5.340
 3663SOL     OW11887   2.020   2.398   6.390
 3663SOL    HW111888   1.953   2.435   6.326
 3663SOL    HW211889   2.110   2.434   6.369
 3664SOL     OW11890   2.715   2.004   1.090
 3664SOL    HW111891   2.787   1.994   1.022
 3664SOL    HW211892   2.680   2.098   1.087
 3665SOL     OW11893   6.800   5.952   5.276
 3665SOL    HW111894   6.710   5.951   5.321
 3665SOL    HW211895   6.828   6.047   5.262
 3666SOL     OW11896   2.098   3.319   4.250
 3666SOL    HW111897   2.146   3.236   4.225
 3666SOL    HW211898   2.124   3.346   4.343
 3667SOL     OW11899   1.889   6.629   1.031
 3667SOL    HW111900   1.940   6.658   0.949
 3667SOL    HW211901   1.940   6.556   1.076
 3668SOL     OW11902   5.839   1.138   0.790
 3668SOL    HW111903   5.857   1.226   0.835
 3668SOL    HW211904   5.926   1.093   0.768
 3669SOL     OW11905   6.527   1.027   1.708
 3669SOL    HW111906   6.611   1.011   1.656
 3669SOL    HW211907   6.479   1.107   1.672
 3670SOL     OW11908   1.962   6.690   2.184
 3670SOL    HW111909   2.013   6.709   2.268
 3670SOL    HW211910   2.015   6.628   2.126
 3671SOL     OW11911   0.161   0.682   5.026
 3671SOL    HW111912   0.124   0.664   5.118
 3671SOL    HW211913   0.090   0.663   4.958
 3672SOL     OW11914   4.242   0.443   3.276
 3672SOL    HW111915   4.154   0.422   3.233
 3672SOL    HW211916   4.279   0.359   3.317
 3673SOL     OW11917   3.385   1.161   1.540
 3673SOL    HW111918   3.296   1.123   1.513
 3673SOL    HW211919   3.438   1.091   1.587
 3674SOL     OW11920   0.729   4.394   5.755
 3674SOL    HW111921   0.646   4.432   5.713
 3674SOL    HW211922   0.727   4.294   5.747
 3675SOL     OW11923   6.662   0.655   4.454
 3675SOL    HW111924   6.599   0.718   4.499
 3675SOL    HW211925   6.754   0.695   4.451
 3676SOL     OW11926   2.656   0.895   5.820
 3676SOL    HW111927   2.690   0.911   5.727
 3676SOL    HW211928   2.645   0.983   5.867
 3677SOL     OW11929   1.587   0.920   4.503
 3677SOL    HW111930   1.522   0.844   4.498
 3677SOL    HW211931   1.561   0.982   4.576
 3678SOL     OW11932   2.662   1.059   3.052
 3678SOL    HW111933   2.688   1.155   3.044
 3678SOL    HW211934   2.677   1.013   2.964
 3679SOL     OW11935   2.963   0.904   2.397
 3679SOL    HW111936   2.934   0.945   2.311
 3679SOL    HW211937   2.969   0.805   2.387
 3680SOL     OW11938   3.888   2.043   4.312
 3680SOL    HW111939   3.851   2.042   4.405
 3680SOL    HW211940   3.816   2.068   4.247
 3681SOL     OW11941   1.161   6.162   3.675
 3681SOL    HW111942   1.232   6.230   3.652
 3681SOL    HW211943   1.104   6.198   3.750
 3682SOL     OW11944   5.579   2.023   1.435
 3682SOL    HW111945   5.642   1.969   1.379
 3682SOL    HW211946   5.539   1.965   1.506
 3683SOL     OW11947   6.704   1.718   0.802
 3683SOL    HW111948   6.609   1.717   0.834
 3683SOL    HW211949   6.706   1.747   0.707
 3684SOL     OW11950   2.606   6.367   5.769
 3684SOL    HW111951   2.533   6.433   5.784
 3684SOL    HW211952   2.584   6.281   5.815
 3685SOL     OW11953   2.593   6.719   4.039
 3685SOL    HW111954   2.604   6.815   4.064
 3685SOL    HW211955   2.636   6.702   3.951
 3686SOL     OW11956   6.857   4.170   0.395
 3686SOL    HW111957   6.948   4.148   0.430
 3686SOL    HW211958   6.789   4.115   0.442
 3687SOL     OW11959   6.560   4.438   4.343
 3687SOL    HW111960   6.585   4.357   4.397
 3687SOL    HW211961   6.641   4.493   4.325
 3688SOL     OW11962   6.892   3.016   1.417
 3688SOL    HW111963   6.817   2.971   1.467
 3688SOL    HW211964   6.884   2.995   1.320
 3689SOL     OW11965   1.369   1.408   5.668
 3689SOL    HW111966   1.310   1.353   5.726
 3689SOL    HW211967   1.348   1.391   5.572
 3690SOL     OW11968   6.339   4.633   1.468
 3690SOL    HW111969   6.343   4.610   1.370
 3690SOL    HW211970   6.244   4.633   1.499
 3691SOL     OW11971   1.759   2.514   0.917
 3691SOL    HW111972   1.785   2.607   0.894
 3691SOL    HW211973   1.783   2.495   1.012
 3692SOL     OW11974   1.181   3.042   5.300
 3692SOL    HW111975   1.198   2.963   5.242
 3692SOL    HW211976   1.146   3.012   5.389
 3693SOL     OW11977   7.018   1.573   2.761
 3693SOL    HW111978   0.085   1.535   2.795
 3693SOL    HW211979   6.941   1.522   2.801
 3694SOL     OW11980   6.645   6.925   2.117
 3694SOL    HW111981   6.573   6.940   2.049
 3694SOL    HW211982   6.702   6.849   2.089
 3695SOL     OW11983   6.122   3.841   3.410
 3695SOL    HW111984   6.023   3.828   3.417
 3695SOL    HW211985   6.144   3.937   3.424
 3696SOL     OW11986   4.598   0.064   4.032
 3696SOL    HW111987   4.615   0.100   3.940
 3696SOL    HW211988   4.529   0.121   4.077
 3697SOL     OW11989   6.056   5.627   2.990
 3697SOL    HW111990   6.102   5.621   2.902
 3697SOL    HW211991   6.016   5.718   3.001
 3698SOL     OW11992   1.202   6.903   4.337
 3698SOL    HW111993   1.195   6.819   4.390
 3698SOL    HW211994   1.236   6.882   4.245
 3699SOL     OW11995   2.820   2.051   2.917
 3699SOL    HW111996   2.915   2.061   2.887
 3699SOL    HW211997   2.817   2.047   3.017
 3700SOL     OW11998   1.249   5.175   4.248
 3700SOL    HW111999   1.243   5.235   4.328
 3700SOL    HW212000   1.344   5.169   4.218
 3701SOL     OW12001   0.056   0.435   1.780
 3701SOL    HW112002   0.106   0.485   1.850
 3701SOL    HW212003   0.108   0.437   1.694
 3702SOL     OW12004   6.606   4.728   3.524
 3702SOL    HW112005   6.612   4.827   3.515
 3702SOL    HW212006   6.685   4.694   3.575
 3703SOL     OW12007   1.087   2.290   2.736
 3703SOL    HW112008   1.118   2.349   2.811
 3703SOL    HW212009   1.123   2.325   2.649
 3704SOL     OW12010   6.026   6.832   0.570
 3704SOL    HW112011   5.991   6.812   0.478
 3704SOL    HW212012   6.022   6.750   0.626
 3705SOL     OW12013   6.434   4.262   3.447
 3705SOL    HW112014   6.482   4.285   3.362
 3705SOL    HW212015   6.488   4.194   3.498
 3706SOL     OW12016   1.009   5.299   6.495
 3706SOL    HW112017   0.940   5.300   6.423
 3706SOL    HW212018   1.050   5.389   6.504
 3707SOL     OW12019   0.554   5.026   3.747
 3707SOL    HW112020   0.563   4.938   3.700
 3707SOL    HW212021   0.645   5.065   3.762
 3708SOL     OW12022   1.620   5.976   0.154
 3708SOL    HW112023   1.571   6.006   0.236
 3708SOL    HW212024   1.608   6.044   0.081
 3709SOL     OW12025   0.279   1.684   2.574
 3709SOL    HW112026   0.373   1.659   2.598
 3709SOL    HW212027   0.265   1.671   2.476
 3710SOL     OW12028   2.181   4.064   5.736
 3710SOL    HW112029   2.188   4.138   5.669
 3710SOL    HW212030   2.158   3.979   5.690
 3711SOL     OW12031   1.804   5.230   5.144
 3711SOL    HW112032   1.821   5.202   5.238
 3711SOL    HW212033   1.807   5.151   5.084
 3712SOL     OW12034   3.145   5.228   4.290
 3712SOL    HW112035   3.147   5.325   4.314
 3712SOL    HW212036   3.066   5.210   4.232
 3713SOL     OW12037   6.059   0.176   5.460
 3713SOL    HW112038   6.145   0.128   5.445
 3713SOL    HW212039   6.009   0.183   5.374
 3714SOL     OW12040   0.238   5.134   6.968
 3714SOL    HW112041   0.243   5.201   6.894
 3714SOL    HW212042   0.229   5.042   6.929
 3715SOL     OW12043   6.383   4.769   3.337
 3715SOL    HW112044   6.442   4.824   3.279
 3715SOL    HW212045   6.425   4.759   3.427
 3716SOL     OW12046   5.544   5.892   5.933
 3716SOL    HW112047   5.481   5.950   5.880
 3716SOL    HW212048   5.633   5.936   5.938
 3717SOL     OW12049   4.805   0.521   1.356
 3717SOL    HW112050   4.738   0.455   1.389
 3717SOL    HW212051   4.884   0.523   1.418
 3718SOL     OW12052   5.266   6.873   6.325
 3718SOL    HW112053   5.329   6.796   6.340
 3718SOL    HW212054   5.204   6.880   6.403
 3719SOL     OW12055   2.617   4.236   0.227
 3719SOL    HW112056   2.656   4.174   0.159
 3719SOL    HW212057   2.611   4.189   0.315
 3720SOL     OW12058   0.436   1.978   1.284
 3720SOL    HW112059   0.480   1.998   1.372
 3720SOL    HW212060   0.440   2.060   1.226
 3721SOL     OW12061   6.409   0.034   6.274
 3721SOL    HW112062   6.470   6.985   6.235
 3721SOL    HW212063   6.457   0.086   6.344
 3722SOL     OW12064   5.988   6.580   1.153
 3722SOL    HW112065   5.942   6.576   1.241
 3722SOL    HW212066   5.986   6.674   1.118
 3723SOL     OW12067   4.579   4.162   6.167
 3723SOL    HW112068   4.627   4.181   6.082
 3723SOL    HW212069   4.567   4.246   6.219
 3724SOL     OW12070   6.792   4.765   4.898
 3724SOL    HW112071   6.858   4.814   4.841
 3724SOL    HW212072   6.718   4.828   4.924
 3725SOL     OW12073   0.374   6.258   0.315
 3725SOL    HW112074   0.357   6.249   0.216
 3725SOL    HW212075   0.395   6.353   0.337
 3726SOL     OW12076   6.002   3.673   5.140
 3726SOL    HW112077   6.042   3.597   5.088
 3726SOL    HW212078   6.018   3.759   5.090
 3727SOL     OW12079   6.736   1.594   4.137
 3727SOL    HW112080   6.823   1.610   4.184
 3727SOL    HW212081   6.688   1.681   4.125
 3728SOL     OW12082   1.983   4.485   0.650
 3728SOL    HW112083   1.913   4.416   0.636
 3728SOL    HW212084   2.025   4.509   0.562
 3729SOL     OW12085   0.212   0.099   6.177
 3729SOL    HW112086   0.210   0.019   6.117
 3729SOL    HW212087   0.225   0.181   6.123
 3730SOL     OW12088   5.053   5.006   4.281
 3730SOL    HW112089   5.073   4.980   4.187
 3730SOL    HW212090   5.118   4.961   4.342
 3731SOL     OW12091   0.144   1.872   1.380
 3731SOL    HW112092   0.228   1.881   1.325
 3731SOL    HW212093   0.067   1.851   1.319
 3732SOL     OW12094   3.756   3.046   0.028
 3732SOL    HW112095   3.703   2.973   0.071
 3732SOL    HW212096   3.753   3.035   6.948
 3733SOL     OW12097   1.672   1.060   3.320
 3733SOL    HW112098   1.747   1.075   3.385
 3733SOL    HW212099   1.609   1.138   3.323
 3734SOL     OW12100   3.211   0.453   2.058
 3734SOL    HW112101   3.299   0.447   2.011
 3734SOL    HW212102   3.214   0.399   2.142
 3735SOL     OW12103   4.482   1.038   2.616
 3735SOL    HW112104   4.420   1.065   2.542
 3735SOL    HW212105   4.576   1.046   2.586
 3736SOL     OW12106   0.826   1.779   0.040
 3736SOL    HW112107   0.726   1.769   0.046
 3736SOL    HW212108   0.851   1.875   0.052
 3737SOL     OW12109   5.829   2.143   3.968
 3737SOL    HW112110   5.756   2.077   3.983
 3737SOL    HW212111   5.830   2.171   3.873
 3738SOL     OW12112   0.400   1.324   1.296
 3738SOL    HW112113   0.422   1.283   1.207
 3738SOL    HW212114   0.301   1.334   1.305
 3739SOL     OW12115   3.133   4.631   6.960
 3739SOL    HW112116   3.048   4.630   7.013
 3739SOL    HW212117   3.163   4.537   6.943
 3740SOL     OW12118   5.330   6.118   6.786
 3740SOL    HW112119   5.232   6.105   6.770
 3740SOL    HW212120   5.345   6.158   6.876
 3741SOL     OW12121   5.598   4.091   0.065
 3741SOL    HW112122   5.694   4.105   0.039
 3741SOL    HW212123   5.593   4.030   0.144
 3742SOL     OW12124   4.864   5.597   1.346
 3742SOL    HW112125   4.908   5.564   1.262
 3742SOL    HW212126   4.934   5.621   1.413
 3743SOL     OW12127   2.481   4.000   0.646
 3743SOL    HW112128   2.569   4.013   0.692
 3743SOL    HW212129   2.461   4.080   0.590
 3744SOL     OW12130   6.423   6.078   2.399
 3744SOL    HW112131   6.363   6.098   2.322
 3744SOL    HW212132   6.444   5.980   2.400
 3745SOL     OW12133   5.522   2.284   2.742
 3745SOL    HW112134   5.426   2.298   2.717
 3745SOL    HW212135   5.536   2.314   2.836
 3746SOL     OW12136   4.895   6.994   4.908
 3746SOL    HW112137   4.832   6.980   4.985
 3746SOL    HW212138   4.879   6.923   4.839
 3747SOL     OW12139   2.306   5.812   5.558
 3747SOL    HW112140   2.406   5.810   5.553
 3747SOL    HW212141   2.271   5.718   5.554
 3748SOL     OW12142   4.827   2.458   3.372
 3748SOL    HW112143   4.826   2.485   3.469
 3748SOL    HW212144   4.792   2.365   3.363
 3749SOL     OW12145   6.260   0.072   1.743
 3749SOL    HW112146   6.310   0.054   1.828
 3749SOL    HW212147   6.292   0.010   1.672
 3750SOL     OW12148   5.734   4.453   1.286
 3750SOL    HW112149   5.800   4.412   1.223
 3750SOL    HW212150   5.655   4.487   1.236
 3751SOL     OW12151   1.285   4.600   0.355
 3751SOL    HW112152   1.257   4.618   0.261
 3751SOL    HW212153   1.211   4.552   0.403
 3752SOL     OW12154   1.137   6.499   6.043
 3752SOL    HW112155   1.150   6.427   5.975
 3752SOL    HW212156   1.107   6.459   6.129
 3753SOL     OW12157   0.771   0.513   5.507
 3753SOL    HW112158   0.790   0.583   5.576
 3753SOL    HW212159   0.673   0.512   5.487
 3754SOL     OW12160   6.626   5.914   1.578
 3754SOL    HW112161   6.560   5.895   1.506
 3754SOL    HW212162   6.618   5.846   1.651
 3755SOL     OW12163   4.462   2.452   3.114
 3755SOL    HW112164   4.440   2.354   3.117
 3755SOL    HW212165   4.391   2.500   3.062
 3756SOL     OW12166   3.634   6.891   0.484
 3756SOL    HW112167   3.671   6.972   0.529
 3756SOL    HW212168   3.659   6.810   0.537
 3757SOL     OW12169   3.597   4.809   6.321
 3757SOL    HW112170   3.623   4.889   6.375
 3757SOL    HW212171   3.678   4.754   6.301
 3758SOL     OW12172   6.527   0.784   2.376
 3758SOL    HW112173   6.516   0.816   2.470
 3758SOL    HW212174   6.445   0.804   2.324
 3759SOL     OW12175   4.946   4.243   0.926
 3759SOL    HW112176   5.020   4.207   0.868
 3759SOL    HW212177   4.911   4.170   0.985
 3760SOL     OW12178   1.627   1.616   6.088
 3760SOL    HW112179   1.550   1.679   6.101
 3760SOL    HW212180   1.600   1.525   6.117
 3761SOL     OW12181   6.666   6.063   4.003
 3761SOL    HW112182   6.571   6.053   4.034
 3761SOL    HW212183   6.699   5.975   3.969
 3762SOL     OW12184   0.447   2.716   0.362
 3762SOL    HW112185   0.383   2.721   0.285
 3762SOL    HW212186   0.470   2.808   0.392
 3763SOL     OW12187   0.249   3.531   4.644
 3763SOL    HW112188   0.285   3.485   4.725
 3763SOL    HW212189   0.172   3.589   4.669
 3764SOL     OW12190   2.190   0.225   4.020
 3764SOL    HW112191   2.111   0.287   4.013
 3764SOL    HW212192   2.159   0.130   4.006
 3765SOL     OW12193   6.008   1.297   3.510
 3765SOL    HW112194   6.065   1.218   3.531
 3765SOL    HW212195   6.060   1.362   3.455
 3766SOL     OW12196   1.721   1.254   5.397
 3766SOL    HW112197   1.809   1.216   5.425
 3766SOL    HW212198   1.722   1.353   5.411
 3767SOL     OW12199   0.428   4.488   0.061
 3767SOL    HW112200   0.394   4.541   7.002
 3767SOL    HW212201   0.360   4.419   0.086
 3768SOL     OW12202   4.583   6.173   1.355
 3768SOL    HW112203   4.578   6.073   1.359
 3768SOL    HW212204   4.674   6.203   1.383
 3769SOL     OW12205   4.207   6.914   5.130
 3769SOL    HW112206   4.274   6.932   5.203
 3769SOL    HW212207   4.249   6.855   5.061
 3770SOL     OW12208   1.841   2.895   0.408
 3770SOL    HW112209   1.921   2.920   0.463
 3770SOL    HW212210   1.823   2.797   0.420
 3771SOL     OW12211   4.018   1.389   5.612
 3771SOL    HW112212   4.063   1.407   5.525
 3771SOL    HW212213   3.926   1.430   5.611
 3772SOL     OW12214   4.756   0.643   2.783
 3772SOL    HW112215   4.690   0.587   2.732
 3772SOL    HW212216   4.727   0.738   2.781
 3773SOL     OW12217   6.198   2.685   0.800
 3773SOL    HW112218   6.263   2.652   0.732
 3773SOL    HW212219   6.119   2.623   0.805
 3774SOL     OW12220   0.719   1.338   1.972
 3774SOL    HW112221   0.687   1.409   1.909
 3774SOL    HW212222   0.816   1.352   1.992
 3775SOL     OW12223   5.421   2.996   3.543
 3775SOL    HW112224   5.411   2.928   3.470
 3775SOL    HW212225   5.331   3.024   3.575
 3776SOL     OW12226   2.746   1.893   6.610
 3776SOL    HW112227   2.786   1.861   6.525
 3776SOL    HW212228   2.728   1.991   6.604
 3777SOL     OW12229   0.954   4.373   2.861
 3777SOL    HW112230   1.001   4.285   2.869
 3777SOL    HW212231   0.901   4.375   2.776
 3778SOL     OW12232   2.376   0.009   2.085
 3778SOL    HW112233   2.379   7.004   2.182
 3778SOL    HW212234   2.446   0.078   2.065
 3779SOL     OW12235   2.167   4.603   0.052
 3779SOL    HW112236   2.182   4.518   0.103
 3779SOL    HW212237   2.100   4.588   6.999
 3780SOL     OW12238   2.420   0.373   3.964
 3780SOL    HW112239   2.387   0.467   3.958
 3780SOL    HW212240   2.343   0.310   3.971
 3781SOL     OW12241   2.968   5.528   4.779
 3781SOL    HW112242   2.927   5.514   4.689
 3781SOL    HW212243   3.024   5.449   4.803
 3782SOL     OW12244   2.514   0.845   2.398
 3782SOL    HW112245   2.419   0.864   2.422
 3782SOL    HW212246   2.546   0.765   2.449
 3783SOL     OW12247   4.764   5.323   4.502
 3783SOL    HW112248   4.823   5.243   4.491
 3783SOL    HW212249   4.786   5.390   4.431
 3784SOL     OW12250   5.270   1.978   4.428
 3784SOL    HW112251   5.257   2.021   4.518
 3784SOL    HW212252   5.306   2.046   4.364
 3785SOL     OW12253   0.999   0.669   1.955
 3785SOL    HW112254   1.064   0.594   1.957
 3785SOL    HW212255   1.008   0.719   1.869
 3786SOL     OW12256   2.959   6.304   2.539
 3786SOL    HW112257   2.902   6.242   2.484
 3786SOL    HW212258   2.903   6.381   2.569
 3787SOL     OW12259   4.730   1.036   4.318
 3787SOL    HW112260   4.821   1.066   4.289
 3787SOL    HW212261   4.673   1.115   4.336
 3788SOL     OW12262   6.986   3.958   2.624
 3788SOL    HW112263   6.909   4.021   2.632
 3788SOL    HW212264   6.981   3.890   2.697
 3789SOL     OW12265   1.279   5.127   1.838
 3789SOL    HW112266   1.330   5.194   1.893
 3789SOL    HW212267   1.333   5.044   1.829
 3790SOL     OW12268   2.116   3.155   3.288
 3790SOL    HW112269   2.027   3.187   3.320
 3790SOL    HW212270   2.123   3.170   3.189
 3791SOL     OW12271   6.212   0.690   2.974
 3791SOL    HW112272   6.285   0.652   2.916
 3791SOL    HW212273   6.196   0.785   2.949
 3792SOL     OW12274   0.840   6.158   6.434
 3792SOL    HW112275   0.779   6.080   6.445
 3792SOL    HW212276   0.814   6.229   6.499
 3793SOL     OW12277   0.746   5.651   2.396
 3793SOL    HW112278   0.797   5.622   2.316
 3793SOL    HW212279   0.648   5.652   2.375
 3794SOL     OW12280   4.621   0.142   3.781
 3794SOL    HW112281   4.612   0.231   3.735
 3794SOL    HW212282   4.614   0.069   3.714
 3795SOL     OW12283   5.364   0.363   0.046
 3795SOL    HW112284   5.267   0.340   0.043
 3795SOL    HW212285   5.375   0.461   0.027
 3796SOL     OW12286   0.302   2.698   0.900
 3796SOL    HW112287   0.289   2.749   0.815
 3796SOL    HW212288   0.215   2.689   0.948
 3797SOL     OW12289   6.836   5.846   2.703
 3797SOL    HW112290   6.825   5.751   2.733
 3797SOL    HW212291   6.749   5.882   2.671
 3798SOL     OW12292   0.917   4.339   0.949
 3798SOL    HW112293   0.948   4.271   1.017
 3798SOL    HW212294   0.821   4.360   0.965
 3799SOL     OW12295   1.669   0.231   5.417
 3799SOL    HW112296   1.578   0.250   5.455
 3799SOL    HW212297   1.671   0.137   5.384
 3800SOL     OW12298   5.413   2.550   5.066
 3800SOL    HW112299   5.331   2.606   5.050
 3800SOL    HW212300   5.463   2.587   5.145
 3801SOL     OW12301   6.775   0.321   6.416
 3801SOL    HW112302   6.717   0.240   6.418
 3801SOL    HW212303   6.809   0.335   6.323
 3802SOL     OW12304   1.815   2.615   5.116
 3802SOL    HW112305   1.728   2.615   5.066
 3802SOL    HW212306   1.888   2.641   5.053
 3803SOL     OW12307   4.054   1.411   1.345
 3803SOL    HW112308   4.133   1.404   1.406
 3803SOL    HW212309   3.980   1.355   1.380
 3804SOL     OW12310   5.134   3.511   5.265
 3804SOL    HW112311   5.048   3.553   5.294
 3804SOL    HW212312   5.178   3.570   5.197
 3805SOL     OW12313   1.870   3.624   1.669
 3805SOL    HW112314   1.921   3.613   1.754
 3805SOL    HW212315   1.893   3.713   1.628
 3806SOL     OW12316   3.796   0.937   0.238
 3806SOL    HW112317   3.855   0.997   0.291
 3806SOL    HW212318   3.845   0.905   0.157
 3807SOL     OW12319   1.018   6.778   2.631
 3807SOL    HW112320   0.938   6.780   2.571
 3807SOL    HW212321   1.012   6.853   2.696
 3808SOL     OW12322   3.412   0.831   0.501
 3808SOL    HW112323   3.322   0.825   0.458
 3808SOL    HW212324   3.456   0.916   0.474
 3809SOL     OW12325   4.242   0.296   0.216
 3809SOL    HW112326   4.328   0.256   0.247
 3809SOL    HW212327   4.226   0.383   0.263
 3810SOL     OW12328   1.929   3.270   6.470
 3810SOL    HW112329   2.016   3.264   6.520
 3810SOL    HW212330   1.877   3.349   6.503
 3811SOL     OW12331   0.486   0.632   6.660
 3811SOL    HW112332   0.387   0.645   6.670
 3811SOL    HW212333   0.517   0.564   6.725
 3812SOL     OW12334   4.844   0.902   5.392
 3812SOL    HW112335   4.763   0.902   5.451
 3812SOL    HW212336   4.892   0.989   5.400
 3813SOL     OW12337   3.810   4.822   2.200
 3813SOL    HW112338   3.758   4.791   2.120
 3813SOL    HW212339   3.790   4.919   2.217
 3814SOL     OW12340   2.142   0.789   1.584
 3814SOL    HW112341   2.213   0.734   1.539
 3814SOL    HW212342   2.151   0.781   1.683
 3815SOL     OW12343   5.535   2.001   2.090
 3815SOL    HW112344   5.462   2.068   2.107
 3815SOL    HW212345   5.504   1.911   2.120
 3816SOL     OW12346   0.111   6.563   0.353
 3816SOL    HW112347   0.175   6.626   0.310
 3816SOL    HW212348   0.126   6.560   0.451
 3817SOL     OW12349   5.076   1.982   5.325
 3817SOL    HW112350   4.995   1.934   5.291
 3817SOL    HW212351   5.109   1.938   5.409
 3818SOL     OW12352   4.066   5.590   3.077
 3818SOL    HW112353   4.151   5.626   3.116
 3818SOL    HW212354   4.047   5.637   2.990
 3819SOL     OW12355   6.248   3.905   6.165
 3819SOL    HW112356   6.320   3.884   6.100
 3819SOL    HW212357   6.165   3.855   6.140
 3820SOL     OW12358   4.897   6.279   3.316
 3820SOL    HW112359   4.848   6.215   3.256
 3820SOL    HW212360   4.845   6.365   3.322
 3821SOL     OW12361   6.979   4.415   1.120
 3821SOL    HW112362   6.913   4.443   1.190
 3821SOL    HW212363   0.012   4.495   1.090
 3822SOL     OW12364   0.715   4.716   1.515
 3822SOL    HW112365   0.646   4.701   1.444
 3822SOL    HW212366   0.685   4.671   1.599
 3823SOL     OW12367   2.824   3.690   5.689
 3823SOL    HW112368   2.826   3.729   5.781
 3823SOL    HW212369   2.916   3.693   5.650
 3824SOL     OW12370   0.318   2.172   5.894
 3824SOL    HW112371   0.354   2.133   5.809
 3824SOL    HW212372   0.218   2.178   5.887
 3825SOL     OW12373   0.145   6.608   6.217
 3825SOL    HW112374   0.200   6.578   6.295
 3825SOL    HW212375   0.075   6.672   6.248
 3826SOL     OW12376   6.687   1.608   1.423
 3826SOL    HW112377   6.649   1.698   1.401
 3826SOL    HW212378   6.702   1.557   1.338
 3827SOL     OW12379   5.500   1.751   2.226
 3827SOL    HW112380   5.496   1.654   2.202
 3827SOL    HW212381   5.431   1.770   2.296
 3828SOL     OW12382   4.420   1.079   1.615
 3828SOL    HW112383   4.407   1.028   1.700
 3828SOL    HW212384   4.357   1.044   1.545
 3829SOL     OW12385   0.900   5.285   3.578
 3829SOL    HW112386   0.807   5.296   3.541
 3829SOL    HW212387   0.902   5.206   3.639
 3830SOL     OW12388   3.417   0.471   5.295
 3830SOL    HW112389   3.363   0.555   5.298
 3830SOL    HW212390   3.377   0.405   5.359
 3831SOL     OW12391   4.721   1.930   2.544
 3831SOL    HW112392   4.807   1.952   2.590
 3831SOL    HW212393   4.736   1.853   2.482
 3832SOL     OW12394   5.800   6.588   2.642
 3832SOL    HW112395   5.883   6.643   2.655
 3832SOL    HW212396   5.755   6.615   2.557
 3833SOL     OW12397   1.448   6.153   2.223
 3833SOL    HW112398   1.368   6.134   2.167
 3833SOL    HW212399   1.453   6.087   2.297
 3834SOL     OW12400   2.221   2.581   0.772
 3834SOL    HW112401   2.232   2.680   0.762
 3834SOL    HW212402   2.309   2.536   0.761
 3835SOL     OW12403   3.566   5.303   3.134
 3835SOL    HW112404   3.652   5.265   3.098
 3835SOL    HW212405   3.522   5.235   3.192
 3836SOL     OW12406   1.594   3.181   5.326
 3836SOL    HW112407   1.624   3.152   5.235
 3836SOL    HW212408   1.664   3.158   5.393
 3837SOL     OW12409   2.942   4.097   0.551
 3837SOL    HW112410   3.029   4.053   0.528
 3837SOL    HW212411   2.940   4.189   0.512
 3838SOL     OW12412   5.793   3.592   4.858
 3838SOL    HW112413   5.863   3.530   4.824
 3838SOL    HW212414   5.818   3.624   4.950
 3839SOL     OW12415   0.567   6.408   6.260
 3839SOL    HW112416   0.597   6.501   6.241
 3839SOL    HW212417   0.645   6.345   6.251
 3840SOL     OW12418   2.450   1.803   3.394
 3840SOL    HW112419   2.475   1.899   3.393
 3840SOL    HW212420   2.532   1.747   3.407
 3841SOL     OW12421   0.807   3.564   3.880
 3841SOL    HW112422   0.889   3.516   3.851
 3841SOL    HW212423   0.802   3.653   3.833
 3842SOL     OW12424   1.963   5.358   0.219
 3842SOL    HW112425   1.987   5.453   0.238
 3842SOL    HW212426   1.971   5.341   0.121
 3843SOL     OW12427   5.854   4.137   6.973
 3843SOL    HW112428   5.943   4.098   6.997
 3843SOL    HW212429   5.861   4.181   6.883
 3844SOL     OW12430   2.338   4.630   5.582
 3844SOL    HW112431   2.427   4.622   5.537
 3844SOL    HW212432   2.307   4.725   5.578
 3845SOL     OW12433   3.297   3.691   4.313
 3845SOL    HW112434   3.208   3.696   4.358
 3845SOL    HW212435   3.369   3.683   4.382
 3846SOL     OW12436   0.119   4.899   4.374
 3846SOL    HW112437   0.187   4.827   4.390
 3846SOL    HW212438   0.134   4.938   4.283
 3847SOL     OW12439   1.109   6.935   1.193
 3847SOL    HW112440   1.157   7.013   1.234
 3847SOL    HW212441   1.016   6.963   1.169
 3848SOL     OW12442   3.057   6.345   1.774
 3848SOL    HW112443   2.971   6.312   1.734
 3848SOL    HW212444   3.130   6.338   1.706
 3849SOL     OW12445   2.525   1.452   5.623
 3849SOL    HW112446   2.458   1.522   5.599
 3849SOL    HW212447   2.582   1.485   5.699
 3850SOL     OW12448   1.756   3.841   1.330
 3850SOL    HW112449   1.679   3.903   1.343
 3850SOL    HW212450   1.802   3.825   1.417
 3851SOL     OW12451   2.519   2.912   1.304
 3851SOL    HW112452   2.572   2.842   1.352
 3851SOL    HW212453   2.423   2.904   1.329
 3852SOL     OW12454   4.631   0.917   5.551
 3852SOL    HW112455   4.581   0.838   5.585
 3852SOL    HW212456   4.624   0.992   5.616
 3853SOL     OW12457   0.489   3.973   1.755
 3853SOL    HW112458   0.452   3.886   1.724
 3853SOL    HW212459   0.495   3.973   1.855
 3854SOL     OW12460   1.627   3.286   4.238
 3854SOL    HW112461   1.624   3.375   4.285
 3854SOL    HW212462   1.535   3.263   4.206
 3855SOL     OW12463   6.764   1.231   5.233
 3855SOL    HW112464   6.683   1.174   5.218
 3855SOL    HW212465   6.766   1.305   5.166
 3856SOL     OW12466   1.750   6.114   5.961
 3856SOL    HW112467   1.730   6.093   5.865
 3856SOL    HW212468   1.671   6.090   6.017
 3857SOL     OW12469   0.556   0.211   6.565
 3857SOL    HW112470   0.549   0.306   6.535
 3857SOL    HW212471   0.549   0.150   6.486
 3858SOL     OW12472   3.321   4.426   6.892
 3858SOL    HW112473   3.382   4.353   6.924
 3858SOL    HW212474   3.368   4.480   6.822
 3859SOL     OW12475   6.100   2.580   2.348
 3859SOL    HW112476   6.109   2.533   2.261
 3859SOL    HW212477   6.046   2.524   2.411
 3860SOL     OW12478   2.516   5.992   4.720
 3860SOL    HW112479   2.477   5.965   4.808
 3860SOL    HW212480   2.462   6.067   4.681
 3861SOL     OW12481   3.672   4.401   6.721
 3861SOL    HW112482   3.680   4.399   6.621
 3861SOL    HW212483   3.696   4.311   6.758
 3862SOL     OW12484   0.933   5.792   5.835
 3862SOL    HW112485   0.995   5.840   5.896
 3862SOL    HW212486   0.844   5.839   5.833
 3863SOL     OW12487   2.630   3.079   0.248
 3863SOL    HW112488   2.730   3.076   0.247
 3863SOL    HW212489   2.594   3.007   0.190
 3864SOL     OW12490   3.120   2.081   1.119
 3864SOL    HW112491   3.077   1.992   1.105
 3864SOL    HW212492   3.182   2.076   1.198
 3865SOL     OW12493   4.174   0.768   2.419
 3865SOL    HW112494   4.082   0.766   2.380
 3865SOL    HW212495   4.168   0.789   2.516
 3866SOL     OW12496   3.614   6.507   6.777
 3866SOL    HW112497   3.656   6.575   6.837
 3866SOL    HW212498   3.683   6.470   6.714
 3867SOL     OW12499   1.910   4.874   3.276
 3867SOL    HW112500   1.874   4.850   3.185
 3867SOL    HW212501   1.894   4.971   3.293
 3868SOL     OW12502   2.100   5.257   3.148
 3868SOL    HW112503   2.144   5.177   3.107
 3868SOL    HW212504   2.135   5.270   3.241
 3869SOL     OW12505   0.508   1.888   3.813
 3869SOL    HW112506   0.455   1.968   3.785
 3869SOL    HW212507   0.455   1.805   3.797
 3870SOL     OW12508   3.709   3.563   0.564
 3870SOL    HW112509   3.692   3.473   0.605
 3870SOL    HW212510   3.764   3.551   0.482
 3871SOL     OW12511   2.864   0.989   4.737
 3871SOL    HW112512   2.884   0.937   4.820
 3871SOL    HW212513   2.950   1.008   4.688
 3872SOL     OW12514   4.570   4.105   1.077
 3872SOL    HW112515   4.590   4.138   1.169
 3872SOL    HW212516   4.562   4.005   1.079
 3873SOL     OW12517   5.760   4.229   2.092
 3873SOL    HW112518   5.802   4.292   2.158
 3873SOL    HW212519   5.781   4.135   2.118
 3874SOL     OW12520   4.956   6.227   6.021
 3874SOL    HW112521   4.932   6.135   6.050
 3874SOL    HW212522   4.959   6.231   5.921
 3875SOL     OW12523   2.529   3.560   0.329
 3875SOL    HW112524   2.465   3.574   0.254
 3875SOL    HW212525   2.510   3.626   0.402
 3876SOL     OW12526   6.124   3.680   2.368
 3876SOL    HW112527   6.113   3.648   2.274
 3876SOL    HW212528   6.148   3.777   2.367
 3877SOL     OW12529   4.416   1.859   2.558
 3877SOL    HW112530   4.336   1.854   2.498
 3877SOL    HW212531   4.494   1.816   2.512
 3878SOL     OW12532   4.921   5.994   4.470
 3878SOL    HW112533   4.919   6.020   4.373
 3878SOL    HW212534   4.986   6.052   4.519
 3879SOL     OW12535   3.038   6.122   0.285
 3879SOL    HW112536   2.966   6.181   0.248
 3879SOL    HW212537   3.108   6.178   0.329
 3880SOL     OW12538   6.311   1.692   4.336
 3880SOL    HW112539   6.369   1.713   4.257
 3880SOL    HW212540   6.316   1.767   4.402
 3881SOL     OW12541   0.476   5.739   6.198
 3881SOL    HW112542   0.406   5.695   6.143
 3881SOL    HW212543   0.438   5.759   6.289
 3882SOL     OW12544   0.284   6.342   6.597
 3882SOL    HW112545   0.342   6.262   6.609
 3882SOL    HW212546   0.242   6.339   6.507
 3883SOL     OW12547   3.713   1.819   6.901
 3883SOL    HW112548   3.772   1.759   6.847
 3883SOL    HW212549   3.648   1.763   6.953
 3884SOL     OW12550   2.501   5.412   5.751
 3884SOL    HW112551   2.506   5.345   5.677
 3884SOL    HW212552   2.561   5.384   5.826
 3885SOL     OW12553   6.729   0.565   4.186
 3885SOL    HW112554   6.680   0.553   4.273
 3885SOL    HW212555   6.786   0.647   4.191
 3886SOL     OW12556   0.236   6.000   4.922
 3886SOL    HW112557   0.156   5.964   4.970
 3886SOL    HW212558   0.209   6.040   4.835
 3887SOL     OW12559   5.756   3.069   4.725
 3887SOL    HW112560   5.794   2.979   4.746
 3887SOL    HW212561   5.699   3.100   4.800
 3888SOL     OW12562   5.490   1.071   2.951
 3888SOL    HW112563   5.496   1.020   3.036
 3888SOL    HW212564   5.460   1.164   2.970
 3889SOL     OW12565   6.330   5.561   6.381
 3889SOL    HW112566   6.241   5.527   6.351
 3889SOL    HW212567   6.359   5.511   6.463
 3890SOL     OW12568   6.482   3.199   3.329
 3890SOL    HW112569   6.428   3.116   3.344
 3890SOL    HW212570   6.432   3.261   3.269
 3891SOL     OW12571   4.357   4.537   5.928
 3891SOL    HW112572   4.419   4.474   5.881
 3891SOL    HW212573   4.268   4.493   5.939
 3892SOL     OW12574   5.589   5.640   3.719
 3892SOL    HW112575   5.599   5.721   3.776
 3892SOL    HW212576   5.582   5.668   3.623
 3893SOL     OW12577   3.072   6.168   4.796
 3893SOL    HW112578   3.037   6.261   4.808
 3893SOL    HW212579   2.996   6.103   4.794
 3894SOL     OW12580   5.790   5.205   6.496
 3894SOL    HW112581   5.765   5.265   6.420
 3894SOL    HW212582   5.885   5.176   6.485
 3895SOL     OW12583   1.787   2.191   6.045
 3895SOL    HW112584   1.823   2.280   6.074
 3895SOL    HW212585   1.716   2.162   6.110
 3896SOL     OW12586   6.668   2.927   0.790
 3896SOL    HW112587   6.573   2.942   0.761
 3896SOL    HW212588   6.682   2.830   0.809
 3897SOL     OW12589   2.999   6.911   3.505
 3897SOL    HW112590   3.047   6.963   3.575
 3897SOL    HW212591   2.999   6.963   3.419
 3898SOL     OW12592   3.273   3.682   3.922
 3898SOL    HW112593   3.203   3.662   3.853
 3898SOL    HW212594   3.362   3.691   3.877
 3899SOL     OW12595   5.109   2.089   6.938
 3899SOL    HW112596   5.196   2.061   6.980
 3899SOL    HW212597   5.057   2.143   7.004
 3900SOL     OW12598   0.745   2.592   3.256
 3900SOL    HW112599   0.765   2.601   3.354
 3900SOL    HW212600   0.662   2.643   3.235
 3901SOL     OW12601   3.788   5.917   5.426
 3901SOL    HW112602   3.820   5.871   5.509
 3901SOL    HW212603   3.859   5.910   5.356
 3902SOL     OW12604   3.511   5.617   3.109
 3902SOL    HW112605   3.465   5.610   3.198
 3902SOL    HW212606   3.606   5.587   3.119
 3903SOL     OW12607   3.657   3.886   6.444
 3903SOL    HW112608   3.737   3.869   6.502
 3903SOL    HW212609   3.598   3.805   6.443
 3904SOL     OW12610   2.247   6.546   0.043
 3904SOL    HW112611   2.293   6.458   0.037
 3904SOL    HW212612   2.218   6.561   0.138
 3905SOL     OW12613   4.427   0.564   5.465
 3905SOL    HW112614   4.477   0.591   5.383
 3905SOL    HW212615   4.381   0.476   5.449
 3906SOL     OW12616   6.465   5.841   4.174
 3906SOL    HW112617   6.556   5.801   4.176
 3906SOL    HW212618   6.473   5.941   4.184
 3907SOL     OW12619   0.632   1.761   4.209
 3907SOL    HW112620   0.568   1.806   4.272
 3907SOL    HW212621   0.704   1.716   4.261
 3908SOL     OW12622   2.259   1.304   4.807
 3908SOL    HW112623   2.304   1.217   4.784
 3908SOL    HW212624   2.193   1.289   4.881
 3909SOL     OW12625   5.804   3.173   1.982
 3909SOL    HW112626   5.808   3.172   2.082
 3909SOL    HW212627   5.856   3.250   1.947
 3910SOL     OW12628   2.235   2.903   1.350
 3910SOL    HW112629   2.232   2.961   1.268
 3910SOL    HW212630   2.143   2.888   1.383
 3911SOL     OW12631   6.375   1.169   1.006
 3911SOL    HW112632   6.415   1.088   0.963
 3911SOL    HW212633   6.383   1.161   1.106
 3912SOL     OW12634   5.084   3.942   0.315
 3912SOL    HW112635   5.107   3.998   0.235
 3912SOL    HW212636   5.063   4.001   0.392
 3913SOL     OW12637   4.027   4.686   1.441
 3913SOL    HW112638   4.060   4.665   1.349
 3913SOL    HW212639   4.059   4.615   1.504
 3914SOL     OW12640   0.345   0.968   0.829
 3914SOL    HW112641   0.358   0.987   0.731
 3914SOL    HW212642   0.424   0.918   0.864
 3915SOL     OW12643   5.574   0.538   5.090
 3915SOL    HW112644   5.540   0.568   5.001
 3915SOL    HW212645   5.628   0.612   5.131
 3916SOL     OW12646   1.702   2.257   2.232
 3916SOL    HW112647   1.664   2.190   2.296
 3916SOL    HW212648   1.800   2.239   2.220
 3917SOL     OW12649   4.575   5.752   2.963
 3917SOL    HW112650   4.579   5.805   3.048
 3917SOL    HW212651   4.624   5.800   2.891
 3918SOL     OW12652   3.898   0.084   1.027
 3918SOL    HW112653   3.988   0.109   0.990
 3918SOL    HW212654   3.872   0.150   1.098
 3919SOL     OW12655   5.203   5.365   3.120
 3919SOL    HW112656   5.207   5.296   3.193
 3919SOL    HW212657   5.109   5.397   3.110
 3920SOL     OW12658   4.484   1.179   6.136
 3920SOL    HW112659   4.527   1.260   6.175
 3920SOL    HW212660   4.398   1.205   6.091
 3921SOL     OW12661   1.392   3.107   6.149
 3921SOL    HW112662   1.330   3.087   6.225
 3921SOL    HW212663   1.352   3.074   6.063
 3922SOL     OW12664   5.690   2.598   4.103
 3922SOL    HW112665   5.597   2.571   4.129
 3922SOL    HW212666   5.712   2.561   4.013
 3923SOL     OW12667   5.707   1.005   1.019
 3923SOL    HW112668   5.716   0.906   1.027
 3923SOL    HW212669   5.770   1.039   0.950
 3924SOL     OW12670   5.170   5.079   3.572
 3924SOL    HW112671   5.081   5.091   3.617
 3924SOL    HW212672   5.218   5.002   3.613
 3925SOL     OW12673   3.567   4.437   1.674
 3925SOL    HW112674   3.565   4.514   1.738
 3925SOL    HW212675   3.638   4.453   1.605
 3926SOL     OW12676   1.439   5.942   5.154
 3926SOL    HW112677   1.360   5.884   5.135
 3926SOL    HW212678   1.413   6.038   5.140
 3927SOL     OW12679   6.248   6.776   5.534
 3927SOL    HW112680   6.285   6.869   5.539
 3927SOL    HW212681   6.291   6.719   5.604
 3928SOL     OW12682   4.509   5.512   2.760
 3928SOL    HW112683   4.566   5.585   2.799
 3928SOL    HW212684   4.413   5.540   2.761
 3929SOL     OW12685   1.280   1.373   5.409
 3929SOL    HW112686   1.303   1.297   5.349
 3929SOL    HW212687   1.181   1.375   5.423
 3930SOL     OW12688   2.473   5.586   3.913
 3930SOL    HW112689   2.500   5.621   3.823
 3930SOL    HW212690   2.418   5.503   3.901
 3931SOL     OW12691   0.435   2.093   0.111
 3931SOL    HW112692   0.405   2.122   0.202
 3931SOL    HW212693   0.448   2.174   0.053
 3932SOL     OW12694   1.933   4.107   2.745
 3932SOL    HW112695   1.857   4.114   2.680
 3932SOL    HW212696   2.018   4.093   2.694
 3933SOL     OW12697   1.429   6.516   1.679
 3933SOL    HW112698   1.338   6.487   1.647
 3933SOL    HW212699   1.434   6.503   1.778
 3934SOL     OW12700   1.767   6.520   2.082
 3934SOL    HW112701   1.678   6.565   2.078
 3934SOL    HW212702   1.827   6.571   2.143
 3935SOL     OW12703   0.492   0.909   5.066
 3935SOL    HW112704   0.429   0.932   4.993
 3935SOL    HW212705   0.490   0.980   5.136
 3936SOL     OW12706   6.409   4.526   3.587
 3936SOL    HW112707   6.376   4.467   3.514
 3936SOL    HW212708   6.485   4.582   3.554
 3937SOL     OW12709   1.297   6.457   6.946
 3937SOL    HW112710   1.394   6.433   6.942
 3937SOL    HW212711   1.288   6.552   6.976
 3938SOL     OW12712   0.473   3.893   6.490
 3938SOL    HW112713   0.542   3.862   6.425
 3938SOL    HW212714   0.409   3.819   6.509
 3939SOL     OW12715   2.608   6.535   4.256
 3939SOL    HW112716   2.621   6.593   4.336
 3939SOL    HW212717   2.621   6.590   4.173
 3940SOL     OW12718   2.500   6.467   6.642
 3940SOL    HW112719   2.453   6.417   6.569
 3940SOL    HW212720   2.436   6.529   6.687
 3941SOL     OW12721   5.920   5.440   2.502
 3941SOL    HW112722   5.834   5.418   2.547
 3941SOL    HW212723   5.947   5.533   2.525
 3942SOL     OW12724   0.150   5.857   6.668
 3942SOL    HW112725   0.098   5.929   6.713
 3942SOL    HW212726   0.089   5.801   6.611
 3943SOL     OW12727   0.965   4.509   0.244
 3943SOL    HW112728   1.033   4.554   0.185
 3943SOL    HW212729   0.888   4.572   0.258
 3944SOL     OW12730   4.554   3.274   0.433
 3944SOL    HW112731   4.523   3.331   0.509
 3944SOL    HW212732   4.622   3.209   0.465
 3945SOL     OW12733   0.187   0.873   3.027
 3945SOL    HW112734   0.231   0.959   3.000
 3945SOL    HW212735   0.145   0.884   3.117
 3946SOL     OW12736   6.147   1.581   1.255
 3946SOL    HW112737   6.071   1.525   1.221
 3946SOL    HW212738   6.148   1.579   1.354
 3947SOL     OW12739   5.594   0.132   1.761
 3947SOL    HW112740   5.669   0.191   1.790
 3947SOL    HW212741   5.622   0.037   1.767
 3948SOL     OW12742   2.162   1.439   4.596
 3948SOL    HW112743   2.174   1.389   4.682
 3948SOL    HW212744   2.119   1.527   4.614
 3949SOL     OW12745   6.313   0.333   2.194
 3949SOL    HW112746   6.374   0.347   2.272
 3949SOL    HW212747   6.234   0.278   2.223
 3950SOL     OW12748   2.891   4.946   1.520
 3950SOL    HW112749   2.974   5.002   1.517
 3950SOL    HW212750   2.870   4.924   1.616
 3951SOL     OW12751   6.814   2.526   3.774
 3951SOL    HW112752   6.718   2.512   3.796
 3951SOL    HW212753   6.823   2.558   3.680
 3952SOL     OW12754   5.903   4.902   6.715
 3952SOL    HW112755   5.867   4.968   6.780
 3952SOL    HW212756   5.828   4.867   6.658
 3953SOL     OW12757   3.910   3.310   5.338
 3953SOL    HW112758   3.949   3.299   5.247
 3953SOL    HW212759   3.833   3.247   5.350
 3954SOL     OW12760   1.232   4.178   5.522
 3954SOL    HW112761   1.240   4.086   5.485
 3954SOL    HW212762   1.274   4.182   5.613
 3955SOL     OW12763   5.736   3.654   0.150
 3955SOL    HW112764   5.674   3.600   0.094
 3955SOL    HW212765   5.809   3.594   0.186
 3956SOL     OW12766   6.531   2.492   4.894
 3956SOL    HW112767   6.486   2.469   4.808
 3956SOL    HW212768   6.610   2.551   4.875
 3957SOL     OW12769   1.387   2.755   1.933
 3957SOL    HW112770   1.475   2.789   1.900
 3957SOL    HW212771   1.321   2.754   1.858
 3958SOL     OW12772   5.699   5.033   1.162
 3958SOL    HW112773   5.613   5.026   1.212
 3958SOL    HW212774   5.751   4.948   1.172
 3959SOL     OW12775   3.153   5.038   1.520
 3959SOL    HW112776   3.182   4.961   1.577
 3959SOL    HW212777   3.231   5.070   1.466
 3960SOL     OW12778   5.977   2.522   0.764
 3960SOL    HW112779   5.992   2.431   0.725
 3960SOL    HW212780   5.882   2.550   0.749
 3961SOL     OW12781   6.756   1.203   0.965
 3961SOL    HW112782   6.780   1.157   0.879
 3961SOL    HW212783   6.748   1.302   0.949
 3962SOL     OW12784   0.039   6.848   6.624
 3962SOL    HW112785   0.083   6.763   6.596
 3962SOL    HW212786   0.056   6.865   6.721
 3963SOL     OW12787   5.322   3.918   4.475
 3963SOL    HW112788   5.252   3.966   4.423
 3963SOL    HW212789   5.385   3.984   4.516
 3964SOL     OW12790   5.678   4.307   6.549
 3964SOL    HW112791   5.621   4.235   6.587
 3964SOL    HW212792   5.668   4.309   6.450
 3965SOL     OW12793   2.328   4.284   1.177
 3965SOL    HW112794   2.413   4.315   1.219
 3965SOL    HW212795   2.319   4.323   1.085
 3966SOL     OW12796   0.248   3.284   5.038
 3966SOL    HW112797   0.179   3.248   4.974
 3966SOL    HW212798   0.204   3.309   5.124
 3967SOL     OW12799   2.412   0.152   0.570
 3967SOL    HW112800   2.366   0.064   0.581
 3967SOL    HW212801   2.448   0.159   0.477
 3968SOL     OW12802   4.455   2.792   0.728
 3968SOL    HW112803   4.458   2.703   0.774
 3968SOL    HW212804   4.542   2.839   0.741
 3969SOL     OW12805   6.289   6.344   0.647
 3969SOL    HW112806   6.311   6.421   0.707
 3969SOL    HW212807   6.324   6.259   0.687
 3970SOL     OW12808   6.041   4.360   4.098
 3970SOL    HW112809   6.101   4.304   4.042
 3970SOL    HW212810   6.089   4.443   4.126
 3971SOL     OW12811   0.440   5.927   4.289
 3971SOL    HW112812   0.354   5.962   4.251
 3971SOL    HW212813   0.512   5.995   4.276
 3972SOL     OW12814   0.938   0.548   6.520
 3972SOL    HW112815   0.843   0.551   6.489
 3972SOL    HW212816   0.959   0.631   6.572
 3973SOL     OW12817   4.098   3.200   1.840
 3973SOL    HW112818   4.133   3.217   1.932
 3973SOL    HW212819   4.173   3.175   1.780
 3974SOL     OW12820   5.195   0.850   6.995
 3974SOL    HW112821   5.275   0.885   6.948
 3974SOL    HW212822   5.117   0.850   6.932
 3975SOL     OW12823   6.962   6.381   4.413
 3975SOL    HW112824   7.018   6.422   4.484
 3975SOL    HW212825   6.980   6.425   4.326
 3976SOL     OW12826   1.401   2.776   5.223
 3976SOL    HW112827   1.457   2.800   5.303
 3976SOL    HW212828   1.400   2.677   5.211
 3977SOL     OW12829   2.932   4.793   5.709
 3977SOL    HW112830   2.855   4.733   5.731
 3977SOL    HW212831   2.930   4.873   5.769
 3978SOL     OW12832   4.815   2.821   5.869
 3978SOL    HW112833   4.910   2.843   5.888
 3978SOL    HW212834   4.756   2.896   5.901
 3979SOL     OW12835   1.393   5.775   3.175
 3979SOL    HW112836   1.457   5.700   3.157
 3979SOL    HW212837   1.302   5.739   3.192
 3980SOL     OW12838   4.909   4.089   4.420
 3980SOL    HW112839   4.875   3.995   4.422
 3980SOL    HW212840   5.004   4.090   4.388
 3981SOL     OW12841   0.093   1.164   6.282
 3981SOL    HW112842   0.057   1.150   6.190
 3981SOL    HW212843   0.096   1.263   6.301
 3982SOL     OW12844   1.786   3.195   4.457
 3982SOL    HW112845   1.742   3.128   4.516
 3982SOL    HW212846   1.726   3.218   4.380
 3983SOL     OW12847   2.800   0.242   4.025
 3983SOL    HW112848   2.759   0.220   3.937
 3983SOL    HW212849   2.832   0.157   4.068
 3984SOL     OW12850   1.223   5.705   2.171
 3984SOL    HW112851   1.262   5.794   2.148
 3984SOL    HW212852   1.290   5.633   2.152
 3985SOL     OW12853   1.584   3.009   1.531
 3985SOL    HW112854   1.650   3.066   1.580
 3985SOL    HW212855   1.491   3.039   1.554
 3986SOL     OW12856   6.907   2.324   3.089
 3986SOL    HW112857   6.823   2.379   3.089
 3986SOL    HW212858   6.935   2.306   2.994
 3987SOL     OW12859   0.623   4.263   5.242
 3987SOL    HW112860   0.562   4.187   5.220
 3987SOL    HW212861   0.683   4.238   5.318
 3988SOL     OW12862   5.206   6.987   1.723
 3988SOL    HW112863   5.251   7.016   1.807
 3988SOL    HW212864   5.161   6.899   1.738
 3989SOL     OW12865   4.512   0.799   5.892
 3989SOL    HW112866   4.454   0.791   5.811
 3989SOL    HW212867   4.598   0.750   5.876
 3990SOL     OW12868   6.239   0.615   4.364
 3990SOL    HW112869   6.170   0.622   4.436
 3990SOL    HW212870   6.219   0.535   4.307
 3991SOL     OW12871   6.508   1.957   3.738
 3991SOL    HW112872   6.556   2.045   3.734
 3991SOL    HW212873   6.430   1.964   3.799
 3992SOL     OW12874   5.923   3.759   5.795
 3992SOL    HW112875   5.965   3.839   5.752
 3992SOL    HW212876   5.847   3.789   5.853
 3993SOL     OW12877   1.900   0.795   4.279
 3993SOL    HW112878   1.945   0.884   4.271
 3993SOL    HW212879   1.850   0.791   4.366
 3994SOL     OW12880   2.690   2.014   3.750
 3994SOL    HW112881   2.674   1.920   3.781
 3994SOL    HW212882   2.609   2.047   3.700
 3995SOL     OW12883   1.341   3.417   2.025
 3995SOL    HW112884   1.328   3.342   2.089
 3995SOL    HW212885   1.434   3.453   2.034
 3996SOL     OW12886   0.050   6.305   5.090
 3996SOL    HW112887   0.054   6.358   5.005
 3996SOL    HW212888   0.143   6.289   5.124
 3997SOL     OW12889   5.967   3.997   4.545
 3997SOL    HW112890   5.896   3.945   4.594
 3997SOL    HW212891   5.997   4.074   4.601
 3998SOL     OW12892   4.457   2.020   3.719
 3998SOL    HW112893   4.556   2.023   3.725
 3998SOL    HW212894   4.427   1.925   3.706
 3999SOL     OW12895   5.095   2.652   0.939
 3999SOL    HW112896   5.103   2.600   1.024
 3999SOL    HW212897   5.182   2.649   0.890
 4000SOL     OW12898   1.878   4.743   2.939
 4000SOL    HW112899   1.875   4.664   3.001
 4000SOL    HW212900   1.966   4.743   2.890
 4001SOL     OW12901   0.553   6.247   4.439
 4001SOL    HW112902   0.581   6.194   4.359
 4001SOL    HW212903   0.543   6.186   4.518
 4002SOL     OW12904   3.918   3.680   4.679
 4002SOL    HW112905   4.000   3.648   4.631
 4002SOL    HW212906   3.881   3.606   4.735
 4003SOL     OW12907   2.923   0.657   4.710
 4003SOL    HW112908   3.012   0.616   4.690
 4003SOL    HW212909   2.866   0.656   4.628
 4004SOL     OW12910   1.754   3.681   5.084
 4004SOL    HW112911   1.746   3.624   5.165
 4004SOL    HW212912   1.717   3.632   5.005
 4005SOL     OW12913   5.831   2.958   0.774
 4005SOL    HW112914   5.882   2.993   0.695
 4005SOL    HW212915   5.895   2.924   0.842
 4006SOL     OW12916   0.136   6.029   2.081
 4006SOL    HW112917   0.052   6.041   2.134
 4006SOL    HW212918   0.138   5.936   2.043
 4007SOL     OW12919   0.606   1.098   1.523
 4007SOL    HW112920   0.586   1.106   1.621
 4007SOL    HW212921   0.532   1.049   1.478
 4008SOL     OW12922   4.256   0.977   1.419
 4008SOL    HW112923   4.317   1.020   1.353
 4008SOL    HW212924   4.225   0.889   1.384
 4009SOL     OW12925   3.798   2.641   1.306
 4009SOL    HW112926   3.865   2.710   1.280
 4009SOL    HW212927   3.835   2.550   1.289
 4010SOL     OW12928   1.778   4.310   0.657
 4010SOL    HW112929   1.758   4.293   0.561
 4010SOL    HW212930   1.815   4.228   0.699
 4011SOL     OW12931   6.430   6.719   6.188
 4011SOL    HW112932   6.407   6.623   6.200
 4011SOL    HW212933   6.529   6.730   6.189
 4012SOL     OW12934   5.392   5.668   1.687
 4012SOL    HW112935   5.361   5.573   1.695
 4012SOL    HW212936   5.404   5.707   1.779
 4013SOL     OW12937   0.226   1.861   0.244
 4013SOL    HW112938   0.169   1.808   0.307
 4013SOL    HW212939   0.319   1.868   0.280
 4014SOL     OW12940   3.197   5.719   2.730
 4014SOL    HW112941   3.184   5.621   2.715
 4014SOL    HW212942   3.197   5.767   2.642
 4015SOL     OW12943   3.894   6.259   5.093
 4015SOL    HW112944   3.873   6.166   5.061
 4015SOL    HW212945   3.993   6.267   5.107
 4016SOL     OW12946   4.797   5.583   4.677
 4016SOL    HW112947   4.891   5.562   4.650
 4016SOL    HW212948   4.742   5.500   4.673
 4017SOL     OW12949   1.898   5.538   6.128
 4017SOL    HW112950   1.800   5.544   6.147
 4017SOL    HW212951   1.919   5.587   6.044
 4018SOL     OW12952   4.628   5.516   1.026
 4018SOL    HW112953   4.598   5.524   1.121
 4018SOL    HW212954   4.563   5.459   0.975
 4019SOL     OW12955   0.184   2.368   2.971
 4019SOL    HW112956   0.163   2.401   3.063
 4019SOL    HW212957   0.266   2.414   2.937
 4020SOL     OW12958   6.775   5.682   4.399
 4020SOL    HW112959   6.874   5.668   4.398
 4020SOL    HW212960   6.750   5.740   4.477
 4021SOL     OW12961   4.368   5.163   5.910
 4021SOL    HW112962   4.306   5.205   5.844
 4021SOL    HW212963   4.451   5.219   5.919
 4022SOL     OW12964   3.328   6.851   1.370
 4022SOL    HW112965   3.334   6.758   1.334
 4022SOL    HW212966   3.418   6.895   1.365
 4023SOL     OW12967   0.382   2.144   4.191
 4023SOL    HW112968   0.438   2.195   4.126
 4023SOL    HW212969   0.347   2.206   4.261
 4024SOL     OW12970   0.420   6.168   6.391
 4024SOL    HW112971   0.350   6.128   6.332
 4024SOL    HW212972   0.446   6.258   6.356
 4025SOL     OW12973   6.977   4.808   4.116
 4025SOL    HW112974   6.881   4.798   4.145
 4025SOL    HW212975   6.987   4.890   4.060
 4026SOL     OW12976   0.625   6.553   4.262
 4026SOL    HW112977   0.713   6.591   4.288
 4026SOL    HW212978   0.557   6.574   4.332
 4027SOL     OW12979   2.804   5.197   5.300
 4027SOL    HW112980   2.736   5.173   5.369
 4027SOL    HW212981   2.846   5.284   5.323
 4028SOL     OW12982   5.147   1.704   4.459
 4028SOL    HW112983   5.149   1.621   4.514
 4028SOL    HW212984   5.222   1.764   4.486
 4029SOL     OW12985   1.374   6.967   0.921
 4029SOL    HW112986   1.395   7.005   1.011
 4029SOL    HW212987   1.276   6.954   0.912
 4030SOL     OW12988   0.589   1.464   1.764
 4030SOL    HW112989   0.529   1.399   1.717
 4030SOL    HW212990   0.533   1.538   1.802
 4031SOL     OW12991   5.839   5.643   0.559
 4031SOL    HW112992   5.890   5.591   0.627
 4031SOL    HW212993   5.857   5.605   0.468
 4032SOL     OW12994   4.983   2.023   2.609
 4032SOL    HW112995   5.006   2.049   2.516
 4032SOL    HW212996   4.998   1.925   2.621
 4033SOL     OW12997   1.596   2.867   2.958
 4033SOL    HW112998   1.667   2.814   3.005
 4033SOL    HW212999   1.532   2.904   3.025
 4034SOL     OW13000   1.879   2.183   4.536
 4034SOL    HW113001   1.869   2.201   4.438
 4034SOL    HW213002   1.976   2.172   4.558
 4035SOL     OW13003   4.064   2.494   1.551
 4035SOL    HW113004   4.046   2.432   1.628
 4035SOL    HW213005   4.019   2.460   1.469
 4036SOL     OW13006   3.864   5.929   3.639
 4036SOL    HW113007   3.942   5.914   3.700
 4036SOL    HW213008   3.896   5.927   3.544
 4037SOL     OW13009   1.911   1.928   6.400
 4037SOL    HW113010   1.887   2.024   6.419
 4037SOL    HW213011   1.944   1.920   6.306
 4038SOL     OW13012   3.643   4.726   5.850
 4038SOL    HW113013   3.633   4.686   5.941
 4038SOL    HW213014   3.635   4.826   5.855
 4039SOL     OW13015   5.936   4.351   1.763
 4039SOL    HW113016   5.956   4.354   1.665
 4039SOL    HW213017   5.838   4.366   1.778
 4040SOL     OW13018   3.079   0.322   5.196
 4040SOL    HW113019   3.143   0.247   5.208
 4040SOL    HW213020   3.090   0.361   5.104
 4041SOL     OW13021   1.385   6.079   1.819
 4041SOL    HW113022   1.410   6.028   1.737
 4041SOL    HW213023   1.466   6.124   1.857
 4042SOL     OW13024   0.418   1.725   3.332
 4042SOL    HW113025   0.451   1.650   3.389
 4042SOL    HW213026   0.351   1.779   3.383
 4043SOL     OW13027   4.217   1.914   5.842
 4043SOL    HW113028   4.228   1.898   5.744
 4043SOL    HW213029   4.269   1.845   5.893
 4044SOL     OW13030   4.467   4.536   3.332
 4044SOL    HW113031   4.478   4.635   3.319
 4044SOL    HW213032   4.405   4.520   3.408
 4045SOL     OW13033   4.492   1.365   5.216
 4045SOL    HW113034   4.449   1.367   5.306
 4045SOL    HW213035   4.521   1.457   5.190
 4046SOL     OW13036   4.933   1.566   4.105
 4046SOL    HW113037   4.919   1.467   4.097
 4046SOL    HW213038   5.030   1.586   4.096
 4047SOL     OW13039   3.084   2.260   6.409
 4047SOL    HW113040   3.135   2.330   6.458
 4047SOL    HW213041   3.127   2.243   6.320
 4048SOL     OW13042   5.105   2.092   3.785
 4048SOL    HW113043   5.019   2.140   3.774
 4048SOL    HW213044   5.090   2.007   3.836
 4049SOL     OW13045   4.322   3.890   1.251
 4049SOL    HW113046   4.303   3.818   1.317
 4049SOL    HW213047   4.311   3.979   1.293
 4050SOL     OW13048   6.748   5.235   2.631
 4050SOL    HW113049   6.726   5.139   2.611
 4050SOL    HW213050   6.847   5.248   2.630
 4051SOL     OW13051   5.321   1.067   4.537
 4051SOL    HW113052   5.413   1.065   4.498
 4051SOL    HW213053   5.258   1.018   4.476
 4052SOL     OW13054   4.961   1.924   4.394
 4052SOL    HW113055   5.007   1.836   4.407
 4052SOL    HW213056   5.027   1.991   4.361
 4053SOL     OW13057   0.816   5.085   3.779
 4053SOL    HW113058   0.862   5.141   3.847
 4053SOL    HW213059   0.864   4.997   3.771
 4054SOL     OW13060   4.688   3.705   1.194
 4054SOL    HW113061   4.778   3.695   1.151
 4054SOL    HW213062   4.670   3.627   1.254
 4055SOL     OW13063   6.800   4.374   0.014
 4055SOL    HW113064   6.737   4.327   0.075
 4055SOL    HW213065   6.760   4.461   7.005
 4056SOL     OW13066   5.140   3.338   0.052
 4056SOL    HW113067   5.072   3.325   0.124
 4056SOL    HW213068   5.168   3.249   0.016
 4057SOL     OW13069   6.822   3.816   6.280
 4057SOL    HW113070   6.805   3.896   6.338
 4057SOL    HW213071   6.742   3.797   6.225
 4058SOL     OW13072   3.511   0.582   4.641
 4058SOL    HW113073   3.491   0.503   4.582
 4058SOL    HW213074   3.570   0.646   4.592
 4059SOL     OW13075   0.611   1.431   3.882
 4059SOL    HW113076   0.687   1.429   3.816
 4059SOL    HW213077   0.541   1.366   3.853
 4060SOL     OW13078   0.195   6.325   4.653
 4060SOL    HW113079   0.248   6.331   4.568
 4060SOL    HW213080   0.147   6.237   4.656
 4061SOL     OW13081   0.630   4.985   1.799
 4061SOL    HW113082   0.671   4.894   1.811
 4061SOL    HW213083   0.566   4.982   1.722
 4062SOL     OW13084   2.014   3.916   0.076
 4062SOL    HW113085   1.937   3.954   0.026
 4062SOL    HW213086   1.992   3.912   0.173
 4063SOL     OW13087   3.929   0.567   0.949
 4063SOL    HW113088   3.983   0.651   0.953
 4063SOL    HW213089   3.908   0.546   0.853
 4064SOL     OW13090   2.424   0.839   5.661
 4064SOL    HW113091   2.522   0.855   5.678
 4064SOL    HW213092   2.387   0.783   5.735
 4065SOL     OW13093   2.413   1.772   1.495
 4065SOL    HW113094   2.329   1.721   1.511
 4065SOL    HW213095   2.433   1.829   1.574
 4066SOL     OW13096   0.381   4.699   4.670
 4066SOL    HW113097   0.476   4.711   4.699
 4066SOL    HW213098   0.374   4.714   4.572
 4067SOL     OW13099   6.766   4.670   0.627
 4067SOL    HW113100   6.756   4.571   0.624
 4067SOL    HW213101   6.704   4.711   0.560
 4068SOL     OW13102   2.203   2.730   5.367
 4068SOL    HW113103   2.299   2.740   5.339
 4068SOL    HW213104   2.185   2.789   5.445
 4069SOL     OW13105   4.893   6.596   5.468
 4069SOL    HW113106   4.971   6.627   5.522
 4069SOL    HW213107   4.922   6.582   5.373
 4070SOL     OW13108   1.698   3.143   3.855
 4070SOL    HW113109   1.726   3.224   3.906
 4070SOL    HW213110   1.713   3.062   3.911
 4071SOL     OW13111   2.068   0.979   4.843
 4071SOL    HW113112   2.075   0.960   4.745
 4071SOL    HW213113   2.144   0.936   4.891
 4072SOL     OW13114   3.302   6.466   2.561
 4072SOL    HW113115   3.392   6.441   2.597
 4072SOL    HW213116   3.302   6.459   2.461
 4073SOL     OW13117   4.173   5.226   0.247
 4073SOL    HW113118   4.092   5.207   0.303
 4073SOL    HW213119   4.202   5.142   0.202
 4074SOL     OW13120   1.276   5.318   2.172
 4074SOL    HW113121   1.186   5.337   2.133
 4074SOL    HW213122   1.347   5.346   2.108
 4075SOL     OW13123   5.898   1.531   0.215
 4075SOL    HW113124   5.905   1.491   0.306
 4075SOL    HW213125   5.848   1.469   0.155
 4076SOL     OW13126   1.878   5.762   3.981
 4076SOL    HW113127   1.948   5.726   4.042
 4076SOL    HW213128   1.899   5.858   3.960
 4077SOL     OW13129   2.994   1.824   1.692
 4077SOL    HW113130   3.092   1.842   1.705
 4077SOL    HW213131   2.959   1.880   1.617
 4078SOL     OW13132   4.165   4.884   2.486
 4078SOL    HW113133   4.168   4.829   2.569
 4078SOL    HW213134   4.083   4.942   2.487
 4079SOL     OW13135   0.391   2.138   3.809
 4079SOL    HW113136   0.396   2.190   3.723
 4079SOL    HW213137   0.298   2.139   3.843
 4080SOL     OW13138   6.703   2.015   5.118
 4080SOL    HW113139   6.650   2.074   5.057
 4080SOL    HW213140   6.793   2.056   5.133
 4081SOL     OW13141   0.692   3.768   3.339
 4081SOL    HW113142   0.782   3.763   3.296
 4081SOL    HW213143   0.694   3.836   3.413
 4082SOL     OW13144   0.819   3.365   6.850
 4082SOL    HW113145   0.806   3.289   6.913
 4082SOL    HW213146   0.866   3.440   6.897
 4083SOL     OW13147   6.725   2.938   4.983
 4083SOL    HW113148   6.795   2.893   5.038
 4083SOL    HW213149   6.696   3.022   5.030
 4084SOL     OW13150   6.089   1.040   4.574
 4084SOL    HW113151   6.052   1.054   4.482
 4084SOL    HW213152   6.035   1.094   4.639
 4085SOL     OW13153   2.734   5.412   0.032
 4085SOL    HW113154   2.665   5.407   0.104
 4085SOL    HW213155   2.691   5.390   6.963
 4086SOL     OW13156   1.372   4.003   1.298
 4086SOL    HW113157   1.347   3.947   1.376
 4086SOL    HW213158   1.337   3.961   1.214
 4087SOL     OW13159   2.469   1.439   2.582
 4087SOL    HW113160   2.395   1.504   2.597
 4087SOL    HW213161   2.445   1.352   2.625
 4088SOL     OW13162   6.971   1.480   0.092
 4088SOL    HW113163   6.879   1.470   0.128
 4088SOL    HW213164   0.015   1.503   0.167
 4089SOL     OW13165   0.636   0.990   5.519
 4089SOL    HW113166   0.585   0.925   5.463
 4089SOL    HW213167   0.666   1.066   5.461
 4090SOL     OW13168   3.094   5.039   6.477
 4090SOL    HW113169   3.095   5.098   6.558
 4090SOL    HW213170   3.182   4.990   6.470
 4091SOL     OW13171   4.621   0.164   1.266
 4091SOL    HW113172   4.603   0.240   1.329
 4091SOL    HW213173   4.712   0.173   1.228
 4092SOL     OW13174   6.718   1.456   3.882
 4092SOL    HW113175   6.724   1.463   3.982
 4092SOL    HW213176   6.698   1.547   3.844
 4093SOL     OW13177   5.657   0.075   4.114
 4093SOL    HW113178   5.578   0.022   4.147
 4093SOL    HW213179   5.646   0.092   4.016
 4094SOL     OW13180   3.188   4.188   5.934
 4094SOL    HW113181   3.108   4.132   5.955
 4094SOL    HW213182   3.159   4.280   5.907
 4095SOL     OW13183   1.966   3.607   5.975
 4095SOL    HW113184   2.064   3.613   5.995
 4095SOL    HW213185   1.943   3.513   5.949
 4096SOL     OW13186   4.467   4.760   1.935
 4096SOL    HW113187   4.410   4.749   2.016
 4096SOL    HW213188   4.475   4.672   1.888
 4097SOL     OW13189   3.695   3.625   3.300
 4097SOL    HW113190   3.785   3.580   3.300
 4097SOL    HW213191   3.631   3.571   3.247
 4098SOL     OW13192   0.870   3.445   1.932
 4098SOL    HW113193   0.787   3.499   1.919
 4098SOL    HW213194   0.888   3.435   2.030
 4099SOL     OW13195   2.436   6.075   2.412
 4099SOL    HW113196   2.488   5.990   2.410
 4099SOL    HW213197   2.398   6.089   2.504
 4100SOL     OW13198   3.732   6.550   3.280
 4100SOL    HW113199   3.708   6.479   3.347
 4100SOL    HW213200   3.826   6.580   3.295
 4101SOL     OW13201   4.492   1.999   7.000
 4101SOL    HW113202   4.474   1.903   0.002
 4101SOL    HW213203   4.590   2.016   6.998
 4102SOL     OW13204   4.894   1.972   0.444
 4102SOL    HW113205   4.887   1.965   0.544
 4102SOL    HW213206   4.967   2.035   0.420
 4103SOL     OW13207   0.501   6.972   2.375
 4103SOL    HW113208   0.552   0.039   2.387
 4103SOL    HW213209   0.514   6.916   2.457
 4104SOL     OW13210   2.163   4.469   2.688
 4104SOL    HW113211   2.189   4.565   2.677
 4104SOL    HW213212   2.204   4.415   2.613
 4105SOL     OW13213   6.120   4.844   6.849
 4105SOL    HW113214   6.040   4.860   6.790
 4105SOL    HW213215   6.102   4.882   6.939
 4106SOL     OW13216   7.014   3.661   4.560
 4106SOL    HW113217   0.058   3.629   4.489
 4106SOL    HW213218   6.931   3.606   4.558
 4107SOL     OW13219   6.779   0.678   0.499
 4107SOL    HW113220   6.826   0.686   0.411
 4107SOL    HW213221   6.830   0.619   0.560
 4108SOL     OW13222   6.368   2.762   4.991
 4108SOL    HW113223   6.442   2.695   4.985
 4108SOL    HW213224   6.291   2.732   4.935
 4109SOL     OW13225   3.019   5.897   4.130
 4109SOL    HW113226   2.954   5.871   4.059
 4109SOL    HW213227   3.017   5.996   4.143
 4110SOL     OW13228   4.574   3.078   5.295
 4110SOL    HW113229   4.639   3.112   5.228
 4110SOL    HW213230   4.564   3.144   5.369
 4111SOL     OW13231   3.561   3.291   6.767
 4111SOL    HW113232   3.643   3.260   6.718
 4111SOL    HW213233   3.533   3.221   6.832
 4112SOL     OW13234   3.779   0.796   5.026
 4112SOL    HW113235   3.807   0.709   4.984
 4112SOL    HW213236   3.683   0.813   5.005
 4113SOL     OW13237   3.624   4.974   4.947
 4113SOL    HW113238   3.550   4.965   4.880
 4113SOL    HW213239   3.598   5.041   5.017
 4114SOL     OW13240   3.821   2.169   2.745
 4114SOL    HW113241   3.772   2.098   2.695
 4114SOL    HW213242   3.821   2.254   2.692
 4115SOL     OW13243   5.547   4.190   2.442
 4115SOL    HW113244   5.536   4.229   2.351
 4115SOL    HW213245   5.545   4.264   2.510
 4116SOL     OW13246   3.289   0.906   2.705
 4116SOL    HW113247   3.207   0.961   2.691
 4116SOL    HW213248   3.333   0.890   2.617
 4117SOL     OW13249   0.730   5.720   1.434
 4117SOL    HW113250   0.758   5.789   1.500
 4117SOL    HW213251   0.729   5.760   1.342
 4118SOL     OW13252   2.364   6.976   6.914
 4118SOL    HW113253   2.418   6.892   6.917
 4118SOL    HW213254   2.424   0.034   6.895
 4119SOL     OW13255   4.801   1.217   3.354
 4119SOL    HW113256   4.736   1.261   3.416
 4119SOL    HW213257   4.776   1.238   3.259
 4120SOL     OW13258   4.769   1.082   2.062
 4120SOL    HW113259   4.711   1.152   2.021
 4120SOL    HW213260   4.808   1.025   1.990
 4121SOL     OW13261   6.683   2.297   4.450
 4121SOL    HW113262   6.764   2.349   4.476
 4121SOL    HW213263   6.699   2.200   4.467
 4122SOL     OW13264   1.784   5.818   0.010
 4122SOL    HW113265   1.876   5.845   0.038
 4122SOL    HW213266   1.717   5.872   0.060
 4123SOL     OW13267   4.523   3.877   5.767
 4123SOL    HW113268   4.579   3.960   5.769
 4123SOL    HW213269   4.438   3.895   5.717
 4124SOL     OW13270   4.220   6.300   3.777
 4124SOL    HW113271   4.211   6.223   3.840
 4124SOL    HW213272   4.313   6.304   3.742
 4125SOL     OW13273   5.123   0.993   1.385
 4125SOL    HW113274   5.057   0.921   1.408
 4125SOL    HW213275   5.073   1.077   1.364
 4126SOL     OW13276   2.054   4.630   4.723
 4126SOL    HW113277   2.035   4.726   4.700
 4126SOL    HW213278   2.137   4.600   4.677
 4127SOL     OW13279   6.409   4.513   4.749
 4127SOL    HW113280   6.463   4.576   4.694
 4127SOL    HW213281   6.438   4.519   4.845
 4128SOL     OW13282   0.923   1.780   1.921
 4128SOL    HW113283   0.964   1.832   1.996
 4128SOL    HW213284   0.831   1.816   1.902
 4129SOL     OW13285   6.509   2.596   5.985
 4129SOL    HW113286   6.606   2.604   6.010
 4129SOL    HW213287   6.490   2.653   5.905
 4130SOL     OW13288   6.610   3.047   1.039
 4130SOL    HW113289   6.656   3.017   0.955
 4130SOL    HW213290   6.573   3.139   1.026
 4131SOL     OW13291   0.239   3.819   3.198
 4131SOL    HW113292   0.203   3.911   3.213
 4131SOL    HW213293   0.279   3.785   3.284
 4132SOL     OW13294   4.780   2.255   4.806
 4132SOL    HW113295   4.719   2.212   4.872
 4132SOL    HW213296   4.752   2.350   4.792
 4133SOL     OW13297   2.385   2.621   1.311
 4133SOL    HW113298   2.341   2.699   1.356
 4133SOL    HW213299   2.359   2.620   1.214
 4134SOL     OW13300   1.973   1.464   0.476
 4134SOL    HW113301   1.926   1.531   0.535
 4134SOL    HW213302   1.971   1.496   0.381
 4135SOL     OW13303   2.040   0.760   1.255
 4135SOL    HW113304   2.016   0.691   1.322
 4135SOL    HW213305   2.005   0.733   1.165
 4136SOL     OW13306   0.840   1.920   3.273
 4136SOL    HW113307   0.895   1.961   3.201
 4136SOL    HW213308   0.743   1.927   3.249
 4137SOL     OW13309   3.830   3.328   6.021
 4137SOL    HW113310   3.803   3.424   6.024
 4137SOL    HW213311   3.752   3.270   6.048
 4138SOL     OW13312   4.203   5.795   2.227
 4138SOL    HW113313   4.165   5.854   2.156
 4138SOL    HW213314   4.188   5.836   2.317
 4139SOL     OW13315   2.836   0.988   0.585
 4139SOL    HW113316   2.831   0.917   0.655
 4139SOL    HW213317   2.916   1.046   0.603
 4140SOL     OW13318   4.391   1.374   5.464
 4140SOL    HW113319   4.294   1.381   5.439
 4140SOL    HW213320   4.427   1.465   5.484
 4141SOL     OW13321   5.188   5.494   0.118
 4141SOL    HW113322   5.225   5.406   0.090
 4141SOL    HW213323   5.140   5.537   0.041
 4142SOL     OW13324   5.934   3.456   1.368
 4142SOL    HW113325   5.861   3.443   1.435
 4142SOL    HW213326   5.898   3.500   1.286
 4143SOL     OW13327   0.650   3.014   2.089
 4143SOL    HW113328   0.681   2.922   2.064
 4143SOL    HW213329   0.725   3.065   2.130
 4144SOL     OW13330   4.002   0.690   1.950
 4144SOL    HW113331   3.907   0.672   1.978
 4144SOL    HW213332   4.019   0.788   1.953
 4145SOL     OW13333   2.818   6.975   2.959
 4145SOL    HW113334   2.771   6.957   2.873
 4145SOL    HW213335   2.754   6.965   3.035
 4146SOL     OW13336   4.984   5.067   0.385
 4146SOL    HW113337   4.905   5.113   0.345
 4146SOL    HW213338   5.041   5.030   0.312
 4147SOL     OW13339   2.759   2.056   6.003
 4147SOL    HW113340   2.808   2.136   5.968
 4147SOL    HW213341   2.663   2.061   5.976
 4148SOL     OW13342   6.916   0.065   2.736
 4148SOL    HW113343   6.929   0.057   2.835
 4148SOL    HW213344   6.838   0.009   2.708
 4149SOL     OW13345   4.777   4.194   2.207
 4149SOL    HW113346   4.708   4.224   2.142
 4149SOL    HW213347   4.747   4.214   2.300
 4150SOL     OW13348   4.782   0.441   5.667
 4150SOL    HW113349   4.759   0.519   5.725
 4150SOL    HW213350   4.791   0.471   5.572
 4151SOL     OW13351   0.508   5.576   0.281
 4151SOL    HW113352   0.470   5.532   0.362
 4151SOL    HW213353   0.466   5.537   0.199
 4152SOL     OW13354   3.160   3.950   1.462
 4152SOL    HW113355   3.101   4.023   1.496
 4152SOL    HW213356   3.225   3.987   1.396
 4153SOL     OW13357   5.994   5.461   5.904
 4153SOL    HW113358   6.069   5.474   5.839
 4153SOL    HW213359   5.916   5.418   5.857
 4154SOL     OW13360   4.460   2.380   5.591
 4154SOL    HW113361   4.442   2.477   5.608
 4154SOL    HW213362   4.439   2.327   5.674
 4155SOL     OW13363   1.664   3.109   0.575
 4155SOL    HW113364   1.740   3.174   0.572
 4155SOL    HW213365   1.619   3.114   0.664
 4156SOL     OW13366   5.697   0.304   5.139
 4156SOL    HW113367   5.674   0.393   5.099
 4156SOL    HW213368   5.643   0.290   5.222
 4157SOL     OW13369   3.184   0.703   3.392
 4157SOL    HW113370   3.239   0.773   3.438
 4157SOL    HW213371   3.088   0.729   3.395
 4158SOL     OW13372   0.868   0.592   3.657
 4158SOL    HW113373   0.851   0.642   3.742
 4158SOL    HW213374   0.946   0.530   3.669
 4159SOL     OW13375   0.419   3.704   5.390
 4159SOL    HW113376   0.504   3.656   5.366
 4159SOL    HW213377   0.439   3.800   5.408
 4160SOL     OW13378   0.587   0.555   1.468
 4160SOL    HW113379   0.589   0.459   1.496
 4160SOL    HW213380   0.509   0.601   1.510
 4161SOL     OW13381   6.402   1.747   0.858
 4161SOL    HW113382   6.313   1.757   0.814
 4161SOL    HW213383   6.393   1.691   0.940
 4162SOL     OW13384   0.558   6.724   5.292
 4162SOL    HW113385   0.627   6.796   5.279
 4162SOL    HW213386   0.592   6.638   5.254
 4163SOL     OW13387   6.376   1.281   5.397
 4163SOL    HW113388   6.428   1.240   5.323
 4163SOL    HW213389   6.281   1.248   5.394
 4164SOL     OW13390   2.922   6.493   5.796
 4164SOL    HW113391   2.879   6.493   5.706
 4164SOL    HW213392   2.865   6.546   5.859
 4165SOL     OW13393   2.555   5.850   2.389
 4165SOL    HW113394   2.584   5.815   2.300
 4165SOL    HW213395   2.615   5.814   2.461
 4166SOL     OW13396   6.445   1.760   1.850
 4166SOL    HW113397   6.425   1.667   1.817
 4166SOL    HW213398   6.393   1.777   1.933
 4167SOL     OW13399   1.748   3.005   1.089
 4167SOL    HW113400   1.652   2.999   1.062
 4167SOL    HW213401   1.758   2.975   1.183
 4168SOL     OW13402   1.671   5.439   1.253
 4168SOL    HW113403   1.657   5.408   1.347
 4168SOL    HW213404   1.582   5.448   1.208
 4169SOL     OW13405   6.253   3.492   5.710
 4169SOL    HW113406   6.204   3.441   5.639
 4169SOL    HW213407   6.352   3.484   5.695
 4170SOL     OW13408   3.529   1.097   4.911
 4170SOL    HW113409   3.487   1.123   4.824
 4170SOL    HW213410   3.629   1.098   4.902
 4171SOL     OW13411   6.147   3.530   1.183
 4171SOL    HW113412   6.081   3.584   1.236
 4171SOL    HW213413   6.199   3.472   1.245
 4172SOL     OW13414   2.650   0.759   0.157
 4172SOL    HW113415   2.574   0.722   0.104
 4172SOL    HW213416   2.630   0.853   0.184
 4173SOL     OW13417   4.839   3.349   5.774
 4173SOL    HW113418   4.921   3.358   5.830
 4173SOL    HW213419   4.758   3.358   5.833
 4174SOL     OW13420   5.368   0.483   3.988
 4174SOL    HW113421   5.390   0.580   3.980
 4174SOL    HW213422   5.294   0.460   3.925
 4175SOL     OW13423   2.744   1.454   2.543
 4175SOL    HW113424   2.644   1.448   2.546
 4175SOL    HW213425   2.776   1.510   2.620
 4176SOL     OW13426   5.753   4.425   2.897
 4176SOL    HW113427   5.835   4.375   2.923
 4176SOL    HW213428   5.770   4.523   2.901
 4177SOL     OW13429   6.315   5.508   3.082
 4177SOL    HW113430   6.237   5.566   3.060
 4177SOL    HW213431   6.289   5.442   3.153
 4178SOL     OW13432   4.153   2.496   5.478
 4178SOL    HW113433   4.110   2.555   5.410
 4178SOL    HW213434   4.219   2.549   5.532
 4179SOL     OW13435   6.762   2.200   6.931
 4179SOL    HW113436   6.773   2.250   7.016
 4179SOL    HW213437   6.696   2.247   6.872
 4180SOL     OW13438   4.660   3.483   1.751
 4180SOL    HW113439   4.574   3.438   1.775
 4180SOL    HW213440   4.728   3.415   1.727
 4181SOL     OW13441   6.509   0.683   0.611
 4181SOL    HW113442   6.601   0.670   0.576
 4181SOL    HW213443   6.487   0.781   0.612
 4182SOL     OW13444   5.431   0.747   3.989
 4182SOL    HW113445   5.419   0.795   4.075
 4182SOL    HW213446   5.424   0.812   3.913
 4183SOL     OW13447   1.932   1.273   1.718
 4183SOL    HW113448   2.019   1.297   1.676
 4183SOL    HW213449   1.867   1.348   1.704
 4184SOL     OW13450   4.604   4.761   6.873
 4184SOL    HW113451   4.601   4.778   6.775
 4184SOL    HW213452   4.641   4.842   6.920
 4185SOL     OW13453   0.011   0.082   3.778
 4185SOL    HW113454   7.013   0.057   3.873
 4185SOL    HW213455   0.043   0.002   3.727
 4186SOL     OW13456   3.771   4.276   1.739
 4186SOL    HW113457   3.679   4.305   1.715
 4186SOL    HW213458   3.768   4.182   1.774
 4187SOL     OW13459   3.968   5.249   6.774
 4187SOL    HW113460   3.891   5.313   6.776
 4187SOL    HW213461   4.025   5.263   6.854
 4188SOL     OW13462   5.284   6.348   3.923
 4188SOL    HW113463   5.265   6.446   3.928
 4188SOL    HW213464   5.281   6.310   4.015
 4189SOL     OW13465   1.432   3.601   3.384
 4189SOL    HW113466   1.459   3.617   3.289
 4189SOL    HW213467   1.373   3.676   3.415
 4190SOL     OW13468   2.456   0.075   1.476
 4190SOL    HW113469   2.400   0.152   1.506
 4190SOL    HW213470   2.532   0.108   1.419
 4191SOL     OW13471   0.546   2.011   2.847
 4191SOL    HW113472   0.606   1.935   2.873
 4191SOL    HW213473   0.577   2.095   2.893
 4192SOL     OW13474   5.955   0.579   3.345
 4192SOL    HW113475   5.993   0.512   3.409
 4192SOL    HW213476   5.983   0.556   3.252
 4193SOL     OW13477   1.625   6.189   3.544
 4193SOL    HW113478   1.654   6.155   3.454
 4193SOL    HW213479   1.539   6.238   3.535
 4194SOL     OW13480   5.656   0.482   3.571
 4194SOL    HW113481   5.651   0.457   3.667
 4194SOL    HW213482   5.733   0.544   3.556
 4195SOL     OW13483   5.173   1.155   3.788
 4195SOL    HW113484   5.193   1.251   3.803
 4195SOL    HW213485   5.074   1.140   3.791
 4196SOL     OW13486   4.747   2.790   3.673
 4196SOL    HW113487   4.735   2.803   3.575
 4196SOL    HW213488   4.780   2.875   3.714
 4197SOL     OW13489   5.265   4.013   4.872
 4197SOL    HW113490   5.351   4.031   4.825
 4197SOL    HW213491   5.232   3.921   4.847
 4198SOL     OW13492   6.635   3.691   6.090
 4198SOL    HW113493   6.691   3.629   6.036
 4198SOL    HW213494   6.591   3.640   6.164
 4199SOL     OW13495   3.188   4.094   6.314
 4199SOL    HW113496   3.263   4.090   6.248
 4199SOL    HW213497   3.135   4.178   6.298
 4200SOL     OW13498   2.733   0.462   6.905
 4200SOL    HW113499   2.697   0.392   6.843
 4200SOL    HW213500   2.727   0.552   6.860
 4201SOL     OW13501   5.768   6.924   4.631
 4201SOL    HW113502   5.691   6.957   4.577
 4201SOL    HW213503   5.844   6.901   4.571
 4202SOL     OW13504   5.143   3.869   5.573
 4202SOL    HW113505   5.231   3.861   5.619
 4202SOL    HW213506   5.108   3.778   5.552
 4203SOL     OW13507   4.258   5.678   4.537
 4203SOL    HW113508   4.265   5.613   4.461
 4203SOL    HW213509   4.345   5.726   4.548
 4204SOL     OW13510   1.493   3.903   0.191
 4204SOL    HW113511   1.455   3.892   0.283
 4204SOL    HW213512   1.459   3.830   0.132
 4205SOL     OW13513   2.333   5.892   2.927
 4205SOL    HW113514   2.420   5.887   2.878
 4205SOL    HW213515   2.313   5.987   2.950
 4206SOL     OW13516   5.085   6.487   4.208
 4206SOL    HW113517   5.076   6.575   4.253
 4206SOL    HW213518   5.023   6.483   4.129
 4207SOL     OW13519   0.685   6.887   0.158
 4207SOL    HW113520   0.739   6.810   0.192
 4207SOL    HW213521   0.661   6.948   0.234
 4208SOL     OW13522   0.493   2.793   1.335
 4208SOL    HW113523   0.565   2.836   1.389
 4208SOL    HW213524   0.482   2.843   1.249
 4209SOL     OW13525   3.228   0.110   5.281
 4209SOL    HW113526   3.296   0.066   5.224
 4209SOL    HW213527   3.163   0.042   5.315
 4210SOL     OW13528   3.850   2.777   0.406
 4210SOL    HW113529   3.908   2.696   0.408
 4210SOL    HW213530   3.754   2.749   0.416
 4211SOL     OW13531   5.296   3.653   4.587
 4211SOL    HW113532   5.306   3.747   4.552
 4211SOL    HW213533   5.381   3.624   4.631
 4212SOL     OW13534   6.294   6.941   2.196
 4212SOL    HW113535   6.234   7.002   2.248
 4212SOL    HW213536   6.337   6.875   2.258
 4213SOL     OW13537   0.473   0.142   0.993
 4213SOL    HW113538   0.502   0.222   1.045
 4213SOL    HW213539   0.490   0.060   1.047
 4214SOL     OW13540   2.785   5.476   4.523
 4214SOL    HW113541   2.733   5.398   4.488
 4214SOL    HW213542   2.723   5.545   4.559
 4215SOL     OW13543   1.385   6.085   6.451
 4215SOL    HW113544   1.385   6.116   6.355
 4215SOL    HW213545   1.349   5.992   6.456
 4216SOL     OW13546   2.764   3.005   5.304
 4216SOL    HW113547   2.667   3.022   5.287
 4216SOL    HW213548   2.780   2.907   5.314
 4217SOL     OW13549   6.669   0.989   4.304
 4217SOL    HW113550   6.601   1.060   4.320
 4217SOL    HW213551   6.727   0.980   4.385
 4218SOL     OW13552   3.181   5.472   2.632
 4218SOL    HW113553   3.269   5.430   2.613
 4218SOL    HW213554   3.131   5.486   2.547
 4219SOL     OW13555   5.712   0.204   2.966
 4219SOL    HW113556   5.758   0.247   2.888
 4219SOL    HW213557   5.619   0.240   2.974
 4220SOL     OW13558   0.189   4.405   3.502
 4220SOL    HW113559   0.262   4.347   3.465
 4220SOL    HW213560   0.114   4.411   3.435
 4221SOL     OW13561   5.662   6.358   5.788
 4221SOL    HW113562   5.719   6.439   5.776
 4221SOL    HW213563   5.701   6.301   5.861
 4222SOL     OW13564   2.394   2.915   0.484
 4222SOL    HW113565   2.425   2.995   0.433
 4222SOL    HW213566   2.372   2.841   0.420
 4223SOL     OW13567   3.143   4.047   2.697
 4223SOL    HW113568   3.159   4.138   2.658
 4223SOL    HW213569   3.107   4.057   2.790
 4224SOL     OW13570   3.802   1.800   5.733
 4224SOL    HW113571   3.751   1.884   5.751
 4224SOL    HW213572   3.875   1.790   5.801
 4225SOL     OW13573   4.811   0.265   4.537
 4225SOL    HW113574   4.775   0.288   4.446
 4225SOL    HW213575   4.905   0.231   4.529
 4226SOL     OW13576   1.999   1.747   2.536
 4226SOL    HW113577   1.955   1.781   2.453
 4226SOL    HW213578   1.928   1.717   2.601
 4227SOL     OW13579   5.484   3.649   6.481
 4227SOL    HW113580   5.416   3.659   6.553
 4227SOL    HW213581   5.442   3.669   6.392
 4228SOL     OW13582   4.629   4.706   2.936
 4228SOL    HW113583   4.667   4.729   2.847
 4228SOL    HW213584   4.677   4.756   3.008
 4229SOL     OW13585   4.248   4.956   5.319
 4229SOL    HW113586   4.272   4.872   5.270
 4229SOL    HW213587   4.162   4.992   5.283
 4230SOL     OW13588   2.987   1.264   6.291
 4230SOL    HW113589   2.889   1.282   6.302
 4230SOL    HW213590   2.999   1.186   6.230
 4231SOL     OW13591   3.838   6.174   6.207
 4231SOL    HW113592   3.919   6.116   6.205
 4231SOL    HW213593   3.863   6.267   6.179
 4232SOL     OW13594   1.966   4.229   1.129
 4232SOL    HW113595   1.884   4.176   1.105
 4232SOL    HW213596   1.977   4.229   1.229
 4233SOL     OW13597   5.432   5.451   1.134
 4233SOL    HW113598   5.338   5.463   1.101
 4233SOL    HW213599   5.494   5.450   1.056
 4234SOL     OW13600   3.629   3.368   5.714
 4234SOL    HW113601   3.596   3.408   5.628
 4234SOL    HW213602   3.722   3.336   5.703
 4235SOL     OW13603   0.386   4.436   4.808
 4235SOL    HW113604   0.388   4.491   4.725
 4235SOL    HW213605   0.466   4.458   4.865
 4236SOL     OW13606   0.771   3.698   4.775
 4236SOL    HW113607   0.777   3.609   4.732
 4236SOL    HW213608   0.756   3.686   4.874
 4237SOL     OW13609   6.662   4.061   5.367
 4237SOL    HW113610   6.614   4.113   5.438
 4237SOL    HW213611   6.754   4.097   5.356
 4238SOL     OW13612   4.859   5.006   4.730
 4238SOL    HW113613   4.847   5.012   4.630
 4238SOL    HW213614   4.955   4.988   4.750
 4239SOL     OW13615   5.110   6.001   5.411
 4239SOL    HW113616   5.133   5.927   5.475
 4239SOL    HW213617   5.078   5.962   5.325
 4240SOL     OW13618   2.719   4.712   6.751
 4240SOL    HW113619   2.688   4.758   6.668
 4240SOL    HW213620   2.687   4.617   6.750
 4241SOL     OW13621   3.387   1.903   1.463
 4241SOL    HW113622   3.374   1.813   1.422
 4241SOL    HW213623   3.480   1.912   1.498
 4242SOL     OW13624   2.478   0.347   2.120
 4242SOL    HW113625   2.495   0.330   2.023
 4242SOL    HW213626   2.380   0.341   2.139
 4243SOL     OW13627   1.594   2.851   2.515
 4243SOL    HW113628   1.687   2.821   2.499
 4243SOL    HW213629   1.543   2.780   2.562
 4244SOL     OW13630   3.162   0.702   0.833
 4244SOL    HW113631   3.254   0.740   0.836
 4244SOL    HW213632   3.150   0.639   0.910
 4245SOL     OW13633   6.943   1.830   0.840
 4245SOL    HW113634   6.934   1.923   0.805
 4245SOL    HW213635   6.854   1.785   0.839
 4246SOL     OW13636   4.764   2.812   4.147
 4246SOL    HW113637   4.844   2.867   4.122
 4246SOL    HW213638   4.727   2.768   4.065
 4247SOL     OW13639   2.285   5.472   0.105
 4247SOL    HW113640   2.355   5.535   0.074
 4247SOL    HW213641   2.218   5.521   0.162
 4248SOL     OW13642   2.268   0.080   3.290
 4248SOL    HW113643   2.185   0.053   3.242
 4248SOL    HW213644   2.283   0.178   3.278
 4249SOL     OW13645   5.751   1.296   5.701
 4249SOL    HW113646   5.721   1.205   5.727
 4249SOL    HW213647   5.823   1.288   5.631
 4250SOL     OW13648   0.384   5.431   4.926
 4250SOL    HW113649   0.380   5.505   4.859
 4250SOL    HW213650   0.293   5.392   4.937
 4251SOL     OW13651   4.879   2.154   5.844
 4251SOL    HW113652   4.860   2.208   5.762
 4251SOL    HW213653   4.823   2.186   5.919
 4252SOL     OW13654   0.156   0.259   6.416
 4252SOL    HW113655   0.141   0.227   6.322
 4252SOL    HW213656   0.177   0.181   6.475
 4253SOL     OW13657   3.930   6.858   2.823
 4253SOL    HW113658   3.858   6.789   2.814
 4253SOL    HW213659   3.893   6.938   2.871
 4254SOL     OW13660   1.113   2.193   5.437
 4254SOL    HW113661   1.132   2.180   5.340
 4254SOL    HW213662   1.022   2.232   5.449
 4255SOL     OW13663   1.152   2.644   3.393
 4255SOL    HW113664   1.185   2.597   3.475
 4255SOL    HW213665   1.214   2.626   3.317
 4256SOL     OW13666   6.159   5.752   0.599
 4256SOL    HW113667   6.204   5.821   0.656
 4256SOL    HW213668   6.212   5.738   0.515
 4257SOL     OW13669   6.837   1.037   2.861
 4257SOL    HW113670   6.891   1.111   2.819
 4257SOL    HW213671   6.889   0.952   2.856
 4258SOL     OW13672   2.720   6.118   1.015
 4258SOL    HW113673   2.774   6.142   0.935
 4258SOL    HW213674   2.629   6.088   0.987
 4259SOL     OW13675   0.643   6.836   6.909
 4259SOL    HW113676   0.710   6.898   6.869
 4259SOL    HW213677   0.641   6.849   7.008
 4260SOL     OW13678   6.717   6.870   5.092
 4260SOL    HW113679   6.755   6.922   5.168
 4260SOL    HW213680   6.637   6.918   5.056
 4261SOL     OW13681   2.580   6.319   3.590
 4261SOL    HW113682   2.489   6.288   3.564
 4261SOL    HW213683   2.636   6.240   3.615
 4262SOL     OW13684   1.384   4.422   5.009
 4262SOL    HW113685   1.328   4.347   5.042
 4262SOL    HW213686   1.330   4.507   5.010
 4263SOL     OW13687   3.268   1.197   2.481
 4263SOL    HW113688   3.241   1.103   2.462
 4263SOL    HW213689   3.231   1.258   2.411
 4264SOL     OW13690   4.681   1.847   6.753
 4264SOL    HW113691   4.669   1.943   6.730
 4264SOL    HW213692   4.749   1.838   6.826
 4265SOL     OW13693   3.359   6.334   6.905
 4265SOL    HW113694   3.288   6.404   6.915
 4265SOL    HW213695   3.415   6.354   6.824
 4266SOL     OW13696   1.266   4.791   1.544
 4266SOL    HW113697   1.193   4.723   1.552
 4266SOL    HW213698   1.271   4.845   1.627
 4267SOL     OW13699   1.096   3.849   4.196
 4267SOL    HW113700   1.063   3.875   4.287
 4267SOL    HW213701   1.196   3.843   4.197
 4268SOL     OW13702   1.399   4.279   6.139
 4268SOL    HW113703   1.456   4.361   6.131
 4268SOL    HW213704   1.427   4.212   6.070
 4269SOL     OW13705   2.882   1.559   3.853
 4269SOL    HW113706   2.815   1.487   3.840
 4269SOL    HW213707   2.953   1.552   3.782
 4270SOL     OW13708   4.217   4.025   1.003
 4270SOL    HW113709   4.172   3.961   0.940
 4270SOL    HW213710   4.239   3.978   1.088
 4271SOL     OW13711   6.275   0.701   0.404
 4271SOL    HW113712   6.353   0.662   0.453
 4271SOL    HW213713   6.303   0.723   0.311
 4272SOL     OW13714   6.590   1.646   5.245
 4272SOL    HW113715   6.550   1.648   5.337
 4272SOL    HW213716   6.527   1.691   5.181
 4273SOL     OW13717   3.233   5.520   3.659
 4273SOL    HW113718   3.332   5.526   3.667
 4273SOL    HW213719   3.199   5.595   3.603
 4274SOL     OW13720   0.059   0.881   1.136
 4274SOL    HW113721   0.010   0.794   1.146
 4274SOL    HW213722   0.021   0.948   1.200
 4275SOL     OW13723   6.772   2.019   3.961
 4275SOL    HW113724   6.791   2.076   4.041
 4275SOL    HW213725   6.717   2.071   3.896
 4276SOL     OW13726   1.286   6.825   2.578
 4276SOL    HW113727   1.318   6.876   2.657
 4276SOL    HW213728   1.186   6.813   2.584
 4277SOL     OW13729   6.116   5.909   2.805
 4277SOL    HW113730   6.055   5.842   2.763
 4277SOL    HW213731   6.107   5.997   2.758
 4278SOL     OW13732   0.238   0.059   0.864
 4278SOL    HW113733   0.316   0.103   0.907
 4278SOL    HW213734   0.243   0.072   0.765
 4279SOL     OW13735   0.845   3.207   2.912
 4279SOL    HW113736   0.883   3.147   2.982
 4279SOL    HW213737   0.867   3.302   2.934
 4280SOL     OW13738   2.892   6.542   6.752
 4280SOL    HW113739   2.984   6.582   6.750
 4280SOL    HW213740   2.856   6.539   6.659
 4281SOL     OW13741   0.045   6.351   2.616
 4281SOL    HW113742   0.075   6.401   2.534
 4281SOL    HW213743   0.005   6.263   2.588
 4282SOL     OW13744   5.070   4.834   1.815
 4282SOL    HW113745   5.008   4.910   1.834
 4282SOL    HW213746   5.125   4.855   1.734
 4283SOL     OW13747   5.947   1.039   4.830
 4283SOL    HW113748   5.884   0.999   4.763
 4283SOL    HW213749   5.996   0.965   4.878
 4284SOL     OW13750   4.706   6.075   6.599
 4284SOL    HW113751   4.617   6.106   6.565
 4284SOL    HW213752   4.707   6.082   6.699
 4285SOL     OW13753   3.214   1.439   6.581
 4285SOL    HW113754   3.124   1.398   6.595
 4285SOL    HW213755   3.267   1.383   6.517
 4286SOL     OW13756   4.879   6.415   0.010
 4286SOL    HW113757   4.928   6.342   0.057
 4286SOL    HW213758   4.943   6.482   6.993
 4287SOL     OW13759   3.886   0.914   1.279
 4287SOL    HW113760   3.842   1.000   1.306
 4287SOL    HW213761   3.913   0.920   1.183
 4288SOL     OW13762   0.139   6.486   2.394
 4288SOL    HW113763   0.188   6.409   2.355
 4288SOL    HW213764   0.101   6.542   2.321
 4289SOL     OW13765   0.456   4.257   5.717
 4289SOL    HW113766   0.416   4.252   5.809
 4289SOL    HW213767   0.389   4.298   5.655
 4290SOL     OW13768   6.872   1.524   3.388
 4290SOL    HW113769   6.843   1.542   3.294
 4290SOL    HW213770   6.850   1.430   3.412
 4291SOL     OW13771   4.261   5.011   6.829
 4291SOL    HW113772   4.328   5.028   6.757
 4291SOL    HW213773   4.274   4.918   6.865
 4292SOL     OW13774   6.847   0.281   0.895
 4292SOL    HW113775   6.817   0.199   0.943
 4292SOL    HW213776   6.783   0.301   0.820
 4293SOL     OW13777   3.969   3.042   6.630
 4293SOL    HW113778   3.928   3.031   6.539
 4293SOL    HW213779   3.977   3.140   6.651
 4294SOL     OW13780   2.723   2.000   0.250
 4294SOL    HW113781   2.662   1.995   0.170
 4294SOL    HW213782   2.816   1.974   0.223
 4295SOL     OW13783   4.582   6.875   2.565
 4295SOL    HW113784   4.559   6.850   2.659
 4295SOL    HW213785   4.602   6.972   2.560
 4296SOL     OW13786   1.890   5.398   2.644
 4296SOL    HW113787   1.942   5.408   2.729
 4296SOL    HW213788   1.929   5.458   2.574
 4297SOL     OW13789   4.939   4.766   6.926
 4297SOL    HW113790   4.968   4.821   6.847
 4297SOL    HW213791   5.018   4.747   6.984
 4298SOL     OW13792   1.641   0.014   0.577
 4298SOL    HW113793   1.633   0.105   0.537
 4298SOL    HW213794   1.620   6.964   0.508
 4299SOL     OW13795   0.094   2.989   5.999
 4299SOL    HW113796   0.085   3.034   5.910
 4299SOL    HW213797   0.150   3.046   6.059
 4300SOL     OW13798   3.143   0.780   1.880
 4300SOL    HW113799   3.240   0.755   1.890
 4300SOL    HW213800   3.112   0.824   1.964
 4301SOL     OW13801   2.145   6.310   4.776
 4301SOL    HW113802   2.155   6.235   4.842
 4301SOL    HW213803   2.168   6.396   4.821
 4302SOL     OW13804   3.835   5.035   0.135
 4302SOL    HW113805   3.747   4.998   0.165
 4302SOL    HW213806   3.902   5.025   0.209
 4303SOL     OW13807   4.181   5.429   3.440
 4303SOL    HW113808   4.135   5.342   3.420
 4303SOL    HW213809   4.160   5.457   3.534
 4304SOL     OW13810   3.031   4.192   1.781
 4304SOL    HW113811   2.974   4.266   1.815
 4304SOL    HW213812   2.996   4.161   1.692
 4305SOL     OW13813   0.830   6.680   6.064
 4305SOL    HW113814   0.913   6.733   6.049
 4305SOL    HW213815   0.776   6.678   5.980
 4306SOL     OW13816   5.832   3.405   5.257
 4306SOL    HW113817   5.882   3.375   5.176
 4306SOL    HW213818   5.784   3.491   5.237
 4307SOL     OW13819   6.995   1.437   5.436
 4307SOL    HW113820   6.939   1.488   5.372
 4307SOL    HW213821   0.015   1.499   5.504
 4308SOL     OW13822   4.323   5.906   5.753
 4308SOL    HW113823   4.260   5.830   5.771
 4308SOL    HW213824   4.393   5.908   5.824
 4309SOL     OW13825   2.953   1.928   0.898
 4309SOL    HW113826   2.935   1.867   0.821
 4309SOL    HW213827   2.965   2.021   0.864
 4310SOL     OW13828   6.664   2.190   3.720
 4310SOL    HW113829   6.616   2.270   3.685
 4310SOL    HW213830   6.752   2.181   3.673
 4311SOL     OW13831   0.613   6.495   1.114
 4311SOL    HW113832   0.698   6.500   1.167
 4311SOL    HW213833   0.601   6.402   1.080
 4312SOL     OW13834   0.240   4.014   2.593
 4312SOL    HW113835   0.274   3.944   2.530
 4312SOL    HW213836   0.143   3.997   2.612
 4313SOL     OW13837   0.638   3.546   0.761
 4313SOL    HW113838   0.547   3.513   0.734
 4313SOL    HW213839   0.672   3.492   0.838
 4314SOL     OW13840   1.782   1.712   5.850
 4314SOL    HW113841   1.804   1.807   5.873
 4314SOL    HW213842   1.707   1.680   5.908
 4315SOL     OW13843   2.796   2.275   5.117
 4315SOL    HW113844   2.749   2.347   5.066
 4315SOL    HW213845   2.734   2.197   5.129
 4316SOL     OW13846   4.473   5.347   1.648
 4316SOL    HW113847   4.548   5.312   1.592
 4316SOL    HW213848   4.386   5.330   1.601
 4317SOL     OW13849   5.084   0.442   4.297
 4317SOL    HW113850   5.107   0.530   4.254
 4317SOL    HW213851   5.094   0.450   4.396
 4318SOL     OW13852   1.500   5.715   3.630
 4318SOL    HW113853   1.563   5.705   3.707
 4318SOL    HW213854   1.448   5.799   3.640
 4319SOL     OW13855   1.839   5.006   1.849
 4319SOL    HW113856   1.835   4.907   1.837
 4319SOL    HW213857   1.899   5.029   1.926
 4320SOL     OW13858   3.491   0.917   1.639
 4320SOL    HW113859   3.447   0.845   1.586
 4320SOL    HW213860   3.588   0.896   1.649
 4321SOL     OW13861   6.467   5.576   2.820
 4321SOL    HW113862   6.431   5.635   2.892
 4321SOL    HW213863   6.452   5.480   2.846
 4322SOL     OW13864   2.950   2.204   4.111
 4322SOL    HW113865   2.948   2.104   4.120
 4322SOL    HW213866   2.916   2.230   4.020
 4323SOL     OW13867   5.514   4.213   1.373
 4323SOL    HW113868   5.448   4.230   1.445
 4323SOL    HW213869   5.466   4.191   1.288
 4324SOL     OW13870   6.961   3.967   5.571
 4324SOL    HW113871   6.913   4.018   5.643
 4324SOL    HW213872   6.894   3.917   5.517
 4325SOL     OW13873   1.497   0.764   1.212
 4325SOL    HW113874   1.592   0.795   1.216
 4325SOL    HW213875   1.444   0.808   1.285
 4326SOL     OW13876   4.746   2.814   3.399
 4326SOL    HW113877   4.730   2.740   3.334
 4326SOL    HW213878   4.783   2.894   3.350
 4327SOL     OW13879   3.321   6.544   3.652
 4327SOL    HW113880   3.380   6.598   3.712
 4327SOL    HW213881   3.373   6.468   3.614
 4328SOL     OW13882   6.537   0.166   2.767
 4328SOL    HW113883   6.443   0.143   2.742
 4328SOL    HW213884   6.596   0.087   2.751
 4329SOL     OW13885   6.037   4.176   0.299
 4329SOL    HW113886   5.954   4.137   0.340
 4329SOL    HW213887   6.013   4.255   0.243
 4330SOL     OW13888   2.502   5.627   5.199
 4330SOL    HW113889   2.547   5.617   5.110
 4330SOL    HW213890   2.571   5.630   5.272
 4331SOL     OW13891   5.873   1.959   2.779
 4331SOL    HW113892   5.845   1.987   2.871
 4331SOL    HW213893   5.920   1.871   2.784
 4332SOL     OW13894   6.624   5.920   1.168
 4332SOL    HW113895   6.644   5.846   1.232
 4332SOL    HW213896   6.626   5.885   1.074
 4333SOL     OW13897   3.244   2.494   6.452
 4333SOL    HW113898   3.162   2.550   6.462
 4333SOL    HW213899   3.278   2.501   6.358
 4334SOL     OW13900   0.574   2.393   3.486
 4334SOL    HW113901   0.584   2.318   3.420
 4334SOL    HW213902   0.505   2.368   3.554
 4335SOL     OW13903   2.152   3.870   1.646
 4335SOL    HW113904   2.135   3.846   1.741
 4335SOL    HW213905   2.246   3.905   1.637
 4336SOL     OW13906   2.507   5.213   5.546
 4336SOL    HW113907   2.568   5.137   5.566
 4336SOL    HW213908   2.417   5.178   5.518
 4337SOL     OW13909   6.967   4.511   4.124
 4337SOL    HW113910   6.969   4.607   4.096
 4337SOL    HW213911   6.997   4.453   4.048
 4338SOL     OW13912   3.082   2.714   5.722
 4338SOL    HW113913   2.987   2.708   5.692
 4338SOL    HW213914   3.101   2.806   5.756
 4339SOL     OW13915   4.254   4.224   5.467
 4339SOL    HW113916   4.302   4.254   5.550
 4339SOL    HW213917   4.209   4.303   5.425
 4340SOL     OW13918   0.202   3.851   0.401
 4340SOL    HW113919   0.272   3.780   0.408
 4340SOL    HW213920   0.118   3.811   0.363
 4341SOL     OW13921   6.060   5.471   0.864
 4341SOL    HW113922   6.078   5.456   0.767
 4341SOL    HW213923   6.088   5.563   0.889
 4342SOL     OW13924   5.544   3.297   2.440
 4342SOL    HW113925   5.623   3.346   2.478
 4342SOL    HW213926   5.476   3.282   2.511
 4343SOL     OW13927   4.279   0.543   6.700
 4343SOL    HW113928   4.198   0.594   6.672
 4343SOL    HW213929   4.269   0.447   6.673
 4344SOL     OW13930   1.173   4.069   2.034
 4344SOL    HW113931   1.179   4.000   1.961
 4344SOL    HW213932   1.204   4.029   2.120
 4345SOL     OW13933   3.915   3.420   2.673
 4345SOL    HW113934   3.819   3.396   2.657
 4345SOL    HW213935   3.974   3.361   2.617
 4346SOL     OW13936   0.750   4.070   2.654
 4346SOL    HW113937   0.695   4.062   2.572
 4346SOL    HW213938   0.823   4.137   2.639
 4347SOL     OW13939   6.147   5.290   0.271
 4347SOL    HW113940   6.122   5.362   0.206
 4347SOL    HW213941   6.233   5.314   0.316
 4348SOL     OW13942   6.676   3.936   5.973
 4348SOL    HW113943   6.645   4.012   6.031
 4348SOL    HW213944   6.666   3.850   6.022
 4349SOL     OW13945   1.284   4.130   4.093
 4349SOL    HW113946   1.235   4.118   4.007
 4349SOL    HW213947   1.223   4.174   4.160
 4350SOL     OW13948   5.070   0.363   3.935
 4350SOL    HW113949   4.982   0.405   3.959
 4350SOL    HW213950   5.098   0.394   3.844
 4351SOL     OW13951   0.376   5.658   0.769
 4351SOL    HW113952   0.363   5.559   0.774
 4351SOL    HW213953   0.471   5.677   0.741
 4352SOL     OW13954   3.420   4.178   1.583
 4352SOL    HW113955   3.374   4.174   1.672
 4352SOL    HW213956   3.412   4.271   1.546
 4353SOL     OW13957   2.533   3.843   0.234
 4353SOL    HW113958   2.611   3.827   0.294
 4353SOL    HW213959   2.478   3.918   0.269
 4354SOL     OW13960   5.178   5.150   2.517
 4354SOL    HW113961   5.103   5.144   2.583
 4354SOL    HW213962   5.142   5.177   2.428
 4355SOL     OW13963   1.758   4.943   3.055
 4355SOL    HW113964   1.786   4.873   2.989
 4355SOL    HW213965   1.787   5.033   3.022
 4356SOL     OW13966   6.112   2.293   5.638
 4356SOL    HW113967   6.169   2.211   5.638
 4356SOL    HW213968   6.160   2.367   5.685
 4357SOL     OW13969   5.102   5.670   2.766
 4357SOL    HW113970   5.074   5.575   2.775
 4357SOL    HW213971   5.176   5.689   2.831
 4358SOL     OW13972   2.599   0.525   0.870
 4358SOL    HW113973   2.613   0.452   0.803
 4358SOL    HW213974   2.528   0.587   0.837
 4359SOL     OW13975   2.347   2.400   1.467
 4359SOL    HW113976   2.355   2.473   1.399
 4359SOL    HW213977   2.433   2.391   1.517
 4360SOL     OW13978   3.034   5.953   3.735
 4360SOL    HW113979   3.075   5.883   3.677
 4360SOL    HW213980   3.014   6.034   3.680
 4361SOL     OW13981   1.638   1.544   6.817
 4361SOL    HW113982   1.679   1.592   6.739
 4361SOL    HW213983   1.634   1.446   6.797
 4362SOL     OW13984   0.367   5.557   2.660
 4362SOL    HW113985   0.334   5.525   2.571
 4362SOL    HW213986   0.398   5.478   2.714
 4363SOL     OW13987   3.641   0.770   2.232
 4363SOL    HW113988   3.626   0.868   2.251
 4363SOL    HW213989   3.662   0.723   2.318
 4364SOL     OW13990   3.080   4.007   3.236
 4364SOL    HW113991   3.090   3.930   3.298
 4364SOL    HW213992   3.009   4.068   3.269
 4365SOL     OW13993   2.712   1.363   0.456
 4365SOL    HW113994   2.678   1.270   0.443
 4365SOL    HW213995   2.793   1.377   0.398
 4366SOL     OW13996   5.305   5.764   4.675
 4366SOL    HW113997   5.250   5.782   4.756
 4366SOL    HW213998   5.250   5.782   4.593
 4367SOL     OW13999   2.491   6.724   1.936
 4367SOL    HW114000   2.495   6.624   1.939
 4367SOL    HW214001   2.500   6.760   2.029
 4368SOL     OW14002   4.878   4.263   4.130
 4368SOL    HW114003   4.928   4.339   4.173
 4368SOL    HW214004   4.794   4.299   4.088
 4369SOL     OW14005   5.939   4.284   3.533
 4369SOL    HW114006   5.998   4.320   3.461
 4369SOL    HW214007   5.994   4.228   3.595
 4370SOL     OW14008   4.435   4.958   0.782
 4370SOL    HW114009   4.503   5.031   0.797
 4370SOL    HW214010   4.359   4.970   0.845
 4371SOL     OW14011   3.446   1.531   3.014
 4371SOL    HW114012   3.472   1.611   2.960
 4371SOL    HW214013   3.395   1.561   3.095
 4372SOL     OW14014   1.653   4.443   5.063
 4372SOL    HW114015   1.557   4.471   5.064
 4372SOL    HW214016   1.663   4.360   5.008
 4373SOL     OW14017   4.513   0.287   0.481
 4373SOL    HW114018   4.453   0.300   0.560
 4373SOL    HW214019   4.525   0.375   0.434
 4374SOL     OW14020   2.533   6.474   0.255
 4374SOL    HW114021   2.540   6.574   0.248
 4374SOL    HW214022   2.519   6.448   0.350
 4375SOL     OW14023   4.201   1.294   5.796
 4375SOL    HW114024   4.242   1.381   5.823
 4375SOL    HW214025   4.129   1.311   5.728
 4376SOL     OW14026   2.986   5.316   7.011
 4376SOL    HW114027   2.903   5.364   0.022
 4376SOL    HW214028   3.016   5.255   0.065
 4377SOL     OW14029   5.239   5.666   6.483
 4377SOL    HW114030   5.201   5.727   6.553
 4377SOL    HW214031   5.230   5.571   6.512
 4378SOL     OW14032   3.455   5.303   1.727
 4378SOL    HW114033   3.457   5.255   1.814
 4378SOL    HW214034   3.522   5.378   1.728
 4379SOL     OW14035   6.904   6.350   0.565
 4379SOL    HW114036   6.933   6.444   0.550
 4379SOL    HW214037   6.919   6.297   0.481
 4380SOL     OW14038   2.142   5.371   4.572
 4380SOL    HW114039   2.142   5.384   4.473
 4380SOL    HW214040   2.097   5.448   4.616
 4381SOL     OW14041   3.626   5.831   4.602
 4381SOL    HW114042   3.534   5.827   4.563
 4381SOL    HW214043   3.683   5.762   4.558
 4382SOL     OW14044   5.561   4.445   2.557
 4382SOL    HW114045   5.552   4.542   2.538
 4382SOL    HW214046   5.548   4.429   2.655
 4383SOL     OW14047   1.386   0.666   0.768
 4383SOL    HW114048   1.365   0.727   0.692
 4383SOL    HW214049   1.317   0.594   0.772
 4384SOL     OW14050   3.646   0.364   2.089
 4384SOL    HW114051   3.575   0.356   2.020
 4384SOL    HW214052   3.649   0.280   2.144
 4385SOL     OW14053   6.672   2.783   3.737
 4385SOL    HW114054   6.694   2.779   3.640
 4385SOL    HW214055   6.617   2.704   3.762
 4386SOL     OW14056   1.692   4.524   6.856
 4386SOL    HW114057   1.616   4.490   6.800
 4386SOL    HW214058   1.681   4.622   6.871
 4387SOL     OW14059   6.191   1.720   1.516
 4387SOL    HW114060   6.254   1.750   1.444
 4387SOL    HW214061   6.234   1.646   1.568
 4388SOL     OW14062   3.871   1.169   5.793
 4388SOL    HW114063   3.913   1.203   5.877
 4388SOL    HW214064   3.807   1.095   5.814
 4389SOL     OW14065   6.714   2.689   2.856
 4389SOL    HW114066   6.788   2.633   2.820
 4389SOL    HW214067   6.632   2.676   2.800
 4390SOL     OW14068   4.012   3.437   1.016
 4390SOL    HW114069   4.002   3.397   1.108
 4390SOL    HW214070   4.052   3.369   0.955
 4391SOL     OW14071   1.184   6.275   0.244
 4391SOL    HW114072   1.163   6.349   0.181
 4391SOL    HW214073   1.279   6.282   0.275
 4392SOL     OW14074   5.176   5.099   5.040
 4392SOL    HW114075   5.162   5.077   5.137
 4392SOL    HW214076   5.252   5.164   5.032
 4393SOL     OW14077   5.384   6.626   2.871
 4393SOL    HW114078   5.425   6.694   2.810
 4393SOL    HW214079   5.357   6.669   2.957
 4394SOL     OW14080   4.657   0.126   2.022
 4394SOL    HW114081   4.651   0.099   1.926
 4394SOL    HW214082   4.567   0.119   2.065
 4395SOL     OW14083   4.771   2.157   0.918
 4395SOL    HW114084   4.837   2.227   0.893
 4395SOL    HW214085   4.750   2.164   1.015
 4396SOL     OW14086   1.314   1.520   3.062
 4396SOL    HW114087   1.301   1.422   3.053
 4396SOL    HW214088   1.300   1.548   3.157
 4397SOL     OW14089   4.529   0.600   6.750
 4397SOL    HW114090   4.433   0.596   6.721
 4397SOL    HW214091   4.554   0.515   6.795
 4398SOL     OW14092   0.078   5.400   4.934
 4398SOL    HW114093   0.039   5.462   5.002
 4398SOL    HW214094   0.086   5.308   4.975
 4399SOL     OW14095   3.235   0.523   2.402
 4399SOL    HW114096   3.138   0.498   2.394
 4399SOL    HW214097   3.248   0.615   2.366
 4400SOL     OW14098   3.794   5.157   3.010
 4400SOL    HW114099   3.823   5.179   2.916
 4400SOL    HW214100   3.744   5.071   3.009
 4401SOL     OW14101   5.766   6.043   4.600
 4401SOL    HW114102   5.830   6.034   4.677
 4401SOL    HW214103   5.814   6.081   4.521
 4402SOL     OW14104   6.757   6.440   1.441
 4402SOL    HW114105   6.782   6.345   1.462
 4402SOL    HW214106   6.663   6.456   1.469
 4403SOL     OW14107   6.418   1.256   2.147
 4403SOL    HW114108   6.414   1.228   2.242
 4403SOL    HW214109   6.333   1.301   2.121
 4404SOL     OW14110   2.166   4.011   2.640
 4404SOL    HW114111   2.153   4.050   2.549
 4404SOL    HW214112   2.231   3.935   2.636
 4405SOL     OW14113   2.792   3.809   5.926
 4405SOL    HW114114   2.701   3.849   5.924
 4405SOL    HW214115   2.853   3.866   5.981
 4406SOL     OW14116   6.465   3.023   2.157
 4406SOL    HW114117   6.535   2.952   2.153
 4406SOL    HW214118   6.499   3.105   2.111
 4407SOL     OW14119   1.172   0.834   0.276
 4407SOL    HW114120   1.163   0.737   0.254
 4407SOL    HW214121   1.107   0.887   0.222
 4408SOL     OW14122   4.102   6.317   1.138
 4408SOL    HW114123   4.085   6.316   1.237
 4408SOL    HW214124   4.136   6.227   1.110
 4409SOL     OW14125   3.215   2.028   2.661
 4409SOL    HW114126   3.170   2.099   2.715
 4409SOL    HW214127   3.185   2.035   2.566
 4410SOL     OW14128   1.798   5.742   1.462
 4410SOL    HW114129   1.893   5.771   1.447
 4410SOL    HW214130   1.776   5.749   1.559
 4411SOL     OW14131   4.034   3.216   2.229
 4411SOL    HW114132   3.961   3.284   2.223
 4411SOL    HW214133   4.118   3.254   2.191
 4412SOL     OW14134   4.210   1.246   6.074
 4412SOL    HW114135   4.217   1.334   6.122
 4412SOL    HW214136   4.193   1.262   5.977
 4413SOL     OW14137   4.265   5.324   4.098
 4413SOL    HW114138   4.245   5.226   4.098
 4413SOL    HW214139   4.364   5.338   4.091
 4414SOL     OW14140   3.442   4.915   2.121
 4414SOL    HW114141   3.490   4.832   2.092
 4414SOL    HW214142   3.348   4.893   2.144
 4415SOL     OW14143   4.639   1.657   1.401
 4415SOL    HW114144   4.600   1.732   1.455
 4415SOL    HW214145   4.585   1.574   1.416
 4416SOL     OW14146   2.864   1.971   4.456
 4416SOL    HW114147   2.770   1.975   4.421
 4416SOL    HW214148   2.928   1.976   4.380
 4417SOL     OW14149   6.307   6.616   1.155
 4417SOL    HW114150   6.378   6.627   1.086
 4417SOL    HW214151   6.235   6.684   1.140
 4418SOL     OW14152   5.203   1.003   3.319
 4418SOL    HW114153   5.241   1.068   3.385
 4418SOL    HW214154   5.123   1.044   3.275
 4419SOL     OW14155   5.957   5.390   6.164
 4419SOL    HW114156   5.860   5.395   6.188
 4419SOL    HW214157   5.972   5.436   6.076
 4420SOL     OW14158   4.968   0.923   0.860
 4420SOL    HW114159   5.002   0.830   0.870
 4420SOL    HW214160   5.023   0.971   0.791
 4421SOL     OW14161   0.579   1.470   3.432
 4421SOL    HW114162   0.569   1.391   3.371
 4421SOL    HW214163   0.669   1.511   3.419
 4422SOL     OW14164   1.470   4.073   5.971
 4422SOL    HW114165   1.546   4.059   6.034
 4422SOL    HW214166   1.506   4.097   5.881
 4423SOL     OW14167   6.955   1.822   5.940
 4423SOL    HW114168   6.928   1.912   5.907
 4423SOL    HW214169   0.036   1.814   5.936
 4424SOL     OW14170   1.808   5.381   3.922
 4424SOL    HW114171   1.772   5.450   3.858
 4424SOL    HW214172   1.773   5.291   3.897
 4425SOL     OW14173   4.895   3.738   1.483
 4425SOL    HW114174   4.866   3.821   1.529
 4425SOL    HW214175   4.947   3.680   1.546
 4426SOL     OW14176   0.557   0.455   6.918
 4426SOL    HW114177   0.640   0.449   6.861
 4426SOL    HW214178   0.524   0.362   6.937
 4427SOL     OW14179   0.936   5.601   3.888
 4427SOL    HW114180   0.985   5.519   3.857
 4427SOL    HW214181   0.864   5.574   3.952
 4428SOL     OW14182   1.096   6.376   2.951
 4428SOL    HW114183   1.162   6.392   3.024
 4428SOL    HW214184   1.143   6.340   2.871
 4429SOL     OW14185   2.932   0.761   3.352
 4429SOL    HW114186   2.890   0.675   3.380
 4429SOL    HW214187   2.932   0.825   3.429
 4430SOL     OW14188   1.955   1.044   1.879
 4430SOL    HW114189   1.933   1.059   1.975
 4430SOL    HW214190   1.944   1.130   1.829
 4431SOL     OW14191   2.355   2.342   3.382
 4431SOL    HW114192   2.283   2.374   3.321
 4431SOL    HW214193   2.375   2.246   3.363
 4432SOL     OW14194   2.944   3.589   4.433
 4432SOL    HW114195   2.960   3.494   4.406
 4432SOL    HW214196   2.913   3.641   4.354
 4433SOL     OW14197   6.412   0.665   2.755
 4433SOL    HW114198   6.510   0.646   2.764
 4433SOL    HW214199   6.397   0.738   2.689
 4434SOL     OW14200   5.579   2.319   5.204
 4434SOL    HW114201   5.675   2.308   5.178
 4434SOL    HW214202   5.534   2.381   5.140
 4435SOL     OW14203   3.681   3.299   1.913
 4435SOL    HW114204   3.684   3.262   2.006
 4435SOL    HW214205   3.624   3.381   1.912
 4436SOL     OW14206   5.736   0.283   0.261
 4436SOL    HW114207   5.761   0.341   0.339
 4436SOL    HW214208   5.683   0.337   0.195
 4437SOL     OW14209   3.414   6.917   5.626
 4437SOL    HW114210   3.400   6.877   5.535
 4437SOL    HW214211   3.359   7.000   5.634
 4438SOL     OW14212   3.751   2.921   6.807
 4438SOL    HW114213   3.821   2.941   6.738
 4438SOL    HW214214   3.723   2.825   6.798
 4439SOL     OW14215   1.540   4.306   2.868
 4439SOL    HW114216   1.576   4.396   2.844
 4439SOL    HW214217   1.471   4.316   2.940
 4440SOL     OW14218   6.498   1.478   0.460
 4440SOL    HW114219   6.468   1.452   0.552
 4440SOL    HW214220   6.570   1.417   0.430
 4441SOL     OW14221   6.706   0.245   3.602
 4441SOL    HW114222   6.650   0.313   3.649
 4441SOL    HW214223   6.798   0.281   3.588
 4442SOL     OW14224   1.648   5.548   2.372
 4442SOL    HW114225   1.648   5.611   2.295
 4442SOL    HW214226   1.560   5.553   2.420
 4443SOL     OW14227   2.721   1.419   0.720
 4443SOL    HW114228   2.712   1.516   0.745
 4443SOL    HW214229   2.710   1.409   0.621
 4444SOL     OW14230   5.125   1.535   3.138
 4444SOL    HW114231   5.167   1.609   3.086
 4444SOL    HW214232   5.037   1.511   3.097
 4445SOL     OW14233   0.772   0.999   6.343
 4445SOL    HW114234   0.760   1.054   6.261
 4445SOL    HW214235   0.869   0.992   6.366
 4446SOL     OW14236   5.899   4.579   3.919
 4446SOL    HW114237   5.962   4.649   3.953
 4446SOL    HW214238   5.929   4.489   3.949
 4447SOL     OW14239   4.846   3.861   5.156
 4447SOL    HW114240   4.803   3.772   5.171
 4447SOL    HW214241   4.855   3.878   5.058
 4448SOL     OW14242   2.832   3.520   6.513
 4448SOL    HW114243   2.830   3.582   6.434
 4448SOL    HW214244   2.801   3.570   6.594
 4449SOL     OW14245   0.519   1.182   5.674
 4449SOL    HW114246   0.484   1.254   5.615
 4449SOL    HW214247   0.567   1.113   5.618
 4450SOL     OW14248   3.678   3.687   2.836
 4450SOL    HW114249   3.729   3.602   2.850
 4450SOL    HW214250   3.591   3.682   2.885
 4451SOL     OW14251   0.306   4.540   0.870
 4451SOL    HW114252   0.299   4.631   0.828
 4451SOL    HW214253   0.250   4.475   0.818
 4452SOL     OW14254   6.837   3.022   6.099
 4452SOL    HW114255   6.766   3.017   6.029
 4452SOL    HW214256   6.926   3.001   6.059
 4453SOL     OW14257   5.262   0.839   0.564
 4453SOL    HW114258   5.211   0.914   0.606
 4453SOL    HW214259   5.207   0.755   0.567
 4454SOL     OW14260   5.634   2.723   1.600
 4454SOL    HW114261   5.596   2.669   1.525
 4454SOL    HW214262   5.676   2.806   1.562
 4455SOL     OW14263   4.376   2.479   2.846
 4455SOL    HW114264   4.316   2.410   2.806
 4455SOL    HW214265   4.426   2.526   2.772
 4456SOL     OW14266   0.511   5.617   2.306
 4456SOL    HW114267   0.460   5.533   2.324
 4456SOL    HW214268   0.475   5.660   2.223
 4457SOL     OW14269   4.414   2.305   0.129
 4457SOL    HW114270   4.396   2.331   0.224
 4457SOL    HW214271   4.384   2.378   0.068
 4458SOL     OW14272   4.295   1.632   1.133
 4458SOL    HW114273   4.394   1.647   1.138
 4458SOL    HW214274   4.274   1.571   1.056
 4459SOL     OW14275   5.725   6.013   5.609
 4459SOL    HW114276   5.781   6.025   5.691
 4459SOL    HW214277   5.689   6.102   5.580
 4460SOL     OW14278   1.321   1.231   6.997
 4460SOL    HW114279   1.398   1.294   7.010
 4460SOL    HW214280   1.245   1.259   0.036
 4461SOL     OW14281   1.865   6.782   2.837
 4461SOL    HW114282   1.918   6.759   2.919
 4461SOL    HW214283   1.851   6.881   2.833
 4462SOL     OW14284   6.752   3.680   0.484
 4462SOL    HW114285   6.702   3.632   0.412
 4462SOL    HW214286   6.687   3.726   0.545
 4463SOL     OW14287   1.137   4.526   6.880
 4463SOL    HW114288   1.077   4.606   6.885
 4463SOL    HW214289   1.152   4.501   6.784
 4464SOL     OW14290   6.348   2.526   6.962
 4464SOL    HW114291   6.317   2.601   0.002
 4464SOL    HW214292   6.317   2.439   6.999
 4465SOL     OW14293   6.739   5.287   0.705
 4465SOL    HW114294   6.830   5.250   0.687
 4465SOL    HW214295   6.746   5.382   0.735
 4466SOL     OW14296   0.113   2.994   3.340
 4466SOL    HW114297   0.059   2.954   3.266
 4466SOL    HW214298   0.130   3.091   3.321
 4467SOL     OW14299   1.202   0.645   3.792
 4467SOL    HW114300   1.149   0.693   3.862
 4467SOL    HW214301   1.160   0.556   3.773
 4468SOL     OW14302   1.475   2.090   0.435
 4468SOL    HW114303   1.513   2.034   0.362
 4468SOL    HW214304   1.498   2.049   0.524
 4469SOL     OW14305   4.805   0.020   0.901
 4469SOL    HW114306   4.757   0.108   0.898
 4469SOL    HW214307   4.794   6.999   0.992
 4470SOL     OW14308   4.827   4.917   1.610
 4470SOL    HW114309   4.886   4.985   1.654
 4470SOL    HW214310   4.884   4.844   1.572
 4471SOL     OW14311   6.049   3.161   1.729
 4471SOL    HW114312   6.099   3.164   1.815
 4471SOL    HW214313   6.089   3.228   1.665
 4472SOL     OW14314   2.546   5.162   1.559
 4472SOL    HW114315   2.471   5.140   1.622
 4472SOL    HW214316   2.620   5.205   1.609
 4473SOL     OW14317   6.516   0.543   6.872
 4473SOL    HW114318   6.549   0.635   6.851
 4473SOL    HW214319   6.565   0.477   6.815
 4474SOL     OW14320   6.395   0.835   4.336
 4474SOL    HW114321   6.337   0.758   4.362
 4474SOL    HW214322   6.450   0.863   4.414
 4475SOL     OW14323   1.392   3.305   0.588
 4475SOL    HW114324   1.469   3.261   0.633
 4475SOL    HW214325   1.307   3.263   0.619
 4476SOL     OW14326   4.377   6.736   2.971
 4476SOL    HW114327   4.466   6.781   2.960
 4476SOL    HW214328   4.304   6.802   2.953
 4477SOL     OW14329   1.387   2.329   0.825
 4477SOL    HW114330   1.404   2.395   0.752
 4477SOL    HW214331   1.470   2.276   0.843
 4478SOL     OW14332   1.365   5.015   1.046
 4478SOL    HW114333   1.338   4.940   0.985
 4478SOL    HW214334   1.320   5.004   1.135
 4479SOL     OW14335   1.344   0.471   6.146
 4479SOL    HW114336   1.432   0.451   6.189
 4479SOL    HW214337   1.337   0.570   6.130
 4480SOL     OW14338   6.894   4.062   3.447
 4480SOL    HW114339   6.800   4.056   3.414
 4480SOL    HW214340   6.918   3.977   3.494
 4481SOL     OW14341   0.501   0.746   4.148
 4481SOL    HW114342   0.519   0.781   4.240
 4481SOL    HW214343   0.548   0.803   4.081
 4482SOL     OW14344   1.374   3.995   2.746
 4482SOL    HW114345   1.464   4.019   2.782
 4482SOL    HW214346   1.315   4.076   2.748
 4483SOL     OW14347   5.722   3.549   0.452
 4483SOL    HW114348   5.626   3.558   0.426
 4483SOL    HW214349   5.750   3.453   0.443
 4484SOL     OW14350   3.324   3.392   6.569
 4484SOL    HW114351   3.231   3.371   6.598
 4484SOL    HW214352   3.389   3.362   6.639
 4485SOL     OW14353   5.033   0.061   6.286
 4485SOL    HW114354   4.941   0.020   6.284
 4485SOL    HW214355   5.039   0.127   6.361
 4486SOL     OW14356   6.139   3.549   3.925
 4486SOL    HW114357   6.151   3.502   4.013
 4486SOL    HW214358   6.133   3.481   3.852
 4487SOL     OW14359   2.770   3.074   5.672
 4487SOL    HW114360   2.768   3.132   5.591
 4487SOL    HW214361   2.835   3.112   5.739
 4488SOL     OW14362   6.919   1.949   6.312
 4488SOL    HW114363   6.925   1.849   6.319
 4488SOL    HW214364   6.844   1.982   6.369
 4489SOL     OW14365   1.156   1.002   2.396
 4489SOL    HW114366   1.170   1.089   2.349
 4489SOL    HW214367   1.114   0.936   2.333
 4490SOL     OW14368   6.800   2.170   4.176
 4490SOL    HW114369   6.882   2.223   4.196
 4490SOL    HW214370   6.758   2.141   4.262
 4491SOL     OW14371   2.102   4.119   2.397
 4491SOL    HW114372   2.043   4.199   2.389
 4491SOL    HW214373   2.136   4.093   2.307
 4492SOL     OW14374   4.907   4.071   6.266
 4492SOL    HW114375   4.995   4.116   6.253
 4492SOL    HW214376   4.861   4.110   6.346
 4493SOL     OW14377   6.159   4.335   3.332
 4493SOL    HW114378   6.185   4.429   3.309
 4493SOL    HW214379   6.236   4.288   3.374
 4494SOL     OW14380   5.845   2.143   2.493
 4494SOL    HW114381   5.755   2.114   2.525
 4494SOL    HW214382   5.912   2.131   2.566
 4495SOL     OW14383   5.050   6.182   2.197
 4495SOL    HW114384   5.003   6.108   2.244
 4495SOL    HW214385   4.983   6.249   2.165
 4496SOL     OW14386   6.368   3.820   5.588
 4496SOL    HW114387   6.466   3.840   5.585
 4496SOL    HW214388   6.350   3.752   5.659
 4497SOL     OW14389   6.853   5.766   0.522
 4497SOL    HW114390   6.833   5.864   0.511
 4497SOL    HW214391   6.922   5.739   0.455
 4498SOL     OW14392   0.713   4.359   6.701
 4498SOL    HW114393   0.765   4.273   6.704
 4498SOL    HW214394   0.651   4.358   6.623
 4499SOL     OW14395   5.034   3.424   6.828
 4499SOL    HW114396   5.058   3.411   6.924
 4499SOL    HW214397   5.008   3.335   6.788
 4500SOL     OW14398   3.791   3.917   2.731
 4500SOL    HW114399   3.746   3.839   2.774
 4500SOL    HW214400   3.881   3.889   2.697
 4501SOL     OW14401   1.213   4.671   4.785
 4501SOL    HW114402   1.219   4.676   4.884
 4501SOL    HW214403   1.178   4.582   4.758
 4502SOL     OW14404   5.595   2.641   0.120
 4502SOL    HW114405   5.560   2.705   0.189
 4502SOL    HW214406   5.635   2.692   0.044
 4503SOL     OW14407   1.376   3.238   2.751
 4503SOL    HW114408   1.407   3.193   2.667
 4503SOL    HW214409   1.328   3.322   2.728
 4504SOL     OW14410   4.871   2.638   4.395
 4504SOL    HW114411   4.851   2.703   4.322
 4504SOL    HW214412   4.832   2.549   4.372
 4505SOL     OW14413   1.924   5.438   0.590
 4505SOL    HW114414   1.886   5.437   0.683
 4505SOL    HW214415   2.019   5.406   0.593
 4506SOL     OW14416   3.836   0.252   5.886
 4506SOL    HW114417   3.924   0.285   5.851
 4506SOL    HW214418   3.804   0.315   5.957
 4507SOL     OW14419   6.627   3.701   2.576
 4507SOL    HW114420   6.696   3.644   2.533
 4507SOL    HW214421   6.651   3.798   2.564
 4508SOL     OW14422   1.740   3.749   0.245
 4508SOL    HW114423   1.716   3.698   0.328
 4508SOL    HW214424   1.662   3.803   0.215
 4509SOL     OW14425   0.653   2.266   2.895
 4509SOL    HW114426   0.690   2.288   2.985
 4509SOL    HW214427   0.722   2.283   2.825
 4510SOL     OW14428   3.096   6.182   6.135
 4510SOL    HW114429   3.042   6.125   6.196
 4510SOL    HW214430   3.166   6.232   6.187
 4511SOL     OW14431   6.888   1.876   6.957
 4511SOL    HW114432   6.931   1.949   6.903
 4511SOL    HW214433   6.906   1.892   0.035
 4512SOL     OW14434   2.512   4.135   6.888
 4512SOL    HW114435   2.596   4.108   6.935
 4512SOL    HW214436   2.501   4.082   6.805
 4513SOL     OW14437   6.124   1.452   2.624
 4513SOL    HW114438   6.053   1.448   2.554
 4513SOL    HW214439   6.081   1.451   2.715
 4514SOL     OW14440   2.856   0.643   5.589
 4514SOL    HW114441   2.853   0.741   5.569
 4514SOL    HW214442   2.921   0.599   5.527
 4515SOL     OW14443   6.497   4.787   0.090
 4515SOL    HW114444   6.434   4.797   0.012
 4515SOL    HW214445   6.590   4.808   0.060
 4516SOL     OW14446   0.649   0.463   3.553
 4516SOL    HW114447   0.727   0.510   3.594
 4516SOL    HW214448   0.623   0.385   3.611
 4517SOL     OW14449   3.167   0.530   0.121
 4517SOL    HW114450   3.127   0.606   0.172
 4517SOL    HW214451   3.095   0.483   0.070
 4518SOL     OW14452   1.680   6.809   4.011
 4518SOL    HW114453   1.698   6.907   4.021
 4518SOL    HW214454   1.625   6.777   4.089
 4519SOL     OW14455   6.231   2.602   5.185
 4519SOL    HW114456   6.223   2.610   5.284
 4519SOL    HW214457   6.246   2.692   5.144
 4520SOL     OW14458   0.225   3.819   2.909
 4520SOL    HW114459   0.292   3.758   2.867
 4520SOL    HW214460   0.225   3.806   3.008
 4521SOL     OW14461   5.064   1.459   6.436
 4521SOL    HW114462   4.984   1.449   6.495
 4521SOL    HW214463   5.133   1.516   6.481
 4522SOL     OW14464   5.754   6.854   3.352
 4522SOL    HW114465   5.752   6.908   3.267
 4522SOL    HW214466   5.727   6.760   3.332
 4523SOL     OW14467   5.023   2.434   5.828
 4523SOL    HW114468   5.122   2.434   5.813
 4523SOL    HW214469   4.976   2.419   5.740
 4524SOL     OW14470   6.151   0.358   5.138
 4524SOL    HW114471   6.234   0.414   5.150
 4524SOL    HW214472   6.141   0.335   5.041
 4525SOL     OW14473   6.320   1.269   4.306
 4525SOL    HW114474   6.283   1.182   4.273
 4525SOL    HW214475   6.390   1.252   4.376
 4526SOL     OW14476   3.410   1.406   1.657
 4526SOL    HW114477   3.385   1.318   1.615
 4526SOL    HW214478   3.404   1.478   1.588
 4527SOL     OW14479   4.221   6.517   4.274
 4527SOL    HW114480   4.180   6.535   4.363
 4527SOL    HW214481   4.171   6.442   4.229
 4528SOL     OW14482   5.299   0.603   6.093
 4528SOL    HW114483   5.268   0.619   6.000
 4528SOL    HW214484   5.222   0.607   6.156
 4529SOL     OW14485   3.288   0.235   3.976
 4529SOL    HW114486   3.332   0.243   3.886
 4529SOL    HW214487   3.358   0.235   4.047
 4530SOL     OW14488   0.109   2.720   4.432
 4530SOL    HW114489   0.193   2.687   4.388
 4530SOL    HW214490   0.030   2.683   4.383
 4531SOL     OW14491   0.502   3.947   3.857
 4531SOL    HW114492   0.452   3.864   3.831
 4531SOL    HW214493   0.475   3.974   3.949
 4532SOL     OW14494   0.718   2.182   0.363
 4532SOL    HW114495   0.660   2.105   0.387
 4532SOL    HW214496   0.711   2.253   0.433
 4533SOL     OW14497   3.424   5.985   2.149
 4533SOL    HW114498   3.509   5.941   2.180
 4533SOL    HW214499   3.355   5.914   2.132
 4534SOL     OW14500   0.059   4.372   5.789
 4534SOL    HW114501   0.123   4.359   5.713
 4534SOL    HW214502   0.055   4.288   5.844
 4535SOL     OW14503   5.103   2.509   3.285
 4535SOL    HW114504   5.113   2.449   3.205
 4535SOL    HW214505   5.008   2.508   3.316
 4536SOL     OW14506   0.022   0.366   3.803
 4536SOL    HW114507   6.973   0.391   3.872
 4536SOL    HW214508   0.018   0.268   3.786
 4537SOL     OW14509   4.720   3.726   6.529
 4537SOL    HW114510   4.686   3.656   6.465
 4537SOL    HW214511   4.737   3.684   6.618
 4538SOL     OW14512   3.724   2.256   1.466
 4538SOL    HW114513   3.705   2.330   1.531
 4538SOL    HW214514   3.816   2.220   1.481
 4539SOL     OW14515   2.398   2.397   1.872
 4539SOL    HW114516   2.365   2.472   1.814
 4539SOL    HW214517   2.456   2.435   1.944
 4540SOL     OW14518   3.685   3.228   5.060
 4540SOL    HW114519   3.711   3.162   5.131
 4540SOL    HW214520   3.720   3.318   5.084
 4541SOL     OW14521   6.084   0.929   1.609
 4541SOL    HW114522   6.015   0.989   1.647
 4541SOL    HW214523   6.142   0.893   1.682
 4542SOL     OW14524   4.927   6.704   3.298
 4542SOL    HW114525   5.004   6.643   3.313
 4542SOL    HW214526   4.953   6.775   3.232
 4543SOL     OW14527   5.913   2.817   2.370
 4543SOL    HW114528   5.908   2.911   2.402
 4543SOL    HW214529   6.006   2.783   2.381
 4544SOL     OW14530   4.909   5.304   6.105
 4544SOL    HW114531   4.941   5.209   6.114
 4544SOL    HW214532   4.973   5.366   6.149
 4545SOL     OW14533   3.798   4.042   6.173
 4545SOL    HW114534   3.724   4.060   6.238
 4545SOL    HW214535   3.812   4.122   6.115
 4546SOL     OW14536   0.528   6.216   6.851
 4546SOL    HW114537   0.568   6.303   6.824
 4546SOL    HW214538   0.494   6.169   6.770
 4547SOL     OW14539   4.603   1.698   2.427
 4547SOL    HW114540   4.682   1.636   2.434
 4547SOL    HW214541   4.528   1.651   2.381
 4548SOL     OW14542   1.023   3.606   4.093
 4548SOL    HW114543   1.036   3.703   4.112
 4548SOL    HW214544   1.023   3.591   3.994
 4549SOL     OW14545   5.693   1.883   2.369
 4549SOL    HW114546   5.767   1.946   2.346
 4549SOL    HW214547   5.637   1.867   2.288
 4550SOL     OW14548   2.302   5.658   4.750
 4550SOL    HW114549   2.273   5.667   4.655
 4550SOL    HW214550   2.226   5.623   4.805
 4551SOL     OW14551   6.589   3.250   0.670
 4551SOL    HW114552   6.676   3.209   0.697
 4551SOL    HW214553   6.581   3.341   0.710
 4552SOL     OW14554   6.929   3.185   4.544
 4552SOL    HW114555   6.850   3.178   4.483
 4552SOL    HW214556   6.971   3.095   4.555
 4553SOL     OW14557   4.843   4.675   6.619
 4553SOL    HW114558   4.886   4.691   6.708
 4553SOL    HW214559   4.913   4.678   6.548
 4554SOL     OW14560   6.735   7.008   3.705
 4554SOL    HW114561   6.737   6.949   3.625
 4554SOL    HW214562   6.730   0.085   3.676
 4555SOL     OW14563   3.936   3.302   0.077
 4555SOL    HW114564   3.879   3.220   0.066
 4555SOL    HW214565   3.970   3.306   0.171
 4556SOL     OW14566   4.714   0.180   5.119
 4556SOL    HW114567   4.768   0.147   5.041
 4556SOL    HW214568   4.734   0.276   5.136
 4557SOL     OW14569   5.376   0.908   4.799
 4557SOL    HW114570   5.301   0.925   4.734
 4557SOL    HW214571   5.454   0.965   4.774
 4558SOL     OW14572   6.449   2.772   5.762
 4558SOL    HW114573   6.422   2.853   5.814
 4558SOL    HW214574   6.393   2.764   5.680
 4559SOL     OW14575   0.879   6.271   1.567
 4559SOL    HW114576   0.891   6.198   1.634
 4559SOL    HW214577   0.810   6.244   1.500
 4560SOL     OW14578   5.547   2.638   2.758
 4560SOL    HW114579   5.569   2.734   2.740
 4560SOL    HW214580   5.625   2.580   2.732
 4561SOL     OW14581   3.747   0.009   6.504
 4561SOL    HW114582   3.661   0.039   6.462
 4561SOL    HW214583   3.770   0.070   6.580
 4562SOL     OW14584   2.498   4.513   5.801
 4562SOL    HW114585   2.410   4.558   5.817
 4562SOL    HW214586   2.498   4.471   5.710
 4563SOL     OW14587   5.981   2.300   6.755
 4563SOL    HW114588   6.064   2.355   6.771
 4563SOL    HW214589   6.007   2.206   6.735
 4564SOL     OW14590   1.021   5.165   0.296
 4564SOL    HW114591   0.934   5.155   0.248
 4564SOL    HW214592   1.007   5.154   0.394
 4565SOL     OW14593   2.582   1.271   3.827
 4565SOL    HW114594   2.587   1.208   3.905
 4565SOL    HW214595   2.523   1.349   3.850
 4566SOL     OW14596   1.565   0.973   0.858
 4566SOL    HW114597   1.536   0.879   0.876
 4566SOL    HW214598   1.583   0.984   0.760
 4567SOL     OW14599   5.515   1.529   1.009
 4567SOL    HW114600   5.599   1.558   1.055
 4567SOL    HW214601   5.507   1.429   1.014
 4568SOL     OW14602   4.352   4.584   3.958
 4568SOL    HW114603   4.267   4.635   3.949
 4568SOL    HW214604   4.411   4.602   3.880
 4569SOL     OW14605   0.700   1.750   2.974
 4569SOL    HW114606   0.692   1.653   2.997
 4569SOL    HW214607   0.657   1.806   3.045
 4570SOL     OW14608   5.659   5.748   4.499
 4570SOL    HW114609   5.714   5.749   4.582
 4570SOL    HW214610   5.624   5.840   4.480
 4571SOL     OW14611   3.777   3.021   4.000
 4571SOL    HW114612   3.686   2.986   4.023
 4571SOL    HW214613   3.833   3.025   4.083
 4572SOL     OW14614   2.004   5.366   1.532
 4572SOL    HW114615   2.012   5.404   1.440
 4572SOL    HW214616   1.930   5.299   1.534
 4573SOL     OW14617   5.402   0.493   1.055
 4573SOL    HW114618   5.419   0.570   0.994
 4573SOL    HW214619   5.410   0.524   1.150
 4574SOL     OW14620   6.893   4.429   1.388
 4574SOL    HW114621   6.854   4.337   1.392
 4574SOL    HW214622   6.821   4.496   1.410
 4575SOL     OW14623   6.464   6.345   2.228
 4575SOL    HW114624   6.469   6.360   2.327
 4575SOL    HW214625   6.384   6.393   2.191
 4576SOL     OW14626   3.243   6.250   4.002
 4576SOL    HW114627   3.202   6.227   4.090
 4576SOL    HW214628   3.181   6.310   3.951
 4577SOL     OW14629   1.755   2.912   3.964
 4577SOL    HW114630   1.743   2.859   3.880
 4577SOL    HW214631   1.667   2.922   4.010
 4578SOL     OW14632   6.980   5.816   4.040
 4578SOL    HW114633   6.965   5.844   3.945
 4578SOL    HW214634   0.004   5.726   4.041
 4579SOL     OW14635   5.295   2.423   4.139
 4579SOL    HW114636   5.267   2.426   4.235
 4579SOL    HW214637   5.384   2.466   4.129
 4580SOL     OW14638   0.514   5.263   0.030
 4580SOL    HW114639   0.435   5.223   0.078
 4580SOL    HW214640   0.505   5.362   0.028
 4581SOL     OW14641   3.343   6.160   4.909
 4581SOL    HW114642   3.364   6.098   4.984
 4581SOL    HW214643   3.250   6.144   4.877
 4582SOL     OW14644   4.966   6.972   3.177
 4582SOL    HW114645   5.036   0.001   3.230
 4582SOL    HW214646   4.939   0.008   3.098
 4583SOL     OW14647   3.701   0.792   5.295
 4583SOL    HW114648   3.781   0.829   5.247
 4583SOL    HW214649   3.711   0.693   5.305
 4584SOL     OW14650   0.666   4.736   5.821
 4584SOL    HW114651   0.676   4.789   5.737
 4584SOL    HW214652   0.751   4.688   5.840
 4585SOL     OW14653   3.361   6.183   2.339
 4585SOL    HW114654   3.324   6.259   2.286
 4585SOL    HW214655   3.359   6.099   2.284
 4586SOL     OW14656   2.772   6.238   1.692
 4586SOL    HW114657   2.815   6.203   1.609
 4586SOL    HW214658   2.724   6.323   1.672
 4587SOL     OW14659   3.385   4.832   0.832
 4587SOL    HW114660   3.483   4.823   0.811
 4587SOL    HW214661   3.343   4.894   0.765
 4588SOL     OW14662   3.509   3.892   5.167
 4588SOL    HW114663   3.427   3.948   5.176
 4588SOL    HW214664   3.584   3.948   5.132
 4589SOL     OW14665   1.278   2.042   3.113
 4589SOL    HW114666   1.297   2.053   3.210
 4589SOL    HW214667   1.314   1.954   3.082
 4590SOL     OW14668   4.168   6.389   3.191
 4590SOL    HW114669   4.237   6.423   3.255
 4590SOL    HW214670   4.083   6.439   3.205
 4591SOL     OW14671   5.869   6.458   5.070
 4591SOL    HW114672   5.853   6.385   5.003
 4591SOL    HW214673   5.869   6.419   5.162
 4592SOL     OW14674   3.295   1.621   5.609
 4592SOL    HW114675   3.367   1.690   5.603
 4592SOL    HW214676   3.295   1.566   5.526
 4593SOL     OW14677   5.094   6.722   1.744
 4593SOL    HW114678   5.021   6.661   1.773
 4593SOL    HW214679   5.174   6.668   1.718
 4594SOL     OW14680   3.929   1.791   2.282
 4594SOL    HW114681   3.877   1.810   2.365
 4594SOL    HW214682   3.907   1.699   2.248
 4595SOL     OW14683   4.494   3.244   5.892
 4595SOL    HW114684   4.541   3.332   5.884
 4595SOL    HW214685   4.403   3.251   5.850
 4596SOL     OW14686   5.238   0.287   2.404
 4596SOL    HW114687   5.194   0.297   2.494
 4596SOL    HW214688   5.173   0.247   2.340
 4597SOL     OW14689   6.576   4.191   5.596
 4597SOL    HW114690   6.512   4.217   5.669
 4597SOL    HW214691   6.656   4.250   5.601
 4598SOL     OW14692   2.793   3.856   0.338
 4598SOL    HW114693   2.801   3.910   0.421
 4598SOL    HW214694   2.875   3.866   0.282
 4599SOL     OW14695   3.077   5.489   0.218
 4599SOL    HW114696   3.136   5.420   0.174
 4599SOL    HW214697   3.014   5.526   0.150
 4600SOL     OW14698   3.313   4.080   1.233
 4600SOL    HW114699   3.395   4.031   1.204
 4600SOL    HW214700   3.292   4.151   1.167
 4601SOL     OW14701   1.963   5.325   4.153
 4601SOL    HW114702   1.920   5.362   4.071
 4601SOL    HW214703   1.896   5.272   4.205
 4602SOL     OW14704   1.753   0.688   1.390
 4602SOL    HW114705   1.660   0.696   1.426
 4602SOL    HW214706   1.816   0.665   1.464
 4603SOL     OW14707   2.974   1.468   1.875
 4603SOL    HW114708   2.915   1.517   1.811
 4603SOL    HW214709   2.919   1.429   1.949
 4604SOL     OW14710   1.200   0.822   2.956
 4604SOL    HW114711   1.225   0.726   2.951
 4604SOL    HW214712   1.278   0.879   2.930
 4605SOL     OW14713   5.165   5.832   5.663
 4605SOL    HW114714   5.094   5.762   5.661
 4605SOL    HW214715   5.125   5.919   5.692
 4606SOL     OW14716   6.456   6.081   4.612
 4606SOL    HW114717   6.547   6.040   4.611
 4606SOL    HW214718   6.445   6.140   4.531
 4607SOL     OW14719   2.466   2.903   0.977
 4607SOL    HW114720   2.518   2.938   0.898
 4607SOL    HW214721   2.524   2.905   1.058
 4608SOL     OW14722   1.368   3.151   5.489
 4608SOL    HW114723   1.449   3.104   5.453
 4608SOL    HW214724   1.289   3.126   5.433
 4609SOL     OW14725   2.932   0.327   0.786
 4609SOL    HW114726   2.898   0.379   0.708
 4609SOL    HW214727   2.987   0.250   0.753
 4610SOL     OW14728   6.374   3.302   6.431
 4610SOL    HW114729   6.433   3.305   6.351
 4610SOL    HW214730   6.426   3.328   6.513
 4611SOL     OW14731   1.590   4.247   6.697
 4611SOL    HW114732   1.530   4.323   6.721
 4611SOL    HW214733   1.570   4.169   6.756
 4612SOL     OW14734   2.192   0.363   6.347
 4612SOL    HW114735   2.184   0.459   6.374
 4612SOL    HW214736   2.262   0.354   6.276
 4613SOL     OW14737   3.503   4.799   1.604
 4613SOL    HW114738   3.546   4.772   1.691
 4613SOL    HW214739   3.492   4.898   1.602
 4614SOL     OW14740   2.451   5.183   6.853
 4614SOL    HW114741   2.458   5.170   6.952
 4614SOL    HW214742   2.448   5.093   6.809
 4615SOL     OW14743   6.196   3.357   6.168
 4615SOL    HW114744   6.258   3.329   6.242
 4615SOL    HW214745   6.129   3.284   6.152
 4616SOL     OW14746   5.617   0.557   0.083
 4616SOL    HW114747   5.698   0.523   0.035
 4616SOL    HW214748   5.548   0.586   0.016
 4617SOL     OW14749   6.708   3.855   1.443
 4617SOL    HW114750   6.683   3.776   1.498
 4617SOL    HW214751   6.756   3.824   1.360
 4618SOL     OW14752   0.538   2.922   6.640
 4618SOL    HW114753   0.588   2.998   6.599
 4618SOL    HW214754   0.546   2.927   6.739
 4619SOL     OW14755   3.886   0.168   3.632
 4619SOL    HW114756   3.792   0.137   3.647
 4619SOL    HW214757   3.948   0.115   3.691
 4620SOL     OW14758   2.395   5.972   6.765
 4620SOL    HW114759   2.344   5.917   6.832
 4620SOL    HW214760   2.411   6.063   6.803
 4621SOL     OW14761   7.016   0.517   5.961
 4621SOL    HW114762   7.003   0.604   6.009
 4621SOL    HW214763   0.092   0.512   5.927
 4622SOL     OW14764   1.897   3.634   0.727
 4622SOL    HW114765   1.990   3.639   0.689
 4622SOL    HW214766   1.855   3.547   0.701
 4623SOL     OW14767   5.757   3.814   2.310
 4623SOL    HW114768   5.671   3.841   2.352
 4623SOL    HW214769   5.754   3.717   2.286
 4624SOL     OW14770   4.814   0.138   6.072
 4624SOL    HW114771   4.787   0.125   5.977
 4624SOL    HW214772   4.905   0.178   6.077
 4625SOL     OW14773   1.064   4.093   5.945
 4625SOL    HW114774   1.060   4.048   5.856
 4625SOL    HW214775   1.051   4.025   6.018
 4626SOL     OW14776   5.419   5.125   1.838
 4626SOL    HW114777   5.329   5.158   1.811
 4626SOL    HW214778   5.466   5.086   1.759
 4627SOL     OW14779   1.602   6.807   5.499
 4627SOL    HW114780   1.614   6.885   5.437
 4627SOL    HW214781   1.621   6.836   5.593
 4628SOL     OW14782   6.341   2.587   1.581
 4628SOL    HW114783   6.390   2.670   1.556
 4628SOL    HW214784   6.302   2.545   1.499
 4629SOL     OW14785   4.420   5.052   4.302
 4629SOL    HW114786   4.430   5.129   4.239
 4629SOL    HW214787   4.496   4.988   4.288
 4630SOL     OW14788   1.708   6.381   2.703
 4630SOL    HW114789   1.748   6.410   2.617
 4630SOL    HW214790   1.725   6.284   2.717
 4631SOL     OW14791   1.618   0.462   2.979
 4631SOL    HW114792   1.573   0.500   3.060
 4631SOL    HW214793   1.703   0.513   2.962
 4632SOL     OW14794   5.902   5.720   3.921
 4632SOL    HW114795   5.847   5.637   3.931
 4632SOL    HW214796   5.969   5.723   3.995
 4633SOL     OW14797   5.627   2.337   5.875
 4633SOL    HW114798   5.631   2.412   5.810
 4633SOL    HW214799   5.561   2.269   5.843
 4634SOL     OW14800   2.759   4.510   0.335
 4634SOL    HW114801   2.680   4.480   0.281
 4634SOL    HW214802   2.819   4.431   0.351
 4635SOL     OW14803   5.008   3.055   1.546
 4635SOL    HW114804   4.950   3.048   1.628
 4635SOL    HW214805   5.082   2.989   1.552
 4636SOL     OW14806   0.750   5.924   1.611
 4636SOL    HW114807   0.722   5.977   1.531
 4636SOL    HW214808   0.783   5.985   1.682
 4637SOL     OW14809   1.377   0.694   4.496
 4637SOL    HW114810   1.327   0.655   4.573
 4637SOL    HW214811   1.318   0.694   4.415
 4638SOL     OW14812   4.329   4.585   5.501
 4638SOL    HW114813   4.238   4.543   5.491
 4638SOL    HW214814   4.329   4.645   5.581
 4639SOL     OW14815   6.871   1.873   5.313
 4639SOL    HW114816   6.952   1.925   5.286
 4639SOL    HW214817   6.795   1.897   5.253
 4640SOL     OW14818   5.837   5.109   2.979
 4640SOL    HW114819   5.796   5.108   2.888
 4640SOL    HW214820   5.859   5.016   3.007
 4641SOL     OW14821   2.787   3.268   5.446
 4641SOL    HW114822   2.705   3.323   5.429
 4641SOL    HW214823   2.783   3.184   5.392
 4642SOL     OW14824   6.170   5.955   3.654
 4642SOL    HW114825   6.074   5.933   3.670
 4642SOL    HW214826   6.177   6.027   3.585
 4643SOL     OW14827   4.394   3.142   1.448
 4643SOL    HW114828   4.494   3.145   1.444
 4643SOL    HW214829   4.364   3.047   1.435
 4644SOL     OW14830   3.551   4.472   5.316
 4644SOL    HW114831   3.471   4.423   5.280
 4644SOL    HW214832   3.522   4.560   5.353
 4645SOL     OW14833   1.856   6.215   4.985
 4645SOL    HW114834   1.855   6.310   5.017
 4645SOL    HW214835   1.826   6.213   4.890
 4646SOL     OW14836   3.169   0.163   1.107
 4646SOL    HW114837   3.093   0.219   1.141
 4646SOL    HW214838   3.148   0.067   1.121
 4647SOL     OW14839   6.753   0.783   5.204
 4647SOL    HW114840   6.669   0.819   5.245
 4647SOL    HW214841   6.782   0.701   5.254
 4648SOL     OW14842   2.131   5.736   3.616
 4648SOL    HW114843   2.068   5.681   3.561
 4648SOL    HW214844   2.079   5.785   3.687
 4649SOL     OW14845   5.711   6.763   5.924
 4649SOL    HW114846   5.758   6.676   5.938
 4649SOL    HW214847   5.725   6.794   5.830
 4650SOL     OW14848   6.549   4.346   1.141
 4650SOL    HW114849   6.531   4.263   1.195
 4650SOL    HW214850   6.619   4.326   1.073
 4651SOL     OW14851   6.070   2.228   1.858
 4651SOL    HW114852   6.037   2.160   1.923
 4651SOL    HW214853   6.090   2.314   1.907
 4652SOL     OW14854   0.309   6.454   5.539
 4652SOL    HW114855   0.408   6.458   5.525
 4652SOL    HW214856   0.279   6.534   5.591
 4653SOL     OW14857   0.383   4.861   6.577
 4653SOL    HW114858   0.419   4.874   6.485
 4653SOL    HW214859   0.435   4.917   6.641
 4654SOL     OW14860   1.233   1.819   6.562
 4654SOL    HW114861   1.271   1.897   6.613
 4654SOL    HW214862   1.236   1.840   6.464
 4655SOL     OW14863   6.999   5.497   3.437
 4655SOL    HW114864   6.957   5.468   3.523
 4655SOL    HW214865   0.059   5.439   3.416
 4656SOL     OW14866   2.250   6.668   3.242
 4656SOL    HW114867   2.225   6.700   3.334
 4656SOL    HW214868   2.291   6.577   3.249
 4657SOL     OW14869   5.952   0.766   6.142
 4657SOL    HW114870   5.894   0.835   6.099
 4657SOL    HW214871   5.900   0.720   6.214
 4658SOL     OW14872   4.788   0.982   4.018
 4658SOL    HW114873   4.813   0.885   4.015
 4658SOL    HW214874   4.708   0.994   4.077
 4659SOL     OW14875   1.610   2.676   4.311
 4659SOL    HW114876   1.664   2.593   4.298
 4659SOL    HW214877   1.663   2.756   4.284
 4660SOL     OW14878   6.296   1.551   5.053
 4660SOL    HW114879   6.245   1.545   4.968
 4660SOL    HW214880   6.345   1.638   5.057
 4661SOL     OW14881   3.909   3.007   2.768
 4661SOL    HW114882   3.952   2.950   2.838
 4661SOL    HW214883   3.933   2.971   2.677
 4662SOL     OW14884   6.059   0.166   3.772
 4662SOL    HW114885   6.054   0.066   3.775
 4662SOL    HW214886   5.995   0.204   3.838
 4663SOL     OW14887   0.610   2.723   1.993
 4663SOL    HW114888   0.607   2.689   1.899
 4663SOL    HW214889   0.623   2.646   2.055
 4664SOL     OW14890   3.223   4.067   0.523
 4664SOL    HW114891   3.248   3.970   0.523
 4664SOL    HW214892   3.258   4.109   0.439
 4665SOL     OW14893   5.570   0.681   6.321
 4665SOL    HW114894   5.555   0.667   6.223
 4665SOL    HW214895   5.662   0.650   6.346
 4666SOL     OW14896   1.859   1.945   0.610
 4666SOL    HW114897   1.867   2.034   0.654
 4666SOL    HW214898   1.868   1.956   0.511
 4667SOL     OW14899   0.589   5.326   4.402
 4667SOL    HW114900   0.608   5.418   4.435
 4667SOL    HW214901   0.568   5.329   4.304
 4668SOL     OW14902   5.233   0.661   5.609
 4668SOL    HW114903   5.322   0.692   5.575
 4668SOL    HW214904   5.166   0.667   5.536
 4669SOL     OW14905   2.092   1.721   2.186
 4669SOL    HW114906   2.047   1.798   2.232
 4669SOL    HW214907   2.068   1.722   2.089
 4670SOL     OW14908   2.812   1.461   4.139
 4670SOL    HW114909   2.770   1.398   4.205
 4670SOL    HW214910   2.761   1.546   4.138
 4671SOL     OW14911   6.149   2.131   2.310
 4671SOL    HW114912   6.107   2.114   2.399
 4671SOL    HW214913   6.196   2.219   2.311
 4672SOL     OW14914   2.490   2.795   5.359
 4672SOL    HW114915   2.494   2.875   5.299
 4672SOL    HW214916   2.557   2.804   5.432
 4673SOL     OW14917   4.646   0.668   2.273
 4673SOL    HW114918   4.560   0.622   2.248
 4673SOL    HW214919   4.651   0.757   2.227
 4674SOL     OW14920   4.783   6.612   5.022
 4674SOL    HW114921   4.772   6.515   4.999
 4674SOL    HW214922   4.848   6.621   5.098
 4675SOL     OW14923   1.161   4.686   0.118
 4675SOL    HW114924   1.115   4.769   0.149
 4675SOL    HW214925   1.204   4.704   0.029
 4676SOL     OW14926   0.814   4.789   3.881
 4676SOL    HW114927   0.911   4.773   3.864
 4676SOL    HW214928   0.801   4.817   3.976
 4677SOL     OW14929   1.470   3.393   0.331
 4677SOL    HW114930   1.432   3.348   0.412
 4677SOL    HW214931   1.506   3.323   0.269
 4678SOL     OW14932   0.656   4.127   1.632
 4678SOL    HW114933   0.706   4.075   1.563
 4678SOL    HW214934   0.579   4.073   1.666
 4679SOL     OW14935   4.031   0.053   2.235
 4679SOL    HW114936   4.105   0.038   2.301
 4679SOL    HW214937   4.002   6.985   2.197
 4680SOL     OW14938   1.924   0.443   6.612
 4680SOL    HW114939   1.872   0.499   6.547
 4680SOL    HW214940   1.892   0.349   6.607
 4681SOL     OW14941   5.249   5.701   2.337
 4681SOL    HW114942   5.329   5.760   2.327
 4681SOL    HW214943   5.277   5.614   2.378
 4682SOL     OW14944   3.560   3.742   6.152
 4682SOL    HW114945   3.572   3.666   6.089
 4682SOL    HW214946   3.647   3.791   6.163
 4683SOL     OW14947   6.604   4.994   3.527
 4683SOL    HW114948   6.697   5.028   3.515
 4683SOL    HW214949   6.547   5.065   3.569
 4684SOL     OW14950   5.398   6.906   5.882
 4684SOL    HW114951   5.456   6.986   5.899
 4684SOL    HW214952   5.445   6.844   5.818
 4685SOL     OW14953   2.979   3.540   4.694
 4685SOL    HW114954   2.947   3.610   4.758
 4685SOL    HW214955   2.960   3.569   4.600
 4686SOL     OW14956   1.701   0.049   6.994
 4686SOL    HW114957   1.725   0.036   0.071
 4686SOL    HW214958   1.620   0.107   6.987
 4687SOL     OW14959   1.628   0.921   2.675
 4687SOL    HW114960   1.663   0.936   2.582
 4687SOL    HW214961   1.559   0.848   2.673
 4688SOL     OW14962   5.087   2.652   5.517
 4688SOL    HW114963   4.996   2.631   5.554
 4688SOL    HW214964   5.093   2.749   5.498
 4689SOL     OW14965   6.759   1.335   0.702
 4689SOL    HW114966   6.659   1.330   0.704
 4689SOL    HW214967   6.791   1.384   0.783
 4690SOL     OW14968   2.828   2.848   0.943
 4690SOL    HW114969   2.759   2.832   0.873
 4690SOL    HW214970   2.867   2.761   0.972
 4691SOL     OW14971   6.452   3.455   1.657
 4691SOL    HW114972   6.386   3.529   1.658
 4691SOL    HW214973   6.404   3.367   1.664
 4692SOL     OW14974   4.986   2.804   2.399
 4692SOL    HW114975   4.932   2.862   2.338
 4692SOL    HW214976   5.062   2.764   2.348
 4693SOL     OW14977   0.688   0.161   2.427
 4693SOL    HW114978   0.674   0.246   2.377
 4693SOL    HW214979   0.769   0.115   2.393
 4694SOL     OW14980   2.138   0.077   6.209
 4694SOL    HW114981   2.204   0.121   6.270
 4694SOL    HW214982   2.084   0.146   6.162
 4695SOL     OW14983   2.150   4.566   2.003
 4695SOL    HW114984   2.055   4.584   1.977
 4695SOL    HW214985   2.156   4.559   2.103
 4696SOL     OW14986   1.626   6.272   6.334
 4696SOL    HW114987   1.589   6.196   6.281
 4696SOL    HW214988   1.719   6.292   6.303
 4697SOL     OW14989   4.441   5.537   1.819
 4697SOL    HW114990   4.515   5.521   1.884
 4697SOL    HW214991   4.438   5.463   1.752
 4698SOL     OW14992   5.742   0.780   4.956
 4698SOL    HW114993   5.713   0.776   4.861
 4698SOL    HW214994   5.696   0.855   5.003
 4699SOL     OW14995   0.820   0.923   2.406
 4699SOL    HW114996   0.838   0.915   2.308
 4699SOL    HW214997   0.831   1.018   2.434
 4700SOL     OW14998   6.283   1.697   2.796
 4700SOL    HW114999   6.364   1.676   2.850
 4700SOL    HW215000   6.302   1.678   2.700
 4701SOL     OW15001   3.134   2.592   1.662
 4701SOL    HW115002   3.086   2.545   1.736
 4701SOL    HW215003   3.192   2.664   1.699
 4702SOL     OW15004   5.946   5.151   0.400
 4702SOL    HW115005   6.035   5.192   0.382
 4702SOL    HW215006   5.952   5.093   0.481
 4703SOL     OW15007   0.468   5.303   4.152
 4703SOL    HW115008   0.440   5.317   4.057
 4703SOL    HW215009   0.528   5.223   4.157
 4704SOL     OW15010   1.768   4.696   4.512
 4704SOL    HW115011   1.819   4.757   4.451
 4704SOL    HW215012   1.796   4.713   4.607
 4705SOL     OW15013   3.360   2.094   1.961
 4705SOL    HW115014   3.450   2.110   2.001
 4705SOL    HW215015   3.343   2.162   1.889
 4706SOL     OW15016   2.456   0.966   0.877
 4706SOL    HW115017   2.541   0.947   0.927
 4706SOL    HW215018   2.378   0.936   0.931
 4707SOL     OW15019   1.460   5.306   1.960
 4707SOL    HW115020   1.547   5.269   1.992
 4707SOL    HW215021   1.475   5.365   1.880
 4708SOL     OW15022   2.085   3.144   5.888
 4708SOL    HW115023   2.152   3.200   5.841
 4708SOL    HW215024   2.131   3.073   5.941
 4709SOL     OW15025   5.881   4.019   5.645
 4709SOL    HW115026   5.796   4.013   5.593
 4709SOL    HW215027   5.884   4.106   5.695
 4710SOL     OW15028   6.284   5.833   5.081
 4710SOL    HW115029   6.313   5.929   5.073
 4710SOL    HW215030   6.331   5.791   5.159
 4711SOL     OW15031   5.181   4.216   2.362
 4711SOL    HW115032   5.135   4.245   2.278
 4711SOL    HW215033   5.280   4.225   2.351
 4712SOL     OW15034   3.832   4.179   5.940
 4712SOL    HW115035   3.833   4.276   5.915
 4712SOL    HW215036   3.757   4.133   5.891
 4713SOL     OW15037   5.571   4.379   0.568
 4713SOL    HW115038   5.632   4.448   0.530
 4713SOL    HW215039   5.514   4.420   0.639
 4714SOL     OW15040   4.334   2.376   6.518
 4714SOL    HW115041   4.317   2.277   6.520
 4714SOL    HW215042   4.247   2.425   6.515
 4715SOL     OW15043   6.501   1.548   2.101
 4715SOL    HW115044   6.468   1.638   2.129
 4715SOL    HW215045   6.476   1.480   2.170
 4716SOL     OW15046   3.447   4.414   5.664
 4716SOL    HW115047   3.491   4.361   5.591
 4716SOL    HW215048   3.453   4.511   5.643
 4717SOL     OW15049   2.113   4.978   5.622
 4717SOL    HW115050   2.080   4.884   5.622
 4717SOL    HW215051   2.206   4.981   5.584
 4718SOL     OW15052   4.891   4.100   1.857
 4718SOL    HW115053   4.848   4.190   1.844
 4718SOL    HW215054   4.841   4.049   1.927
 4719SOL     OW15055   6.361   4.637   3.815
 4719SOL    HW115056   6.376   4.577   3.736
 4719SOL    HW215057   6.324   4.584   3.891
 4720SOL     OW15058   2.007   2.639   6.592
 4720SOL    HW115059   2.017   2.735   6.565
 4720SOL    HW215060   1.997   2.582   6.510
 4721SOL     OW15061   0.695   2.896   3.062
 4721SOL    HW115062   0.781   2.875   3.016
 4721SOL    HW215063   0.672   2.993   3.047
 4722SOL     OW15064   1.109   5.262   6.747
 4722SOL    HW115065   1.103   5.163   6.754
 4722SOL    HW215066   1.059   5.292   6.665
 4723SOL     OW15067   3.098   4.871   6.790
 4723SOL    HW115068   3.020   4.922   6.828
 4723SOL    HW215069   3.124   4.799   6.854
 4724SOL     OW15070   0.633   6.938   4.123
 4724SOL    HW115071   0.564   6.985   4.178
 4724SOL    HW215072   0.590   6.863   4.072
 4725SOL     OW15073   6.129   4.934   1.309
 4725SOL    HW115074   6.101   4.999   1.239
 4725SOL    HW215075   6.224   4.907   1.294
 4726SOL     OW15076   2.108   2.940   5.520
 4726SOL    HW115077   2.015   2.956   5.551
 4726SOL    HW215078   2.138   3.018   5.465
 4727SOL     OW15079   6.407   4.908   1.240
 4727SOL    HW115080   6.442   4.920   1.147
 4727SOL    HW215081   6.415   4.812   1.267
 4728SOL     OW15082   5.275   1.470   3.599
 4728SOL    HW115083   5.349   1.537   3.594
 4728SOL    HW215084   5.210   1.487   3.525
 4729SOL     OW15085   5.705   1.158   2.234
 4729SOL    HW115086   5.694   1.088   2.163
 4729SOL    HW215087   5.770   1.124   2.303
 4730SOL     OW15088   4.004   0.653   3.211
 4730SOL    HW115089   4.049   0.612   3.290
 4730SOL    HW215090   3.907   0.628   3.211
 4731SOL     OW15091   3.164   0.041   1.445
 4731SOL    HW115092   3.234   6.993   1.417
 4731SOL    HW215093   3.080   7.011   1.469
 4732SOL     OW15094   6.954   5.098   5.026
 4732SOL    HW115095   6.877   5.095   5.089
 4732SOL    HW215096   6.920   5.100   4.932
 4733SOL     OW15097   1.310   4.000   2.299
 4733SOL    HW115098   1.378   4.045   2.241
 4733SOL    HW215099   1.297   3.906   2.268
 4734SOL     OW15100   4.693   4.110   6.837
 4734SOL    HW115101   4.707   4.154   6.748
 4734SOL    HW215102   4.676   4.012   6.824
 4735SOL     OW15103   0.272   0.704   4.740
 4735SOL    HW115104   0.275   0.684   4.642
 4735SOL    HW215105   0.180   0.686   4.775
 4736SOL     OW15106   6.332   1.058   3.979
 4736SOL    HW115107   6.308   1.133   3.918
 4736SOL    HW215108   6.430   1.064   4.001
 4737SOL     OW15109   2.112   5.162   0.465
 4737SOL    HW115110   2.028   5.213   0.481
 4737SOL    HW215111   2.100   5.067   0.494
 4738SOL     OW15112   0.478   5.638   4.276
 4738SOL    HW115113   0.482   5.737   4.281
 4738SOL    HW215114   0.522   5.598   4.357
 4739SOL     OW15115   5.957   3.520   3.051
 4739SOL    HW115116   5.918   3.433   3.022
 4739SOL    HW215117   5.992   3.512   3.144
 4740SOL     OW15118   1.518   6.712   0.583
 4740SOL    HW115119   1.519   6.752   0.675
 4740SOL    HW215120   1.463   6.628   0.585
 4741SOL     OW15121   5.690   4.516   0.868
 4741SOL    HW115122   5.645   4.498   0.955
 4741SOL    HW215123   5.637   4.584   0.817
 4742SOL     OW15124   2.338   5.542   2.407
 4742SOL    HW115125   2.320   5.633   2.372
 4742SOL    HW215126   2.298   5.532   2.498
 4743SOL     OW15127   2.376   3.708   0.768
 4743SOL    HW115128   2.424   3.701   0.681
 4743SOL    HW215129   2.427   3.768   0.830
 4744SOL     OW15130   2.624   2.066   5.141
 4744SOL    HW115131   2.623   2.057   5.241
 4744SOL    HW215132   2.599   1.978   5.100
 4745SOL     OW15133   4.089   5.661   4.763
 4745SOL    HW115134   4.147   5.674   4.683
 4745SOL    HW215135   4.092   5.742   4.821
 4746SOL     OW15136   5.449   1.253   1.680
 4746SOL    HW115137   5.479   1.348   1.673
 4746SOL    HW215138   5.501   1.197   1.615
 4747SOL     OW15139   0.824   3.063   2.441
 4747SOL    HW115140   0.870   3.136   2.391
 4747SOL    HW215141   0.822   2.980   2.385
 4748SOL     OW15142   2.176   0.005   0.877
 4748SOL    HW115143   2.164   0.092   0.830
 4748SOL    HW215144   2.151   6.949   0.816
 4749SOL     OW15145   3.608   0.645   0.540
 4749SOL    HW115146   3.537   0.716   0.532
 4749SOL    HW215147   3.565   0.559   0.566
 4750SOL     OW15148   0.797   1.766   4.647
 4750SOL    HW115149   0.699   1.745   4.648
 4750SOL    HW215150   0.826   1.786   4.554
 4751SOL     OW15151   1.031   3.670   6.095
 4751SOL    HW115152   1.131   3.670   6.103
 4751SOL    HW215153   0.996   3.577   6.106
 4752SOL     OW15154   2.527   6.309   1.267
 4752SOL    HW115155   2.483   6.287   1.354
 4752SOL    HW215156   2.620   6.274   1.266
 4753SOL     OW15157   0.483   0.137   6.284
 4753SOL    HW115158   0.388   0.110   6.294
 4753SOL    HW215159   0.528   0.078   6.217
 4754SOL     OW15160   0.955   0.841   5.929
 4754SOL    HW115161   0.951   0.941   5.927
 4754SOL    HW215162   1.035   0.809   5.878
 4755SOL     OW15163   2.595   6.996   2.318
 4755SOL    HW115164   2.638   6.908   2.300
 4755SOL    HW215165   2.495   6.984   2.324
 4756SOL     OW15166   5.501   1.715   1.477
 4756SOL    HW115167   5.408   1.741   1.449
 4756SOL    HW215168   5.496   1.665   1.564
 4757SOL     OW15169   2.438   2.000   0.872
 4757SOL    HW115170   2.359   1.996   0.812
 4757SOL    HW215171   2.414   1.963   0.962
 4758SOL     OW15172   5.964   3.494   5.909
 4758SOL    HW115173   5.962   3.594   5.903
 4758SOL    HW215174   6.024   3.466   5.984
 4759SOL     OW15175   6.173   4.109   6.371
 4759SOL    HW115176   6.224   4.053   6.306
 4759SOL    HW215177   6.128   4.049   6.438
 4760SOL     OW15178   2.173   2.762   0.338
 4760SOL    HW115179   2.106   2.767   0.412
 4760SOL    HW215180   2.235   2.685   0.354
 4761SOL     OW15181   1.774   5.826   6.187
 4761SOL    HW115182   1.740   5.733   6.196
 4761SOL    HW215183   1.861   5.826   6.139
 4762SOL     OW15184   3.623   6.802   2.371
 4762SOL    HW115185   3.537   6.848   2.395
 4762SOL    HW215186   3.622   6.781   2.273
 4763SOL     OW15187   5.841   5.713   5.285
 4763SOL    HW115188   5.790   5.800   5.289
 4763SOL    HW215189   5.814   5.663   5.203
 4764SOL     OW15190   4.064   3.489   4.211
 4764SOL    HW115191   4.095   3.584   4.207
 4764SOL    HW215192   3.965   3.486   4.195
 4765SOL     OW15193   6.192   5.223   6.136
 4765SOL    HW115194   6.118   5.290   6.126
 4765SOL    HW215195   6.229   5.229   6.229
 4766SOL     OW15196   3.333   0.614   3.175
 4766SOL    HW115197   3.377   0.699   3.145
 4766SOL    HW215198   3.263   0.636   3.243
 4767SOL     OW15199   4.150   0.081   0.096
 4767SOL    HW115200   4.181   0.171   0.125
 4767SOL    HW215201   4.119   0.085   0.001
 4768SOL     OW15202   1.565   1.034   5.521
 4768SOL    HW115203   1.642   1.029   5.585
 4768SOL    HW215204   1.574   1.115   5.464
 4769SOL     OW15205   4.751   1.221   1.674
 4769SOL    HW115206   4.833   1.174   1.709
 4769SOL    HW215207   4.693   1.154   1.627
 4770SOL     OW15208   2.108   0.600   4.196
 4770SOL    HW115209   2.148   0.611   4.105
 4770SOL    HW215210   2.037   0.670   4.210
 4771SOL     OW15211   4.097   4.024   5.360
 4771SOL    HW115212   4.148   4.098   5.404
 4771SOL    HW215213   4.155   3.943   5.355
 4772SOL     OW15214   2.410   2.509   0.131
 4772SOL    HW115215   2.386   2.570   0.206
 4772SOL    HW215216   2.488   2.547   0.081
 4773SOL     OW15217   0.268   5.238   4.719
 4773SOL    HW115218   0.184   5.191   4.691
 4773SOL    HW215219   0.283   5.224   4.817
 4774SOL     OW15220   1.481   4.063   6.865
 4774SOL    HW115221   1.475   3.964   6.852
 4774SOL    HW215222   1.392   4.098   6.896
 4775SOL     OW15223   1.962   2.260   2.210
 4775SOL    HW115224   1.970   2.295   2.304
 4775SOL    HW215225   2.053   2.252   2.170
 4776SOL     OW15226   4.352   4.582   2.423
 4776SOL    HW115227   4.314   4.497   2.461
 4776SOL    HW215228   4.451   4.575   2.419
 4777SOL     OW15229   2.559   3.849   1.527
 4777SOL    HW115230   2.623   3.779   1.562
 4777SOL    HW215231   2.490   3.805   1.470
 4778SOL     OW15232   4.886   3.282   2.972
 4778SOL    HW115233   4.910   3.302   2.877
 4778SOL    HW215234   4.865   3.367   3.020
 4779SOL     OW15235   4.851   1.430   2.764
 4779SOL    HW115236   4.840   1.445   2.862
 4779SOL    HW215237   4.773   1.468   2.715
 4780SOL     OW15238   1.999   1.161   5.421
 4780SOL    HW115239   2.005   1.255   5.455
 4780SOL    HW215240   2.090   1.121   5.417
 4781SOL     OW15241   2.042   5.346   2.877
 4781SOL    HW115242   2.108   5.421   2.869
 4781SOL    HW215243   2.042   5.312   2.971
 4782SOL     OW15244   6.001   5.799   0.172
 4782SOL    HW115245   5.903   5.783   0.181
 4782SOL    HW215246   6.036   5.844   0.254
 4783SOL     OW15247   6.175   4.272   2.855
 4783SOL    HW115248   6.238   4.317   2.918
 4783SOL    HW215249   6.209   4.180   2.834
 4784SOL     OW15250   5.044   4.781   5.451
 4784SOL    HW115251   5.100   4.854   5.414
 4784SOL    HW215252   5.054   4.699   5.395
 4785SOL     OW15253   5.800   6.649   0.674
 4785SOL    HW115254   5.898   6.634   0.687
 4785SOL    HW215255   5.769   6.600   0.593
 4786SOL     OW15256   1.154   3.347   2.347
 4786SOL    HW115257   1.119   3.338   2.254
 4786SOL    HW215258   1.189   3.439   2.361
 4787SOL     OW15259   4.422   2.073   3.386
 4787SOL    HW115260   4.403   2.110   3.295
 4787SOL    HW215261   4.448   2.148   3.448
 4788SOL     OW15262   2.368   0.063   5.150
 4788SOL    HW115263   2.360   0.160   5.173
 4788SOL    HW215264   2.284   0.033   5.104
 4789SOL     OW15265   5.350   6.088   0.471
 4789SOL    HW115266   5.333   6.005   0.524
 4789SOL    HW215267   5.448   6.108   0.472
 4790SOL     OW15268   5.363   6.884   6.620
 4790SOL    HW115269   5.269   6.868   6.593
 4790SOL    HW215270   5.378   6.845   6.711
 4791SOL     OW15271   4.721   1.963   3.733
 4791SOL    HW115272   4.706   1.865   3.723
 4791SOL    HW215273   4.756   1.982   3.825
 4792SOL     OW15274   2.867   2.600   1.078
 4792SOL    HW115275   2.937   2.590   1.149
 4792SOL    HW215276   2.787   2.546   1.103
 4793SOL     OW15277   0.801   0.026   6.819
 4793SOL    HW115278   0.861   0.066   6.888
 4793SOL    HW215279   0.852   0.013   6.734
 4794SOL     OW15280   4.998   1.086   1.897
 4794SOL    HW115281   4.964   1.016   1.835
 4794SOL    HW215282   5.098   1.081   1.901
 4795SOL     OW15283   6.296   3.173   4.386
 4795SOL    HW115284   6.376   3.119   4.412
 4795SOL    HW215285   6.309   3.212   4.295
 4796SOL     OW15286   5.790   3.670   0.730
 4796SOL    HW115287   5.837   3.757   0.718
 4796SOL    HW215288   5.793   3.617   0.645
 4797SOL     OW15289   1.018   5.267   4.533
 4797SOL    HW115290   1.027   5.188   4.473
 4797SOL    HW215291   0.951   5.248   4.604
 4798SOL     OW15292   6.757   4.999   5.842
 4798SOL    HW115293   6.707   5.073   5.886
 4798SOL    HW215294   6.819   4.956   5.909
 4799SOL     OW15295   4.730   1.183   4.575
 4799SOL    HW115296   4.650   1.220   4.622
 4799SOL    HW215297   4.749   1.236   4.492
 4800SOL     OW15298   1.983   3.094   3.963
 4800SOL    HW115299   1.913   3.024   3.978
 4800SOL    HW215300   2.047   3.095   4.040
 4801SOL     OW15301   0.118   2.453   0.641
 4801SOL    HW115302   0.099   2.543   0.680
 4801SOL    HW215303   0.203   2.457   0.589
 4802SOL     OW15304   1.959   0.189   2.088
 4802SOL    HW115305   1.876   0.227   2.047
 4802SOL    HW215306   2.008   0.134   2.021
 4803SOL     OW15307   1.476   0.573   1.039
 4803SOL    HW115308   1.487   0.644   1.109
 4803SOL    HW215309   1.459   0.616   0.950
 4804SOL     OW15310   4.360   6.065   0.024
 4804SOL    HW115311   4.309   6.103   0.101
 4804SOL    HW215312   4.455   6.050   0.052
 4805SOL     OW15313   0.289   0.501   1.309
 4805SOL    HW115314   0.266   0.462   1.220
 4805SOL    HW215315   0.360   0.570   1.298
 4806SOL     OW15316   0.150   2.651   3.693
 4806SOL    HW115317   0.095   2.574   3.723
 4806SOL    HW215318   0.095   2.711   3.635
 4807SOL     OW15319   0.941   6.754   2.302
 4807SOL    HW115320   0.963   6.666   2.344
 4807SOL    HW215321   0.877   6.740   2.227
 4808SOL     OW15322   5.507   2.813   0.319
 4808SOL    HW115323   5.408   2.824   0.316
 4808SOL    HW215324   5.532   2.753   0.395
 4809SOL     OW15325   4.708   6.576   0.466
 4809SOL    HW115326   4.706   6.643   0.391
 4809SOL    HW215327   4.800   6.538   0.474
 4810SOL     OW15328   2.007   6.438   1.188
 4810SOL    HW115329   2.026   6.344   1.162
 4810SOL    HW215330   1.920   6.443   1.237
 4811SOL     OW15331   5.293   3.802   3.645
 4811SOL    HW115332   5.329   3.867   3.577
 4811SOL    HW215333   5.362   3.732   3.663
 4812SOL     OW15334   6.153   4.969   4.174
 4812SOL    HW115335   6.235   5.019   4.202
 4812SOL    HW215336   6.175   4.907   4.100
 4813SOL     OW15337   5.721   3.025   3.025
 4813SOL    HW115338   5.651   2.958   3.001
 4813SOL    HW215339   5.811   2.981   3.023
 4814SOL     OW15340   6.167   2.951   0.752
 4814SOL    HW115341   6.142   2.863   0.790
 4814SOL    HW215342   6.267   2.960   0.748
 4815SOL     OW15343   4.898   0.720   3.206
 4815SOL    HW115344   4.867   0.797   3.150
 4815SOL    HW215345   4.845   0.718   3.291
 4816SOL     OW15346   4.825   5.288   3.399
 4816SOL    HW115347   4.784   5.377   3.382
 4816SOL    HW215348   4.755   5.217   3.389
 4817SOL     OW15349   6.071   1.430   7.014
 4817SOL    HW115350   6.080   1.331   7.017
 4817SOL    HW215351   6.034   1.463   0.082
 4818SOL     OW15352   0.323   5.764   3.668
 4818SOL    HW115353   0.357   5.811   3.750
 4818SOL    HW215354   0.286   5.831   3.604
 4819SOL     OW15355   2.279   3.371   0.571
 4819SOL    HW115356   2.243   3.277   0.569
 4819SOL    HW215357   2.378   3.368   0.559
 4820SOL     OW15358   6.998   3.313   2.380
 4820SOL    HW115359   0.068   3.333   2.338
 4820SOL    HW215360   6.949   3.246   2.325
 4821SOL     OW15361   0.496   5.874   4.030
 4821SOL    HW115362   0.461   5.889   4.123
 4821SOL    HW215363   0.490   5.777   4.008
 4822SOL     OW15364   2.555   4.989   4.183
 4822SOL    HW115365   2.497   4.946   4.251
 4822SOL    HW215366   2.649   4.957   4.194
 4823SOL     OW15367   1.644   2.807   0.617
 4823SOL    HW115368   1.676   2.888   0.569
 4823SOL    HW215369   1.597   2.747   0.553
 4824SOL     OW15370   6.328   1.822   0.494
 4824SOL    HW115371   6.303   1.741   0.442
 4824SOL    HW215372   6.404   1.800   0.555
 4825SOL     OW15373   1.299   6.617   3.858
 4825SOL    HW115374   1.372   6.576   3.804
 4825SOL    HW215375   1.283   6.711   3.828
 4826SOL     OW15376   4.394   6.156   0.978
 4826SOL    HW115377   4.382   6.246   0.937
 4826SOL    HW215378   4.346   6.152   1.065
 4827SOL     OW15379   6.094   1.053   0.751
 4827SOL    HW115380   6.159   1.121   0.716
 4827SOL    HW215381   6.095   0.973   0.692
 4828SOL     OW15382   5.013   0.860   5.998
 4828SOL    HW115383   5.082   0.789   5.983
 4828SOL    HW215384   5.037   0.914   6.079
 4829SOL     OW15385   4.251   6.168   5.388
 4829SOL    HW115386   4.315   6.239   5.418
 4829SOL    HW215387   4.204   6.129   5.467
 4830SOL     OW15388   1.801   6.680   3.823
 4830SOL    HW115389   1.743   6.706   3.900
 4830SOL    HW215390   1.772   6.590   3.789
 4831SOL     OW15391   3.876   4.524   5.968
 4831SOL    HW115392   3.905   4.612   6.006
 4831SOL    HW215393   3.777   4.525   5.951
 4832SOL     OW15394   4.109   3.528   4.975
 4832SOL    HW115395   4.206   3.548   4.966
 4832SOL    HW215396   4.081   3.462   4.906
 4833SOL     OW15397   6.187   2.664   5.439
 4833SOL    HW115398   6.098   2.631   5.471
 4833SOL    HW215399   6.204   2.754   5.479
 4834SOL     OW15400   0.411   5.643   1.390
 4834SOL    HW115401   0.335   5.577   1.390
 4834SOL    HW215402   0.467   5.630   1.472
 4835SOL     OW15403   6.930   3.359   5.987
 4835SOL    HW115404   6.909   3.437   6.047
 4835SOL    HW215405   0.003   3.326   6.007
 4836SOL     OW15406   4.604   1.825   5.670
 4836SOL    HW115407   4.606   1.731   5.635
 4836SOL    HW215408   4.519   1.869   5.641
 4837SOL     OW15409   1.109   3.639   4.492
 4837SOL    HW115410   1.115   3.609   4.396
 4837SOL    HW215411   1.109   3.559   4.552
 4838SOL     OW15412   1.573   3.837   6.274
 4838SOL    HW115413   1.641   3.909   6.263
 4838SOL    HW215414   1.585   3.768   6.203
 4839SOL     OW15415   2.824   1.403   2.098
 4839SOL    HW115416   2.734   1.372   2.065
 4839SOL    HW215417   2.811   1.470   2.170
 4840SOL     OW15418   5.251   3.070   4.744
 4840SOL    HW115419   5.176   3.094   4.806
 4840SOL    HW215420   5.336   3.061   4.796
 4841SOL     OW15421   2.753   5.826   3.279
 4841SOL    HW115422   2.778   5.911   3.327
 4841SOL    HW215423   2.757   5.842   3.180
 4842SOL     OW15424   4.154   5.845   3.757
 4842SOL    HW115425   4.168   5.922   3.694
 4842SOL    HW215426   4.243   5.813   3.789
 4843SOL     OW15427   6.102   1.075   1.024
 4843SOL    HW115428   6.064   1.023   0.947
 4843SOL    HW215429   6.200   1.088   1.009
 4844SOL     OW15430   1.603   4.776   6.886
 4844SOL    HW115431   1.666   4.848   6.916
 4844SOL    HW215432   1.570   4.797   6.794
 4845SOL     OW15433   4.872   3.894   4.888
 4845SOL    HW115434   4.806   3.917   4.818
 4845SOL    HW215435   4.890   3.795   4.887
 4846SOL     OW15436   6.733   3.888   4.892
 4846SOL    HW115437   6.830   3.862   4.894
 4846SOL    HW215438   6.709   3.933   4.978
 4847SOL     OW15439   3.367   0.073   0.492
 4847SOL    HW115440   3.319   0.023   0.564
 4847SOL    HW215441   3.448   0.023   0.464
 4848SOL     OW15442   4.692   1.716   4.046
 4848SOL    HW115443   4.713   1.808   4.080
 4848SOL    HW215444   4.771   1.657   4.059
 4849SOL     OW15445   1.672   5.747   2.192
 4849SOL    HW115446   1.721   5.817   2.244
 4849SOL    HW215447   1.592   5.789   2.148
 4850SOL     OW15448   3.201   6.387   1.995
 4850SOL    HW115449   3.152   6.371   1.910
 4850SOL    HW215450   3.265   6.463   1.984
 4851SOL     OW15451   4.329   4.759   6.929
 4851SOL    HW115452   4.425   4.736   6.909
 4851SOL    HW215453   4.269   4.714   6.863
 4852SOL     OW15454   5.029   4.669   5.998
 4852SOL    HW115455   5.057   4.701   5.908
 4852SOL    HW215456   4.973   4.586   5.988
 4853SOL     OW15457   4.096   0.383   2.828
 4853SOL    HW115458   4.180   0.426   2.796
 4853SOL    HW215459   4.053   0.335   2.752
 4854SOL     OW15460   4.308   6.724   2.487
 4854SOL    HW115461   4.366   6.653   2.528
 4854SOL    HW215462   4.264   6.687   2.405
 4855SOL     OW15463   4.336   4.763   5.739
 4855SOL    HW115464   4.243   4.799   5.736
 4855SOL    HW215465   4.352   4.719   5.828
 4856SOL     OW15466   0.641   2.438   2.596
 4856SOL    HW115467   0.654   2.525   2.645
 4856SOL    HW215468   0.723   2.382   2.606
 4857SOL     OW15469   1.625   2.096   5.543
 4857SOL    HW115470   1.662   2.005   5.557
 4857SOL    HW215471   1.540   2.106   5.595
 4858SOL     OW15472   1.502   5.513   4.724
 4858SOL    HW115473   1.520   5.504   4.626
 4858SOL    HW215474   1.455   5.432   4.757
 4859SOL     OW15475   6.573   5.337   3.353
 4859SOL    HW115476   6.600   5.390   3.273
 4859SOL    HW215477   6.476   5.350   3.371
 4860SOL     OW15478   4.254   5.332   1.497
 4860SOL    HW115479   4.239   5.241   1.458
 4860SOL    HW215480   4.168   5.367   1.533
 4861SOL     OW15481   6.410   4.933   5.237
 4861SOL    HW115482   6.444   4.992   5.310
 4861SOL    HW215483   6.358   4.989   5.172
 4862SOL     OW15484   2.105   5.691   4.532
 4862SOL    HW115485   2.074   5.784   4.512
 4862SOL    HW215486   2.101   5.636   4.448
 4863SOL     OW15487   5.393   1.278   2.373
 4863SOL    HW115488   5.318   1.343   2.363
 4863SOL    HW215489   5.476   1.326   2.400
 4864SOL     OW15490   2.018   3.250   1.496
 4864SOL    HW115491   2.072   3.290   1.570
 4864SOL    HW215492   2.018   3.313   1.418
 4865SOL     OW15493   3.847   6.739   5.063
 4865SOL    HW115494   3.891   6.774   4.981
 4865SOL    HW215495   3.863   6.803   5.139
 4866SOL     OW15496   0.144   5.316   1.577
 4866SOL    HW115497   0.122   5.353   1.668
 4866SOL    HW215498   0.149   5.216   1.582
 4867SOL     OW15499   5.780   5.075   5.256
 4867SOL    HW115500   5.851   5.042   5.319
 4867SOL    HW215501   5.739   4.998   5.208
 4868SOL     OW15502   1.689   5.989   1.851
 4868SOL    HW115503   1.657   6.029   1.936
 4868SOL    HW215504   1.787   5.970   1.858
 4869SOL     OW15505   6.753   1.400   2.108
 4869SOL    HW115506   6.692   1.472   2.074
 4869SOL    HW215507   6.699   1.329   2.153
 4870SOL     OW15508   6.498   0.578   0.930
 4870SOL    HW115509   6.534   0.555   0.840
 4870SOL    HW215510   6.453   0.667   0.928
 4871SOL     OW15511   1.831   3.429   4.597
 4871SOL    HW115512   1.884   3.498   4.547
 4871SOL    HW215513   1.801   3.358   4.534
 4872SOL     OW15514   1.270   1.812   2.742
 4872SOL    HW115515   1.295   1.819   2.839
 4872SOL    HW215516   1.249   1.902   2.706
 4873SOL     OW15517   1.044   6.761   5.145
 4873SOL    HW115518   1.138   6.797   5.141
 4873SOL    HW215519   1.039   6.675   5.093
 4874SOL     OW15520   6.550   2.491   3.830
 4874SOL    HW115521   6.583   2.423   3.896
 4874SOL    HW215522   6.511   2.443   3.751
 4875SOL     OW15523   0.214   2.856   6.868
 4875SOL    HW115524   0.124   2.814   6.857
 4875SOL    HW215525   0.226   2.928   6.799
 4876SOL     OW15526   6.543   1.287   6.891
 4876SOL    HW115527   6.571   1.194   6.916
 4876SOL    HW215528   6.622   1.337   6.855
 4877SOL     OW15529   4.641   1.962   1.561
 4877SOL    HW115530   4.609   1.875   1.596
 4877SOL    HW215531   4.593   2.037   1.607
 4878SOL     OW15532   1.254   3.059   1.851
 4878SOL    HW115533   1.247   2.972   1.802
 4878SOL    HW215534   1.336   3.108   1.820
 4879SOL     OW15535   4.222   5.928   4.332
 4879SOL    HW115536   4.149   5.980   4.288
 4879SOL    HW215537   4.182   5.866   4.400
 4880SOL     OW15538   6.115   1.601   5.534
 4880SOL    HW115539   6.150   1.514   5.570
 4880SOL    HW215540   6.016   1.603   5.543
 4881SOL     OW15541   2.425   5.584   6.065
 4881SOL    HW115542   2.490   5.589   5.990
 4881SOL    HW215543   2.332   5.588   6.029
 4882SOL     OW15544   5.538   5.948   6.774
 4882SOL    HW115545   5.588   5.964   6.859
 4882SOL    HW215546   5.449   5.995   6.779
 4883SOL     OW15547   5.929   5.556   6.790
 4883SOL    HW115548   5.865   5.615   6.840
 4883SOL    HW215549   5.909   5.561   6.692
 4884SOL     OW15550   3.847   6.618   1.985
 4884SOL    HW115551   3.784   6.563   1.929
 4884SOL    HW215552   3.939   6.579   1.980
 4885SOL     OW15553   1.594   0.621   2.162
 4885SOL    HW115554   1.598   0.521   2.172
 4885SOL    HW215555   1.524   0.646   2.095
 4886SOL     OW15556   6.145   0.653   5.609
 4886SOL    HW115557   6.067   0.682   5.553
 4886SOL    HW215558   6.147   0.553   5.616
 4887SOL     OW15559   0.719   1.651   5.078
 4887SOL    HW115560   0.728   1.750   5.070
 4887SOL    HW215561   0.737   1.623   5.172
 4888SOL     OW15562   3.952   6.007   1.692
 4888SOL    HW115563   4.034   6.062   1.709
 4888SOL    HW215564   3.965   5.952   1.610
 4889SOL     OW15565   1.436   3.167   6.648
 4889SOL    HW115566   1.336   3.171   6.640
 4889SOL    HW215567   1.475   3.133   6.563
 4890SOL     OW15568   0.377   0.351   4.430
 4890SOL    HW115569   0.423   0.321   4.514
 4890SOL    HW215570   0.379   0.451   4.424
 4891SOL     OW15571   1.121   4.420   0.457
 4891SOL    HW115572   1.087   4.394   0.547
 4891SOL    HW215573   1.046   4.417   0.391
 4892SOL     OW15574   1.930   5.590   2.396
 4892SOL    HW115575   1.975   5.618   2.311
 4892SOL    HW215576   1.831   5.601   2.387
 4893SOL     OW15577   0.360   3.547   6.252
 4893SOL    HW115578   0.294   3.476   6.278
 4893SOL    HW215579   0.337   3.633   6.298
 4894SOL     OW15580   0.819   6.847   3.456
 4894SOL    HW115581   0.806   6.932   3.404
 4894SOL    HW215582   0.886   6.789   3.410
 4895SOL     OW15583   6.516   3.545   6.851
 4895SOL    HW115584   6.495   3.642   6.864
 4895SOL    HW215585   6.546   3.530   6.757
 4896SOL     OW15586   4.093   6.797   4.453
 4896SOL    HW115587   4.113   6.802   4.355
 4896SOL    HW215588   4.000   6.828   4.469
 4897SOL     OW15589   2.682   5.958   6.438
 4897SOL    HW115590   2.631   5.999   6.363
 4897SOL    HW215591   2.758   6.018   6.464
 4898SOL     OW15592   5.551   2.520   4.827
 4898SOL    HW115593   5.530   2.597   4.766
 4898SOL    HW215594   5.477   2.509   4.893
 4899SOL     OW15595   5.772   4.242   4.449
 4899SOL    HW115596   5.855   4.295   4.433
 4899SOL    HW215597   5.778   4.155   4.400
 4900SOL     OW15598   0.924   6.860   4.894
 4900SOL    HW115599   0.917   6.959   4.880
 4900SOL    HW215600   0.980   6.843   4.975
 4901SOL     OW15601   6.577   6.535   3.214
 4901SOL    HW115602   6.534   6.625   3.224
 4901SOL    HW215603   6.523   6.478   3.152
 4902SOL     OW15604   3.618   4.996   0.872
 4902SOL    HW115605   3.682   4.933   0.829
 4902SOL    HW215606   3.559   4.946   0.936
 4903SOL     OW15607   6.205   5.153   5.767
 4903SOL    HW115608   6.290   5.119   5.725
 4903SOL    HW215609   6.179   5.092   5.842
 4904SOL     OW15610   2.688   0.620   3.418
 4904SOL    HW115611   2.647   0.641   3.329
 4904SOL    HW215612   2.752   0.544   3.408
 4905SOL     OW15613   6.702   3.679   2.999
 4905SOL    HW115614   6.802   3.674   3.003
 4905SOL    HW215615   6.672   3.773   3.016
 4906SOL     OW15616   5.104   0.582   1.423
 4906SOL    HW115617   5.136   0.548   1.512
 4906SOL    HW215618   5.147   0.529   1.350
 4907SOL     OW15619   2.678   2.075   1.441
 4907SOL    HW115620   2.748   2.120   1.386
 4907SOL    HW215621   2.610   2.142   1.470
 4908SOL     OW15622   4.608   5.575   6.630
 4908SOL    HW115623   4.659   5.607   6.550
 4908SOL    HW215624   4.511   5.569   6.608
 4909SOL     OW15625   6.387   6.648   5.740
 4909SOL    HW115626   6.481   6.616   5.743
 4909SOL    HW215627   6.385   6.747   5.754
 4910SOL     OW15628   5.184   6.307   5.812
 4910SOL    HW115629   5.215   6.254   5.891
 4910SOL    HW215630   5.174   6.403   5.839
 4911SOL     OW15631   0.589   3.877   6.769
 4911SOL    HW115632   0.540   3.934   6.704
 4911SOL    HW215633   0.541   3.879   6.857
 4912SOL     OW15634   2.375   2.999   1.630
 4912SOL    HW115635   2.348   2.976   1.536
 4912SOL    HW215636   2.404   3.095   1.633
 4913SOL     OW15637   2.668   2.883   1.691
 4913SOL    HW115638   2.597   2.948   1.666
 4913SOL    HW215639   2.682   2.818   1.616
 4914SOL     OW15640   1.455   6.539   2.682
 4914SOL    HW115641   1.478   6.612   2.618
 4914SOL    HW215642   1.521   6.464   2.673
 4915SOL     OW15643   3.415   6.327   3.523
 4915SOL    HW115644   3.382   6.248   3.472
 4915SOL    HW215645   3.500   6.360   3.482
 4916SOL     OW15646   1.041   1.497   1.587
 4916SOL    HW115647   1.077   1.517   1.496
 4916SOL    HW215648   1.116   1.491   1.652
 4917SOL     OW15649   1.460   3.749   6.530
 4917SOL    HW115650   1.537   3.757   6.467
 4917SOL    HW215651   1.430   3.841   6.558
 4918SOL     OW15652   2.270   0.292   3.675
 4918SOL    HW115653   2.194   0.347   3.641
 4918SOL    HW215654   2.286   0.314   3.771
 4919SOL     OW15655   2.497   3.242   1.601
 4919SOL    HW115656   2.484   3.306   1.525
 4919SOL    HW215657   2.530   3.291   1.681
 4920SOL     OW15658   3.647   1.019   0.467
 4920SOL    HW115659   3.667   0.993   0.373
 4920SOL    HW215660   3.719   0.984   0.527
 4921SOL     OW15661   6.442   5.229   1.974
 4921SOL    HW115662   6.412   5.140   2.010
 4921SOL    HW215663   6.540   5.227   1.955
 4922SOL     OW15664   1.016   2.752   5.729
 4922SOL    HW115665   0.981   2.769   5.822
 4922SOL    HW215666   0.960   2.682   5.685
 4923SOL     OW15667   2.655   2.394   6.294
 4923SOL    HW115668   2.571   2.398   6.349
 4923SOL    HW215669   2.726   2.449   6.338
 4924SOL     OW15670   0.738   2.936   4.209
 4924SOL    HW115671   0.757   3.021   4.258
 4924SOL    HW215672   0.742   2.953   4.110
 4925SOL     OW15673   4.468   5.251   5.350
 4925SOL    HW115674   4.485   5.286   5.258
 4925SOL    HW215675   4.490   5.154   5.354
 4926SOL     OW15676   4.053   3.378   0.651
 4926SOL    HW115677   4.102   3.323   0.719
 4926SOL    HW215678   3.963   3.337   0.635
 4927SOL     OW15679   3.236   4.076   2.110
 4927SOL    HW115680   3.276   4.165   2.086
 4927SOL    HW215681   3.252   4.058   2.207
 4928SOL     OW15682   0.282   0.781   6.953
 4928SOL    HW115683   0.291   0.881   6.956
 4928SOL    HW215684   0.370   0.739   6.974
 4929SOL     OW15685   0.894   4.585   4.330
 4929SOL    HW115686   0.971   4.563   4.391
 4929SOL    HW215687   0.810   4.548   4.369
 4930SOL     OW15688   0.344   3.246   0.522
 4930SOL    HW115689   0.281   3.300   0.578
 4930SOL    HW215690   0.305   3.156   0.505
 4931SOL     OW15691   5.737   6.832   1.190
 4931SOL    HW115692   5.732   6.811   1.092
 4931SOL    HW215693   5.801   6.908   1.204
 4932SOL     OW15694   3.562   1.393   1.189
 4932SOL    HW115695   3.476   1.367   1.233
 4932SOL    HW215696   3.547   1.403   1.091
 4933SOL     OW15697   3.048   0.067   4.541
 4933SOL    HW115698   3.020   0.008   4.465
 4933SOL    HW215699   3.123   0.023   4.591
 4934SOL     OW15700   1.879   5.911   5.129
 4934SOL    HW115701   1.941   5.948   5.198
 4934SOL    HW215702   1.908   5.941   5.038
 4935SOL     OW15703   2.033   2.644   1.132
 4935SOL    HW115704   2.112   2.703   1.115
 4935SOL    HW215705   2.019   2.635   1.231
 4936SOL     OW15706   6.210   4.291   1.439
 4936SOL    HW115707   6.269   4.297   1.358
 4936SOL    HW215708   6.266   4.276   1.520
 4937SOL     OW15709   0.750   3.184   4.575
 4937SOL    HW115710   0.655   3.186   4.609
 4937SOL    HW215711   0.750   3.198   4.476
 4938SOL     OW15712   3.486   4.336   1.323
 4938SOL    HW115713   3.568   4.375   1.364
 4938SOL    HW215714   3.466   4.247   1.365
 4939SOL     OW15715   1.345   1.170   1.298
 4939SOL    HW115716   1.378   1.172   1.203
 4939SOL    HW215717   1.264   1.227   1.306
 4940SOL     OW15718   1.091   1.982   5.617
 4940SOL    HW115719   1.016   2.007   5.678
 4940SOL    HW215720   1.113   2.058   5.556
 4941SOL     OW15721   4.087   2.157   5.681
 4941SOL    HW115722   4.108   2.130   5.587
 4941SOL    HW215723   4.152   2.113   5.743
 4942SOL     OW15724   6.559   0.967   2.938
 4942SOL    HW115725   6.585   1.063   2.944
 4942SOL    HW215726   6.618   0.921   2.872
 4943SOL     OW15727   4.578   2.423   6.468
 4943SOL    HW115728   4.618   2.505   6.508
 4943SOL    HW215729   4.490   2.404   6.512
 4944SOL     OW15730   1.044   4.841   0.465
 4944SOL    HW115731   1.014   4.753   0.500
 4944SOL    HW215732   1.061   4.903   0.542
 4945SOL     OW15733   2.688   0.576   5.339
 4945SOL    HW115734   2.629   0.579   5.258
 4945SOL    HW215735   2.636   0.541   5.417
 4946SOL     OW15736   2.578   6.077   0.584
 4946SOL    HW115737   2.658   6.017   0.583
 4946SOL    HW215738   2.598   6.159   0.531
 4947SOL     OW15739   0.854   0.212   1.354
 4947SOL    HW115740   0.888   0.293   1.307
 4947SOL    HW215741   0.771   0.235   1.405
 4948SOL     OW15742   1.395   2.487   2.004
 4948SOL    HW115743   1.300   2.456   1.999
 4948SOL    HW215744   1.398   2.586   1.988
 4949SOL     OW15745   6.195   4.396   5.895
 4949SOL    HW115746   6.280   4.354   5.863
 4949SOL    HW215747   6.209   4.494   5.909
 4950SOL     OW15748   3.911   4.135   5.226
 4950SOL    HW115749   3.990   4.092   5.269
 4950SOL    HW215750   3.928   4.233   5.215
 4951SOL     OW15751   4.548   5.124   3.187
 4951SOL    HW115752   4.477   5.193   3.193
 4951SOL    HW215753   4.577   5.097   3.279
 4952SOL     OW15754   1.049   1.064   6.863
 4952SOL    HW115755   1.087   1.156   6.850
 4952SOL    HW215756   1.060   1.012   6.779
 4953SOL     OW15757   1.377   2.032   5.636
 4953SOL    HW115758   1.379   2.013   5.537
 4953SOL    HW215759   1.283   2.030   5.669
 4954SOL     OW15760   3.353   3.354   5.347
 4954SOL    HW115761   3.367   3.385   5.253
 4954SOL    HW215762   3.262   3.380   5.379
 4955SOL     OW15763   4.165   6.093   0.221
 4955SOL    HW115764   4.111   6.079   0.304
 4955SOL    HW215765   4.104   6.102   0.142
 4956SOL     OW15766   2.701   0.537   4.985
 4956SOL    HW115767   2.748   0.466   5.039
 4956SOL    HW215768   2.621   0.569   5.035
 4957SOL     OW15769   5.651   5.375   0.214
 4957SOL    HW115770   5.602   5.454   0.252
 4957SOL    HW215771   5.611   5.351   0.126
 4958SOL     OW15772   3.546   5.661   6.973
 4958SOL    HW115773   3.503   5.643   6.885
 4958SOL    HW215774   3.513   5.748   7.010
 4959SOL     OW15775   6.679   2.492   3.056
 4959SOL    HW115776   6.690   2.567   2.990
 4959SOL    HW215777   6.585   2.458   3.051
 4960SOL     OW15778   5.111   4.416   4.207
 4960SOL    HW115779   5.163   4.401   4.291
 4960SOL    HW215780   5.151   4.363   4.132
 4961SOL     OW15781   3.675   2.845   2.135
 4961SOL    HW115782   3.749   2.913   2.139
 4961SOL    HW215783   3.714   2.753   2.144
 4962SOL     OW15784   1.582   2.458   6.906
 4962SOL    HW115785   1.553   2.547   6.871
 4962SOL    HW215786   1.569   2.456   7.005
 4963SOL     OW15787   0.287   4.113   6.446
 4963SOL    HW115788   0.210   4.097   6.508
 4963SOL    HW215789   0.347   4.034   6.447
 4964SOL     OW15790   1.618   4.642   4.098
 4964SOL    HW115791   1.588   4.548   4.088
 4964SOL    HW215792   1.699   4.646   4.157
 4965SOL     OW15793   2.051   0.038   3.147
 4965SOL    HW115794   2.010   0.126   3.126
 4965SOL    HW215795   1.999   6.984   3.102
 4966SOL     OW15796   4.472   0.095   5.166
 4966SOL    HW115797   4.458   0.111   5.263
 4966SOL    HW215798   4.551   0.149   5.134
 4967SOL     OW15799   4.753   4.141   3.688
 4967SOL    HW115800   4.712   4.084   3.617
 4967SOL    HW215801   4.843   4.104   3.713
 4968SOL     OW15802   6.649   3.381   4.434
 4968SOL    HW115803   6.585   3.456   4.417
 4968SOL    HW215804   6.743   3.416   4.430
 4969SOL     OW15805   0.211   6.044   4.661
 4969SOL    HW115806   0.163   5.994   4.589
 4969SOL    HW215807   0.302   6.004   4.675
 4970SOL     OW15808   2.183   1.611   1.479
 4970SOL    HW115809   2.216   1.615   1.385
 4970SOL    HW215810   2.083   1.623   1.480
 4971SOL     OW15811   6.990   5.758   1.421
 4971SOL    HW115812   0.002   5.801   1.505
 4971SOL    HW215813   0.041   5.694   1.387
 4972SOL     OW15814   0.064   3.902   6.975
 4972SOL    HW115815   0.125   3.875   6.900
 4972SOL    HW215816   0.042   3.999   6.967
 4973SOL     OW15817   5.426   1.969   6.639
 4973SOL    HW115818   5.340   1.926   6.666
 4973SOL    HW215819   5.475   1.908   6.576
 4974SOL     OW15820   3.718   6.885   5.673
 4974SOL    HW115821   3.654   6.962   5.674
 4974SOL    HW215822   3.736   6.854   5.766
 4975SOL     OW15823   5.751   4.138   1.451
 4975SOL    HW115824   5.678   4.181   1.399
 4975SOL    HW215825   5.726   4.133   1.548
 4976SOL     OW15826   0.686   0.324   3.933
 4976SOL    HW115827   0.692   0.265   3.853
 4976SOL    HW215828   0.594   0.316   3.973
 4977SOL     OW15829   1.467   3.788   5.558
 4977SOL    HW115830   1.368   3.787   5.544
 4977SOL    HW215831   1.510   3.851   5.493
 4978SOL     OW15832   6.425   5.077   4.532
 4978SOL    HW115833   6.473   5.117   4.454
 4978SOL    HW215834   6.424   5.142   4.608
 4979SOL     OW15835   2.762   6.810   6.358
 4979SOL    HW115836   2.743   6.801   6.456
 4979SOL    HW215837   2.856   6.781   6.339
 4980SOL     OW15838   6.081   3.144   3.816
 4980SOL    HW115839   6.010   3.073   3.812
 4980SOL    HW215840   6.063   3.205   3.893
 4981SOL     OW15841   3.652   6.074   3.525
 4981SOL    HW115842   3.593   6.089   3.604
 4981SOL    HW215843   3.714   5.998   3.543
 4982SOL     OW15844   4.318   2.032   4.781
 4982SOL    HW115845   4.244   1.975   4.816
 4982SOL    HW215846   4.281   2.119   4.749
 4983SOL     OW15847   6.083   3.251   3.008
 4983SOL    HW115848   6.123   3.293   2.926
 4983SOL    HW215849   5.985   3.270   3.011
 4984SOL     OW15850   4.845   3.679   4.688
 4984SOL    HW115851   4.873   3.600   4.634
 4984SOL    HW215852   4.825   3.650   4.781
 4985SOL     OW15853   5.447   0.470   2.478
 4985SOL    HW115854   5.391   0.407   2.424
 4985SOL    HW215855   5.490   0.420   2.553
 4986SOL     OW15856   1.579   5.132   1.250
 4986SOL    HW115857   1.593   5.052   1.192
 4986SOL    HW215858   1.548   5.104   1.341
 4987SOL     OW15859   2.139   3.283   2.774
 4987SOL    HW115860   2.148   3.258   2.678
 4987SOL    HW215861   2.102   3.376   2.781
 4988SOL     OW15862   6.198   5.353   4.144
 4988SOL    HW115863   6.130   5.331   4.214
 4988SOL    HW215864   6.152   5.387   4.063
 4989SOL     OW15865   7.003   6.855   3.367
 4989SOL    HW115866   7.017   6.837   3.270
 4989SOL    HW215867   7.008   6.954   3.384
 4990SOL     OW15868   4.903   1.767   6.566
 4990SOL    HW115869   4.812   1.806   6.580
 4990SOL    HW215870   4.920   1.760   6.467
 4991SOL     OW15871   1.979   5.996   6.074
 4991SOL    HW115872   1.898   6.021   6.021
 4991SOL    HW215873   1.983   6.054   6.156
 4992SOL     OW15874   1.638   3.529   4.362
 4992SOL    HW115875   1.724   3.567   4.328
 4992SOL    HW215876   1.574   3.603   4.379
 4993SOL     OW15877   2.201   6.170   4.127
 4993SOL    HW115878   2.131   6.104   4.098
 4993SOL    HW215879   2.280   6.121   4.163
 4994SOL     OW15880   3.130   5.369   5.571
 4994SOL    HW115881   3.053   5.375   5.508
 4994SOL    HW215882   3.197   5.304   5.535
 4995SOL     OW15883   0.383   1.095   6.140
 4995SOL    HW115884   0.291   1.120   6.168
 4995SOL    HW215885   0.389   1.095   6.040
 4996SOL     OW15886   0.088   0.658   3.808
 4996SOL    HW115887   0.032   0.576   3.816
 4996SOL    HW215888   0.174   0.646   3.858
 4997SOL     OW15889   4.496   1.635   0.466
 4997SOL    HW115890   4.504   1.557   0.528
 4997SOL    HW215891   4.583   1.685   0.465
 4998SOL     OW15892   0.694   4.017   3.551
 4998SOL    HW115893   0.675   4.056   3.641
 4998SOL    HW215894   0.622   4.044   3.487
 4999SOL     OW15895   0.718   2.933   3.905
 4999SOL    HW115896   0.745   2.900   3.815
 4999SOL    HW215897   0.725   3.032   3.908
 5000SOL     OW15898   2.697   6.372   3.205
 5000SOL    HW115899   2.694   6.389   3.107
 5000SOL    HW215900   2.787   6.338   3.231
 5001SOL     OW15901   0.392   5.597   3.190
 5001SOL    HW115902   0.320   5.529   3.209
 5001SOL    HW215903   0.420   5.640   3.275
 5002SOL     OW15904   1.599   4.997   3.438
 5002SOL    HW115905   1.565   4.930   3.373
 5002SOL    HW215906   1.684   4.964   3.478
 5003SOL     OW15907   3.399   0.766   1.933
 5003SOL    HW115908   3.424   0.800   2.024
 5003SOL    HW215909   3.471   0.788   1.868
 5004SOL     OW15910   4.271   6.351   0.397
 5004SOL    HW115911   4.260   6.319   0.302
 5004SOL    HW215912   4.272   6.272   0.458
 5005SOL     OW15913   3.339   2.932   0.583
 5005SOL    HW115914   3.407   2.983   0.635
 5005SOL    HW215915   3.266   2.901   0.644
 5006SOL     OW15916   5.185   0.573   2.236
 5006SOL    HW115917   5.190   0.530   2.326
 5006SOL    HW215918   5.176   0.672   2.246
 5007SOL     OW15919   6.081   5.394   2.279
 5007SOL    HW115920   6.169   5.347   2.286
 5007SOL    HW215921   6.034   5.388   2.367
 5008SOL     OW15922   5.013   0.349   3.479
 5008SOL    HW115923   4.963   0.357   3.566
 5008SOL    HW215924   5.079   0.423   3.472
 5009SOL     OW15925   0.536   1.547   0.078
 5009SOL    HW115926   0.631   1.529   0.102
 5009SOL    HW215927   0.482   1.463   0.093
 5010SOL     OW15928   4.879   3.658   0.979
 5010SOL    HW115929   4.854   3.744   0.935
 5010SOL    HW215930   4.978   3.652   0.986
 5011SOL     OW15931   1.859   2.439   6.150
 5011SOL    HW115932   1.948   2.481   6.131
 5011SOL    HW215933   1.792   2.475   6.086
 5012SOL     OW15934   6.254   1.675   6.117
 5012SOL    HW115935   6.294   1.760   6.151
 5012SOL    HW215936   6.211   1.690   6.028
 5013SOL     OW15937   5.284   0.126   5.647
 5013SOL    HW115938   5.246   0.113   5.738
 5013SOL    HW215939   5.219   0.094   5.578
 5014SOL     OW15940   6.400   3.527   1.051
 5014SOL    HW115941   6.341   3.566   1.121
 5014SOL    HW215942   6.414   3.430   1.070
 5015SOL     OW15943   5.760   5.618   4.295
 5015SOL    HW115944   5.763   5.520   4.316
 5015SOL    HW215945   5.714   5.666   4.369
 5016SOL     OW15946   1.601   2.753   6.528
 5016SOL    HW115947   1.665   2.696   6.476
 5016SOL    HW215948   1.530   2.788   6.468
 5017SOL     OW15949   0.018   2.309   2.119
 5017SOL    HW115950   6.958   2.327   2.178
 5017SOL    HW215951   0.084   2.384   2.127
 5018SOL     OW15952   1.185   0.727   6.979
 5018SOL    HW115953   1.225   0.818   6.985
 5018SOL    HW215954   1.237   0.671   6.915
 5019SOL     OW15955   1.534   4.370   4.184
 5019SOL    HW115956   1.446   4.376   4.231
 5019SOL    HW215957   1.531   4.296   4.117
 5020SOL     OW15958   1.970   7.010   4.148
 5020SOL    HW115959   2.064   6.989   4.120
 5020SOL    HW215960   1.925   6.927   4.180
 5021SOL     OW15961   2.832   0.298   1.432
 5021SOL    HW115962   2.827   0.319   1.530
 5021SOL    HW215963   2.876   0.374   1.384
 5022SOL     OW15964   6.661   2.639   0.894
 5022SOL    HW115965   6.607   2.618   0.976
 5022SOL    HW215966   6.706   2.556   0.861
 5023SOL     OW15967   0.045   3.323   3.001
 5023SOL    HW115968   7.012   3.239   3.015
 5023SOL    HW215969   0.136   3.313   3.041
 5024SOL     OW15970   4.853   4.381   0.271
 5024SOL    HW115971   4.891   4.353   0.183
 5024SOL    HW215972   4.913   4.349   0.345
 5025SOL     OW15973   5.100   2.191   4.733
 5025SOL    HW115974   5.017   2.192   4.788
 5025SOL    HW215975   5.096   2.264   4.665
 5026SOL     OW15976   5.544   6.084   4.968
 5026SOL    HW115977   5.460   6.091   5.022
 5026SOL    HW215978   5.522   6.051   4.876
 5027SOL     OW15979   5.394   6.674   0.705
 5027SOL    HW115980   5.402   6.587   0.657
 5027SOL    HW215981   5.445   6.670   0.791
 5028SOL     OW15982   6.619   1.835   2.437
 5028SOL    HW115983   6.718   1.821   2.437
 5028SOL    HW215984   6.599   1.933   2.439
 5029SOL     OW15985   4.976   2.387   2.432
 5029SOL    HW115986   4.945   2.383   2.527
 5029SOL    HW215987   5.051   2.323   2.418
 5030SOL     OW15988   0.067   3.335   0.672
 5030SOL    HW115989   7.008   3.315   0.613
 5030SOL    HW215990   0.084   3.434   0.672
 5031SOL     OW15991   6.527   0.272   6.097
 5031SOL    HW115992   6.572   0.340   6.155
 5031SOL    HW215993   6.428   0.277   6.111
 5032SOL     OW15994   2.503   4.298   5.981
 5032SOL    HW115995   2.521   4.338   6.070
 5032SOL    HW215996   2.506   4.370   5.911
 5033SOL     OW15997   2.489   6.871   6.022
 5033SOL    HW115998   2.505   6.816   6.104
 5033SOL    HW215999   2.498   6.814   5.941
 5034SOL     OW16000   4.418   6.132   4.380
 5034SOL    HW116001   4.345   6.063   4.381
 5034SOL    HW216002   4.403   6.195   4.304
 5035SOL     OW16003   1.902   3.902   3.421
 5035SOL    HW116004   1.996   3.907   3.386
 5035SOL    HW216005   1.884   3.809   3.454
 5036SOL     OW16006   1.195   3.133   4.944
 5036SOL    HW116007   1.191   3.202   5.016
 5036SOL    HW216008   1.170   3.044   4.982
 5037SOL     OW16009   5.230   4.535   1.226
 5037SOL    HW116010   5.217   4.475   1.305
 5037SOL    HW216011   5.272   4.621   1.256
 5038SOL     OW16012   3.002   3.729   3.785
 5038SOL    HW116013   2.962   3.638   3.773
 5038SOL    HW216014   2.978   3.786   3.707
 5039SOL     OW16015   0.642   3.864   0.151
 5039SOL    HW116016   0.628   3.872   0.249
 5039SOL    HW216017   0.739   3.878   0.130
 5040SOL     OW16018   0.525   1.392   5.221
 5040SOL    HW116019   0.439   1.341   5.212
 5040SOL    HW216020   0.591   1.359   5.153
 5041SOL     OW16021   6.832   2.002   1.563
 5041SOL    HW116022   6.896   2.070   1.525
 5041SOL    HW216023   6.805   1.938   1.491
 5042SOL     OW16024   0.885   2.284   5.550
 5042SOL    HW116025   0.812   2.216   5.547
 5042SOL    HW216026   0.897   2.317   5.643
 5043SOL     OW16027   3.303   6.471   2.287
 5043SOL    HW116028   3.384   6.486   2.230
 5043SOL    HW216029   3.223   6.510   2.241
 5044SOL     OW16030   0.124   5.449   6.977
 5044SOL    HW116031   0.147   5.394   6.897
 5044SOL    HW216032   0.025   5.461   6.982
 5045SOL     OW16033   5.778   2.222   0.939
 5045SOL    HW116034   5.749   2.244   1.032
 5045SOL    HW216035   5.878   2.223   0.934
 5046SOL     OW16036   3.840   3.059   2.137
 5046SOL    HW116037   3.840   3.055   2.037
 5046SOL    HW216038   3.914   3.118   2.168
 5047SOL     OW16039   1.655   3.985   3.307
 5047SOL    HW116040   1.750   3.985   3.339
 5047SOL    HW216041   1.637   3.900   3.259
 5048SOL     OW16042   3.030   0.660   6.327
 5048SOL    HW116043   3.063   0.614   6.245
 5048SOL    HW216044   2.931   0.676   6.319
 5049SOL     OW16045   4.038   1.791   6.539
 5049SOL    HW116046   4.111   1.734   6.501
 5049SOL    HW216047   4.063   1.888   6.531
 5050SOL     OW16048   1.870   0.770   0.672
 5050SOL    HW116049   1.915   0.796   0.757
 5050SOL    HW216050   1.937   0.769   0.598
 5051SOL     OW16051   4.570   4.582   1.068
 5051SOL    HW116052   4.527   4.629   1.145
 5051SOL    HW216053   4.613   4.650   1.008
 5052SOL     OW16054   2.105   2.920   4.598
 5052SOL    HW116055   2.174   2.899   4.528
 5052SOL    HW216056   2.146   2.912   4.689
 5053SOL     OW16057   6.824   0.779   0.916
 5053SOL    HW116058   6.730   0.811   0.921
 5053SOL    HW216059   6.852   0.742   1.005
 5054SOL     OW16060   3.895   5.230   3.761
 5054SOL    HW116061   3.804   5.233   3.718
 5054SOL    HW216062   3.960   5.189   3.697
 5055SOL     OW16063   0.130   3.353   5.264
 5055SOL    HW116064   0.120   3.451   5.281
 5055SOL    HW216065   0.176   3.310   5.341
 5056SOL     OW16066   6.375   3.982   3.957
 5056SOL    HW116067   6.275   3.979   3.966
 5056SOL    HW216068   6.399   3.989   3.860
 5057SOL     OW16069   6.919   5.857   2.128
 5057SOL    HW116070   6.949   5.763   2.145
 5057SOL    HW216071   6.875   5.894   2.210
 5058SOL     OW16072   2.502   5.425   6.286
 5058SOL    HW116073   2.601   5.429   6.298
 5058SOL    HW216074   2.476   5.466   6.198
 5059SOL     OW16075   6.816   0.527   2.502
 5059SOL    HW116076   6.832   0.530   2.403
 5059SOL    HW216077   6.892   0.480   2.547
 5060SOL     OW16078   0.019   2.139   6.196
 5060SOL    HW116079   6.986   2.062   6.232
 5060SOL    HW216080   0.065   2.186   6.272
 5061SOL     OW16081   5.343   3.606   0.793
 5061SOL    HW116082   5.440   3.608   0.818
 5061SOL    HW216083   5.333   3.619   0.695
 5062SOL     OW16084   6.450   0.132   0.600
 5062SOL    HW116085   6.352   0.118   0.614
 5062SOL    HW216086   6.468   0.142   0.502
 5063SOL     OW16087   1.260   6.248   2.744
 5063SOL    HW116088   1.347   6.229   2.790
 5063SOL    HW216089   1.264   6.212   2.650
 5064SOL     OW16090   5.124   3.887   6.811
 5064SOL    HW116091   5.200   3.943   6.843
 5064SOL    HW216092   5.049   3.890   6.878
 5065SOL     OW16093   3.146   6.550   6.171
 5065SOL    HW116094   3.202   6.487   6.224
 5065SOL    HW216095   3.061   6.504   6.144
 5066SOL     OW16096   4.665   5.008   1.310
 5066SOL    HW116097   4.714   5.021   1.224
 5066SOL    HW216098   4.724   4.957   1.373
 5067SOL     OW16099   4.958   1.334   6.739
 5067SOL    HW116100   4.953   1.362   6.835
 5067SOL    HW216101   4.975   1.235   6.734
 5068SOL     OW16102   3.903   4.825   0.844
 5068SOL    HW116103   3.964   4.745   0.845
 5068SOL    HW216104   3.835   4.812   0.772
 5069SOL     OW16105   6.767   5.372   2.965
 5069SOL    HW116106   6.695   5.307   2.942
 5069SOL    HW216107   6.742   5.421   3.049
 5070SOL     OW16108   4.884   3.278   3.880
 5070SOL    HW116109   4.844   3.281   3.972
 5070SOL    HW216110   4.983   3.286   3.886
 5071SOL     OW16111   4.530   0.874   0.242
 5071SOL    HW116112   4.609   0.813   0.248
 5071SOL    HW216113   4.459   0.832   0.186
 5072SOL     OW16114   0.642   4.375   1.034
 5072SOL    HW116115   0.652   4.473   1.054
 5072SOL    HW216116   0.546   4.353   1.020
 5073SOL     OW16117   4.284   2.199   3.617
 5073SOL    HW116118   4.328   2.116   3.653
 5073SOL    HW216119   4.257   2.258   3.693
 5074SOL     OW16120   4.340   4.735   5.184
 5074SOL    HW116121   4.339   4.782   5.096
 5074SOL    HW216122   4.323   4.638   5.170
 5075SOL     OW16123   6.831   6.646   4.046
 5075SOL    HW116124   6.747   6.667   3.996
 5075SOL    HW216125   6.898   6.606   3.984
 5076SOL     OW16126   4.535   0.499   1.087
 5076SOL    HW116127   4.467   0.443   1.039
 5076SOL    HW216128   4.624   0.454   1.082
 5077SOL     OW16129   6.713   2.860   2.218
 5077SOL    HW116130   6.756   2.937   2.265
 5077SOL    HW216131   6.784   2.796   2.187
 5078SOL     OW16132   0.075   0.705   4.316
 5078SOL    HW116133   7.000   0.739   4.305
 5078SOL    HW216134   0.120   0.703   4.227
 5079SOL     OW16135   4.354   4.949   4.981
 5079SOL    HW116136   4.310   5.038   4.991
 5079SOL    HW216137   4.322   4.905   4.897
 5080SOL     OW16138   6.005   0.666   5.875
 5080SOL    HW116139   6.080   0.607   5.845
 5080SOL    HW216140   6.020   0.692   5.971
 5081SOL     OW16141   3.523   3.152   2.976
 5081SOL    HW116142   3.435   3.107   2.991
 5081SOL    HW216143   3.590   3.084   2.945
 5082SOL     OW16144   0.775   0.725   6.150
 5082SOL    HW116145   0.834   0.753   6.074
 5082SOL    HW216146   0.752   0.805   6.205
 5083SOL     OW16147   0.789   4.619   2.252
 5083SOL    HW116148   0.761   4.593   2.160
 5083SOL    HW216149   0.836   4.707   2.249
 5084SOL     OW16150   0.880   5.611   2.174
 5084SOL    HW116151   0.978   5.605   2.189
 5084SOL    HW216152   0.860   5.688   2.113
 5085SOL     OW16153   6.386   3.051   6.549
 5085SOL    HW116154   6.363   3.114   6.474
 5085SOL    HW216155   6.307   2.993   6.569
 5086SOL     OW16156   6.390   5.495   4.639
 5086SOL    HW116157   6.297   5.531   4.646
 5086SOL    HW216158   6.409   5.470   4.544
 5087SOL     OW16159   6.260   5.564   4.977
 5087SOL    HW116160   6.259   5.648   5.031
 5087SOL    HW216161   6.354   5.541   4.952
 5088SOL     OW16162   6.236   0.740   0.115
 5088SOL    HW116163   6.243   0.678   0.037
 5088SOL    HW216164   6.156   0.716   0.170
 5089SOL     OW16165   5.726   2.500   4.371
 5089SOL    HW116166   5.660   2.426   4.377
 5089SOL    HW216167   5.714   2.549   4.285
 5090SOL     OW16168   1.223   5.547   0.349
 5090SOL    HW116169   1.215   5.453   0.315
 5090SOL    HW216170   1.176   5.555   0.437
 5091SOL     OW16171   0.870   6.562   3.619
 5091SOL    HW116172   0.960   6.519   3.606
 5091SOL    HW216173   0.844   6.610   3.535
 5092SOL     OW16174   3.346   3.061   1.193
 5092SOL    HW116175   3.346   3.121   1.273
 5092SOL    HW216176   3.253   3.054   1.156
 5093SOL     OW16177   1.119   1.981   1.330
 5093SOL    HW116178   1.145   2.077   1.325
 5093SOL    HW216179   1.183   1.932   1.388
 5094SOL     OW16180   0.175   0.080   6.623
 5094SOL    HW116181   0.266   0.066   6.662
 5094SOL    HW216182   0.124   7.013   6.627
 5095SOL     OW16183   3.040   6.921   5.373
 5095SOL    HW116184   3.030   6.911   5.472
 5095SOL    HW216185   2.950   6.916   5.330
 5096SOL     OW16186   3.964   6.132   3.363
 5096SOL    HW116187   4.018   6.126   3.280
 5096SOL    HW216188   3.923   6.043   3.383
 5097SOL     OW16189   1.004   1.657   6.458
 5097SOL    HW116190   1.078   1.702   6.509
 5097SOL    HW216191   0.929   1.637   6.520
 5098SOL     OW16192   6.705   2.519   3.324
 5098SOL    HW116193   6.717   2.516   3.225
 5098SOL    HW216194   6.667   2.608   3.351
 5099SOL     OW16195   0.790   1.262   4.382
 5099SOL    HW116196   0.694   1.250   4.356
 5099SOL    HW216197   0.814   1.359   4.378
 5100SOL     OW16198   4.545   5.243   5.623
 5100SOL    HW116199   4.515   5.251   5.528
 5100SOL    HW216200   4.551   5.146   5.647
 5101SOL     OW16201   5.009   5.825   0.726
 5101SOL    HW116202   4.923   5.775   0.738
 5101SOL    HW216203   4.989   5.923   0.715
 5102SOL     OW16204   3.556   5.186   4.256
 5102SOL    HW116205   3.568   5.277   4.217
 5102SOL    HW216206   3.616   5.122   4.209
 5103SOL     OW16207   1.223   1.835   3.998
 5103SOL    HW116208   1.125   1.816   3.996
 5103SOL    HW216209   1.239   1.931   3.977
 5104SOL     OW16210   0.587   0.824   0.904
 5104SOL    HW116211   0.518   0.755   0.928
 5104SOL    HW216212   0.625   0.864   0.987
 5105SOL     OW16213   1.421   2.824   6.327
 5105SOL    HW116214   1.349   2.890   6.305
 5105SOL    HW216215   1.482   2.815   6.248
 5106SOL     OW16216   2.514   6.714   2.256
 5106SOL    HW116217   2.487   6.702   2.352
 5106SOL    HW216218   2.491   6.632   2.204
 5107SOL     OW16219   2.258   6.981   6.647
 5107SOL    HW116220   2.278   6.982   6.745
 5107SOL    HW216221   2.223   0.051   6.619
 5108SOL     OW16222   3.535   4.211   4.287
 5108SOL    HW116223   3.525   4.301   4.329
 5108SOL    HW216224   3.594   4.154   4.345
 5109SOL     OW16225   6.464   2.400   2.666
 5109SOL    HW116226   6.536   2.353   2.616
 5109SOL    HW216227   6.490   2.495   2.681
 5110SOL     OW16228   2.053   6.052   5.343
 5110SOL    HW116229   2.072   5.998   5.425
 5110SOL    HW216230   2.125   6.120   5.331
 5111SOL     OW16231   1.932   0.639   6.819
 5111SOL    HW116232   1.913   0.573   6.746
 5111SOL    HW216233   2.030   0.659   6.820
 5112SOL     OW16234   0.427   6.379   3.217
 5112SOL    HW116235   0.407   6.285   3.190
 5112SOL    HW216236   0.405   6.391   3.314
 5113SOL     OW16237   0.485   0.413   6.301
 5113SOL    HW116238   0.497   0.315   6.285
 5113SOL    HW216239   0.394   0.431   6.338
 5114SOL     OW16240   4.162   5.892   6.531
 5114SOL    HW116241   4.260   5.901   6.550
 5114SOL    HW216242   4.131   5.801   6.558
 5115SOL     OW16243   2.383   3.836   5.378
 5115SOL    HW116244   2.365   3.754   5.324
 5115SOL    HW216245   2.404   3.912   5.316
 5116SOL     OW16246   6.811   3.770   1.195
 5116SOL    HW116247   6.760   3.758   1.110
 5116SOL    HW216248   6.900   3.725   1.186
 5117SOL     OW16249   2.581   5.070   2.404
 5117SOL    HW116250   2.539   5.024   2.482
 5117SOL    HW216251   2.510   5.094   2.337
 5118SOL     OW16252   4.143   6.893   1.503
 5118SOL    HW116253   4.125   6.850   1.592
 5118SOL    HW216254   4.202   6.833   1.449
 5119SOL     OW16255   6.169   0.097   2.356
 5119SOL    HW116256   6.082   0.143   2.337
 5119SOL    HW216257   6.202   0.124   2.447
 5120SOL     OW16258   3.294   1.414   1.905
 5120SOL    HW116259   3.344   1.412   1.818
 5120SOL    HW216260   3.217   1.477   1.898
 5121SOL     OW16261   0.500   3.955   4.298
 5121SOL    HW116262   0.486   4.001   4.385
 5121SOL    HW216263   0.462   4.011   4.224
 5122SOL     OW16264   1.943   5.237   3.563
 5122SOL    HW116265   1.974   5.143   3.570
 5122SOL    HW216266   1.967   5.287   3.647
 5123SOL     OW16267   6.370   3.135   2.658
 5123SOL    HW116268   6.368   3.060   2.592
 5123SOL    HW216269   6.426   3.210   2.622
 5124SOL     OW16270   2.977   6.330   0.864
 5124SOL    HW116271   3.004   6.316   0.959
 5124SOL    HW216272   3.029   6.407   0.826
 5125SOL     OW16273   0.641   1.974   6.171
 5125SOL    HW116274   0.695   1.980   6.087
 5125SOL    HW216275   0.544   1.987   6.150
 5126SOL     OW16276   3.800   1.776   0.218
 5126SOL    HW116277   3.742   1.789   0.138
 5126SOL    HW216278   3.874   1.712   0.196
 5127SOL     OW16279   4.873   3.060   6.493
 5127SOL    HW116280   4.825   3.074   6.406
 5127SOL    HW216281   4.969   3.038   6.475
 5128SOL     OW16282   6.940   0.072   6.192
 5128SOL    HW116283   0.011   0.042   6.160
 5128SOL    HW216284   6.925   0.039   6.285
 5129SOL     OW16285   4.854   3.053   3.687
 5129SOL    HW116286   4.871   3.112   3.609
 5129SOL    HW216287   4.853   3.108   3.771
 5130SOL     OW16288   1.857   6.476   5.026
 5130SOL    HW116289   1.768   6.497   5.065
 5130SOL    HW216290   1.857   6.494   4.928
 5131SOL     OW16291   3.954   4.794   3.113
 5131SOL    HW116292   4.040   4.780   3.064
 5131SOL    HW216293   3.937   4.717   3.174
 5132SOL     OW16294   3.675   2.054   6.322
 5132SOL    HW116295   3.595   2.023   6.373
 5132SOL    HW216296   3.716   2.132   6.369
 5133SOL     OW16297   4.398   4.716   6.448
 5133SOL    HW116298   4.423   4.683   6.358
 5133SOL    HW216299   4.299   4.707   6.462
 5134SOL     OW16300   5.733   5.737   0.216
 5134SOL    HW116301   5.642   5.766   0.188
 5134SOL    HW216302   5.726   5.654   0.272
 5135SOL     OW16303   0.026   2.977   2.223
 5135SOL    HW116304   7.013   3.005   2.132
 5135SOL    HW216305   0.068   2.886   2.217
 5136SOL     OW16306   0.628   0.687   4.411
 5136SOL    HW116307   0.544   0.632   4.410
 5136SOL    HW216308   0.670   0.685   4.321
 5137SOL     OW16309   5.718   0.623   3.155
 5137SOL    HW116310   5.691   0.699   3.213
 5137SOL    HW216311   5.796   0.575   3.196
 5138SOL     OW16312   3.065   3.589   2.309
 5138SOL    HW116313   3.043   3.522   2.381
 5138SOL    HW216314   3.164   3.596   2.300
 5139SOL     OW16315   4.632   0.114   4.684
 5139SOL    HW116316   4.691   0.167   4.624
 5139SOL    HW216317   4.594   0.174   4.754
 5140SOL     OW16318   3.399   3.718   6.657
 5140SOL    HW116319   3.421   3.675   6.569
 5140SOL    HW216320   3.324   3.669   6.701
 5141SOL     OW16321   1.006   3.485   1.199
 5141SOL    HW116322   1.042   3.537   1.276
 5141SOL    HW216323   1.075   3.419   1.168
 5142SOL     OW16324   0.580   6.845   2.928
 5142SOL    HW116325   0.528   6.901   2.993
 5142SOL    HW216326   0.595   6.754   2.967
 5143SOL     OW16327   6.945   6.238   2.159
 5143SOL    HW116328   6.927   6.318   2.215
 5143SOL    HW216329   6.987   6.266   2.072
 5144SOL     OW16330   1.830   3.264   4.791
 5144SOL    HW116331   1.846   3.347   4.737
 5144SOL    HW216332   1.906   3.250   4.854
 5145SOL     OW16333   2.043   5.834   5.632
 5145SOL    HW116334   2.030   5.743   5.671
 5145SOL    HW216335   2.139   5.846   5.607
 5146SOL     OW16336   5.974   5.642   6.269
 5146SOL    HW116337   5.916   5.686   6.201
 5146SOL    HW216338   5.965   5.542   6.261
 5147SOL     OW16339   5.644   1.917   3.956
 5147SOL    HW116340   5.657   1.907   4.055
 5147SOL    HW216341   5.558   1.874   3.928
 5148SOL     OW16342   5.973   1.499   0.486
 5148SOL    HW116343   5.940   1.588   0.519
 5148SOL    HW216344   6.011   1.448   0.563
 5149SOL     OW16345   3.678   5.793   4.039
 5149SOL    HW116346   3.585   5.827   4.059
 5149SOL    HW216347   3.699   5.809   3.943
 5150SOL     OW16348   0.045   0.937   3.250
 5150SOL    HW116349   0.039   0.896   3.341
 5150SOL    HW216350   6.973   0.966   3.220
 5151SOL     OW16351   5.161   5.162   1.752
 5151SOL    HW116352   5.095   5.137   1.823
 5151SOL    HW216353   5.165   5.090   1.683
 5152SOL     OW16354   2.087   2.247   0.620
 5152SOL    HW116355   2.068   2.271   0.715
 5152SOL    HW216356   2.095   2.330   0.565
 5153SOL     OW16357   2.037   2.872   0.598
 5153SOL    HW116358   2.122   2.885   0.650
 5153SOL    HW216359   1.973   2.817   0.651
 5154SOL     OW16360   0.734   2.390   0.528
 5154SOL    HW116361   0.695   2.414   0.616
 5154SOL    HW216362   0.720   2.465   0.463
 5155SOL     OW16363   1.545   0.930   0.209
 5155SOL    HW116364   1.477   0.978   0.264
 5155SOL    HW216365   1.632   0.927   0.258
 5156SOL     OW16366   4.954   5.207   5.827
 5156SOL    HW116367   4.946   5.287   5.886
 5156SOL    HW216368   4.958   5.124   5.884
 5157SOL     OW16369   3.577   1.051   2.049
 5157SOL    HW116370   3.638   1.125   2.021
 5157SOL    HW216371   3.609   1.013   2.136
 5158SOL     OW16372   1.366   2.075   2.229
 5158SOL    HW116373   1.441   2.093   2.165
 5158SOL    HW216374   1.329   1.984   2.212
 5159SOL     OW16375   6.509   3.019   5.288
 5159SOL    HW116376   6.541   3.098   5.235
 5159SOL    HW216377   6.579   2.948   5.288
 5160SOL     OW16378   7.009   6.790   3.087
 5160SOL    HW116379   6.924   6.738   3.090
 5160SOL    HW216380   0.056   6.742   3.029
 5161SOL     OW16381   0.999   1.845   6.017
 5161SOL    HW116382   0.971   1.864   6.111
 5161SOL    HW216383   1.066   1.770   6.016
 5162SOL     OW16384   0.347   6.815   5.434
 5162SOL    HW116385   0.431   6.788   5.386
 5162SOL    HW216386   0.273   6.753   5.408
 5163SOL     OW16387   3.127   0.470   1.707
 5163SOL    HW116388   3.178   0.530   1.768
 5163SOL    HW216389   3.189   0.404   1.664
 5164SOL     OW16390   2.823   3.650   0.072
 5164SOL    HW116391   2.841   3.711   0.149
 5164SOL    HW216392   2.878   3.568   0.081
 5165SOL     OW16393   1.636   5.029   5.877
 5165SOL    HW116394   1.719   4.976   5.862
 5165SOL    HW216395   1.587   4.992   5.956
 5166SOL     OW16396   6.887   5.711   5.412
 5166SOL    HW116397   6.819   5.688   5.482
 5166SOL    HW216398   6.846   5.771   5.344
 5167SOL     OW16399   6.148   3.945   5.721
 5167SOL    HW116400   6.209   3.884   5.669
 5167SOL    HW216401   6.099   4.004   5.657
 5168SOL     OW16402   4.786   1.669   3.255
 5168SOL    HW116403   4.720   1.743   3.247
 5168SOL    HW216404   4.868   1.702   3.303
 5169SOL     OW16405   5.022   5.647   4.202
 5169SOL    HW116406   5.059   5.674   4.291
 5169SOL    HW216407   5.084   5.676   4.130
 5170SOL     OW16408   1.716   4.075   6.145
 5170SOL    HW116409   1.753   4.168   6.153
 5170SOL    HW216410   1.756   4.030   6.066
 5171SOL     OW16411   2.798   6.537   6.205
 5171SOL    HW116412   2.835   6.535   6.298
 5171SOL    HW216413   2.754   6.450   6.185
 5172SOL     OW16414   5.640   5.633   6.208
 5172SOL    HW116415   5.564   5.661   6.267
 5172SOL    HW216416   5.705   5.708   6.199
 5173SOL     OW16417   3.969   5.610   4.326
 5173SOL    HW116418   3.929   5.548   4.258
 5173SOL    HW216419   4.066   5.587   4.338
 5174SOL     OW16420   0.673   6.214   3.101
 5174SOL    HW116421   0.716   6.194   3.189
 5174SOL    HW216422   0.574   6.201   3.108
 5175SOL     OW16423   2.392   1.823   6.750
 5175SOL    HW116424   2.480   1.813   6.705
 5175SOL    HW216425   2.345   1.734   6.751
 5176SOL     OW16426   6.177   6.300   6.194
 5176SOL    HW116427   6.161   6.206   6.162
 5176SOL    HW216428   6.132   6.313   6.282
 5177SOL     OW16429   5.276   5.405   0.728
 5177SOL    HW116430   5.320   5.451   0.805
 5177SOL    HW216431   5.208   5.465   0.687
 5178SOL     OW16432   0.420   3.908   1.125
 5178SOL    HW116433   0.404   3.997   1.082
 5178SOL    HW216434   0.481   3.854   1.067
 5179SOL     OW16435   4.794   5.183   3.074
 5179SOL    HW116436   4.716   5.161   3.131
 5179SOL    HW216437   4.864   5.112   3.084
 5180SOL     OW16438   1.844   4.732   2.012
 5180SOL    HW116439   1.914   4.801   2.029
 5180SOL    HW216440   1.776   4.736   2.085
 5181SOL     OW16441   6.678   1.326   5.555
 5181SOL    HW116442   6.751   1.285   5.502
 5181SOL    HW216443   6.598   1.342   5.497
 5182SOL     OW16444   2.118   6.507   2.030
 5182SOL    HW116445   2.142   6.496   1.933
 5182SOL    HW216446   2.120   6.417   2.075
 5183SOL     OW16447   4.868   2.091   3.533
 5183SOL    HW116448   4.807   2.113   3.457
 5183SOL    HW216449   4.816   2.043   3.604
 5184SOL     OW16450   2.605   1.718   2.782
 5184SOL    HW116451   2.690   1.734   2.732
 5184SOL    HW216452   2.615   1.751   2.876
 5185SOL     OW16453   6.526   0.220   2.060
 5185SOL    HW116454   6.509   0.245   1.965
 5185SOL    HW216455   6.442   0.233   2.113
 5186SOL     OW16456   6.233   2.419   6.731
 5186SOL    HW116457   6.291   2.468   6.796
 5186SOL    HW216458   6.208   2.481   6.656
 5187SOL     OW16459   1.328   4.722   5.302
 5187SOL    HW116460   1.361   4.677   5.384
 5187SOL    HW216461   1.405   4.744   5.243
 5188SOL     OW16462   0.011   0.369   1.221
 5188SOL    HW116463   6.957   0.338   1.160
 5188SOL    HW216464   0.098   0.329   1.192
 5189SOL     OW16465   5.059   6.060   6.848
 5189SOL    HW116466   4.983   5.996   6.856
 5189SOL    HW216467   5.025   6.149   6.818
 5190SOL     OW16468   1.705   4.703   0.469
 5190SOL    HW116469   1.671   4.748   0.551
 5190SOL    HW216470   1.633   4.701   0.400
 5191SOL     OW16471   2.716   4.112   1.475
 5191SOL    HW116472   2.711   4.154   1.384
 5191SOL    HW216473   2.674   4.021   1.472
 5192SOL     OW16474   0.574   4.578   3.244
 5192SOL    HW116475   0.519   4.654   3.280
 5192SOL    HW216476   0.626   4.536   3.318
 5193SOL     OW16477   4.164   0.741   5.007
 5193SOL    HW116478   4.150   0.646   4.980
 5193SOL    HW216479   4.123   0.802   4.939
 5194SOL     OW16480   4.212   1.667   5.091
 5194SOL    HW116481   4.159   1.683   5.174
 5194SOL    HW216482   4.167   1.712   5.014
 5195SOL     OW16483   1.389   0.964   6.006
 5195SOL    HW116484   1.359   1.018   6.084
 5195SOL    HW216485   1.459   0.898   6.035
 5196SOL     OW16486   5.667   6.617   3.240
 5196SOL    HW116487   5.618   6.551   3.297
 5196SOL    HW216488   5.654   6.595   3.144
 5197SOL     OW16489   1.672   3.518   4.854
 5197SOL    HW116490   1.643   3.590   4.790
 5197SOL    HW216491   1.731   3.453   4.805
 5198SOL     OW16492   6.040   5.384   3.463
 5198SOL    HW116493   5.968   5.399   3.530
 5198SOL    HW216494   6.007   5.408   3.372
 5199SOL     OW16495   0.288   4.861   1.270
 5199SOL    HW116496   0.369   4.877   1.214
 5199SOL    HW216497   0.270   4.941   1.327
 5200SOL     OW16498   6.349   3.805   5.224
 5200SOL    HW116499   6.347   3.796   5.124
 5200SOL    HW216500   6.436   3.846   5.251
 5201SOL     OW16501   1.237   6.269   4.579
 5201SOL    HW116502   1.306   6.207   4.541
 5201SOL    HW216503   1.156   6.267   4.521
 5202SOL     OW16504   6.716   4.637   1.414
 5202SOL    HW116505   6.636   4.691   1.441
 5202SOL    HW216506   6.747   4.666   1.324
 5203SOL     OW16507   6.207   2.945   6.869
 5203SOL    HW116508   6.144   2.923   6.794
 5203SOL    HW216509   6.264   3.022   6.842
 5204SOL     OW16510   5.386   5.339   6.181
 5204SOL    HW116511   5.395   5.311   6.276
 5204SOL    HW216512   5.338   5.268   6.129
 5205SOL     OW16513   2.837   6.302   0.199
 5205SOL    HW116514   2.830   6.365   0.276
 5205SOL    HW216515   2.892   6.345   0.127
 5206SOL     OW16516   0.135   4.729   4.771
 5206SOL    HW116517   0.151   4.739   4.869
 5206SOL    HW216518   0.222   4.731   4.722
 5207SOL     OW16519   1.305   4.682   2.587
 5207SOL    HW116520   1.234   4.723   2.645
 5207SOL    HW216521   1.286   4.702   2.491
 5208SOL     OW16522   5.088   1.592   0.452
 5208SOL    HW116523   5.166   1.547   0.496
 5208SOL    HW216524   5.013   1.599   0.517
 5209SOL     OW16525   5.618   5.267   3.097
 5209SOL    HW116526   5.709   5.288   3.062
 5209SOL    HW216527   5.605   5.312   3.186
 5210SOL     OW16528   4.868   3.741   2.812
 5210SOL    HW116529   4.798   3.695   2.867
 5210SOL    HW216530   4.872   3.838   2.838
 5211SOL     OW16531   3.015   3.851   2.204
 5211SOL    HW116532   3.092   3.914   2.198
 5211SOL    HW216533   3.015   3.807   2.294
 5212SOL     OW16534   0.755   6.875   6.495
 5212SOL    HW116535   0.806   6.835   6.571
 5212SOL    HW216536   0.820   6.913   6.428
 5213SOL     OW16537   4.300   2.222   6.131
 5213SOL    HW116538   4.203   2.202   6.147
 5213SOL    HW216539   4.323   2.309   6.174
 5214SOL     OW16540   4.210   2.104   0.106
 5214SOL    HW116541   4.133   2.155   0.067
 5214SOL    HW216542   4.288   2.165   0.119
 5215SOL     OW16543   5.851   5.134   3.595
 5215SOL    HW116544   5.866   5.128   3.496
 5215SOL    HW216545   5.802   5.218   3.616
 5216SOL     OW16546   4.332   5.711   1.604
 5216SOL    HW116547   4.277   5.662   1.537
 5216SOL    HW216548   4.384   5.645   1.658
 5217SOL     OW16549   2.895   4.897   3.396
 5217SOL    HW116550   2.931   4.989   3.409
 5217SOL    HW216551   2.884   4.853   3.485
 5218SOL     OW16552   1.860   0.222   4.228
 5218SOL    HW116553   1.872   0.276   4.145
 5218SOL    HW216554   1.897   0.130   4.213
 5219SOL     OW16555   2.707   0.478   1.126
 5219SOL    HW116556   2.767   0.398   1.114
 5219SOL    HW216557   2.652   0.490   1.043
 5220SOL     OW16558   1.184   6.568   2.062
 5220SOL    HW116559   1.159   6.651   2.112
 5220SOL    HW216560   1.158   6.578   1.966
 5221SOL     OW16561   4.285   1.016   0.026
 5221SOL    HW116562   4.271   1.102   0.075
 5221SOL    HW216563   4.207   0.998   6.985
 5222SOL     OW16564   0.759   6.393   2.617
 5222SOL    HW116565   0.791   6.354   2.703
 5222SOL    HW216566   0.661   6.374   2.606
 5223SOL     OW16567   4.536   6.583   0.977
 5223SOL    HW116568   4.447   6.561   1.017
 5223SOL    HW216569   4.547   6.536   0.890
 5224SOL     OW16570   5.661   1.238   3.566
 5224SOL    HW116571   5.694   1.321   3.522
 5224SOL    HW216572   5.690   1.159   3.512
 5225SOL     OW16573   0.074   6.908   5.639
 5225SOL    HW116574   0.135   6.979   5.603
 5225SOL    HW216575   0.024   6.944   5.718
 5226SOL     OW16576   2.640   6.989   4.076
 5226SOL    HW116577   2.626   0.020   3.990
 5226SOL    HW216578   2.582   0.009   4.147
 5227SOL     OW16579   5.041   3.791   4.089
 5227SOL    HW116580   4.971   3.857   4.119
 5227SOL    HW216581   5.106   3.837   4.029
 5228SOL     OW16582   5.389   0.945   1.467
 5228SOL    HW116583   5.320   0.981   1.405
 5228SOL    HW216584   5.346   0.919   1.553
 5229SOL     OW16585   1.216   4.438   3.457
 5229SOL    HW116586   1.300   4.418   3.508
 5229SOL    HW216587   1.234   4.510   3.390
 5230SOL     OW16588   1.494   0.896   6.272
 5230SOL    HW116589   1.460   0.859   6.359
 5230SOL    HW216590   1.477   0.830   6.199
 5231SOL     OW16591   3.055   3.243   3.428
 5231SOL    HW116592   2.977   3.269   3.371
 5231SOL    HW216593   3.113   3.324   3.444
 5232SOL     OW16594   5.412   2.893   4.909
 5232SOL    HW116595   5.347   2.836   4.960
 5232SOL    HW216596   5.457   2.839   4.838
 5233SOL     OW16597   1.090   7.015   3.160
 5233SOL    HW116598   1.045   0.010   3.072
 5233SOL    HW216599   1.040   0.044   3.232
 5234SOL     OW16600   3.942   5.156   1.516
 5234SOL    HW116601   3.964   5.075   1.462
 5234SOL    HW216602   3.999   5.158   1.597
 5235SOL     OW16603   0.997   3.322   1.492
 5235SOL    HW116604   0.931   3.349   1.422
 5235SOL    HW216605   1.071   3.270   1.450
 5236SOL     OW16606   6.300   3.478   0.225
 5236SOL    HW116607   6.357   3.432   0.294
 5236SOL    HW216608   6.295   3.421   0.143
 5237SOL     OW16609   2.091   1.420   3.174
 5237SOL    HW116610   2.078   1.495   3.109
 5237SOL    HW216611   2.063   1.451   3.265
 5238SOL     OW16612   2.008   3.518   1.013
 5238SOL    HW116613   1.947   3.577   1.065
 5238SOL    HW216614   2.057   3.573   0.945
 5239SOL     OW16615   3.017   3.274   4.794
 5239SOL    HW116616   3.088   3.233   4.736
 5239SOL    HW216617   2.988   3.360   4.753
 5240SOL     OW16618   3.426   2.116   4.674
 5240SOL    HW116619   3.431   2.165   4.761
 5240SOL    HW216620   3.330   2.099   4.652
 5241SOL     OW16621   2.704   5.584   5.408
 5241SOL    HW116622   2.730   5.615   5.500
 5241SOL    HW216623   2.635   5.512   5.416
 5242SOL     OW16624   4.571   0.155   5.431
 5242SOL    HW116625   4.604   0.239   5.389
 5242SOL    HW216626   4.647   0.106   5.473
 5243SOL     OW16627   0.567   4.216   0.495
 5243SOL    HW116628   0.591   4.309   0.523
 5243SOL    HW216629   0.640   4.178   0.437
 5244SOL     OW16630   5.744   3.398   6.716
 5244SOL    HW116631   5.716   3.356   6.802
 5244SOL    HW216632   5.666   3.400   6.653
 5245SOL     OW16633   4.739   4.951   6.279
 5245SOL    HW116634   4.735   4.852   6.268
 5245SOL    HW216635   4.813   4.974   6.342
 5246SOL     OW16636   1.366   3.949   3.113
 5246SOL    HW116637   1.313   3.879   3.065
 5246SOL    HW216638   1.306   3.998   3.176
 5247SOL     OW16639   0.064   4.751   0.220
 5247SOL    HW116640   0.047   4.690   0.297
 5247SOL    HW216641   0.051   4.846   0.248
 5248SOL     OW16642   5.113   1.239   0.396
 5248SOL    HW116643   5.082   1.193   0.312
 5248SOL    HW216644   5.204   1.278   0.381
 5249SOL     OW16645   1.471   5.819   6.850
 5249SOL    HW116646   1.528   5.835   6.931
 5249SOL    HW216647   1.527   5.826   6.768
 5250SOL     OW16648   1.058   1.510   5.808
 5250SOL    HW116649   0.992   1.464   5.749
 5250SOL    HW216650   1.091   1.593   5.763
 5251SOL     OW16651   0.510   2.956   0.831
 5251SOL    HW116652   0.535   3.020   0.758
 5251SOL    HW216653   0.593   2.920   0.874
 5252SOL     OW16654   5.192   6.792   1.083
 5252SOL    HW116655   5.151   6.858   1.145
 5252SOL    HW216656   5.138   6.707   1.085
 5253SOL     OW16657   5.861   2.964   3.808
 5253SOL    HW116658   5.785   3.027   3.819
 5253SOL    HW216659   5.868   2.905   3.889
 5254SOL     OW16660   5.374   0.540   4.501
 5254SOL    HW116661   5.360   0.441   4.501
 5254SOL    HW216662   5.285   0.586   4.500
 5255SOL     OW16663   2.581   5.800   4.068
 5255SOL    HW116664   2.519   5.727   4.037
 5255SOL    HW216665   2.652   5.814   4.000
 5256SOL     OW16666   4.845   6.608   1.856
 5256SOL    HW116667   4.800   6.678   1.912
 5256SOL    HW216668   4.841   6.520   1.905
 5257SOL     OW16669   3.067   1.596   3.226
 5257SOL    HW116670   3.003   1.522   3.244
 5257SOL    HW216671   3.100   1.633   3.313
 5258SOL     OW16672   6.005   1.972   2.024
 5258SOL    HW116673   5.930   2.001   2.085
 5258SOL    HW216674   6.086   1.954   2.079
 5259SOL     OW16675   5.612   4.466   1.555
 5259SOL    HW116676   5.667   4.452   1.473
 5259SOL    HW216677   5.530   4.408   1.550
 5260SOL     OW16678   4.925   2.742   1.643
 5260SOL    HW116679   4.929   2.662   1.703
 5260SOL    HW216680   4.951   2.823   1.695
 5261SOL     OW16681   2.636   2.438   4.946
 5261SOL    HW116682   2.676   2.454   4.856
 5261SOL    HW216683   2.607   2.525   4.985
 5262SOL     OW16684   1.464   0.339   1.656
 5262SOL    HW116685   1.477   0.409   1.586
 5262SOL    HW216686   1.551   0.293   1.674
 5263SOL     OW16687   1.237   6.728   6.759
 5263SOL    HW116688   1.196   6.645   6.721
 5263SOL    HW216689   1.247   6.719   6.858
 5264SOL     OW16690   0.923   1.638   0.966
 5264SOL    HW116691   0.991   1.701   1.001
 5264SOL    HW216692   0.890   1.580   1.040
 5265SOL     OW16693   5.303   4.853   3.678
 5265SOL    HW116694   5.329   4.757   3.664
 5265SOL    HW216695   5.372   4.898   3.736
 5266SOL     OW16696   1.861   0.079   1.309
 5266SOL    HW116697   1.939   0.083   1.371
 5266SOL    HW216698   1.880   0.136   1.229
 5267SOL     OW16699   4.279   3.808   5.333
 5267SOL    HW116700   4.377   3.793   5.319
 5267SOL    HW216701   4.230   3.723   5.313
 5268SOL     OW16702   5.338   5.013   5.725
 5268SOL    HW116703   5.301   5.074   5.655
 5268SOL    HW216704   5.358   4.924   5.683
 5269SOL     OW16705   1.905   4.756   6.036
 5269SOL    HW116706   1.905   4.699   6.118
 5269SOL    HW216707   1.906   4.698   5.955
 5270SOL     OW16708   6.870   2.597   3.531
 5270SOL    HW116709   6.830   2.605   3.439
 5270SOL    HW216710   6.918   2.509   3.540
 5271SOL     OW16711   5.435   3.867   5.738
 5271SOL    HW116712   5.389   3.794   5.790
 5271SOL    HW216713   5.528   3.837   5.714
 5272SOL     OW16714   2.103   1.289   3.604
 5272SOL    HW116715   2.147   1.200   3.591
 5272SOL    HW216716   2.124   1.323   3.695
 5273SOL     OW16717   6.762   0.372   5.260
 5273SOL    HW116718   6.847   0.322   5.275
 5273SOL    HW216719   6.767   0.461   5.306
 5274SOL     OW16720   0.628   5.676   4.783
 5274SOL    HW116721   0.571   5.625   4.718
 5274SOL    HW216722   0.570   5.739   4.835
 5275SOL     OW16723   2.077   6.589   6.643
 5275SOL    HW116724   2.034   6.670   6.682
 5275SOL    HW216725   2.048   6.578   6.548
 5276SOL     OW16726   0.424   6.941   0.489
 5276SOL    HW116727   0.458   6.882   0.563
 5276SOL    HW216728   0.351   7.000   0.524
 5277SOL     OW16729   0.404   0.864   2.277
 5277SOL    HW116730   0.316   0.905   2.254
 5277SOL    HW216731   0.405   0.837   2.373
 5278SOL     OW16732   0.702   3.706   5.826
 5278SOL    HW116733   0.625   3.760   5.860
 5278SOL    HW216734   0.785   3.761   5.827
 5279SOL     OW16735   3.100   6.817   6.888
 5279SOL    HW116736   3.194   6.851   6.896
 5279SOL    HW216737   3.053   6.864   6.814
 5280SOL     OW16738   4.524   6.705   5.090
 5280SOL    HW116739   4.505   6.689   5.187
 5280SOL    HW216740   4.596   6.642   5.060
 5281SOL     OW16741   2.916   6.745   4.979
 5281SOL    HW116742   2.830   6.795   4.984
 5281SOL    HW216743   2.990   6.803   5.012
 5282SOL     OW16744   0.432   6.504   0.439
 5282SOL    HW116745   0.363   6.516   0.510
 5282SOL    HW216746   0.523   6.519   0.479
 5283SOL     OW16747   1.326   1.067   3.866
 5283SOL    HW116748   1.375   1.118   3.796
 5283SOL    HW216749   1.387   1.048   3.943
 5284SOL     OW16750   4.890   3.191   2.084
 5284SOL    HW116751   4.977   3.159   2.047
 5284SOL    HW216752   4.816   3.137   2.044
 5285SOL     OW16753   1.437   2.282   4.137
 5285SOL    HW116754   1.431   2.185   4.160
 5285SOL    HW216755   1.370   2.333   4.192
 5286SOL     OW16756   6.493   2.857   1.233
 5286SOL    HW116757   6.540   2.937   1.196
 5286SOL    HW216758   6.412   2.837   1.178
 5287SOL     OW16759   1.055   5.379   2.036
 5287SOL    HW116760   1.015   5.318   1.968
 5287SOL    HW216761   1.046   5.474   2.006
 5288SOL     OW16762   4.257   0.641   1.592
 5288SOL    HW116763   4.246   0.668   1.496
 5288SOL    HW216764   4.168   0.634   1.635
 5289SOL     OW16765   2.734   4.630   5.824
 5289SOL    HW116766   2.790   4.612   5.904
 5289SOL    HW216767   2.649   4.578   5.830
 5290SOL     OW16768   1.827   3.001   4.688
 5290SOL    HW116769   1.911   2.981   4.638
 5290SOL    HW216770   1.830   3.096   4.720
 5291SOL     OW16771   3.027   4.858   4.583
 5291SOL    HW116772   3.040   4.867   4.681
 5291SOL    HW216773   2.937   4.817   4.565
 5292SOL     OW16774   0.364   4.175   4.911
 5292SOL    HW116775   0.379   4.257   4.855
 5292SOL    HW216776   0.282   4.127   4.879
 5293SOL     OW16777   2.581   0.597   4.388
 5293SOL    HW116778   2.501   0.593   4.328
 5293SOL    HW216779   2.552   0.623   4.480
 5294SOL     OW16780   5.037   6.574   4.719
 5294SOL    HW116781   5.133   6.582   4.744
 5294SOL    HW216782   4.990   6.660   4.735
 5295SOL     OW16783   2.105   0.817   1.878
 5295SOL    HW116784   2.059   0.903   1.899
 5295SOL    HW216785   2.061   0.742   1.928
 5296SOL     OW16786   4.744   4.591   2.071
 5296SOL    HW116787   4.823   4.588   2.011
 5296SOL    HW216788   4.712   4.686   2.080
 5297SOL     OW16789   2.749   5.497   6.324
 5297SOL    HW116790   2.847   5.498   6.303
 5297SOL    HW216791   2.733   5.547   6.409
 5298SOL     OW16792   2.351   2.231   0.495
 5298SOL    HW116793   2.257   2.222   0.464
 5298SOL    HW216794   2.401   2.147   0.473
 5299SOL     OW16795   2.470   0.809   1.605
 5299SOL    HW116796   2.537   0.743   1.572
 5299SOL    HW216797   2.492   0.900   1.569
 5300SOL     OW16798   3.337   5.010   6.710
 5300SOL    HW116799   3.321   5.106   6.684
 5300SOL    HW216800   3.249   4.967   6.730
 5301SOL     OW16801   5.548   0.095   5.976
 5301SOL    HW116802   5.526   0.187   5.945
 5301SOL    HW216803   5.522   0.085   6.072
 5302SOL     OW16804   4.868   5.820   2.799
 5302SOL    HW116805   4.962   5.786   2.789
 5302SOL    HW216806   4.852   5.845   2.894
 5303SOL     OW16807   1.315   5.672   5.413
 5303SOL    HW116808   1.408   5.638   5.394
 5303SOL    HW216809   1.251   5.595   5.412
 5304SOL     OW16810   0.502   0.797   3.168
 5304SOL    HW116811   0.601   0.791   3.178
 5304SOL    HW216812   0.471   0.727   3.103
 5305SOL     OW16813   6.982   5.528   4.687
 5305SOL    HW116814   0.056   5.526   4.648
 5305SOL    HW216815   6.982   5.480   4.774
 5306SOL     OW16816   0.913   2.035   5.811
 5306SOL    HW116817   0.903   2.132   5.833
 5306SOL    HW216818   0.922   1.982   5.896
 5307SOL     OW16819   0.140   1.375   1.382
 5307SOL    HW116820   0.096   1.291   1.352
 5307SOL    HW216821   0.129   1.385   1.481
 5308SOL     OW16822   1.577   4.283   2.438
 5308SOL    HW116823   1.625   4.215   2.494
 5308SOL    HW216824   1.512   4.333   2.495
 5309SOL     OW16825   5.803   5.642   3.435
 5309SOL    HW116826   5.849   5.692   3.508
 5309SOL    HW216827   5.708   5.670   3.430
 5310SOL     OW16828   6.338   2.590   3.505
 5310SOL    HW116829   6.421   2.645   3.500
 5310SOL    HW216830   6.295   2.603   3.595
 5311SOL     OW16831   6.190   0.293   0.044
 5311SOL    HW116832   6.191   0.384   0.000
 5311SOL    HW216833   6.198   0.304   0.143
 5312SOL     OW16834   6.140   6.140   0.218
 5312SOL    HW116835   6.128   6.224   0.270
 5312SOL    HW216836   6.127   6.061   0.278
 5313SOL     OW16837   0.913   0.059   5.763
 5313SOL    HW116838   0.969   0.089   5.685
 5313SOL    HW216839   0.892   6.981   5.754
 5314SOL     OW16840   5.924   1.577   2.113
 5314SOL    HW116841   5.868   1.658   2.129
 5314SOL    HW216842   6.002   1.602   2.054
 5315SOL     OW16843   4.581   2.287   3.703
 5315SOL    HW116844   4.513   2.214   3.704
 5315SOL    HW216845   4.601   2.315   3.797
 5316SOL     OW16846   0.433   2.376   4.618
 5316SOL    HW116847   0.391   2.350   4.531
 5316SOL    HW216848   0.377   2.341   4.693
 5317SOL     OW16849   5.571   2.636   6.668
 5317SOL    HW116850   5.658   2.593   6.642
 5317SOL    HW216851   5.497   2.570   6.656
 5318SOL     OW16852   0.076   3.785   6.232
 5318SOL    HW116853   0.102   3.817   6.141
 5318SOL    HW216854   7.001   3.812   6.250
 5319SOL     OW16855   3.694   5.706   2.308
 5319SOL    HW116856   3.689   5.801   2.276
 5319SOL    HW216857   3.634   5.695   2.387
 5320SOL     OW16858   4.163   5.808   1.178
 5320SOL    HW116859   4.131   5.770   1.091
 5320SOL    HW216860   4.171   5.734   1.245
 5321SOL     OW16861   1.448   4.577   5.550
 5321SOL    HW116862   1.509   4.563   5.473
 5321SOL    HW216863   1.501   4.585   5.634
 5322SOL     OW16864   3.938   6.830   2.161
 5322SOL    HW116865   3.986   6.776   2.231
 5322SOL    HW216866   3.861   6.777   2.125
 5323SOL     OW16867   4.143   0.383   6.303
 5323SOL    HW116868   4.047   0.372   6.329
 5323SOL    HW216869   4.150   0.391   6.203
 5324SOL     OW16870   1.707   2.325   1.414
 5324SOL    HW116871   1.610   2.307   1.433
 5324SOL    HW216872   1.760   2.309   1.497
 5325SOL     OW16873   2.013   2.680   4.921
 5325SOL    HW116874   1.943   2.631   4.868
 5325SOL    HW216875   2.084   2.615   4.949
 5326SOL     OW16876   6.301   0.176   1.270
 5326SOL    HW116877   6.287   0.253   1.332
 5326SOL    HW216878   6.237   0.183   1.193
 5327SOL     OW16879   0.133   2.448   5.635
 5327SOL    HW116880   0.068   2.377   5.607
 5327SOL    HW216881   0.185   2.478   5.556
 5328SOL     OW16882   4.909   5.646   0.258
 5328SOL    HW116883   4.842   5.661   0.185
 5328SOL    HW216884   4.964   5.566   0.237
 5329SOL     OW16885   2.168   6.805   6.171
 5329SOL    HW116886   2.174   6.893   6.217
 5329SOL    HW216887   2.091   6.806   6.106
 5330SOL     OW16888   2.453   4.908   1.469
 5330SOL    HW116889   2.438   4.843   1.544
 5330SOL    HW216890   2.531   4.967   1.492
 5331SOL     OW16891   6.466   0.967   6.433
 5331SOL    HW116892   6.414   1.017   6.502
 5331SOL    HW216893   6.561   0.958   6.463
 5332SOL     OW16894   0.071   5.263   1.861
 5332SOL    HW116895   0.047   5.338   1.923
 5332SOL    HW216896   0.162   5.229   1.883
 5333SOL     OW16897   1.089   5.911   4.620
 5333SOL    HW116898   1.110   5.899   4.717
 5333SOL    HW216899   1.170   5.947   4.573
 5334SOL     OW16900   3.853   0.306   4.770
 5334SOL    HW116901   3.872   0.364   4.691
 5334SOL    HW216902   3.766   0.333   4.812
 5335SOL     OW16903   0.435   5.530   7.007
 5335SOL    HW116904   0.448   5.629   7.005
 5335SOL    HW216905   0.337   5.509   6.997
 5336SOL     OW16906   1.102   4.562   1.271
 5336SOL    HW116907   1.103   4.504   1.190
 5336SOL    HW216908   1.195   4.583   1.299
 5337SOL     OW16909   5.212   3.951   1.511
 5337SOL    HW116910   5.250   3.879   1.570
 5337SOL    HW216911   5.142   4.002   1.560
 5338SOL     OW16912   5.979   1.928   0.265
 5338SOL    HW116913   5.978   2.021   0.226
 5338SOL    HW216914   5.921   1.869   0.209
 5339SOL     OW16915   6.590   0.357   1.809
 5339SOL    HW116916   6.687   0.372   1.828
 5339SOL    HW216917   6.578   0.271   1.759
 5340SOL     OW16918   5.677   2.144   6.056
 5340SOL    HW116919   5.618   2.181   6.128
 5340SOL    HW216920   5.698   2.215   5.990
 5341SOL     OW16921   4.323   0.678   0.584
 5341SOL    HW116922   4.307   0.730   0.500
 5341SOL    HW216923   4.380   0.731   0.646
 5342SOL     OW16924   2.371   1.078   6.244
 5342SOL    HW116925   2.461   1.039   6.224
 5342SOL    HW216926   2.381   1.175   6.268
 5343SOL     OW16927   3.965   3.881   2.110
 5343SOL    HW116928   3.994   3.837   2.195
 5343SOL    HW216929   3.878   3.926   2.124
 5344SOL     OW16930   2.238   2.495   2.518
 5344SOL    HW116931   2.222   2.505   2.616
 5344SOL    HW216932   2.337   2.499   2.500
 5345SOL     OW16933   5.099   0.298   2.671
 5345SOL    HW116934   5.132   0.377   2.722
 5345SOL    HW216935   5.008   0.272   2.705
 5346SOL     OW16936   2.621   6.540   3.442
 5346SOL    HW116937   2.616   6.461   3.503
 5346SOL    HW216938   2.620   6.509   3.347
 5347SOL     OW16939   7.011   1.663   1.881
 5347SOL    HW116940   0.049   1.702   1.809
 5347SOL    HW216941   6.919   1.646   1.846
 5348SOL     OW16942   0.075   0.795   0.553
 5348SOL    HW116943   7.000   0.810   0.582
 5348SOL    HW216944   0.125   0.746   0.625
 5349SOL     OW16945   6.115   0.169   1.064
 5349SOL    HW116946   6.044   0.146   1.131
 5349SOL    HW216947   6.117   0.268   1.050
 5350SOL     OW16948   2.652   0.453   0.147
 5350SOL    HW116949   2.677   0.445   0.051
 5350SOL    HW216950   2.628   0.548   0.168
 5351SOL     OW16951   4.013   0.589   1.689
 5351SOL    HW116952   3.929   0.599   1.635
 5351SOL    HW216953   4.002   0.634   1.778
 5352SOL     OW16954   3.268   6.108   3.365
 5352SOL    HW116955   3.234   6.151   3.282
 5352SOL    HW216956   3.295   6.013   3.345
 5353SOL     OW16957   5.727   0.346   5.710
 5353SOL    HW116958   5.771   0.328   5.798
 5353SOL    HW216959   5.670   0.268   5.685
 5354SOL     OW16960   1.206   3.616   1.364
 5354SOL    HW116961   1.304   3.602   1.380
 5354SOL    HW216962   1.159   3.629   1.451
 5355SOL     OW16963   4.003   1.739   5.293
 5355SOL    HW116964   3.971   1.832   5.275
 5355SOL    HW216965   3.967   1.708   5.381
 5356SOL     OW16966   5.751   3.266   0.425
 5356SOL    HW116967   5.742   3.177   0.379
 5356SOL    HW216968   5.845   3.277   0.457
 5357SOL     OW16969   3.861   6.228   0.581
 5357SOL    HW116970   3.885   6.182   0.667
 5357SOL    HW216971   3.762   6.247   0.581
 5358SOL     OW16972   5.126   3.658   1.694
 5358SOL    HW116973   5.110   3.613   1.782
 5358SOL    HW216974   5.201   3.723   1.703
 5359SOL     OW16975   2.949   0.099   7.005
 5359SOL    HW116976   2.910   0.008   0.003
 5359SOL    HW216977   3.040   0.104   0.028
 5360SOL     OW16978   4.062   0.372   6.995
 5360SOL    HW116979   4.056   0.471   7.003
 5360SOL    HW216980   4.026   0.329   0.058
 5361SOL     OW16981   1.538   0.688   6.025
 5361SOL    HW116982   1.543   0.621   6.099
 5361SOL    HW216983   1.474   0.657   5.955
 5362SOL     OW16984   3.578   5.341   3.607
 5362SOL    HW116985   3.524   5.269   3.651
 5362SOL    HW216986   3.570   5.425   3.659
 5363SOL     OW16987   0.588   5.272   4.912
 5363SOL    HW116988   0.508   5.332   4.917
 5363SOL    HW216989   0.562   5.179   4.938
 5364SOL     OW16990   1.104   6.276   6.506
 5364SOL    HW116991   1.010   6.265   6.473
 5364SOL    HW216992   1.140   6.188   6.536
 5365SOL     OW16993   3.640   1.680   6.068
 5365SOL    HW116994   3.574   1.655   6.138
 5365SOL    HW216995   3.689   1.762   6.096
 5366SOL     OW16996   3.263   4.447   6.547
 5366SOL    HW116997   3.349   4.494   6.566
 5366SOL    HW216998   3.201   4.508   6.499
 5367SOL     OW16999   0.333   4.797   0.747
 5367SOL    HW117000   0.299   4.854   0.672
 5367SOL    HW217001   0.422   4.758   0.722
 5368SOL     OW17002   6.896   0.812   3.927
 5368SOL    HW117003   6.952   0.758   3.865
 5368SOL    HW217004   6.800   0.807   3.898
 5369SOL     OW17005   1.867   3.595   2.485
 5369SOL    HW117006   1.931   3.545   2.543
 5369SOL    HW217007   1.909   3.682   2.456
 5370SOL     OW17008   3.980   2.811   1.245
 5370SOL    HW117009   4.073   2.782   1.222
 5370SOL    HW217010   3.984   2.882   1.315
 5371SOL     OW17011   1.624   4.085   5.038
 5371SOL    HW117012   1.573   4.065   4.955
 5371SOL    HW217013   1.707   4.029   5.040
 5372SOL     OW17014   2.538   6.024   3.245
 5372SOL    HW117015   2.527   6.089   3.170
 5372SOL    HW217016   2.627   5.979   3.237
 5373SOL     OW17017   1.967   4.896   4.372
 5373SOL    HW117018   1.987   4.992   4.395
 5373SOL    HW217019   2.051   4.842   4.379
 5374SOL     OW17020   2.955   2.617   0.552
 5374SOL    HW117021   2.887   2.602   0.624
 5374SOL    HW217022   2.973   2.531   0.505
 5375SOL     OW17023   1.196   3.682   4.871
 5375SOL    HW117024   1.275   3.739   4.846
 5375SOL    HW217025   1.144   3.728   4.943
 5376SOL     OW17026   2.930   4.062   6.866
 5376SOL    HW117027   2.904   3.995   6.795
 5376SOL    HW217028   2.981   4.137   6.824
 5377SOL     OW17029   0.770   1.616   1.623
 5377SOL    HW117030   0.862   1.582   1.643
 5377SOL    HW217031   0.704   1.575   1.685
 5378SOL     OW17032   5.296   6.826   0.366
 5378SOL    HW117033   5.322   6.914   0.325
 5378SOL    HW217034   5.198   6.824   0.382
 5379SOL     OW17035   0.024   6.651   0.799
 5379SOL    HW117036   7.007   6.591   0.870
 5379SOL    HW217037   0.065   6.732   0.842
 5380SOL     OW17038   2.609   1.103   4.098
 5380SOL    HW117039   2.606   1.023   4.159
 5380SOL    HW217040   2.520   1.149   4.100
 5381SOL     OW17041   5.728   3.788   1.296
 5381SOL    HW117042   5.753   3.788   1.393
 5381SOL    HW217043   5.767   3.708   1.252
 5382SOL     OW17044   1.705   0.137   1.597
 5382SOL    HW117045   1.766   0.133   1.675
 5382SOL    HW217046   1.719   0.057   1.539
 5383SOL     OW17047   2.064   2.352   4.752
 5383SOL    HW117048   2.058   2.298   4.836
 5383SOL    HW217049   2.151   2.401   4.751
 5384SOL     OW17050   5.479   6.538   4.419
 5384SOL    HW117051   5.443   6.453   4.457
 5384SOL    HW217052   5.556   6.569   4.475
 5385SOL     OW17053   3.189   4.085   2.951
 5385SOL    HW117054   3.277   4.130   2.967
 5385SOL    HW217055   3.144   4.068   3.038
 5386SOL     OW17056   5.598   0.126   5.588
 5386SOL    HW117057   5.672   0.061   5.572
 5386SOL    HW217058   5.534   0.088   5.655
 5387SOL     OW17059   3.376   5.097   1.339
 5387SOL    HW117060   3.337   5.178   1.297
 5387SOL    HW217061   3.417   5.038   1.269
 5388SOL     OW17062   6.187   6.216   3.005
 5388SOL    HW117063   6.234   6.193   2.920
 5388SOL    HW217064   6.113   6.281   2.985
 5389SOL     OW17065   5.463   2.451   1.210
 5389SOL    HW117066   5.537   2.470   1.145
 5389SOL    HW217067   5.376   2.457   1.162
 5390SOL     OW17068   6.204   4.660   5.961
 5390SOL    HW117069   6.250   4.628   6.044
 5390SOL    HW217070   6.105   4.666   5.978
 5391SOL     OW17071   3.240   3.212   6.931
 5391SOL    HW117072   3.247   3.122   6.888
 5391SOL    HW217073   3.308   3.219   7.004
 5392SOL     OW17074   6.490   2.644   2.699
 5392SOL    HW117075   6.438   2.700   2.763
 5392SOL    HW217076   6.483   2.683   2.607
 5393SOL     OW17077   6.407   6.444   6.245
 5393SOL    HW117078   6.402   6.478   6.338
 5393SOL    HW217079   6.325   6.390   6.225
 5394SOL     OW17080   2.164   3.844   5.567
 5394SOL    HW117081   2.233   3.837   5.495
 5394SOL    HW217082   2.076   3.811   5.532
 5395SOL     OW17083   4.562   0.748   0.990
 5395SOL    HW117084   4.661   0.747   0.999
 5395SOL    HW217085   4.523   0.665   1.030
 5396SOL     OW17086   4.556   2.530   1.994
 5396SOL    HW117087   4.623   2.587   1.946
 5396SOL    HW217088   4.565   2.543   2.093
 5397SOL     OW17089   0.847   2.589   1.706
 5397SOL    HW117090   0.854   2.675   1.655
 5397SOL    HW217091   0.936   2.543   1.707
 5398SOL     OW17092   3.390   3.146   2.098
 5398SOL    HW117093   3.341   3.075   2.150
 5398SOL    HW217094   3.391   3.121   2.001
 5399SOL     OW17095   0.670   5.286   6.841
 5399SOL    HW117096   0.761   5.322   6.862
 5399SOL    HW217097   0.616   5.282   6.925
 5400SOL     OW17098   2.369   3.538   6.927
 5400SOL    HW117099   2.425   3.481   6.867
 5400SOL    HW217100   2.273   3.514   6.917
 5401SOL     OW17101   6.429   1.971   1.074
 5401SOL    HW117102   6.409   2.068   1.065
 5401SOL    HW217103   6.361   1.918   1.023
 5402SOL     OW17104   1.259   5.887   2.725
 5402SOL    HW117105   1.217   5.952   2.661
 5402SOL    HW217106   1.297   5.936   2.803
 5403SOL     OW17107   6.157   3.348   6.611
 5403SOL    HW117108   6.217   3.335   6.532
 5403SOL    HW217109   6.070   3.386   6.581
 5404SOL     OW17110   1.353   3.052   3.067
 5404SOL    HW117111   1.364   2.991   3.146
 5404SOL    HW217112   1.277   3.020   3.010
 5405SOL     OW17113   0.004   3.861   5.244
 5405SOL    HW117114   6.928   3.831   5.244
 5405SOL    HW217115   0.063   3.785   5.270
 5406SOL     OW17116   1.552   0.431   4.250
 5406SOL    HW117117   1.598   0.381   4.323
 5406SOL    HW217118   1.615   0.499   4.211
 5407SOL     OW17119   4.235   3.386   6.668
 5407SOL    HW117120   4.170   3.393   6.744
 5407SOL    HW217121   4.271   3.293   6.664
 5408SOL     OW17122   3.567   1.086   0.056
 5408SOL    HW117123   3.610   1.040   0.133
 5408SOL    HW217124   3.626   1.080   6.995
 5409SOL     OW17125   4.577   0.553   2.570
 5409SOL    HW117126   4.630   0.600   2.500
 5409SOL    HW217127   4.488   0.525   2.533
 5410SOL     OW17128   1.613   2.336   3.344
 5410SOL    HW117129   1.590   2.250   3.389
 5410SOL    HW217130   1.678   2.319   3.270
 5411SOL     OW17131   1.800   4.810   4.793
 5411SOL    HW117132   1.895   4.836   4.777
 5411SOL    HW217133   1.739   4.883   4.761
 5412SOL     OW17134   6.469   2.216   2.212
 5412SOL    HW117135   6.456   2.173   2.301
 5412SOL    HW217136   6.566   2.230   2.194
 5413SOL     OW17137   2.121   6.754   2.684
 5413SOL    HW117138   2.027   6.747   2.718
 5413SOL    HW217139   2.119   6.783   2.589
 5414SOL     OW17140   4.338   0.867   5.194
 5414SOL    HW117141   4.281   0.846   5.273
 5414SOL    HW217142   4.293   0.834   5.111
 5415SOL     OW17143   6.271   3.909   2.515
 5415SOL    HW117144   6.203   3.869   2.576
 5415SOL    HW217145   6.359   3.864   2.530
 5416SOL     OW17146   4.220   5.488   4.327
 5416SOL    HW117147   4.223   5.476   4.228
 5416SOL    HW217148   4.189   5.404   4.370
 5417SOL     OW17149   3.060   6.906   5.953
 5417SOL    HW117150   2.963   6.906   5.976
 5417SOL    HW217151   3.072   6.938   5.859
 5418SOL     OW17152   3.865   0.842   3.521
 5418SOL    HW117153   3.940   0.775   3.516
 5418SOL    HW217154   3.863   0.883   3.613
 5419SOL     OW17155   3.487   4.266   0.033
 5419SOL    HW117156   3.585   4.254   0.016
 5419SOL    HW217157   3.443   4.176   0.039
 5420SOL     OW17158   0.775   2.667   2.701
 5420SOL    HW117159   0.785   2.742   2.766
 5420SOL    HW217160   0.853   2.666   2.639
 5421SOL     OW17161   1.509   2.906   0.992
 5421SOL    HW117162   1.460   2.889   0.907
 5421SOL    HW217163   1.546   2.821   1.028
 5422SOL     OW17164   1.172   3.891   0.108
 5422SOL    HW117165   1.154   3.870   0.205
 5422SOL    HW217166   1.225   3.817   0.068
 5423SOL     OW17167   5.430   3.155   5.748
 5423SOL    HW117168   5.528   3.151   5.771
 5423SOL    HW217169   5.414   3.229   5.683
 5424SOL     OW17170   5.519   3.686   5.374
 5424SOL    HW117171   5.582   3.739   5.431
 5424SOL    HW217172   5.436   3.739   5.358
 5425SOL     OW17173   5.255   0.464   4.757
 5425SOL    HW117174   5.288   0.376   4.790
 5425SOL    HW217175   5.184   0.450   4.688
 5426SOL     OW17176   0.104   6.600   5.070
 5426SOL    HW117177   0.074   6.572   4.979
 5426SOL    HW217178   0.046   6.674   5.103
 5427SOL     OW17179   4.275   6.685   6.987
 5427SOL    HW117180   4.181   6.650   6.978
 5427SOL    HW217181   4.309   6.662   0.059
 5428SOL     OW17182   2.187   0.740   6.830
 5428SOL    HW117183   2.280   0.774   6.817
 5428SOL    HW217184   2.139   0.800   6.894
 5429SOL     OW17185   1.274   2.015   5.937
 5429SOL    HW117186   1.185   1.977   5.962
 5429SOL    HW217187   1.332   1.943   5.898
 5430SOL     OW17188   2.269   2.180   5.216
 5430SOL    HW117189   2.318   2.096   5.238
 5430SOL    HW217190   2.334   2.254   5.199
 5431SOL     OW17191   3.369   5.842   4.427
 5431SOL    HW117192   3.322   5.778   4.366
 5431SOL    HW217193   3.320   5.848   4.514
 5432SOL     OW17194   5.625   5.626   1.280
 5432SOL    HW117195   5.606   5.663   1.188
 5432SOL    HW217196   5.626   5.526   1.276
 5433SOL     OW17197   0.116   1.986   4.182
 5433SOL    HW117198   0.052   2.056   4.150
 5433SOL    HW217199   0.208   2.026   4.189
 5434SOL     OW17200   2.511   6.783   5.247
 5434SOL    HW117201   2.491   6.880   5.251
 5434SOL    HW217202   2.426   6.731   5.239
 5435SOL     OW17203   4.901   1.337   1.991
 5435SOL    HW117204   4.933   1.248   1.958
 5435SOL    HW217205   4.801   1.334   2.000
 5436SOL     OW17206   5.077   3.948   2.413
 5436SOL    HW117207   5.099   4.045   2.415
 5436SOL    HW217208   5.002   3.931   2.350
 5437SOL     OW17209   3.476   4.580   6.715
 5437SOL    HW117210   3.510   4.672   6.736
 5437SOL    HW217211   3.550   4.514   6.725
 5438SOL     OW17212   6.652   0.965   1.171
 5438SOL    HW117213   6.716   1.040   1.190
 5438SOL    HW217214   6.677   0.886   1.227
 5439SOL     OW17215   1.142   3.009   1.470
 5439SOL    HW117216   1.194   2.939   1.422
 5439SOL    HW217217   1.199   3.091   1.480
 5440SOL     OW17218   1.462   1.254   1.049
 5440SOL    HW117219   1.389   1.320   1.030
 5440SOL    HW217220   1.501   1.221   0.963
 5441SOL     OW17221   3.685   2.097   4.063
 5441SOL    HW117222   3.620   2.097   3.987
 5441SOL    HW217223   3.638   2.125   4.147
 5442SOL     OW17224   3.189   0.722   2.185
 5442SOL    HW117225   3.208   0.644   2.125
 5442SOL    HW217226   3.106   0.768   2.155
 5443SOL     OW17227   2.787   6.911   6.004
 5443SOL    HW117228   2.733   6.934   6.085
 5443SOL    HW217229   2.821   6.995   5.961
 5444SOL     OW17230   0.234   0.675   3.575
 5444SOL    HW117231   0.149   0.682   3.628
 5444SOL    HW217232   0.239   0.584   3.534
 5445SOL     OW17233   5.927   3.406   1.890
 5445SOL    HW117234   5.971   3.392   1.801
 5445SOL    HW217235   5.985   3.464   1.947
 5446SOL     OW17236   6.859   5.527   6.040
 5446SOL    HW117237   6.798   5.507   6.117
 5446SOL    HW217238   6.951   5.492   6.060
 5447SOL     OW17239   2.811   2.233   0.838
 5447SOL    HW117240   2.861   2.218   0.923
 5447SOL    HW217241   2.786   2.329   0.831
 5448SOL     OW17242   5.659   1.762   6.296
 5448SOL    HW117243   5.582   1.698   6.295
 5448SOL    HW217244   5.666   1.808   6.208
 5449SOL     OW17245   0.258   2.760   6.515
 5449SOL    HW117246   0.347   2.713   6.518
 5449SOL    HW217247   0.267   2.850   6.557
 5450SOL     OW17248   2.138   5.955   0.932
 5450SOL    HW117249   2.194   5.905   0.997
 5450SOL    HW217250   2.188   5.965   0.846
 5451SOL     OW17251   1.811   0.277   2.887
 5451SOL    HW117252   1.835   0.346   2.819
 5451SOL    HW217253   1.723   0.301   2.928
 5452SOL     OW17254   2.559   3.635   5.587
 5452SOL    HW117255   2.655   3.658   5.601
 5452SOL    HW217256   2.513   3.711   5.541
 5453SOL     OW17257   0.300   4.918   6.140
 5453SOL    HW117258   0.365   4.884   6.208
 5453SOL    HW217259   0.213   4.939   6.186
 5454SOL     OW17260   0.411   4.111   5.179
 5454SOL    HW117261   0.342   4.178   5.204
 5454SOL    HW217262   0.402   4.089   5.081
 5455SOL     OW17263   6.813   2.785   0.526
 5455SOL    HW117264   6.793   2.703   0.472
 5455SOL    HW217265   6.807   2.865   0.468
 5456SOL     OW17266   3.302   6.707   1.785
 5456SOL    HW117267   3.344   6.789   1.745
 5456SOL    HW217268   3.279   6.643   1.713
 5457SOL     OW17269   6.597   3.912   0.189
 5457SOL    HW117270   6.581   3.824   0.233
 5457SOL    HW217271   6.624   3.979   0.258
 5458SOL     OW17272   1.828   4.340   6.115
 5458SOL    HW117273   1.908   4.349   6.175
 5458SOL    HW217274   1.860   4.325   6.021
 5459SOL     OW17275   2.187   4.520   5.816
 5459SOL    HW117276   2.213   4.519   5.719
 5459SOL    HW217277   2.188   4.427   5.852
 5460SOL     OW17278   3.890   0.029   3.285
 5460SOL    HW117279   3.797   7.012   3.297
 5460SOL    HW217280   3.908   0.042   3.187
 5461SOL     OW17281   4.390   6.452   4.787
 5461SOL    HW117282   4.446   6.398   4.850
 5461SOL    HW217283   4.373   6.399   4.703
 5462SOL     OW17284   0.835   0.602   1.488
 5462SOL    HW117285   0.852   0.537   1.562
 5462SOL    HW217286   0.740   0.596   1.459
 5463SOL     OW17287   6.839   3.570   0.886
 5463SOL    HW117288   6.795   3.631   0.952
 5463SOL    HW217289   6.839   3.477   0.922
 5464SOL     OW17290   2.193   6.485   4.217
 5464SOL    HW117291   2.270   6.526   4.168
 5464SOL    HW217292   2.169   6.542   4.296
 5465SOL     OW17293   2.486   5.514   6.552
 5465SOL    HW117294   2.502   5.490   6.456
 5465SOL    HW217295   2.493   5.613   6.563
 5466SOL     OW17296   5.148   4.948   4.825
 5466SOL    HW117297   5.178   5.014   4.894
 5466SOL    HW217298   5.113   4.866   4.871
 5467SOL     OW17299   5.226   1.540   2.272
 5467SOL    HW117300   5.267   1.613   2.216
 5467SOL    HW217301   5.131   1.526   2.245
 5468SOL     OW17302   4.363   1.609   5.586
 5468SOL    HW117303   4.306   1.689   5.603
 5468SOL    HW217304   4.372   1.556   5.671
 5469SOL     OW17305   4.921   4.271   1.439
 5469SOL    HW117306   4.867   4.205   1.387
 5469SOL    HW217307   4.875   4.360   1.438
 5470SOL     OW17308   0.249   5.376   3.327
 5470SOL    HW117309   0.271   5.310   3.400
 5470SOL    HW217310   0.273   5.336   3.238
 5471SOL     OW17311   6.174   4.766   2.280
 5471SOL    HW117312   6.163   4.720   2.368
 5471SOL    HW217313   6.212   4.702   2.213
 5472SOL     OW17314   3.730   5.496   5.502
 5472SOL    HW117315   3.780   5.412   5.522
 5472SOL    HW217316   3.671   5.519   5.580
 5473SOL     OW17317   1.409   4.295   3.578
 5473SOL    HW117318   1.329   4.234   3.583
 5473SOL    HW217319   1.454   4.284   3.489
 5474SOL     OW17320   0.996   6.289   3.471
 5474SOL    HW117321   1.053   6.372   3.478
 5474SOL    HW217322   1.036   6.217   3.528
 5475SOL     OW17323   3.184   2.877   1.466
 5475SOL    HW117324   3.176   2.969   1.505
 5475SOL    HW217325   3.214   2.814   1.537
 5476SOL     OW17326   1.742   2.919   6.920
 5476SOL    HW117327   1.773   2.916   6.824
 5476SOL    HW217328   1.799   2.984   6.971
 5477SOL     OW17329   1.966   2.567   2.264
 5477SOL    HW117330   1.886   2.551   2.206
 5477SOL    HW217331   2.047   2.525   2.222
 5478SOL     OW17332   0.220   5.692   6.091
 5478SOL    HW117333   0.136   5.736   6.121
 5478SOL    HW217334   0.206   5.593   6.088
 5479SOL     OW17335   4.694   6.924   5.151
 5479SOL    HW117336   4.624   6.855   5.130
 5479SOL    HW217337   4.650   7.012   5.170
 5480SOL     OW17338   1.017   2.780   5.341
 5480SOL    HW117339   1.084   2.818   5.404
 5480SOL    HW217340   0.979   2.696   5.379
 5481SOL     OW17341   4.676   6.376   3.513
 5481SOL    HW117342   4.679   6.445   3.441
 5481SOL    HW217343   4.667   6.420   3.602
 5482SOL     OW17344   1.989   5.459   2.074
 5482SOL    HW117345   2.078   5.431   2.109
 5482SOL    HW217346   1.988   5.450   1.975
 5483SOL     OW17347   0.392   2.361   6.065
 5483SOL    HW117348   0.326   2.434   6.080
 5483SOL    HW217349   0.353   2.292   6.004
 5484SOL     OW17350   5.072   0.203   4.466
 5484SOL    HW117351   5.167   0.235   4.468
 5484SOL    HW217352   5.062   0.131   4.398
 5485SOL     OW17353   3.835   0.643   4.808
 5485SOL    HW117354   3.905   0.590   4.760
 5485SOL    HW217355   3.745   0.618   4.774
 5486SOL     OW17356   3.101   4.896   3.751
 5486SOL    HW117357   3.039   4.824   3.720
 5486SOL    HW217358   3.056   4.952   3.820
 5487SOL     OW17359   3.085   5.398   5.833
 5487SOL    HW117360   3.077   5.304   5.865
 5487SOL    HW217361   3.105   5.398   5.735
 5488SOL     OW17362   4.954   1.622   6.775
 5488SOL    HW117363   4.970   1.663   6.685
 5488SOL    HW217364   5.041   1.609   6.822
 5489SOL     OW17365   0.521   3.406   4.200
 5489SOL    HW117366   0.536   3.488   4.254
 5489SOL    HW217367   0.527   3.428   4.102
 5490SOL     OW17368   0.913   5.453   2.919
 5490SOL    HW117369   0.865   5.397   2.851
 5490SOL    HW217370   0.876   5.546   2.917
 5491SOL     OW17371   6.282   3.731   0.453
 5491SOL    HW117372   6.262   3.799   0.382
 5491SOL    HW217373   6.203   3.671   0.465
 5492SOL     OW17374   6.898   1.591   6.142
 5492SOL    HW117375   6.935   1.612   6.232
 5492SOL    HW217376   6.945   1.646   6.073
 5493SOL     OW17377   4.363   4.061   0.247
 5493SOL    HW117378   4.449   4.081   0.200
 5493SOL    HW217379   4.320   3.981   0.206
 5494SOL     OW17380   6.132   2.859   5.656
 5494SOL    HW117381   6.131   2.958   5.644
 5494SOL    HW217382   6.061   2.832   5.721
 5495SOL     OW17383   5.806   0.198   6.918
 5495SOL    HW117384   5.710   0.186   6.895
 5495SOL    HW217385   5.859   0.211   6.834
 5496SOL     OW17386   3.994   0.043   5.702
 5496SOL    HW117387   4.079   0.080   5.738
 5496SOL    HW217388   3.917   0.098   5.735
 5497SOL     OW17389   0.750   0.660   5.243
 5497SOL    HW117390   0.833   0.712   5.260
 5497SOL    HW217391   0.739   0.592   5.316
 5498SOL     OW17392   0.341   5.128   1.426
 5498SOL    HW117393   0.271   5.184   1.381
 5498SOL    HW217394   0.395   5.185   1.488
 5499SOL     OW17395   1.969   0.373   4.009
 5499SOL    HW117396   2.010   0.464   4.015
 5499SOL    HW217397   1.879   0.380   3.968
 5500SOL     OW17398   2.323   6.617   1.168
 5500SOL    HW117399   2.269   6.688   1.213
 5500SOL    HW217400   2.269   6.576   1.095
 5501SOL     OW17401   4.610   3.375   6.648
 5501SOL    HW117402   4.545   3.440   6.609
 5501SOL    HW217403   4.561   3.291   6.674
 5502SOL     OW17404   4.801   3.439   6.465
 5502SOL    HW117405   4.762   3.414   6.376
 5502SOL    HW217406   4.735   3.417   6.537
 5503SOL     OW17407   5.832   3.350   0.739
 5503SOL    HW117408   5.885   3.351   0.654
 5503SOL    HW217409   5.886   3.388   0.813
 5504SOL     OW17410   3.633   2.068   6.802
 5504SOL    HW117411   3.651   1.974   6.830
 5504SOL    HW217412   3.547   2.072   6.752
 5505SOL     OW17413   2.999   4.797   2.646
 5505SOL    HW117414   2.911   4.788   2.692
 5505SOL    HW217415   3.000   4.882   2.593
 5506SOL     OW17416   6.498   2.374   6.267
 5506SOL    HW117417   6.439   2.362   6.347
 5506SOL    HW217418   6.448   2.425   6.197
 5507SOL     OW17419   3.741   6.633   0.585
 5507SOL    HW117420   3.829   6.627   0.633
 5507SOL    HW217421   3.747   6.584   0.498
 5508SOL     OW17422   0.484   1.483   6.550
 5508SOL    HW117423   0.573   1.507   6.588
 5508SOL    HW217424   0.441   1.412   6.606
 5509SOL     OW17425   6.360   3.729   0.089
 5509SOL    HW117426   6.318   3.815   0.117
 5509SOL    HW217427   6.320   3.654   0.141
 5510SOL     OW17428   5.165   5.301   6.449
 5510SOL    HW117429   5.265   5.294   6.449
 5510SOL    HW217430   5.127   5.232   6.388
 5511SOL     OW17431   0.741   2.488   6.006
 5511SOL    HW117432   0.715   2.521   6.097
 5511SOL    HW217433   0.679   2.527   5.938
 5512SOL     OW17434   1.962   0.083   2.569
 5512SOL    HW117435   1.998   0.168   2.609
 5512SOL    HW217436   1.891   0.046   2.629
 5513SOL     OW17437   3.691   4.606   0.064
 5513SOL    HW117438   3.779   4.621   0.020
 5513SOL    HW217439   3.649   4.523   0.029
 5514SOL     OW17440   3.480   1.193   0.584
 5514SOL    HW117441   3.530   1.132   0.523
 5514SOL    HW217442   3.492   1.288   0.554
 5515SOL     OW17443   3.447   5.333   2.575
 5515SOL    HW117444   3.511   5.373   2.510
 5515SOL    HW217445   3.496   5.270   2.636
 5516SOL     OW17446   1.785   2.318   5.608
 5516SOL    HW117447   1.721   2.246   5.582
 5516SOL    HW217448   1.818   2.365   5.526
 5517SOL     OW17449   1.210   2.082   3.579
 5517SOL    HW117450   1.111   2.069   3.586
 5517SOL    HW217451   1.253   2.059   3.666
 5518SOL     OW17452   4.316   5.276   6.206
 5518SOL    HW117453   4.301   5.305   6.112
 5518SOL    HW217454   4.406   5.233   6.215
 5519SOL     OW17455   5.387   2.462   5.923
 5519SOL    HW117456   5.476   2.420   5.906
 5519SOL    HW217457   5.327   2.445   5.845
 5520SOL     OW17458   5.078   6.319   1.132
 5520SOL    HW117459   5.016   6.396   1.114
 5520SOL    HW217460   5.029   6.249   1.184
 5521SOL     OW17461   4.402   6.840   2.063
 5521SOL    HW117462   4.382   6.934   2.090
 5521SOL    HW217463   4.339   6.778   2.109
 5522SOL     OW17464   5.275   6.305   0.017
 5522SOL    HW117465   5.255   6.375   6.967
 5522SOL    HW217466   5.189   6.272   0.057
 5523SOL     OW17467   5.259   2.397   0.985
 5523SOL    HW117468   5.193   2.407   0.911
 5523SOL    HW217469   5.265   2.301   1.012
 5524SOL     OW17470   2.926   1.300   3.523
 5524SOL    HW117471   2.985   1.219   3.524
 5524SOL    HW217472   2.925   1.339   3.431
 5525SOL     OW17473   6.960   1.793   1.217
 5525SOL    HW117474   6.950   1.836   1.127
 5525SOL    HW217475   6.870   1.776   1.256
 5526SOL     OW17476   5.434   4.306   4.189
 5526SOL    HW117477   5.479   4.331   4.275
 5526SOL    HW217478   5.423   4.207   4.185
 5527SOL     OW17479   6.366   0.376   2.724
 5527SOL    HW117480   6.394   0.472   2.736
 5527SOL    HW217481   6.446   0.317   2.733
 5528SOL     OW17482   1.227   1.575   6.671
 5528SOL    HW117483   1.291   1.567   6.747
 5528SOL    HW217484   1.231   1.668   6.633
 5529SOL     OW17485   2.994   0.919   2.076
 5529SOL    HW117486   3.001   1.012   2.112
 5529SOL    HW217487   2.899   0.899   2.053
 5530SOL     OW17488   0.694   2.003   0.981
 5530SOL    HW117489   0.616   2.056   1.013
 5530SOL    HW217490   0.761   1.994   1.055
 5531SOL     OW17491   1.507   4.349   1.151
 5531SOL    HW117492   1.540   4.348   1.057
 5531SOL    HW217493   1.585   4.354   1.214
 5532SOL     OW17494   0.605   3.824   6.136
 5532SOL    HW117495   0.535   3.764   6.096
 5532SOL    HW217496   0.638   3.783   6.222
 5533SOL     OW17497   3.832   1.339   2.899
 5533SOL    HW117498   3.860   1.360   2.992
 5533SOL    HW217499   3.760   1.269   2.901
 5534SOL     OW17500   1.699   0.301   4.452
 5534SOL    HW117501   1.747   0.388   4.440
 5534SOL    HW217502   1.727   0.238   4.380
 5535SOL     OW17503   6.691   2.113   2.616
 5535SOL    HW117504   6.744   2.139   2.697
 5535SOL    HW217505   6.752   2.112   2.536
 5536SOL     OW17506   4.627   6.971   4.456
 5536SOL    HW117507   4.535   6.943   4.428
 5536SOL    HW217508   4.623   7.005   4.550
 5537SOL     OW17509   2.763   2.295   3.168
 5537SOL    HW117510   2.705   2.348   3.229
 5537SOL    HW217511   2.733   2.310   3.073
 5538SOL     OW17512   4.472   5.644   4.083
 5538SOL    HW117513   4.538   5.569   4.079
 5538SOL    HW217514   4.489   5.698   4.165
 5539SOL     OW17515   2.085   4.264   6.964
 5539SOL    HW117516   2.066   4.180   6.913
 5539SOL    HW217517   2.184   4.274   6.976
 5540SOL     OW17518   4.012   5.530   1.587
 5540SOL    HW117519   3.947   5.486   1.525
 5540SOL    HW217520   3.974   5.531   1.679
 5541SOL     OW17521   4.439   0.567   6.040
 5541SOL    HW117522   4.503   0.600   6.109
 5541SOL    HW217523   4.400   0.645   5.991
 5542SOL     OW17524   5.074   4.651   6.466
 5542SOL    HW117525   5.072   4.555   6.441
 5542SOL    HW217526   5.127   4.702   6.399
 5543SOL     OW17527   0.564   1.895   4.923
 5543SOL    HW117528   0.641   1.957   4.908
 5543SOL    HW217529   0.572   1.817   4.861
 5544SOL     OW17530   5.548   0.894   0.241
 5544SOL    HW117531   5.569   0.819   0.179
 5544SOL    HW217532   5.515   0.857   0.328
 5545SOL     OW17533   2.337   2.095   1.859
 5545SOL    HW117534   2.395   2.169   1.891
 5545SOL    HW217535   2.389   2.010   1.859
 5546SOL     OW17536   3.976   5.643   5.528
 5546SOL    HW117537   3.894   5.600   5.490
 5546SOL    HW217538   4.033   5.573   5.572
 5547SOL     OW17539   3.268   5.634   4.281
 5547SOL    HW117540   3.356   5.588   4.275
 5547SOL    HW217541   3.248   5.678   4.194
 5548SOL     OW17542   0.114   1.763   4.914
 5548SOL    HW117543   0.178   1.686   4.918
 5548SOL    HW217544   0.020   1.729   4.909
 5549SOL     OW17545   3.302   5.264   6.654
 5549SOL    HW117546   3.235   5.334   6.679
 5549SOL    HW217547   3.393   5.305   6.648
 5550SOL     OW17548   2.665   6.291   2.901
 5550SOL    HW117549   2.673   6.390   2.889
 5550SOL    HW217550   2.752   6.247   2.878
 5551SOL     OW17551   0.512   1.250   2.445
 5551SOL    HW117552   0.573   1.317   2.403
 5551SOL    HW217553   0.473   1.191   2.374
 5552SOL     OW17554   1.766   2.465   2.621
 5552SOL    HW117555   1.802   2.381   2.662
 5552SOL    HW217556   1.670   2.451   2.596
 5553SOL     OW17557   4.553   6.236   5.969
 5553SOL    HW117558   4.595   6.315   5.926
 5553SOL    HW217559   4.453   6.247   5.969
 5554SOL     OW17560   3.227   0.863   4.706
 5554SOL    HW117561   3.227   0.944   4.765
 5554SOL    HW217562   3.215   0.782   4.763
 5555SOL     OW17563   0.560   6.333   1.492
 5555SOL    HW117564   0.624   6.409   1.504
 5555SOL    HW217565   0.587   6.279   1.413
 5556SOL     OW17566   6.871   1.097   5.448
 5556SOL    HW117567   6.849   1.157   5.371
 5556SOL    HW217568   6.933   1.025   5.418
 5557SOL     OW17569   3.675   0.188   2.762
 5557SOL    HW117570   3.611   0.259   2.791
 5557SOL    HW217571   3.630   0.099   2.768
 5558SOL     OW17572   5.137   2.008   5.841
 5558SOL    HW117573   5.192   2.033   5.922
 5558SOL    HW217574   5.040   2.021   5.862
 5559SOL     OW17575   2.829   0.783   0.766
 5559SOL    HW117576   2.862   0.726   0.841
 5559SOL    HW217577   2.733   0.763   0.748
 5560SOL     OW17578   0.187   0.979   5.032
 5560SOL    HW117579   0.133   1.046   4.981
 5560SOL    HW217580   0.168   0.888   4.997
 5561SOL     OW17581   1.497   4.478   1.659
 5561SOL    HW117582   1.445   4.398   1.630
 5561SOL    HW217583   1.459   4.513   1.745
 5562SOL     OW17584   3.732   2.311   6.913
 5562SOL    HW117585   3.810   2.304   6.975
 5562SOL    HW217586   3.706   2.220   6.883
 5563SOL     OW17587   3.934   4.324   1.134
 5563SOL    HW117588   3.865   4.252   1.132
 5563SOL    HW217589   3.994   4.311   1.213
 5564SOL     OW17590   5.927   1.462   2.406
 5564SOL    HW117591   5.865   1.535   2.435
 5564SOL    HW217592   5.962   1.483   2.315
 5565SOL     OW17593   1.883   2.717   5.407
 5565SOL    HW117594   1.981   2.726   5.426
 5565SOL    HW217595   1.864   2.749   5.314
 5566SOL     OW17596   2.532   3.755   0.547
 5566SOL    HW117597   2.501   3.850   0.547
 5566SOL    HW217598   2.605   3.743   0.614
 5567SOL     OW17599   1.542   5.175   3.622
 5567SOL    HW117600   1.560   5.269   3.595
 5567SOL    HW217601   1.563   5.114   3.546
 5568SOL     OW17602   3.853   2.531   6.699
 5568SOL    HW117603   3.810   2.495   6.782
 5568SOL    HW217604   3.798   2.606   6.662
 5569SOL     OW17605   4.213   1.833   0.153
 5569SOL    HW117606   4.213   1.822   0.253
 5569SOL    HW217607   4.214   1.930   0.130
 5570SOL     OW17608   1.858   3.005   5.848
 5570SOL    HW117609   1.945   3.053   5.861
 5570SOL    HW217610   1.786   3.051   5.900
 5571SOL     OW17611   0.098   4.164   6.690
 5571SOL    HW117612   0.021   4.166   6.627
 5571SOL    HW217613   0.154   4.246   6.677
 5572SOL     OW17614   0.374   3.098   6.154
 5572SOL    HW117615   0.449   3.120   6.215
 5572SOL    HW217616   0.366   3.169   6.084
 5573SOL     OW17617   6.611   3.545   6.530
 5573SOL    HW117618   6.552   3.618   6.563
 5573SOL    HW217619   6.706   3.577   6.527
 5574SOL     OW17620   1.706   6.663   4.517
 5574SOL    HW117621   1.630   6.602   4.539
 5574SOL    HW217622   1.705   6.741   4.579
 5575SOL     OW17623   0.835   1.046   2.701
 5575SOL    HW117624   0.924   1.041   2.655
 5575SOL    HW217625   0.797   1.138   2.689
 5576SOL     OW17626   5.629   6.253   5.533
 5576SOL    HW117627   5.534   6.256   5.503
 5576SOL    HW217628   5.639   6.306   5.617
 5577SOL     OW17629   1.728   4.286   4.715
 5577SOL    HW117630   1.664   4.360   4.696
 5577SOL    HW217631   1.816   4.323   4.744
 5578SOL     OW17632   3.726   1.543   5.845
 5578SOL    HW117633   3.696   1.604   5.919
 5578SOL    HW217634   3.731   1.594   5.759
 5579SOL     OW17635   5.025   4.323   2.133
 5579SOL    HW117636   4.934   4.285   2.151
 5579SOL    HW217637   5.072   4.267   2.065
 5580SOL     OW17638   5.778   1.457   1.782
 5580SOL    HW117639   5.771   1.409   1.869
 5580SOL    HW217640   5.694   1.509   1.766
 5581SOL     OW17641   2.943   2.849   0.441
 5581SOL    HW117642   2.866   2.894   0.486
 5581SOL    HW217643   2.960   2.760   0.485
 5582SOL     OW17644   3.067   3.102   3.683
 5582SOL    HW117645   3.018   3.158   3.617
 5582SOL    HW217646   3.163   3.094   3.656
 5583SOL     OW17647   3.571   0.506   6.743
 5583SOL    HW117648   3.653   0.548   6.780
 5583SOL    HW217649   3.539   0.557   6.663
 5584SOL     OW17650   5.100   3.334   4.067
 5584SOL    HW117651   5.185   3.386   4.057
 5584SOL    HW217652   5.120   3.236   4.060
 5585SOL     OW17653   0.417   0.267   3.555
 5585SOL    HW117654   0.359   0.312   3.623
 5585SOL    HW217655   0.416   0.319   3.470
 5586SOL     OW17656   2.293   0.801   0.215
 5586SOL    HW117657   2.305   0.875   0.280
 5586SOL    HW217658   2.250   0.723   0.261
 5587SOL     OW17659   4.001   6.365   3.550
 5587SOL    HW117660   4.009   6.305   3.470
 5587SOL    HW217661   4.083   6.357   3.606
 5588SOL     OW17662   5.131   6.754   6.554
 5588SOL    HW117663   5.064   6.772   6.626
 5588SOL    HW217664   5.111   6.666   6.511
 5589SOL     OW17665   2.078   3.643   7.006
 5589SOL    HW117666   2.017   3.566   6.985
 5589SOL    HW217667   2.023   3.727   7.012
 5590SOL     OW17668   6.717   0.624   3.318
 5590SOL    HW117669   6.802   0.572   3.307
 5590SOL    HW217670   6.702   0.680   3.236
 5591SOL     OW17671   5.540   0.176   6.913
 5591SOL    HW117672   5.488   0.129   6.841
 5591SOL    HW217673   5.488   0.254   6.946
 5592SOL     OW17674   1.362   2.711   2.642
 5592SOL    HW117675   1.287   2.731   2.578
 5592SOL    HW217676   1.342   2.754   2.730
 5593SOL     OW17677   2.202   4.029   4.764
 5593SOL    HW117678   2.105   4.055   4.767
 5593SOL    HW217679   2.235   4.011   4.856
 5594SOL     OW17680   2.822   1.323   5.920
 5594SOL    HW117681   2.780   1.256   5.981
 5594SOL    HW217682   2.831   1.284   5.829
 5595SOL     OW17683   0.364   3.285   6.602
 5595SOL    HW117684   0.444   3.318   6.552
 5595SOL    HW217685   0.391   3.261   6.695
 5596SOL     OW17686   4.889   3.629   4.253
 5596SOL    HW117687   4.959   3.664   4.191
 5596SOL    HW217688   4.848   3.546   4.214
 5597SOL     OW17689   0.156   1.965   6.506
 5597SOL    HW117690   0.234   2.028   6.499
 5597SOL    HW217691   0.078   2.003   6.457
 5598SOL     OW17692   6.233   0.791   4.018
 5598SOL    HW117693   6.314   0.740   4.046
 5598SOL    HW217694   6.260   0.874   3.970
 5599SOL     OW17695   5.660   3.364   2.779
 5599SOL    HW117696   5.607   3.440   2.741
 5599SOL    HW217697   5.617   3.277   2.755
 5600SOL     OW17698   1.611   2.970   2.237
 5600SOL    HW117699   1.537   2.918   2.196
 5600SOL    HW217700   1.612   2.954   2.336
 5601SOL     OW17701   5.972   2.309   6.390
 5601SOL    HW117702   6.010   2.376   6.453
 5601SOL    HW217703   5.965   2.349   6.299
 5602SOL     OW17704   6.380   1.815   3.108
 5602SOL    HW117705   6.298   1.762   3.085
 5602SOL    HW217706   6.394   1.886   3.039
 5603SOL     OW17707   3.388   1.599   6.193
 5603SOL    HW117708   3.334   1.659   6.134
 5603SOL    HW217709   3.341   1.587   6.281
 5604SOL     OW17710   1.546   4.856   3.209
 5604SOL    HW117711   1.457   4.851   3.162
 5604SOL    HW217712   1.612   4.900   3.148
 5605SOL     OW17713   3.488   6.556   4.623
 5605SOL    HW117714   3.437   6.485   4.671
 5605SOL    HW217715   3.585   6.549   4.645
 5606SOL     OW17716   4.506   3.838   1.058
 5606SOL    HW117717   4.578   3.777   1.091
 5606SOL    HW217718   4.452   3.871   1.135
 5607SOL     OW17719   0.809   2.022   2.442
 5607SOL    HW117720   0.822   1.935   2.395
 5607SOL    HW217721   0.874   2.089   2.407
 5608SOL     OW17722   6.466   6.989   3.561
 5608SOL    HW117723   6.508   0.045   3.509
 5608SOL    HW217724   6.401   0.008   3.627
 5609SOL     OW17725   6.466   0.962   0.363
 5609SOL    HW117726   6.489   0.884   0.305
 5609SOL    HW217727   6.550   1.007   0.394
 5610SOL     OW17728   5.729   6.779   6.219
 5610SOL    HW117729   5.753   6.793   6.123
 5610SOL    HW217730   5.783   6.702   6.256
 5611SOL     OW17731   6.524   4.031   1.462
 5611SOL    HW117732   6.453   4.011   1.395
 5611SOL    HW217733   6.588   3.955   1.467
 5612SOL     OW17734   4.820   2.320   1.478
 5612SOL    HW117735   4.791   2.364   1.393
 5612SOL    HW217736   4.829   2.222   1.463
 5613SOL     OW17737   6.559   5.087   5.432
 5613SOL    HW117738   6.627   5.018   5.457
 5613SOL    HW217739   6.535   5.141   5.513
 5614SOL     OW17740   5.637   2.240   4.792
 5614SOL    HW117741   5.626   2.339   4.785
 5614SOL    HW217742   5.734   2.218   4.807
 5615SOL     OW17743   0.307   3.522   2.538
 5615SOL    HW117744   0.217   3.514   2.495
 5615SOL    HW217745   0.310   3.462   2.619
 5616SOL     OW17746   1.353   3.386   1.683
 5616SOL    HW117747   1.412   3.330   1.741
 5616SOL    HW217748   1.294   3.442   1.741
 5617SOL     OW17749   0.486   5.479   5.353
 5617SOL    HW117750   0.503   5.538   5.431
 5617SOL    HW217751   0.570   5.467   5.300
 5618SOL     OW17752   4.690   0.933   2.801
 5618SOL    HW117753   4.716   1.010   2.743
 5618SOL    HW217754   4.590   0.926   2.805
 5619SOL     OW17755   3.023   3.888   4.009
 5619SOL    HW117756   3.076   3.963   3.968
 5619SOL    HW217757   3.011   3.815   3.941
 5620SOL     OW17758   4.900   5.155   5.187
 5620SOL    HW117759   4.921   5.148   5.285
 5620SOL    HW217760   4.875   5.249   5.165
 5621SOL     OW17761   0.944   3.420   6.127
 5621SOL    HW117762   0.962   3.364   6.046
 5621SOL    HW217763   0.917   3.361   6.203
 5622SOL     OW17764   5.724   5.828   3.208
 5622SOL    HW117765   5.714   5.749   3.148
 5622SOL    HW217766   5.798   5.812   3.273
 5623SOL     OW17767   4.611   5.095   3.449
 5623SOL    HW117768   4.528   5.075   3.502
 5623SOL    HW217769   4.686   5.039   3.483
 5624SOL     OW17770   4.981   4.032   3.857
 5624SOL    HW117771   4.906   4.049   3.921
 5624SOL    HW217772   4.987   3.934   3.838
 5625SOL     OW17773   3.035   6.825   6.269
 5625SOL    HW117774   3.052   6.915   6.229
 5625SOL    HW217775   3.087   6.756   6.219
 5626SOL     OW17776   1.941   4.626   6.268
 5626SOL    HW117777   1.975   4.533   6.279
 5626SOL    HW217778   1.880   4.648   6.344
 5627SOL     OW17779   1.216   5.509   0.839
 5627SOL    HW117780   1.257   5.596   0.867
 5627SOL    HW217781   1.199   5.453   0.919
 5628SOL     OW17782   1.137   2.817   0.244
 5628SOL    HW117783   1.173   2.874   0.319
 5628SOL    HW217784   1.208   2.755   0.213
 5629SOL     OW17785   6.664   3.527   4.102
 5629SOL    HW117786   6.742   3.466   4.090
 5629SOL    HW217787   6.590   3.500   4.039
 5630SOL     OW17788   1.413   4.227   0.215
 5630SOL    HW117789   1.460   4.141   0.198
 5630SOL    HW217790   1.366   4.257   0.132
 5631SOL     OW17791   4.091   0.720   2.745
 5631SOL    HW117792   4.032   0.698   2.823
 5631SOL    HW217793   4.170   0.658   2.744
 5632SOL     OW17794   3.403   6.678   6.700
 5632SOL    HW117795   3.482   6.623   6.728
 5632SOL    HW217796   3.393   6.756   6.761
 5633SOL     OW17797   1.754   5.593   5.608
 5633SOL    HW117798   1.702   5.648   5.673
 5633SOL    HW217799   1.813   5.530   5.657
 5634SOL     OW17800   2.757   6.942   2.060
 5634SOL    HW117801   2.845   6.986   2.041
 5634SOL    HW217802   2.700   6.946   1.978
 5635SOL     OW17803   3.495   0.203   2.396
 5635SOL    HW117804   3.416   0.203   2.334
 5635SOL    HW217805   3.578   0.183   2.345
 5636SOL     OW17806   5.295   0.223   4.852
 5636SOL    HW117807   5.312   0.205   4.949
 5636SOL    HW217808   5.335   0.150   4.797
 5637SOL     OW17809   5.164   6.945   5.014
 5637SOL    HW117810   5.087   6.953   4.951
 5637SOL    HW217811   5.205   0.016   5.028
 5638SOL     OW17812   0.717   5.571   0.065
 5638SOL    HW117813   0.638   5.561   0.005
 5638SOL    HW217814   0.740   5.668   0.073
 5639SOL     OW17815   3.101   6.636   2.169
 5639SOL    HW117816   3.083   6.685   2.084
 5639SOL    HW217817   3.014   6.618   2.216
 5640SOL     OW17818   3.440   6.957   3.927
 5640SOL    HW117819   3.419   0.034   3.912
 5640SOL    HW217820   3.519   6.949   3.988
 5641SOL     OW17821   6.484   5.025   3.231
 5641SOL    HW117822   6.511   5.008   3.326
 5641SOL    HW217823   6.393   5.066   3.228
 5642SOL     OW17824   2.411   2.092   6.316
 5642SOL    HW117825   2.385   2.081   6.412
 5642SOL    HW217826   2.510   2.096   6.308
 5643SOL     OW17827   5.606   3.203   3.479
 5643SOL    HW117828   5.530   3.267   3.478
 5643SOL    HW217829   5.583   3.123   3.424
 5644SOL     OW17830   3.251   0.624   5.909
 5644SOL    HW117831   3.350   0.638   5.902
 5644SOL    HW217832   3.225   0.546   5.850
 5645SOL     OW17833   6.087   0.025   3.475
 5645SOL    HW117834   6.163   0.038   3.411
 5645SOL    HW217835   6.122   7.009   3.562
 5646SOL     OW17836   6.856   0.582   3.000
 5646SOL    HW117837   6.845   0.505   2.937
 5646SOL    HW217838   6.774   0.639   2.999
 5647SOL     OW17839   6.259   3.677   5.894
 5647SOL    HW117840   6.235   3.614   5.821
 5647SOL    HW217841   6.183   3.682   5.960
 5648SOL     OW17842   1.703   1.657   4.158
 5648SOL    HW117843   1.757   1.677   4.240
 5648SOL    HW217844   1.709   1.560   4.137
 5649SOL     OW17845   0.414   0.506   4.854
 5649SOL    HW117846   0.492   0.531   4.911
 5649SOL    HW217847   0.367   0.588   4.822
 5650SOL     OW17848   6.275   5.116   5.024
 5650SOL    HW117849   6.203   5.164   5.074
 5650SOL    HW217850   6.235   5.048   4.963
 5651SOL     OW17851   6.151   0.317   2.566
 5651SOL    HW117852   6.228   0.345   2.623
 5651SOL    HW217853   6.158   0.361   2.477
 5652SOL     OW17854   5.110   4.715   0.135
 5652SOL    HW117855   5.073   4.733   0.226
 5652SOL    HW217856   5.139   4.620   0.128
 5653SOL     OW17857   1.812   6.121   6.771
 5653SOL    HW117858   1.905   6.085   6.761
 5653SOL    HW217859   1.811   6.217   6.744
 5654SOL     OW17860   2.157   0.093   0.059
 5654SOL    HW117861   2.235   0.048   0.014
 5654SOL    HW217862   2.076   0.085   0.001
 5655SOL     OW17863   6.331   5.815   2.951
 5655SOL    HW117864   6.267   5.860   2.888
 5655SOL    HW217865   6.284   5.796   3.037
 5656SOL     OW17866   3.769   5.437   5.860
 5656SOL    HW117867   3.681   5.418   5.815
 5656SOL    HW217868   3.753   5.484   5.946
 5657SOL     OW17869   4.951   5.375   2.257
 5657SOL    HW117870   4.944   5.329   2.346
 5657SOL    HW217871   4.973   5.308   2.186
 5658SOL     OW17872   4.535   6.902   5.996
 5658SOL    HW117873   4.438   6.877   5.997
 5658SOL    HW217874   4.544   7.000   6.010
 5659SOL     OW17875   3.654   4.113   2.865
 5659SOL    HW117876   3.573   4.060   2.841
 5659SOL    HW217877   3.735   4.073   2.821
 5660SOL     OW17878   6.984   6.210   1.867
 5660SOL    HW117879   0.059   6.217   1.836
 5660SOL    HW217880   6.962   6.114   1.886
 5661SOL     OW17881   6.441   6.124   4.144
 5661SOL    HW117882   6.344   6.120   4.117
 5661SOL    HW217883   6.449   6.168   4.234
 5662SOL     OW17884   1.754   4.356   4.372
 5662SOL    HW117885   1.695   4.362   4.452
 5662SOL    HW217886   1.700   4.369   4.289
 5663SOL     OW17887   2.305   3.604   1.096
 5663SOL    HW117888   2.359   3.555   1.027
 5663SOL    HW217889   2.236   3.660   1.051
 5664SOL     OW17890   6.489   6.629   2.023
 5664SOL    HW117891   6.430   6.564   2.071
 5664SOL    HW217892   6.582   6.624   2.059
 5665SOL     OW17893   1.636   1.358   5.787
 5665SOL    HW117894   1.559   1.355   5.723
 5665SOL    HW217895   1.604   1.389   5.877
 5666SOL     OW17896   5.618   5.479   6.584
 5666SOL    HW117897   5.656   5.413   6.649
 5666SOL    HW217898   5.692   5.522   6.533
 5667SOL     OW17899   5.553   4.731   2.574
 5667SOL    HW117900   5.514   4.744   2.665
 5667SOL    HW217901   5.590   4.817   2.540
 5668SOL     OW17902   6.953   2.189   6.555
 5668SOL    HW117903   6.870   2.243   6.566
 5668SOL    HW217904   7.016   2.236   6.493
 5669SOL     OW17905   0.077   2.463   4.739
 5669SOL    HW117906   0.129   2.545   4.717
 5669SOL    HW217907   0.131   2.405   4.800
 5670SOL     OW17908   1.544   3.528   2.391
 5670SOL    HW117909   1.613   3.532   2.318
 5670SOL    HW217910   1.509   3.434   2.397
 5671SOL     OW17911   0.999   0.860   5.318
 5671SOL    HW117912   0.974   0.865   5.415
 5671SOL    HW217913   0.990   0.950   5.277
 5672SOL     OW17914   4.639   4.220   5.431
 5672SOL    HW117915   4.648   4.131   5.385
 5672SOL    HW217916   4.545   4.232   5.462
 5673SOL     OW17917   1.622   6.649   1.147
 5673SOL    HW117918   1.714   6.637   1.110
 5673SOL    HW217919   1.618   6.732   1.203
 5674SOL     OW17920   0.600   3.329   1.638
 5674SOL    HW117921   0.674   3.264   1.621
 5674SOL    HW217922   0.583   3.335   1.736
 5675SOL     OW17923   3.947   1.086   5.522
 5675SOL    HW117924   3.963   1.136   5.437
 5675SOL    HW217925   3.948   1.149   5.599
 5676SOL     OW17926   2.206   6.310   2.213
 5676SOL    HW117927   2.303   6.287   2.217
 5676SOL    HW217928   2.178   6.352   2.298
 5677SOL     OW17929   6.310   0.219   3.020
 5677SOL    HW117930   6.312   0.124   2.989
 5677SOL    HW217931   6.337   0.279   2.946
 5678SOL     OW17932   0.798   5.108   2.993
 5678SOL    HW117933   0.723   5.133   3.054
 5678SOL    HW217934   0.813   5.180   2.926
 5679SOL     OW17935   3.707   5.740   5.756
 5679SOL    HW117936   3.711   5.641   5.770
 5679SOL    HW217937   3.766   5.786   5.823
 5680SOL     OW17938   2.066   6.600   6.359
 5680SOL    HW117939   2.112   6.637   6.279
 5680SOL    HW217940   2.075   6.501   6.360
 5681SOL     OW17941   3.029   3.890   6.456
 5681SOL    HW117942   3.089   3.811   6.442
 5681SOL    HW217943   3.067   3.969   6.407
 5682SOL     OW17944   1.987   3.295   3.754
 5682SOL    HW117945   1.902   3.347   3.759
 5682SOL    HW217946   1.984   3.219   3.819
 5683SOL     OW17947   4.038   3.023   5.313
 5683SOL    HW117948   4.136   3.040   5.319
 5683SOL    HW217949   3.989   3.110   5.315
 5684SOL     OW17950   3.087   3.831   3.457
 5684SOL    HW117951   3.060   3.735   3.449
 5684SOL    HW217952   3.168   3.837   3.516
 5685SOL     OW17953   0.303   6.350   1.543
 5685SOL    HW117954   0.302   6.447   1.566
 5685SOL    HW217955   0.392   6.326   1.504
 5686SOL     OW17956   3.367   4.708   0.076
 5686SOL    HW117957   3.391   4.634   0.138
 5686SOL    HW217958   3.316   4.671   7.017
 5687SOL     OW17959   4.387   6.021   6.670
 5687SOL    HW117960   4.391   5.961   6.750
 5687SOL    HW217961   4.434   6.107   6.690
 5688SOL     OW17962   5.271   1.339   2.668
 5688SOL    HW117963   5.360   1.367   2.631
 5688SOL    HW217964   5.226   1.277   2.604
 5689SOL     OW17965   4.224   3.278   5.780
 5689SOL    HW117966   4.153   3.273   5.850
 5689SOL    HW217967   4.194   3.337   5.705
 5690SOL     OW17968   3.813   0.030   2.972
 5690SOL    HW117969   3.791   0.127   2.980
 5690SOL    HW217970   3.729   6.996   2.965
 5691SOL     OW17971   3.402   0.401   4.406
 5691SOL    HW117972   3.457   0.464   4.351
 5691SOL    HW217973   3.417   0.308   4.375
 5692SOL     OW17974   5.834   2.342   6.987
 5692SOL    HW117975   5.876   2.330   6.897
 5692SOL    HW217976   5.734   2.342   6.977
 5693SOL     OW17977   5.052   2.713   2.124
 5693SOL    HW117978   4.959   2.742   2.145
 5693SOL    HW217979   5.049   2.638   2.058
 5694SOL     OW17980   1.757   2.107   4.764
 5694SOL    HW117981   1.825   2.143   4.700
 5694SOL    HW217982   1.727   2.181   4.825
 5695SOL     OW17983   1.959   4.180   3.516
 5695SOL    HW117984   1.898   4.228   3.579
 5695SOL    HW217985   1.921   4.091   3.493
 5696SOL     OW17986   2.806   0.957   6.442
 5696SOL    HW117987   2.772   0.922   6.529
 5696SOL    HW217988   2.813   0.883   6.376
 5697SOL     OW17989   6.606   3.620   0.263
 5697SOL    HW117990   6.673   3.582   0.200
 5697SOL    HW217991   6.514   3.590   0.238
 5698SOL     OW17992   1.507   4.376   3.835
 5698SOL    HW117993   1.495   4.475   3.832
 5698SOL    HW217994   1.472   4.336   3.750
 5699SOL     OW17995   0.594   2.321   5.033
 5699SOL    HW117996   0.503   2.342   5.069
 5699SOL    HW217997   0.633   2.245   5.085
 5700SOL     OW17998   1.732   5.018   4.193
 5700SOL    HW117999   1.773   4.967   4.117
 5700SOL    HW218000   1.681   4.954   4.251
 5701SOL     OW18001   4.917   3.547   3.087
 5701SOL    HW118002   4.901   3.620   3.154
 5701SOL    HW218003   4.996   3.571   3.031
 5702SOL     OW18004   3.220   0.179   0.094
 5702SOL    HW118005   3.307   0.185   0.143
 5702SOL    HW218006   3.223   0.235   0.012
 5703SOL     OW18007   4.755   4.331   1.861
 5703SOL    HW118008   4.820   4.401   1.886
 5703SOL    HW218009   4.666   4.349   1.904
 5704SOL     OW18010   4.768   4.472   2.917
 5704SOL    HW118011   4.698   4.542   2.934
 5704SOL    HW218012   4.731   4.401   2.857
 5705SOL     OW18013   6.541   1.306   3.758
 5705SOL    HW118014   6.450   1.337   3.787
 5705SOL    HW218015   6.611   1.360   3.804
 5706SOL     OW18016   2.234   1.276   6.853
 5706SOL    HW118017   2.271   1.265   6.761
 5706SOL    HW218018   2.228   1.373   6.875
 5707SOL     OW18019   3.965   1.548   0.199
 5707SOL    HW118020   4.057   1.511   0.189
 5707SOL    HW218021   3.899   1.483   0.159
 5708SOL     OW18022   0.028   6.873   0.512
 5708SOL    HW118023   0.015   6.780   0.546
 5708SOL    HW218024   0.047   6.871   0.414
 5709SOL     OW18025   1.102   2.664   1.181
 5709SOL    HW118026   1.114   2.724   1.102
 5709SOL    HW218027   1.121   2.715   1.265
 5710SOL     OW18028   3.591   4.842   0.194
 5710SOL    HW118029   3.617   4.758   0.147
 5710SOL    HW218030   3.506   4.877   0.157
 5711SOL     OW18031   5.302   1.661   5.296
 5711SOL    HW118032   5.331   1.643   5.390
 5711SOL    HW218033   5.206   1.635   5.285
 5712SOL     OW18034   6.269   6.315   6.629
 5712SOL    HW118035   6.313   6.225   6.620
 5712SOL    HW218036   6.234   6.325   6.722
 5713SOL     OW18037   0.552   2.859   2.552
 5713SOL    HW118038   0.603   2.900   2.628
 5713SOL    HW218039   0.460   2.834   2.584
 5714SOL     OW18040   2.188   0.496   6.698
 5714SOL    HW118041   2.115   0.491   6.631
 5714SOL    HW218042   2.188   0.586   6.741
 5715SOL     OW18043   1.357   0.289   3.603
 5715SOL    HW118044   1.318   0.235   3.528
 5715SOL    HW218045   1.309   0.266   3.687
 5716SOL     OW18046   2.234   2.553   5.104
 5716SOL    HW118047   2.217   2.589   5.196
 5716SOL    HW218048   2.302   2.480   5.109
 5717SOL     OW18049   0.764   3.056   5.715
 5717SOL    HW118050   0.860   3.080   5.705
 5717SOL    HW218051   0.732   3.012   5.631
 5718SOL     OW18052   2.676   5.338   5.957
 5718SOL    HW118053   2.673   5.291   6.045
 5718SOL    HW218054   2.743   5.412   5.961
 5719SOL     OW18055   2.095   0.834   0.533
 5719SOL    HW118056   2.132   0.828   0.440
 5719SOL    HW218057   2.121   0.922   0.574
 5720SOL     OW18058   1.671   5.686   3.837
 5720SOL    HW118059   1.753   5.703   3.891
 5720SOL    HW218060   1.592   5.677   3.897
 5721SOL     OW18061   6.506   4.107   0.027
 5721SOL    HW118062   6.547   4.181   0.079
 5721SOL    HW218063   6.532   4.019   0.068
 5722SOL     OW18064   5.596   1.100   4.439
 5722SOL    HW118065   5.627   1.062   4.352
 5722SOL    HW218066   5.614   1.199   4.441
 5723SOL     OW18067   0.356   4.363   1.063
 5723SOL    HW118068   0.323   4.427   0.994
 5723SOL    HW218069   0.344   4.403   1.154
 5724SOL     OW18070   5.211   3.132   5.922
 5724SOL    HW118071   5.239   3.187   6.001
 5724SOL    HW218072   5.286   3.128   5.856
 5725SOL     OW18073   5.773   6.622   5.686
 5725SOL    HW118074   5.851   6.669   5.645
 5725SOL    HW218075   5.709   6.595   5.614
 5726SOL     OW18076   4.086   4.708   5.509
 5726SOL    HW118077   4.045   4.621   5.481
 5726SOL    HW218078   4.177   4.717   5.468
 5727SOL     OW18079   6.147   2.679   4.188
 5727SOL    HW118080   6.150   2.766   4.236
 5727SOL    HW218081   6.121   2.606   4.251
 5728SOL     OW18082   4.198   0.547   4.729
 5728SOL    HW118083   4.291   0.512   4.713
 5728SOL    HW218084   4.194   0.643   4.701
 5729SOL     OW18085   1.472   2.888   3.995
 5729SOL    HW118086   1.409   2.965   4.010
 5729SOL    HW218087   1.434   2.806   4.037
 5730SOL     OW18088   4.096   4.718   0.112
 5730SOL    HW118089   4.060   4.686   0.200
 5730SOL    HW218090   4.196   4.714   0.114
 5731SOL     OW18091   4.081   1.490   4.717
 5731SOL    HW118092   4.149   1.504   4.645
 5731SOL    HW218093   4.127   1.472   4.804
 5732SOL     OW18094   5.358   4.838   4.703
 5732SOL    HW118095   5.393   4.904   4.638
 5732SOL    HW218096   5.276   4.874   4.747
 5733SOL     OW18097   2.603   6.965   1.839
 5733SOL    HW118098   2.608   6.951   1.740
 5733SOL    HW218099   2.517   6.927   1.873
 5734SOL     OW18100   1.549   6.984   5.981
 5734SOL    HW118101   1.614   6.969   6.056
 5734SOL    HW218102   1.456   6.990   6.018
 5735SOL     OW18103   5.420   1.060   0.978
 5735SOL    HW118104   5.503   1.103   1.013
 5735SOL    HW218105   5.385   0.995   1.046
 5736SOL     OW18106   5.244   3.722   6.615
 5736SOL    HW118107   5.198   3.634   6.599
 5736SOL    HW218108   5.203   3.767   6.694
 5737SOL     OW18109   5.061   5.807   2.506
 5737SOL    HW118110   5.069   5.755   2.591
 5737SOL    HW218111   5.123   5.768   2.438
 5738SOL     OW18112   3.063   0.894   1.631
 5738SOL    HW118113   2.994   0.958   1.666
 5738SOL    HW218114   3.113   0.854   1.709
 5739SOL     OW18115   2.076   0.495   5.279
 5739SOL    HW118116   2.012   0.458   5.347
 5739SOL    HW218117   2.060   0.451   5.191
 5740SOL     OW18118   4.989   3.404   2.741
 5740SOL    HW118119   4.983   3.441   2.648
 5740SOL    HW218120   5.004   3.479   2.806
 5741SOL     OW18121   1.320   3.089   3.990
 5741SOL    HW118122   1.355   3.162   3.931
 5741SOL    HW218123   1.262   3.128   4.062
 5742SOL     OW18124   5.553   5.482   2.004
 5742SOL    HW118125   5.573   5.469   2.101
 5742SOL    HW218126   5.623   5.436   1.949
 5743SOL     OW18127   4.184   6.157   6.821
 5743SOL    HW118128   4.261   6.163   6.885
 5743SOL    HW218129   4.211   6.100   6.743
 5744SOL     OW18130   5.160   5.945   3.253
 5744SOL    HW118131   5.107   6.005   3.313
 5744SOL    HW218132   5.099   5.878   3.210
 5745SOL     OW18133   0.754   3.535   2.848
 5745SOL    HW118134   0.760   3.464   2.779
 5745SOL    HW218135   0.670   3.524   2.901
 5746SOL     OW18136   5.332   0.471   3.294
 5746SOL    HW118137   5.362   0.528   3.217
 5746SOL    HW218138   5.245   0.427   3.272
 5747SOL     OW18139   2.051   6.902   1.501
 5747SOL    HW118140   2.026   6.859   1.414
 5747SOL    HW218141   2.018   6.846   1.577
 5748SOL     OW18142   6.202   6.434   6.879
 5748SOL    HW118143   6.293   6.419   6.918
 5748SOL    HW218144   6.139   6.463   6.951
 5749SOL     OW18145   2.461   5.973   6.272
 5749SOL    HW118146   2.398   5.895   6.270
 5749SOL    HW218147   2.483   6.000   6.179
 5750SOL     OW18148   6.720   2.646   4.515
 5750SOL    HW118149   6.729   2.727   4.456
 5750SOL    HW218150   6.639   2.656   4.573
 5751SOL     OW18151   0.317   3.675   4.142
 5751SOL    HW118152   0.334   3.693   4.045
 5751SOL    HW218153   0.401   3.644   4.185
 5752SOL     OW18154   5.989   0.710   0.225
 5752SOL    HW118155   5.935   0.651   0.166
 5752SOL    HW218156   5.928   0.766   0.281
 5753SOL     OW18157   3.693   3.720   4.177
 5753SOL    HW118158   3.778   3.687   4.135
 5753SOL    HW218159   3.638   3.767   4.108
 5754SOL     OW18160   5.909   6.077   0.967
 5754SOL    HW118161   5.838   6.117   0.909
 5754SOL    HW218162   5.999   6.110   0.939
 5755SOL     OW18163   1.221   3.022   6.320
 5755SOL    HW118164   1.190   3.066   6.405
 5755SOL    HW218165   1.145   2.973   6.278
 5756SOL     OW18166   6.496   6.453   1.519
 5756SOL    HW118167   6.514   6.489   1.611
 5756SOL    HW218168   6.465   6.358   1.526
 5757SOL     OW18169   0.826   1.398   3.716
 5757SOL    HW118170   0.891   1.365   3.785
 5757SOL    HW218171   0.783   1.321   3.670
 5758SOL     OW18172   6.308   7.018   3.293
 5758SOL    HW118173   6.389   0.054   3.311
 5758SOL    HW218174   6.305   6.994   3.196
 5759SOL     OW18175   1.818   6.536   3.167
 5759SOL    HW118176   1.914   6.565   3.176
 5759SOL    HW218177   1.790   6.542   3.071
 5760SOL     OW18178   0.439   2.339   6.830
 5760SOL    HW118179   0.504   2.263   6.821
 5760SOL    HW218180   0.346   2.305   6.812
 5761SOL     OW18181   6.515   6.544   4.807
 5761SOL    HW118182   6.583   6.574   4.874
 5761SOL    HW218183   6.512   6.610   4.731
 5762SOL     OW18184   1.055   5.434   5.511
 5762SOL    HW118185   1.044   5.524   5.554
 5762SOL    HW218186   1.023   5.363   5.574
 5763SOL     OW18187   4.940   0.401   0.207
 5763SOL    HW118188   5.031   0.435   0.232
 5763SOL    HW218189   4.889   0.377   0.289
 5764SOL     OW18190   4.318   6.308   4.569
 5764SOL    HW118191   4.249   6.377   4.548
 5764SOL    HW218192   4.355   6.271   4.484
 5765SOL     OW18193   0.057   5.852   2.574
 5765SOL    HW118194   6.988   5.814   2.602
 5765SOL    HW218195   0.115   5.863   2.655
 5766SOL     OW18196   0.481   1.630   4.027
 5766SOL    HW118197   0.546   1.571   3.980
 5766SOL    HW218198   0.530   1.692   4.089
 5767SOL     OW18199   5.082   6.682   0.201
 5767SOL    HW118200   5.182   6.671   0.200
 5767SOL    HW218201   5.046   6.663   0.110
 5768SOL     OW18202   1.499   0.983   4.922
 5768SOL    HW118203   1.470   0.893   4.890
 5768SOL    HW218204   1.491   0.988   5.021
 5769SOL     OW18205   0.749   2.718   5.543
 5769SOL    HW118206   0.697   2.702   5.627
 5769SOL    HW218207   0.789   2.632   5.512
 5770SOL     OW18208   1.927   4.316   2.422
 5770SOL    HW118209   1.870   4.369   2.360
 5770SOL    HW218210   1.917   4.350   2.516
 5771SOL     OW18211   2.822   5.479   2.985
 5771SOL    HW118212   2.873   5.445   2.906
 5771SOL    HW218213   2.875   5.462   3.069
 5772SOL     OW18214   2.625   0.236   3.094
 5772SOL    HW118215   2.634   0.147   3.139
 5772SOL    HW218216   2.695   0.298   3.131
 5773SOL     OW18217   5.758   0.659   3.962
 5773SOL    HW118218   5.835   0.687   4.020
 5773SOL    HW218219   5.673   0.691   4.002
 5774SOL     OW18220   1.279   6.902   3.788
 5774SOL    HW118221   1.215   6.944   3.724
 5774SOL    HW218222   1.235   6.892   3.877
 5775SOL     OW18223   6.164   4.908   2.586
 5775SOL    HW118224   6.148   4.959   2.502
 5775SOL    HW218225   6.186   4.972   2.660
 5776SOL     OW18226   3.131   1.129   4.026
 5776SOL    HW118227   3.138   1.214   4.077
 5776SOL    HW218228   3.034   1.105   4.013
 5777SOL     OW18229   1.146   0.470   1.487
 5777SOL    HW118230   1.134   0.383   1.439
 5777SOL    HW218231   1.112   0.462   1.580
 5778SOL     OW18232   0.073   0.271   0.114
 5778SOL    HW118233   0.119   0.247   0.029
 5778SOL    HW218234   0.115   0.354   0.153
 5779SOL     OW18235   5.836   1.736   0.632
 5779SOL    HW118236   5.848   1.739   0.731
 5779SOL    HW218237   5.912   1.783   0.587
 5780SOL     OW18238   4.916   4.947   3.973
 5780SOL    HW118239   4.856   4.994   4.038
 5780SOL    HW218240   5.006   4.989   3.973
 5781SOL     OW18241   1.469   5.224   6.336
 5781SOL    HW118242   1.422   5.226   6.424
 5781SOL    HW218243   1.534   5.148   6.334
 5782SOL     OW18244   6.724   0.791   0.011
 5782SOL    HW118245   6.705   0.889   0.001
 5782SOL    HW218246   6.823   0.778   0.024
 5783SOL     OW18247   2.502   2.679   6.910
 5783SOL    HW118248   2.597   2.652   6.893
 5783SOL    HW218249   2.445   2.652   6.833
 5784SOL     OW18250   0.118   6.156   6.791
 5784SOL    HW118251   0.160   6.152   6.701
 5784SOL    HW218252   0.102   6.252   6.816
 5785SOL     OW18253   1.678   1.488   1.162
 5785SOL    HW118254   1.712   1.527   1.077
 5785SOL    HW218255   1.655   1.392   1.149
 5786SOL     OW18256   6.265   5.758   1.501
 5786SOL    HW118257   6.166   5.773   1.503
 5786SOL    HW218258   6.307   5.822   1.437
 5787SOL     OW18259   2.197   3.429   6.205
 5787SOL    HW118260   2.259   3.362   6.165
 5787SOL    HW218261   2.219   3.520   6.171
 5788SOL     OW18262   3.278   0.498   3.575
 5788SOL    HW118263   3.274   0.582   3.522
 5788SOL    HW218264   3.245   0.516   3.668
 5789SOL     OW18265   3.934   5.033   6.254
 5789SOL    HW118266   3.970   5.080   6.174
 5789SOL    HW218267   3.975   4.941   6.261
 5790SOL     OW18268   1.168   3.957   3.853
 5790SOL    HW118269   1.105   3.990   3.923
 5790SOL    HW218270   1.149   3.861   3.833
 5791SOL     OW18271   1.590   0.349   3.255
 5791SOL    HW118272   1.673   0.316   3.299
 5791SOL    HW218273   1.597   0.447   3.238
 5792SOL     OW18274   6.960   2.555   2.731
 5792SOL    HW118275   7.012   2.470   2.743
 5792SOL    HW218276   0.005   2.632   2.723
 5793SOL     OW18277   6.383   0.661   4.771
 5793SOL    HW118278   6.429   0.576   4.800
 5793SOL    HW218279   6.286   0.656   4.795
 5794SOL     OW18280   6.545   4.186   6.433
 5794SOL    HW118281   6.504   4.221   6.517
 5794SOL    HW218282   6.617   4.120   6.456
 5795SOL     OW18283   5.979   4.309   6.268
 5795SOL    HW118284   5.999   4.391   6.322
 5795SOL    HW218285   6.032   4.233   6.303
 5796SOL     OW18286   2.829   2.523   0.792
 5796SOL    HW118287   2.842   2.554   0.886
 5796SOL    HW218288   2.753   2.574   0.751
 5797SOL     OW18289   2.896   2.735   5.388
 5797SOL    HW118290   2.990   2.768   5.395
 5797SOL    HW218291   2.896   2.637   5.368
 5798SOL     OW18292   6.428   5.106   4.180
 5798SOL    HW118293   6.353   5.170   4.166
 5798SOL    HW218294   6.514   5.150   4.155
 5799SOL     OW18295   5.490   1.014   4.042
 5799SOL    HW118296   5.472   1.109   4.069
 5799SOL    HW218297   5.435   0.991   3.962
 5800SOL     OW18298   6.342   5.696   6.711
 5800SOL    HW118299   6.338   5.761   6.787
 5800SOL    HW218300   6.387   5.739   6.633
 5801SOL     OW18301   2.063   0.938   2.660
 5801SOL    HW118302   2.145   0.929   2.716
 5801SOL    HW218303   2.043   1.035   2.646
 5802SOL     OW18304   0.446   2.592   4.778
 5802SOL    HW118305   0.428   2.517   4.714
 5802SOL    HW218306   0.542   2.591   4.804
 5803SOL     OW18307   1.610   5.114   0.922
 5803SOL    HW118308   1.526   5.101   0.974
 5803SOL    HW218309   1.686   5.129   0.985
 5804SOL     OW18310   0.225   2.546   6.142
 5804SOL    HW118311   0.211   2.516   6.236
 5804SOL    HW218312   0.148   2.516   6.085
 5805SOL     OW18313   5.930   3.505   6.480
 5805SOL    HW118314   5.876   3.563   6.540
 5805SOL    HW218315   5.879   3.421   6.460
 5806SOL     OW18316   6.536   6.849   6.735
 5806SOL    HW118317   6.633   6.853   6.761
 5806SOL    HW218318   6.479   6.853   6.818
 5807SOL     OW18319   2.294   3.617   1.650
 5807SOL    HW118320   2.327   3.548   1.715
 5807SOL    HW218321   2.209   3.657   1.686
 5808SOL     OW18322   6.363   1.603   3.505
 5808SOL    HW118323   6.265   1.623   3.496
 5808SOL    HW218324   6.390   1.540   3.432
 5809SOL     OW18325   0.221   2.776   3.976
 5809SOL    HW118326   0.311   2.732   3.972
 5809SOL    HW218327   0.182   2.780   3.884
 5810SOL     OW18328   2.670   2.336   2.620
 5810SOL    HW118329   2.674   2.236   2.627
 5810SOL    HW218330   2.585   2.363   2.576
 5811SOL     OW18331   3.436   0.337   2.825
 5811SOL    HW118332   3.411   0.367   2.733
 5811SOL    HW218333   3.355   0.302   2.871
 5812SOL     OW18334   4.514   0.471   5.077
 5812SOL    HW118335   4.418   0.451   5.096
 5812SOL    HW218336   4.542   0.553   5.127
 5813SOL     OW18337   1.471   1.253   5.232
 5813SOL    HW118338   1.443   1.164   5.196
 5813SOL    HW218339   1.564   1.246   5.270
 5814SOL     OW18340   7.001   5.246   0.906
 5814SOL    HW118341   6.915   5.208   0.940
 5814SOL    HW218342   0.048   5.172   0.893
 5815SOL     OW18343   3.826   0.684   3.777
 5815SOL    HW118344   3.829   0.599   3.724
 5815SOL    HW218345   3.732   0.715   3.785
 5816SOL     OW18346   5.117   6.741   0.685
 5816SOL    HW118347   5.072   6.694   0.761
 5816SOL    HW218348   5.211   6.709   0.676
 5817SOL     OW18349   5.868   2.362   6.133
 5817SOL    HW118350   5.942   2.384   6.069
 5817SOL    HW218351   5.816   2.285   6.097
 5818SOL     OW18352   6.294   6.048   5.687
 5818SOL    HW118353   6.340   6.108   5.622
 5818SOL    HW218354   6.197   6.040   5.662
 5819SOL     OW18355   6.010   0.253   0.592
 5819SOL    HW118356   6.068   0.327   0.558
 5819SOL    HW218357   5.967   0.281   0.678
 5820SOL     OW18358   5.380   5.150   2.119
 5820SOL    HW118359   5.379   5.152   2.019
 5820SOL    HW218360   5.434   5.226   2.153
 5821SOL     OW18361   3.166   6.673   2.880
 5821SOL    HW118362   3.120   6.719   2.956
 5821SOL    HW218363   3.103   6.666   2.802
 5822SOL     OW18364   0.952   1.076   2.064
 5822SOL    HW118365   0.945   1.090   1.965
 5822SOL    HW218366   1.047   1.090   2.093
 5823SOL     OW18367   1.962   2.750   4.027
 5823SOL    HW118368   1.883   2.802   3.995
 5823SOL    HW218369   1.960   2.743   4.126
 5824SOL     OW18370   4.330   0.173   3.549
 5824SOL    HW118371   4.317   0.094   3.610
 5824SOL    HW218372   4.245   0.189   3.498
 5825SOL     OW18373   3.731   1.118   1.395
 5825SOL    HW118374   3.739   1.089   1.491
 5825SOL    HW218375   3.763   1.212   1.386
 5826SOL     OW18376   0.328   6.683   3.624
 5826SOL    HW118377   0.417   6.727   3.608
 5826SOL    HW218378   0.335   6.624   3.704
 5827SOL     OW18379   1.658   4.535   5.373
 5827SOL    HW118380   1.702   4.617   5.410
 5827SOL    HW218381   1.724   4.483   5.319
 5828SOL     OW18382   6.514   1.950   1.645
 5828SOL    HW118383   6.610   1.963   1.621
 5828SOL    HW218384   6.508   1.894   1.728
 5829SOL     OW18385   1.387   1.566   1.563
 5829SOL    HW118386   1.437   1.494   1.514
 5829SOL    HW218387   1.328   1.524   1.632
 5830SOL     OW18388   2.177   0.873   5.392
 5830SOL    HW118389   2.198   0.777   5.409
 5830SOL    HW218390   2.150   0.917   5.478
 5831SOL     OW18391   5.776   5.789   2.859
 5831SOL    HW118392   5.730   5.723   2.917
 5831SOL    HW218393   5.799   5.871   2.912
 5832SOL     OW18394   3.490   3.333   4.254
 5832SOL    HW118395   3.441   3.256   4.214
 5832SOL    HW218396   3.465   3.417   4.206
 5833SOL     OW18397   3.271   3.336   5.066
 5833SOL    HW118398   3.357   3.312   5.020
 5833SOL    HW218399   3.220   3.253   5.088
 5834SOL     OW18400   6.513   0.754   0.187
 5834SOL    HW118401   6.603   0.730   0.150
 5834SOL    HW218402   6.442   0.734   0.119
 5835SOL     OW18403   5.634   3.242   4.322
 5835SOL    HW118404   5.536   3.235   4.339
 5835SOL    HW218405   5.683   3.175   4.378
 5836SOL     OW18406   3.592   6.927   2.963
 5836SOL    HW118407   3.554   6.985   3.035
 5836SOL    HW218408   3.549   6.837   2.966
 5837SOL     OW18409   4.370   4.620   6.198
 5837SOL    HW118410   4.367   4.522   6.217
 5837SOL    HW218411   4.372   4.635   6.099
 5838SOL     OW18412   0.850   1.099   5.747
 5838SOL    HW118413   0.926   1.132   5.803
 5838SOL    HW218414   0.764   1.125   5.790
 5839SOL     OW18415   0.233   2.551   2.402
 5839SOL    HW118416   0.159   2.496   2.439
 5839SOL    HW218417   0.319   2.501   2.409
 5840SOL     OW18418   3.256   5.316   0.120
 5840SOL    HW118419   3.253   5.259   0.037
 5840SOL    HW218420   3.305   5.401   0.101
 5841SOL     OW18421   6.189   2.430   3.353
 5841SOL    HW118422   6.239   2.510   3.385
 5841SOL    HW218423   6.253   2.366   3.310
 5842SOL     OW18424   3.593   2.707   0.428
 5842SOL    HW118425   3.526   2.698   0.501
 5842SOL    HW218426   3.587   2.628   0.367
 5843SOL     OW18427   0.651   3.010   1.183
 5843SOL    HW118428   0.738   3.049   1.152
 5843SOL    HW218429   0.628   2.931   1.127
 5844SOL     OW18430   1.815   6.510   0.007
 5844SOL    HW118431   1.805   6.417   6.990
 5844SOL    HW218432   1.887   6.558   6.975
 5845SOL     OW18433   1.286   2.535   4.684
 5845SOL    HW118434   1.252   2.457   4.633
 5845SOL    HW218435   1.370   2.569   4.641
 5846SOL     OW18436   0.115   3.367   6.632
 5846SOL    HW118437   0.119   3.454   6.681
 5846SOL    HW218438   0.207   3.332   6.617
 5847SOL     OW18439   1.365   2.065   3.836
 5847SOL    HW118440   1.417   2.032   3.915
 5847SOL    HW218441   1.342   2.161   3.848
 5848SOL     OW18442   1.135   4.784   3.451
 5848SOL    HW118443   1.204   4.735   3.399
 5848SOL    HW218444   1.142   4.882   3.432
 5849SOL     OW18445   3.280   6.721   5.954
 5849SOL    HW118446   3.202   6.784   5.957
 5849SOL    HW218447   3.268   6.650   6.023
 5850SOL     OW18448   0.719   4.526   3.510
 5850SOL    HW118449   0.805   4.546   3.463
 5850SOL    HW218450   0.675   4.611   3.537
 5851SOL     OW18451   5.753   2.958   1.805
 5851SOL    HW118452   5.750   3.031   1.874
 5851SOL    HW218453   5.842   2.912   1.810
 5852SOL     OW18454   4.161   6.117   3.073
 5852SOL    HW118455   4.074   6.097   3.027
 5852SOL    HW218456   4.163   6.214   3.098
 5853SOL     OW18457   4.721   3.763   5.625
 5853SOL    HW118458   4.767   3.849   5.602
 5853SOL    HW218459   4.648   3.781   5.690
 5854SOL     OW18460   1.189   1.066   6.606
 5854SOL    HW118461   1.275   1.020   6.625
 5854SOL    HW218462   1.191   1.159   6.644
 5855SOL     OW18463   1.758   1.554   5.051
 5855SOL    HW118464   1.781   1.465   5.093
 5855SOL    HW218465   1.820   1.571   4.975
 5856SOL     OW18466   1.766   5.228   2.902
 5856SOL    HW118467   1.800   5.264   2.815
 5856SOL    HW218468   1.769   5.301   2.971
 5857SOL     OW18469   0.520   2.596   5.231
 5857SOL    HW118470   0.610   2.617   5.193
 5857SOL    HW218471   0.530   2.540   5.313
 5858SOL     OW18472   3.625   6.761   3.568
 5858SOL    HW118473   3.547   6.816   3.601
 5858SOL    HW218474   3.667   6.715   3.646
 5859SOL     OW18475   6.363   6.092   1.902
 5859SOL    HW118476   6.308   6.126   1.979
 5859SOL    HW218477   6.307   6.030   1.846
 5860SOL     OW18478   6.970   3.952   0.989
 5860SOL    HW118479   0.001   3.921   1.070
 5860SOL    HW218480   6.973   3.880   0.919
 5861SOL     OW18481   6.003   1.563   4.006
 5861SOL    HW118482   6.055   1.636   3.961
 5861SOL    HW218483   6.060   1.521   4.076
 5862SOL     OW18484   4.613   4.946   3.825
 5862SOL    HW118485   4.634   4.867   3.882
 5862SOL    HW218486   4.683   4.956   3.754
 5863SOL     OW18487   1.966   1.677   1.179
 5863SOL    HW118488   2.049   1.620   1.179
 5863SOL    HW218489   1.949   1.711   1.087
 5864SOL     OW18490   4.631   5.442   0.598
 5864SOL    HW118491   4.557   5.488   0.549
 5864SOL    HW218492   4.632   5.473   0.694
 5865SOL     OW18493   4.507   0.727   3.664
 5865SOL    HW118494   4.455   0.754   3.583
 5865SOL    HW218495   4.458   0.755   3.746
 5866SOL     OW18496   3.338   1.804   0.093
 5866SOL    HW118497   3.290   1.838   0.012
 5866SOL    HW218498   3.303   1.714   0.117
 5867SOL     OW18499   6.698   2.672   1.244
 5867SOL    HW118500   6.626   2.741   1.238
 5867SOL    HW218501   6.787   2.716   1.230
 5868SOL     OW18502   0.939   6.670   4.704
 5868SOL    HW118503   0.867   6.601   4.708
 5868SOL    HW218504   0.935   6.727   4.787
 5869SOL     OW18505   3.108   4.858   4.302
 5869SOL    HW118506   3.182   4.923   4.287
 5869SOL    HW218507   3.071   4.872   4.394
 5870SOL     OW18508   4.796   5.626   3.828
 5870SOL    HW118509   4.747   5.565   3.767
 5870SOL    HW218510   4.881   5.656   3.785
 5871SOL     OW18511   2.797   3.526   0.445
 5871SOL    HW118512   2.783   3.428   0.454
 5871SOL    HW218513   2.737   3.563   0.374
 5872SOL     OW18514   4.038   5.375   3.965
 5872SOL    HW118515   4.006   5.300   3.906
 5872SOL    HW218516   4.125   5.349   4.007
 5873SOL     OW18517   2.147   2.724   0.020
 5873SOL    HW118518   2.134   2.705   0.117
 5873SOL    HW218519   2.164   2.822   0.008
 5874SOL     OW18520   1.001   4.390   6.491
 5874SOL    HW118521   0.946   4.473   6.498
 5874SOL    HW218522   0.940   4.310   6.492
 5875SOL     OW18523   3.269   2.340   0.755
 5875SOL    HW118524   3.344   2.383   0.705
 5875SOL    HW218525   3.278   2.361   0.852
 5876SOL     OW18526   4.263   4.267   6.345
 5876SOL    HW118527   4.207   4.241   6.266
 5876SOL    HW218528   4.203   4.283   6.424
 5877SOL     OW18529   5.863   0.093   2.347
 5877SOL    HW118530   5.780   0.050   2.381
 5877SOL    HW218531   5.858   0.192   2.363
 5878SOL     OW18532   4.849   3.928   2.227
 5878SOL    HW118533   4.828   3.892   2.136
 5878SOL    HW218534   4.846   4.028   2.224
 5879SOL     OW18535   2.928   4.250   5.316
 5879SOL    HW118536   2.902   4.336   5.271
 5879SOL    HW218537   2.857   4.182   5.299
 5880SOL     OW18538   5.771   2.494   0.273
 5880SOL    HW118539   5.707   2.527   0.203
 5880SOL    HW218540   5.726   2.495   0.362
 5881SOL     OW18541   1.500   6.178   2.859
 5881SOL    HW118542   1.591   6.148   2.830
 5881SOL    HW218543   1.455   6.103   2.908
 5882SOL     OW18544   1.516   4.913   5.646
 5882SOL    HW118545   1.441   4.977   5.631
 5882SOL    HW218546   1.575   4.948   5.719
 5883SOL     OW18547   6.912   5.330   0.205
 5883SOL    HW118548   6.954   5.332   0.295
 5883SOL    HW218549   6.974   5.287   0.140
 5884SOL     OW18550   6.277   0.806   2.564
 5884SOL    HW118551   6.225   0.887   2.537
 5884SOL    HW218552   6.270   0.736   2.492
 5885SOL     OW18553   0.156   5.511   1.385
 5885SOL    HW118554   0.107   5.479   1.304
 5885SOL    HW218555   0.146   5.445   1.459
 5886SOL     OW18556   2.164   4.451   3.616
 5886SOL    HW118557   2.212   4.500   3.689
 5886SOL    HW218558   2.203   4.359   3.607
 5887SOL     OW18559   2.959   3.276   0.276
 5887SOL    HW118560   2.929   3.259   0.370
 5887SOL    HW218561   3.020   3.202   0.246
 5888SOL     OW18562   2.466   6.259   1.550
 5888SOL    HW118563   2.493   6.342   1.599
 5888SOL    HW218564   2.433   6.191   1.615
 5889SOL     OW18565   5.537   1.752   2.657
 5889SOL    HW118566   5.560   1.849   2.651
 5889SOL    HW218567   5.464   1.731   2.592
 5890SOL     OW18568   2.519   4.796   3.398
 5890SOL    HW118569   2.590   4.867   3.392
 5890SOL    HW218570   2.472   4.788   3.310
 5891SOL     OW18571   2.576   3.116   6.469
 5891SOL    HW118572   2.584   3.083   6.375
 5891SOL    HW218573   2.484   3.154   6.483
 5892SOL     OW18574   1.237   2.738   0.547
 5892SOL    HW118575   1.254   2.832   0.515
 5892SOL    HW218576   1.157   2.701   0.500
 5893SOL     OW18577   0.637   6.260   1.820
 5893SOL    HW118578   0.654   6.282   1.724
 5893SOL    HW218579   0.724   6.243   1.866
 5894SOL     OW18580   2.238   5.815   6.920
 5894SOL    HW118581   2.296   5.742   6.955
 5894SOL    HW218582   2.164   5.776   6.865
 5895SOL     OW18583   6.024   3.983   3.720
 5895SOL    HW118584   6.025   3.944   3.812
 5895SOL    HW218585   6.114   3.973   3.678
 5896SOL     OW18586   5.518   2.669   1.990
 5896SOL    HW118587   5.581   2.610   1.939
 5896SOL    HW218588   5.508   2.756   1.941
 5897SOL     OW18589   3.337   2.259   0.243
 5897SOL    HW118590   3.424   2.218   0.268
 5897SOL    HW218591   3.317   2.336   0.304
 5898SOL     OW18592   2.825   0.640   6.676
 5898SOL    HW118593   2.884   0.572   6.633
 5898SOL    HW218594   2.866   0.731   6.666
 5899SOL     OW18595   0.355   6.818   0.029
 5899SOL    HW118596   0.426   6.852   6.987
 5899SOL    HW218597   0.336   6.722   0.007
 5900SOL     OW18598   6.081   6.800   2.050
 5900SOL    HW118599   6.101   6.705   2.071
 5900SOL    HW218600   6.119   6.859   2.120
 5901SOL     OW18601   2.429   0.611   5.191
 5901SOL    HW118602   2.427   0.679   5.264
 5901SOL    HW218603   2.420   0.519   5.231
 5902SOL     OW18604   4.077   4.235   5.651
 5902SOL    HW118605   3.980   4.247   5.631
 5902SOL    HW218606   4.125   4.208   5.568
 5903SOL     OW18607   6.516   2.137   4.966
 5903SOL    HW118608   6.426   2.175   4.989
 5903SOL    HW218609   6.561   2.195   4.898
 5904SOL     OW18610   6.858   4.950   1.384
 5904SOL    HW118611   6.930   4.957   1.453
 5904SOL    HW218612   6.819   4.858   1.387
 5905SOL     OW18613   6.247   2.615   4.790
 5905SOL    HW118614   6.166   2.591   4.844
 5905SOL    HW218615   6.237   2.581   4.697
 5906SOL     OW18616   4.678   1.024   5.970
 5906SOL    HW118617   4.634   1.098   6.021
 5906SOL    HW218618   4.614   0.948   5.959
 5907SOL     OW18619   1.304   3.589   5.775
 5907SOL    HW118620   1.328   3.686   5.782
 5907SOL    HW218621   1.355   3.537   5.844
 5908SOL     OW18622   4.300   3.849   6.580
 5908SOL    HW118623   4.223   3.800   6.622
 5908SOL    HW218624   4.266   3.906   6.506
 5909SOL     OW18625   5.975   4.964   3.791
 5909SOL    HW118626   5.946   5.004   3.879
 5909SOL    HW218627   5.939   5.020   3.716
 5910SOL     OW18628   3.171   4.753   1.260
 5910SOL    HW118629   3.200   4.735   1.166
 5910SOL    HW218630   3.088   4.701   1.279
 5911SOL     OW18631   6.258   0.224   6.158
 5911SOL    HW118632   6.297   0.144   6.203
 5911SOL    HW218633   6.259   0.302   6.220
 5912SOL     OW18634   0.407   3.289   5.958
 5912SOL    HW118635   0.488   3.347   5.967
 5912SOL    HW218636   0.417   3.230   5.879
 5913SOL     OW18637   2.019   2.523   4.263
 5913SOL    HW118638   1.940   2.466   4.240
 5913SOL    HW218639   1.988   2.608   4.305
 5914SOL     OW18640   1.418   5.932   0.838
 5914SOL    HW118641   1.491   5.913   0.903
 5914SOL    HW218642   1.345   5.984   0.884
 5915SOL     OW18643   5.852   3.622   3.839
 5915SOL    HW118644   5.850   3.529   3.803
 5915SOL    HW218645   5.931   3.633   3.899
 5916SOL     OW18646   3.234   0.350   6.612
 5916SOL    HW118647   3.327   0.344   6.647
 5916SOL    HW218648   3.236   0.365   6.513
 5917SOL     OW18649   3.745   3.945   2.450
 5917SOL    HW118650   3.819   3.892   2.408
 5917SOL    HW218651   3.754   3.941   2.550
 5918SOL     OW18652   2.390   1.931   3.980
 5918SOL    HW118653   2.332   1.943   4.061
 5918SOL    HW218654   2.424   1.837   3.977
 5919SOL     OW18655   1.697   1.828   6.937
 5919SOL    HW118656   1.646   1.904   6.977
 5919SOL    HW218657   1.647   1.794   6.857
 5920SOL     OW18658   2.903   5.008   6.964
 5920SOL    HW118659   2.914   5.060   0.030
 5920SOL    HW218660   2.807   4.985   6.952
 5921SOL     OW18661   3.958   5.259   5.365
 5921SOL    HW118662   3.913   5.230   5.450
 5921SOL    HW218663   4.049   5.295   5.387
 5922SOL     OW18664   6.419   4.982   1.685
 5922SOL    HW118665   6.479   4.986   1.765
 5922SOL    HW218666   6.327   5.009   1.712
 5923SOL     OW18667   0.781   0.832   3.520
 5923SOL    HW118668   0.683   0.831   3.502
 5923SOL    HW218669   0.807   0.749   3.569
 5924SOL     OW18670   5.953   1.756   4.329
 5924SOL    HW118671   5.972   1.805   4.414
 5924SOL    HW218672   5.984   1.662   4.337
 5925SOL     OW18673   6.276   5.680   0.375
 5925SOL    HW118674   6.375   5.684   0.361
 5925SOL    HW218675   6.235   5.625   0.302
 5926SOL     OW18676   3.430   6.139   1.737
 5926SOL    HW118677   3.438   6.141   1.836
 5926SOL    HW218678   3.431   6.232   1.701
 5927SOL     OW18679   2.294   5.143   1.713
 5927SOL    HW118680   2.303   5.044   1.727
 5927SOL    HW218681   2.308   5.190   1.800
 5928SOL     OW18682   0.568   6.248   0.954
 5928SOL    HW118683   0.534   6.312   0.885
 5928SOL    HW218684   0.548   6.155   0.926
 5929SOL     OW18685   0.525   6.640   5.585
 5929SOL    HW118686   0.528   6.614   5.488
 5929SOL    HW218687   0.491   6.734   5.593
 5930SOL     OW18688   6.183   1.099   5.343
 5930SOL    HW118689   6.083   1.109   5.342
 5930SOL    HW218690   6.207   1.006   5.368
 5931SOL     OW18691   5.911   4.993   0.644
 5931SOL    HW118692   5.921   4.956   0.737
 5931SOL    HW218693   5.815   4.990   0.617
 5932SOL     OW18694   2.232   0.277   0.244
 5932SOL    HW118695   2.187   0.226   0.170
 5932SOL    HW218696   2.180   0.266   0.328
 5933SOL     OW18697   6.328   3.322   3.121
 5933SOL    HW118698   6.233   3.291   3.119
 5933SOL    HW218699   6.363   3.328   3.027
 5934SOL     OW18700   3.937   3.767   2.366
 5934SOL    HW118701   4.025   3.721   2.353
 5934SOL    HW218702   3.862   3.703   2.345
 5935SOL     OW18703   4.043   3.237   2.882
 5935SOL    HW118704   3.981   3.186   2.821
 5935SOL    HW218705   4.116   3.279   2.828
 5936SOL     OW18706   6.879   6.100   6.682
 5936SOL    HW118707   6.968   6.125   6.719
 5936SOL    HW218708   6.847   6.015   6.724
 5937SOL     OW18709   1.253   4.351   0.030
 5937SOL    HW118710   1.205   4.429   7.008
 5937SOL    HW218711   1.229   4.267   7.000
 5938SOL     OW18712   2.546   4.643   0.647
 5938SOL    HW118713   2.448   4.660   0.646
 5938SOL    HW218714   2.585   4.681   0.731
 5939SOL     OW18715   1.448   1.185   2.206
 5939SOL    HW118716   1.488   1.266   2.249
 5939SOL    HW218717   1.458   1.106   2.267
 5940SOL     OW18718   3.884   4.867   3.831
 5940SOL    HW118719   3.879   4.949   3.888
 5940SOL    HW218720   3.837   4.884   3.744
 5941SOL     OW18721   6.796   2.893   3.418
 5941SOL    HW118722   6.860   2.871   3.344
 5941SOL    HW218723   6.774   2.991   3.414
 5942SOL     OW18724   6.783   1.257   4.648
 5942SOL    HW118725   6.820   1.346   4.620
 5942SOL    HW218726   6.751   1.263   4.743
 5943SOL     OW18727   1.447   5.299   0.425
 5943SOL    HW118728   1.534   5.340   0.397
 5943SOL    HW218729   1.462   5.204   0.453
 5944SOL     OW18730   5.115   2.476   2.714
 5944SOL    HW118731   5.103   2.516   2.804
 5944SOL    HW218732   5.164   2.540   2.655
 5945SOL     OW18733   6.660   5.468   6.214
 5945SOL    HW118734   6.617   5.378   6.207
 5945SOL    HW218735   6.602   5.536   6.171
 5946SOL     OW18736   3.525   2.631   5.320
 5946SOL    HW118737   3.510   2.730   5.319
 5946SOL    HW218738   3.438   2.584   5.330
 5947SOL     OW18739   4.826   3.844   1.962
 5947SOL    HW118740   4.780   3.813   1.879
 5947SOL    HW218741   4.924   3.846   1.946
 5948SOL     OW18742   2.879   5.202   3.206
 5948SOL    HW118743   2.923   5.185   3.294
 5948SOL    HW218744   2.786   5.166   3.208
 5949SOL     OW18745   4.391   4.607   3.056
 5949SOL    HW118746   4.388   4.562   3.146
 5949SOL    HW218747   4.487   4.622   3.030
 5950SOL     OW18748   6.450   2.740   4.627
 5950SOL    HW118749   6.395   2.689   4.694
 5950SOL    HW218750   6.419   2.719   4.535
 5951SOL     OW18751   1.872   0.481   4.363
 5951SOL    HW118752   1.906   0.387   4.358
 5951SOL    HW218753   1.948   0.544   4.351
 5952SOL     OW18754   0.470   5.878   4.966
 5952SOL    HW118755   0.383   5.923   4.946
 5952SOL    HW218756   0.523   5.933   5.031
 5953SOL     OW18757   1.012   3.022   6.012
 5953SOL    HW118758   0.971   2.936   5.982
 5953SOL    HW218759   1.110   3.021   5.991
 5954SOL     OW18760   1.322   4.958   6.581
 5954SOL    HW118761   1.349   5.048   6.616
 5954SOL    HW218762   1.255   4.970   6.508
 5955SOL     OW18763   5.082   5.003   2.897
 5955SOL    HW118764   5.033   5.039   2.818
 5955SOL    HW218765   5.176   5.036   2.896
 5956SOL     OW18766   0.343   1.929   6.831
 5956SOL    HW118767   0.249   1.938   6.800
 5956SOL    HW218768   0.346   1.937   6.931
 5957SOL     OW18769   4.493   6.633   5.365
 5957SOL    HW118770   4.442   6.574   5.427
 5957SOL    HW218771   4.563   6.682   5.416
 5958SOL     OW18772   1.120   5.645   2.446
 5958SOL    HW118773   1.200   5.587   2.462
 5958SOL    HW218774   1.140   5.711   2.374
 5959SOL     OW18775   1.441   1.008   6.659
 5959SOL    HW118776   1.505   0.931   6.667
 5959SOL    HW218777   1.463   1.060   6.576
 5960SOL     OW18778   3.266   6.279   5.680
 5960SOL    HW118779   3.169   6.255   5.676
 5960SOL    HW218780   3.287   6.345   5.608
 5961SOL     OW18781   2.583   1.197   5.536
 5961SOL    HW118782   2.564   1.276   5.595
 5961SOL    HW218783   2.573   1.225   5.440
 5962SOL     OW18784   5.393   3.933   2.101
 5962SOL    HW118785   5.387   3.834   2.084
 5962SOL    HW218786   5.413   3.949   2.198
 5963SOL     OW18787   4.233   4.016   1.710
 5963SOL    HW118788   4.220   4.102   1.660
 5963SOL    HW218789   4.266   4.036   1.802
 5964SOL     OW18790   1.637   3.595   5.602
 5964SOL    HW118791   1.586   3.512   5.622
 5964SOL    HW218792   1.574   3.670   5.582
 5965SOL     OW18793   2.160   1.691   3.714
 5965SOL    HW118794   2.185   1.787   3.709
 5965SOL    HW218795   2.220   1.638   3.653
 5966SOL     OW18796   2.036   5.552   4.293
 5966SOL    HW118797   2.078   5.547   4.203
 5966SOL    HW218798   1.986   5.467   4.312
 5967SOL     OW18799   4.642   5.928   2.502
 5967SOL    HW118800   4.689   6.003   2.547
 5967SOL    HW218801   4.545   5.932   2.523
 5968SOL     OW18802   0.325   1.666   3.786
 5968SOL    HW118803   0.342   1.587   3.728
 5968SOL    HW218804   0.359   1.648   3.878
 5969SOL     OW18805   5.833   2.367   2.960
 5969SOL    HW118806   5.901   2.398   3.026
 5969SOL    HW218807   5.855   2.404   2.869
 5970SOL     OW18808   2.064   3.536   3.393
 5970SOL    HW118809   1.998   3.606   3.368
 5970SOL    HW218810   2.124   3.518   3.315
 5971SOL     OW18811   2.969   6.352   3.282
 5971SOL    HW118812   3.030   6.322   3.208
 5971SOL    HW218813   3.015   6.423   3.335
 5972SOL     OW18814   5.304   0.152   1.932
 5972SOL    HW118815   5.256   0.225   1.882
 5972SOL    HW218816   5.399   0.149   1.901
 5973SOL     OW18817   1.621   4.472   3.245
 5973SOL    HW118818   1.685   4.494   3.172
 5973SOL    HW218819   1.639   4.530   3.324
 5974SOL     OW18820   1.039   3.919   6.201
 5974SOL    HW118821   1.119   3.935   6.259
 5974SOL    HW218822   1.040   3.824   6.169
 5975SOL     OW18823   2.278   2.485   6.302
 5975SOL    HW118824   2.317   2.455   6.215
 5975SOL    HW218825   2.249   2.581   6.294
 5976SOL     OW18826   3.391   2.950   4.483
 5976SOL    HW118827   3.420   2.902   4.566
 5976SOL    HW218828   3.417   3.046   4.490
 5977SOL     OW18829   0.535   3.559   3.311
 5977SOL    HW118830   0.605   3.631   3.318
 5977SOL    HW218831   0.513   3.545   3.215
 5978SOL     OW18832   5.027   5.617   2.138
 5978SOL    HW118833   5.086   5.642   2.215
 5978SOL    HW218834   4.980   5.531   2.159
 5979SOL     OW18835   0.922   1.260   1.625
 5979SOL    HW118836   0.859   1.299   1.558
 5979SOL    HW218837   0.977   1.333   1.666
 5980SOL     OW18838   5.979   2.931   6.232
 5980SOL    HW118839   6.011   2.848   6.186
 5980SOL    HW218840   5.930   2.906   6.316
 5981SOL     OW18841   3.958   2.195   0.740
 5981SOL    HW118842   3.909   2.250   0.672
 5981SOL    HW218843   3.896   2.125   0.776
 5982SOL     OW18844   6.289   2.302   0.083
 5982SOL    HW118845   6.201   2.256   0.092
 5982SOL    HW218846   6.335   2.272   7.019
 5983SOL     OW18847   1.264   0.531   4.692
 5983SOL    HW118848   1.180   0.584   4.699
 5983SOL    HW218849   1.242   0.433   4.697
 5984SOL     OW18850   0.570   6.942   5.829
 5984SOL    HW118851   0.636   6.877   5.791
 5984SOL    HW218852   0.618   0.009   5.852
 5985SOL     OW18853   5.512   3.716   3.984
 5985SOL    HW118854   5.543   3.639   3.929
 5985SOL    HW218855   5.573   3.794   3.970
 5986SOL     OW18856   3.025   3.204   2.953
 5986SOL    HW118857   3.063   3.111   2.950
 5986SOL    HW218858   3.054   3.248   3.038
 5987SOL     OW18859   5.034   0.352   5.824
 5987SOL    HW118860   4.934   0.359   5.825
 5987SOL    HW218861   5.061   0.257   5.839
 5988SOL     OW18862   3.439   0.205   5.838
 5988SOL    HW118863   3.514   0.216   5.773
 5988SOL    HW218864   3.453   0.266   5.916
 5989SOL     OW18865   2.819   1.847   6.871
 5989SOL    HW118866   2.823   1.901   6.787
 5989SOL    HW218867   2.788   1.905   6.947
 5990SOL     OW18868   3.561   5.125   2.743
 5990SOL    HW118869   3.656   5.147   2.766
 5990SOL    HW218870   3.559   5.054   2.672
 5991SOL     OW18871   2.673   5.165   3.553
 5991SOL    HW118872   2.759   5.175   3.603
 5991SOL    HW218873   2.596   5.175   3.616
 5992SOL     OW18874   4.359   2.037   4.000
 5992SOL    HW118875   4.387   2.044   3.905
 5992SOL    HW218876   4.319   2.123   4.031
 5993SOL     OW18877   2.774   5.591   3.779
 5993SOL    HW118878   2.694   5.633   3.735
 5993SOL    HW218879   2.747   5.504   3.821
 5994SOL     OW18880   6.354   1.845   1.310
 5994SOL    HW118881   6.403   1.875   1.228
 5994SOL    HW218882   6.339   1.924   1.369
 5995SOL     OW18883   0.872   4.783   1.298
 5995SOL    HW118884   0.936   4.707   1.305
 5995SOL    HW218885   0.811   4.783   1.377
 5996SOL     OW18886   1.043   5.974   5.990
 5996SOL    HW118887   1.096   6.040   5.937
 5996SOL    HW218888   0.978   6.022   6.048
 5997SOL     OW18889   0.397   0.693   1.618
 5997SOL    HW118890   0.390   0.753   1.698
 5997SOL    HW218891   0.374   0.744   1.535
 5998SOL     OW18892   4.568   2.550   3.577
 5998SOL    HW118893   4.559   2.643   3.611
 5998SOL    HW218894   4.624   2.496   3.640
 5999SOL     OW18895   2.456   2.686   3.271
 5999SOL    HW118896   2.396   2.739   3.211
 5999SOL    HW218897   2.404   2.652   3.349
 6000SOL     OW18898   5.009   0.870   3.636
 6000SOL    HW118899   5.075   0.919   3.577
 6000SOL    HW218900   4.928   0.928   3.649
 6001SOL     OW18901   6.705   1.659   0.312
 6001SOL    HW118902   6.713   1.605   0.228
 6001SOL    HW218903   6.628   1.626   0.366
 6002SOL     OW18904   1.741   0.311   1.976
 6002SOL    HW118905   1.722   0.351   1.886
 6002SOL    HW218906   1.656   0.280   2.018
 6003SOL     OW18907   5.648   4.532   3.779
 6003SOL    HW118908   5.711   4.558   3.852
 6003SOL    HW218909   5.571   4.481   3.818
 6004SOL     OW18910   6.795   3.526   1.908
 6004SOL    HW118911   6.886   3.535   1.949
 6004SOL    HW218912   6.804   3.519   1.809
 6005SOL     OW18913   1.810   5.943   2.344
 6005SOL    HW118914   1.847   6.014   2.284
 6005SOL    HW218915   1.885   5.891   2.384
 6006SOL     OW18916   2.425   5.933   0.222
 6006SOL    HW118917   2.424   6.012   0.283
 6006SOL    HW218918   2.333   5.894   0.216
 6007SOL     OW18919   5.116   3.419   4.761
 6007SOL    HW118920   5.060   3.491   4.721
 6007SOL    HW218921   5.096   3.411   4.858
 6008SOL     OW18922   4.726   3.953   1.315
 6008SOL    HW118923   4.743   3.957   1.414
 6008SOL    HW218924   4.699   3.860   1.289
 6009SOL     OW18925   4.456   1.970   5.018
 6009SOL    HW118926   4.420   2.015   4.937
 6009SOL    HW218927   4.551   1.999   5.033
 6010SOL     OW18928   1.386   4.387   3.113
 6010SOL    HW118929   1.309   4.390   3.176
 6010SOL    HW218930   1.472   4.388   3.164
 6011SOL     OW18931   6.402   2.172   1.802
 6011SOL    HW118932   6.342   2.131   1.870
 6011SOL    HW218933   6.451   2.100   1.752
 6012SOL     OW18934   0.298   3.213   1.796
 6012SOL    HW118935   0.300   3.229   1.697
 6012SOL    HW218936   0.275   3.117   1.814
 6013SOL     OW18937   5.542   0.359   2.735
 6013SOL    HW118938   5.610   0.431   2.725
 6013SOL    HW218939   5.492   0.372   2.821
 6014SOL     OW18940   6.095   0.434   1.060
 6014SOL    HW118941   6.157   0.501   1.100
 6014SOL    HW218942   6.030   0.479   0.999
 6015SOL     OW18943   5.584   0.432   4.192
 6015SOL    HW118944   5.509   0.429   4.125
 6015SOL    HW218945   5.624   0.341   4.202
 6016SOL     OW18946   2.248   0.179   5.490
 6016SOL    HW118947   2.201   0.225   5.565
 6016SOL    HW218948   2.189   0.176   5.410
 6017SOL     OW18949   6.971   3.767   2.357
 6017SOL    HW118950   6.955   3.866   2.351
 6017SOL    HW218951   6.885   3.720   2.374
 6018SOL     OW18952   2.745   5.315   1.708
 6018SOL    HW118953   2.832   5.312   1.659
 6018SOL    HW218954   2.711   5.409   1.709
 6019SOL     OW18955   5.907   6.346   3.253
 6019SOL    HW118956   5.927   6.380   3.161
 6019SOL    HW218957   5.898   6.423   3.316
 6020SOL     OW18958   2.401   6.581   2.807
 6020SOL    HW118959   2.343   6.655   2.773
 6020SOL    HW218960   2.352   6.494   2.800
 6021SOL     OW18961   4.057   0.463   3.973
 6021SOL    HW118962   4.118   0.385   3.986
 6021SOL    HW218963   4.047   0.512   4.060
 6022SOL     OW18964   4.590   0.959   5.148
 6022SOL    HW118965   4.672   0.904   5.139
 6022SOL    HW218966   4.514   0.901   5.178
 6023SOL     OW18967   0.041   2.326   2.447
 6023SOL    HW118968   0.096   2.319   2.530
 6023SOL    HW218969   6.969   2.359   2.470
 6024SOL     OW18970   6.877   6.101   2.596
 6024SOL    HW118971   6.811   6.102   2.671
 6024SOL    HW218972   6.956   6.046   2.622
 6025SOL     OW18973   4.088   2.193   2.442
 6025SOL    HW118974   3.993   2.202   2.412
 6025SOL    HW218975   4.096   2.113   2.501
 6026SOL     OW18976   0.422   4.637   5.478
 6026SOL    HW118977   0.518   4.626   5.505
 6026SOL    HW218978   0.365   4.644   5.560
 6027SOL     OW18979   4.007   3.299   0.343
 6027SOL    HW118980   4.100   3.309   0.380
 6027SOL    HW218981   3.944   3.278   0.418
 6028SOL     OW18982   0.892   4.239   0.143
 6028SOL    HW118983   0.961   4.305   0.172
 6028SOL    HW218984   0.834   4.280   0.073
 6029SOL     OW18985   0.963   4.835   1.593
 6029SOL    HW118986   0.864   4.829   1.583
 6029SOL    HW218987   1.003   4.744   1.589
 6030SOL     OW18988   1.732   6.782   1.560
 6030SOL    HW118989   1.735   6.682   1.571
 6030SOL    HW218990   1.754   6.826   1.647
 6031SOL     OW18991   5.172   0.936   4.337
 6031SOL    HW118992   5.109   0.861   4.358
 6031SOL    HW218993   5.254   0.900   4.293
 6032SOL     OW18994   0.417   3.159   2.062
 6032SOL    HW118995   0.368   3.128   1.981
 6032SOL    HW218996   0.501   3.105   2.073
 6033SOL     OW18997   0.442   6.815   4.659
 6033SOL    HW118998   0.468   6.797   4.754
 6033SOL    HW218999   0.522   6.842   4.607
 6034SOL     OW19000   2.350   4.431   5.040
 6034SOL    HW119001   2.311   4.394   5.124
 6034SOL    HW219002   2.338   4.365   4.966
 6035SOL     OW19003   5.376   6.998   3.827
 6035SOL    HW119004   5.359   6.950   3.741
 6035SOL    HW219005   5.290   7.005   3.879
 6036SOL     OW19006   6.939   0.727   4.534
 6036SOL    HW119007   7.011   0.692   4.474
 6036SOL    HW219008   6.934   0.826   4.525
 6037SOL     OW19009   0.344   5.615   4.753
 6037SOL    HW119010   0.372   5.684   4.686
 6037SOL    HW219011   0.299   5.660   4.830
 6038SOL     OW19012   6.449   3.737   6.633
 6038SOL    HW119013   6.477   3.805   6.701
 6038SOL    HW219014   6.355   3.756   6.603
 6039SOL     OW19015   4.120   3.326   4.537
 6039SOL    HW119016   4.099   3.308   4.441
 6039SOL    HW219017   4.155   3.243   4.580
 6040SOL     OW19018   1.323   0.906   1.365
 6040SOL    HW119019   1.329   1.005   1.354
 6040SOL    HW219020   1.227   0.877   1.360
 6041SOL     OW19021   0.352   2.489   0.478
 6041SOL    HW119022   0.408   2.496   0.561
 6041SOL    HW219023   0.379   2.561   0.414
 6042SOL     OW19024   5.418   5.610   4.875
 6042SOL    HW119025   5.379   5.627   4.785
 6042SOL    HW219026   5.502   5.557   4.866
 6043SOL     OW19027   0.239   4.540   4.257
 6043SOL    HW119028   0.307   4.477   4.220
 6043SOL    HW219029   0.148   4.500   4.248
 6044SOL     OW19030   1.815   0.363   1.474
 6044SOL    HW119031   1.804   0.264   1.485
 6044SOL    HW219032   1.800   0.387   1.378
 6045SOL     OW19033   6.281   4.019   0.599
 6045SOL    HW119034   6.275   4.119   0.597
 6045SOL    HW219035   6.359   3.992   0.656
 6046SOL     OW19036   1.914   3.502   0.233
 6046SOL    HW119037   1.848   3.497   0.308
 6046SOL    HW219038   1.864   3.515   0.147
 6047SOL     OW19039   0.458   6.325   4.784
 6047SOL    HW119040   0.373   6.299   4.739
 6047SOL    HW219041   0.444   6.407   4.838
 6048SOL     OW19042   4.597   6.114   4.602
 6048SOL    HW119043   4.543   6.119   4.518
 6048SOL    HW219044   4.613   6.206   4.637
 6049SOL     OW19045   6.701   5.484   0.126
 6049SOL    HW119046   6.713   5.582   0.110
 6049SOL    HW219047   6.781   5.448   0.173
 6050SOL     OW19048   5.563   4.702   5.614
 6050SOL    HW119049   5.610   4.790   5.622
 6050SOL    HW219050   5.596   4.654   5.534
 6051SOL     OW19051   2.821   2.006   3.185
 6051SOL    HW119052   2.912   1.966   3.172
 6051SOL    HW219053   2.829   2.100   3.215
 6052SOL     OW19054   6.700   1.315   0.380
 6052SOL    HW119055   6.668   1.221   0.375
 6052SOL    HW219056   6.797   1.320   0.357
 6053SOL     OW19057   1.909   7.016   6.407
 6053SOL    HW119058   1.981   0.025   6.343
 6053SOL    HW219059   1.836   6.970   6.357
 6054SOL     OW19060   1.542   4.143   6.415
 6054SOL    HW119061   1.553   4.135   6.316
 6054SOL    HW219062   1.610   4.207   6.451
 6055SOL     OW19063   5.419   0.359   3.554
 6055SOL    HW119064   5.503   0.412   3.565
 6055SOL    HW219065   5.377   0.382   3.467
 6056SOL     OW19066   5.315   3.314   6.098
 6056SOL    HW119067   5.365   3.359   6.172
 6056SOL    HW219068   5.276   3.382   6.037
 6057SOL     OW19069   3.502   1.064   6.386
 6057SOL    HW119070   3.535   1.140   6.329
 6057SOL    HW219071   3.414   1.089   6.426
 6058SOL     OW19072   5.430   1.809   5.128
 6058SOL    HW119073   5.382   1.746   5.189
 6058SOL    HW219074   5.380   1.896   5.125
 6059SOL     OW19075   6.640   6.068   6.281
 6059SOL    HW119076   6.663   6.135   6.352
 6059SOL    HW219077   6.578   6.110   6.215
 6060SOL     OW19078   3.528   6.250   6.404
 6060SOL    HW119079   3.624   6.229   6.422
 6060SOL    HW219080   3.513   6.349   6.415
 6061SOL     OW19081   1.962   1.619   0.248
 6061SOL    HW119082   1.951   1.627   0.149
 6061SOL    HW219083   1.942   1.707   0.291
 6062SOL     OW19084   1.284   0.145   4.394
 6062SOL    HW119085   1.227   0.213   4.440
 6062SOL    HW219086   1.237   0.056   4.396
 6063SOL     OW19087   5.432   5.841   0.124
 6063SOL    HW119088   5.472   5.931   0.135
 6063SOL    HW219089   5.375   5.820   0.204
 6064SOL     OW19090   0.795   5.263   2.751
 6064SOL    HW119091   0.701   5.231   2.734
 6064SOL    HW219092   0.859   5.206   2.698
 6065SOL     OW19093   5.679   6.885   1.774
 6065SOL    HW119094   5.755   6.825   1.798
 6065SOL    HW219095   5.598   6.861   1.829
 6066SOL     OW19096   4.514   2.087   6.039
 6066SOL    HW119097   4.451   2.154   6.078
 6066SOL    HW219098   4.479   1.994   6.056
 6067SOL     OW19099   5.278   2.369   6.948
 6067SOL    HW119100   5.239   2.397   0.016
 6067SOL    HW219101   5.207   2.328   6.891
 6068SOL     OW19102   5.745   1.921   5.500
 6068SOL    HW119103   5.787   1.993   5.555
 6068SOL    HW219104   5.652   1.948   5.475
 6069SOL     OW19105   6.258   4.655   4.323
 6069SOL    HW119106   6.299   4.570   4.356
 6069SOL    HW219107   6.291   4.732   4.378
 6070SOL     OW19108   4.814   2.843   0.106
 6070SOL    HW119109   4.822   2.935   0.069
 6070SOL    HW219110   4.764   2.847   0.193
 6071SOL     OW19111   5.268   6.810   5.550
 6071SOL    HW119112   5.281   6.770   5.459
 6071SOL    HW219113   5.350   6.862   5.575
 6072SOL     OW19114   6.844   1.480   0.933
 6072SOL    HW119115   6.939   1.510   0.945
 6072SOL    HW219116   6.788   1.558   0.908
 6073SOL     OW19117   6.681   1.483   1.177
 6073SOL    HW119118   6.757   1.420   1.158
 6073SOL    HW219119   6.597   1.431   1.189
 6074SOL     OW19120   0.725   0.347   5.090
 6074SOL    HW119121   0.627   0.328   5.089
 6074SOL    HW219122   0.761   0.334   5.182
 6075SOL     OW19123   4.540   3.954   6.497
 6075SOL    HW119124   4.609   3.886   6.522
 6075SOL    HW219125   4.449   3.922   6.527
 6076SOL     OW19126   2.678   0.349   4.297
 6076SOL    HW119127   2.642   0.438   4.325
 6076SOL    HW219128   2.720   0.357   4.207
 6077SOL     OW19129   4.991   4.995   3.152
 6077SOL    HW119130   5.024   4.970   3.061
 6077SOL    HW219131   5.052   5.063   3.192
 6078SOL     OW19132   1.810   4.429   3.819
 6078SOL    HW119133   1.722   4.424   3.867
 6078SOL    HW219134   1.866   4.350   3.843
 6079SOL     OW19135   2.974   1.297   0.678
 6079SOL    HW119136   2.979   1.319   0.580
 6079SOL    HW219137   2.887   1.330   0.715
 6080SOL     OW19138   6.128   2.856   3.281
 6080SOL    HW119139   6.175   2.781   3.233
 6080SOL    HW219140   6.041   2.823   3.315
 6081SOL     OW19141   0.843   3.791   2.732
 6081SOL    HW119142   0.781   3.713   2.748
 6081SOL    HW219143   0.801   3.852   2.665
 6082SOL     OW19144   3.371   1.676   4.671
 6082SOL    HW119145   3.435   1.683   4.595
 6082SOL    HW219146   3.368   1.762   4.720
 6083SOL     OW19147   1.797   6.712   0.488
 6083SOL    HW119148   1.802   6.706   0.389
 6083SOL    HW219149   1.704   6.733   0.516
 6084SOL     OW19150   0.186   5.194   5.739
 6084SOL    HW119151   0.221   5.118   5.684
 6084SOL    HW219152   0.155   5.267   5.679
 6085SOL     OW19153   4.941   5.075   1.920
 6085SOL    HW119154   4.916   5.021   2.000
 6085SOL    HW219155   4.862   5.127   1.888
 6086SOL     OW19156   3.165   1.494   2.637
 6086SOL    HW119157   3.259   1.509   2.605
 6086SOL    HW219158   3.116   1.437   2.571
 6087SOL     OW19159   3.497   0.496   0.937
 6087SOL    HW119160   3.531   0.416   0.987
 6087SOL    HW219161   3.569   0.565   0.931
 6088SOL     OW19162   0.208   0.310   5.138
 6088SOL    HW119163   0.209   0.385   5.073
 6088SOL    HW219164   0.301   0.272   5.147
 6089SOL     OW19165   6.500   3.714   0.616
 6089SOL    HW119166   6.433   3.675   0.679
 6089SOL    HW219167   6.453   3.746   0.533
 6090SOL     OW19168   0.107   5.612   4.033
 6090SOL    HW119169   0.124   5.594   3.936
 6090SOL    HW219170   0.171   5.559   4.089
 6091SOL     OW19171   6.334   2.088   1.467
 6091SOL    HW119172   6.357   2.183   1.445
 6091SOL    HW219173   6.402   2.051   1.530
 6092SOL     OW19174   0.796   3.414   1.004
 6092SOL    HW119175   0.843   3.418   1.092
 6092SOL    HW219176   0.718   3.353   1.010
 6093SOL     OW19177   1.166   3.991   0.732
 6093SOL    HW119178   1.083   4.039   0.704
 6093SOL    HW219179   1.242   4.055   0.735
 6094SOL     OW19180   0.653   1.157   0.533
 6094SOL    HW119181   0.676   1.223   0.605
 6094SOL    HW219182   0.711   1.174   0.453
 6095SOL     OW19183   6.806   4.240   5.178
 6095SOL    HW119184   6.769   4.217   5.088
 6095SOL    HW219185   6.762   4.323   5.212
 6096SOL     OW19186   4.423   2.176   3.081
 6096SOL    HW119187   4.365   2.100   3.049
 6096SOL    HW219188   4.481   2.206   3.006
 6097SOL     OW19189   3.101   1.954   2.390
 6097SOL    HW119190   3.002   1.942   2.389
 6097SOL    HW219191   3.133   1.985   2.301
 6098SOL     OW19192   1.134   0.351   6.550
 6098SOL    HW119193   1.060   0.408   6.513
 6098SOL    HW219194   1.207   0.410   6.584
 6099SOL     OW19195   5.716   4.429   5.156
 6099SOL    HW119196   5.789   4.361   5.148
 6099SOL    HW219197   5.639   4.390   5.207
 6100SOL     OW19198   0.064   2.491   6.938
 6100SOL    HW119199   0.018   2.530   6.858
 6100SOL    HW219200   0.046   2.547   7.018
 6101SOL     OW19201   6.131   6.867   3.729
 6101SOL    HW119202   6.059   6.807   3.763
 6101SOL    HW219203   6.215   6.853   3.782
 6102SOL     OW19204   2.667   6.878   5.011
 6102SOL    HW119205   2.606   6.816   5.060
 6102SOL    HW219206   2.611   6.944   4.959
 6103SOL     OW19207   5.666   1.696   5.284
 6103SOL    HW119208   5.710   1.774   5.329
 6103SOL    HW219209   5.591   1.729   5.226
 6104SOL     OW19210   1.279   2.915   1.165
 6104SOL    HW119211   1.367   2.910   1.118
 6104SOL    HW219212   1.222   2.984   1.121
 6105SOL     OW19213   3.108   4.961   4.970
 6105SOL    HW119214   3.194   4.935   4.927
 6105SOL    HW219215   3.035   4.902   4.934
 6106SOL     OW19216   2.956   4.799   4.077
 6106SOL    HW119217   2.866   4.762   4.101
 6106SOL    HW219218   3.017   4.794   4.156
 6107SOL     OW19219   1.781   4.853   5.253
 6107SOL    HW119220   1.756   4.821   5.344
 6107SOL    HW219221   1.870   4.814   5.228
 6108SOL     OW19222   5.458   1.765   4.642
 6108SOL    HW119223   5.381   1.774   4.706
 6108SOL    HW219224   5.520   1.695   4.675
 6109SOL     OW19225   6.950   3.694   1.604
 6109SOL    HW119226   6.992   3.734   1.685
 6109SOL    HW219227   6.850   3.705   1.610
 6110SOL     OW19228   3.183   2.085   3.269
 6110SOL    HW119229   3.144   2.024   3.200
 6110SOL    HW219230   3.278   2.107   3.243
 6111SOL     OW19231   0.608   4.740   3.686
 6111SOL    HW119232   0.516   4.730   3.724
 6111SOL    HW219233   0.676   4.725   3.758
 6112SOL     OW19234   1.384   2.339   0.425
 6112SOL    HW119235   1.436   2.254   0.434
 6112SOL    HW219236   1.420   2.407   0.489
 6113SOL     OW19237   1.544   5.282   5.028
 6113SOL    HW119238   1.619   5.269   5.093
 6113SOL    HW219239   1.575   5.260   4.936
 6114SOL     OW19240   4.951   4.619   0.921
 6114SOL    HW119241   5.017   4.666   0.861
 6114SOL    HW219242   4.934   4.527   0.885
 6115SOL     OW19243   6.428   4.555   1.752
 6115SOL    HW119244   6.353   4.545   1.686
 6115SOL    HW219245   6.499   4.613   1.712
 6116SOL     OW19246   3.267   2.356   1.042
 6116SOL    HW119247   3.236   2.262   1.028
 6116SOL    HW219248   3.204   2.404   1.102
 6117SOL     OW19249   5.581   6.736   4.047
 6117SOL    HW119250   5.608   6.773   3.958
 6117SOL    HW219251   5.496   6.780   4.077
 6118SOL     OW19252   6.678   0.067   3.118
 6118SOL    HW119253   6.668   6.996   3.159
 6118SOL    HW219254   6.621   0.133   3.168
 6119SOL     OW19255   5.308   5.752   4.243
 6119SOL    HW119256   5.308   5.817   4.319
 6119SOL    HW219257   5.402   5.738   4.211
 6120SOL     OW19258   2.318   1.953   2.902
 6120SOL    HW119259   2.246   1.995   2.847
 6120SOL    HW219260   2.392   1.923   2.842
 6121SOL     OW19261   6.741   1.330   4.945
 6121SOL    HW119262   6.682   1.408   4.924
 6121SOL    HW219263   6.827   1.363   4.984
 6122SOL     OW19264   3.748   6.017   4.375
 6122SOL    HW119265   3.717   6.058   4.460
 6122SOL    HW219266   3.723   5.920   4.374
 6123SOL     OW19267   5.614   1.436   2.906
 6123SOL    HW119268   5.698   1.423   2.959
 6123SOL    HW219269   5.541   1.378   2.942
 6124SOL     OW19270   3.116   0.310   4.691
 6124SOL    HW119271   3.112   0.233   4.628
 6124SOL    HW219272   3.119   0.396   4.640
 6125SOL     OW19273   0.862   4.503   1.994
 6125SOL    HW119274   0.955   4.468   1.990
 6125SOL    HW219275   0.802   4.446   1.937
 6126SOL     OW19276   3.950   5.976   2.693
 6126SOL    HW119277   3.860   5.982   2.649
 6126SOL    HW219278   3.996   6.064   2.686
 6127SOL     OW19279   2.064   5.182   1.940
 6127SOL    HW119280   2.101   5.212   1.852
 6127SOL    HW219281   2.002   5.251   1.976
 6128SOL     OW19282   5.044   3.523   1.295
 6128SOL    HW119283   4.996   3.436   1.310
 6128SOL    HW219284   4.987   3.599   1.326
 6129SOL     OW19285   6.422   3.854   3.295
 6129SOL    HW119286   6.440   3.920   3.222
 6129SOL    HW219287   6.509   3.825   3.336
 6130SOL     OW19288   5.295   3.855   2.515
 6130SOL    HW119289   5.204   3.885   2.485
 6130SOL    HW219290   5.286   3.785   2.585
 6131SOL     OW19291   6.231   1.290   5.105
 6131SOL    HW119292   6.264   1.384   5.095
 6131SOL    HW219293   6.231   1.266   5.202
 6132SOL     OW19294   6.417   2.612   0.648
 6132SOL    HW119295   6.500   2.651   0.689
 6132SOL    HW219296   6.409   2.516   0.673
 6133SOL     OW19297   1.491   4.354   0.415
 6133SOL    HW119298   1.473   4.305   0.330
 6133SOL    HW219299   1.413   4.412   0.437
 6134SOL     OW19300   4.588   4.066   0.100
 6134SOL    HW119301   4.604   4.051   0.003
 6134SOL    HW219302   4.656   4.015   0.154
 6135SOL     OW19303   5.953   0.281   2.772
 6135SOL    HW119304   5.993   0.256   2.860
 6135SOL    HW219305   6.025   0.289   2.704
 6136SOL     OW19306   1.122   1.334   2.335
 6136SOL    HW119307   1.023   1.349   2.346
 6136SOL    HW219308   1.169   1.365   2.418
 6137SOL     OW19309   3.239   7.013   6.688
 6137SOL    HW119310   3.144   0.023   6.691
 6137SOL    HW219311   3.274   7.005   6.781
 6138SOL     OW19312   5.277   0.148   3.106
 6138SOL    HW119313   5.276   0.116   3.201
 6138SOL    HW219314   5.237   0.079   3.046
 6139SOL     OW19315   2.748   6.142   3.677
 6139SOL    HW119316   2.732   6.149   3.776
 6139SOL    HW219317   2.846   6.148   3.658
 6140SOL     OW19318   1.977   5.493   1.273
 6140SOL    HW119319   1.880   5.476   1.256
 6140SOL    HW219320   2.024   5.511   1.187
 6141SOL     OW19321   0.081   5.907   5.481
 6141SOL    HW119322   0.112   5.961   5.404
 6141SOL    HW219323   0.027   5.829   5.448
 6142SOL     OW19324   0.365   4.192   3.442
 6142SOL    HW119325   0.449   4.242   3.423
 6142SOL    HW219326   0.375   4.097   3.412
 6143SOL     OW19327   6.652   4.445   6.170
 6143SOL    HW119328   6.556   4.454   6.199
 6143SOL    HW219329   6.655   4.440   6.070
 6144SOL     OW19330   0.196   5.138   4.238
 6144SOL    HW119331   0.250   5.177   4.313
 6144SOL    HW219332   0.250   5.067   4.192
 6145SOL     OW19333   5.559   5.369   3.348
 6145SOL    HW119334   5.483   5.316   3.385
 6145SOL    HW219335   5.613   5.407   3.423
 6146SOL     OW19336   5.675   2.518   3.827
 6146SOL    HW119337   5.722   2.553   3.746
 6146SOL    HW219338   5.633   2.430   3.805
 6147SOL     OW19339   1.084   3.920   2.843
 6147SOL    HW119340   1.149   3.860   2.889
 6147SOL    HW219341   1.012   3.866   2.800
 6148SOL     OW19342   6.285   6.217   2.738
 6148SOL    HW119343   6.328   6.249   2.653
 6148SOL    HW219344   6.202   6.166   2.715
 6149SOL     OW19345   1.434   5.722   4.879
 6149SOL    HW119346   1.460   5.657   4.808
 6149SOL    HW219347   1.498   5.715   4.956
 6150SOL     OW19348   4.476   6.467   5.625
 6150SOL    HW119349   4.518   6.469   5.715
 6150SOL    HW219350   4.420   6.385   5.615
 6151SOL     OW19351   4.750   0.147   5.770
 6151SOL    HW119352   4.755   0.078   5.698
 6151SOL    HW219353   4.744   0.238   5.729
 6152SOL     OW19354   6.324   4.290   5.113
 6152SOL    HW119355   6.345   4.257   5.205
 6152SOL    HW219356   6.239   4.342   5.116
 6153SOL     OW19357   4.277   5.011   6.306
 6153SOL    HW119358   4.292   5.109   6.293
 6153SOL    HW219359   4.294   4.987   6.401
 6154SOL     OW19360   5.381   3.360   3.484
 6154SOL    HW119361   5.339   3.358   3.575
 6154SOL    HW219362   5.334   3.295   3.424
 6155SOL     OW19363   2.312   4.674   4.867
 6155SOL    HW119364   2.213   4.680   4.857
 6155SOL    HW219365   2.335   4.599   4.930
 6156SOL     OW19366   5.754   0.536   4.717
 6156SOL    HW119367   5.673   0.593   4.730
 6156SOL    HW219368   5.748   0.456   4.777
 6157SOL     OW19369   0.926   1.545   3.956
 6157SOL    HW119370   1.007   1.495   3.925
 6157SOL    HW219371   0.875   1.578   3.876
 6158SOL     OW19372   5.543   6.751   0.036
 6158SOL    HW119373   5.562   6.841   0.075
 6158SOL    HW219374   5.517   6.688   0.109
 6159SOL     OW19375   4.818   3.610   6.733
 6159SOL    HW119376   4.847   3.551   6.808
 6159SOL    HW219377   4.885   3.606   6.659
 6160SOL     OW19378   6.385   4.339   0.342
 6160SOL    HW119379   6.434   4.253   0.358
 6160SOL    HW219380   6.403   4.370   0.248
 6161SOL     OW19381   6.271   0.025   6.519
 6161SOL    HW119382   6.277   6.949   6.550
 6161SOL    HW219383   6.277   0.028   6.420
 6162SOL     OW19384   5.175   5.030   3.985
 6162SOL    HW119385   5.251   4.991   3.934
 6162SOL    HW219386   5.199   5.122   4.017
 6163SOL     OW19387   0.199   4.083   2.906
 6163SOL    HW119388   0.203   4.080   2.806
 6163SOL    HW219389   0.223   3.993   2.943
 6164SOL     OW19390   4.264   2.945   0.825
 6164SOL    HW119391   4.260   2.917   0.921
 6164SOL    HW219392   4.348   2.911   0.784
 6165SOL     OW19393   3.910   0.400   1.310
 6165SOL    HW119394   4.005   0.426   1.294
 6165SOL    HW219395   3.850   0.449   1.247
 6166SOL     OW19396   3.811   1.292   0.637
 6166SOL    HW119397   3.768   1.318   0.551
 6166SOL    HW219398   3.836   1.196   0.634
 6167SOL     OW19399   6.693   5.477   3.805
 6167SOL    HW119400   6.776   5.454   3.856
 6167SOL    HW219401   6.716   5.541   3.731
 6168SOL     OW19402   0.316   3.086   1.231
 6168SOL    HW119403   0.298   3.035   1.316
 6168SOL    HW219404   0.340   3.023   1.158
 6169SOL     OW19405   1.984   4.227   1.389
 6169SOL    HW119406   2.076   4.192   1.408
 6169SOL    HW219407   1.965   4.305   1.448
 6170SOL     OW19408   6.562   1.783   3.492
 6170SOL    HW119409   6.484   1.721   3.498
 6170SOL    HW219410   6.566   1.839   3.575
 6171SOL     OW19411   6.297   1.290   5.976
 6171SOL    HW119412   6.204   1.321   5.958
 6171SOL    HW219413   6.327   1.323   6.066
 6172SOL     OW19414   0.646   4.588   4.040
 6172SOL    HW119415   0.635   4.634   4.128
 6172SOL    HW219416   0.727   4.624   3.993
 6173SOL     OW19417   5.667   6.315   2.935
 6173SOL    HW119418   5.588   6.281   2.885
 6173SOL    HW219419   5.725   6.238   2.961
 6174SOL     OW19420   6.431   2.241   3.341
 6174SOL    HW119421   6.426   2.141   3.346
 6174SOL    HW219422   6.527   2.270   3.347
 6175SOL     OW19423   4.041   1.386   6.914
 6175SOL    HW119424   3.999   1.370   6.824
 6175SOL    HW219425   4.013   1.476   6.947
 6176SOL     OW19426   2.504   4.476   6.793
 6176SOL    HW119427   2.494   4.568   6.831
 6176SOL    HW219428   2.582   4.431   6.836
 6177SOL     OW19429   5.871   5.316   1.612
 6177SOL    HW119430   5.937   5.390   1.621
 6177SOL    HW219431   5.811   5.315   1.693
 6178SOL     OW19432   4.076   4.774   2.174
 6178SOL    HW119433   3.980   4.793   2.196
 6178SOL    HW219434   4.081   4.707   2.100
 6179SOL     OW19435   5.392   5.263   4.932
 6179SOL    HW119436   5.363   5.359   4.928
 6179SOL    HW219437   5.430   5.237   4.843
 6180SOL     OW19438   2.003   4.054   6.771
 6180SOL    HW119439   2.069   3.988   6.807
 6180SOL    HW219440   1.940   4.008   6.709
 6181SOL     OW19441   6.391   6.039   0.133
 6181SOL    HW119442   6.373   5.941   0.126
 6181SOL    HW219443   6.306   6.087   0.152
 6182SOL     OW19444   2.458   2.360   6.457
 6182SOL    HW119445   2.422   2.351   6.549
 6182SOL    HW219446   2.383   2.379   6.394
 6183SOL     OW19447   0.155   0.753   0.266
 6183SOL    HW119448   0.129   0.756   0.363
 6183SOL    HW219449   0.218   0.828   0.246
 6184SOL     OW19450   3.263   6.521   5.501
 6184SOL    HW119451   3.211   6.539   5.417
 6184SOL    HW219452   3.223   6.571   5.577
 6185SOL     OW19453   3.499   2.912   5.286
 6185SOL    HW119454   3.433   2.975   5.328
 6185SOL    HW219455   3.493   2.918   5.187
 6186SOL     OW19456   1.180   1.991   2.397
 6186SOL    HW119457   1.252   2.049   2.360
 6186SOL    HW219458   1.150   2.027   2.485
 6187SOL     OW19459   2.974   1.715   6.159
 6187SOL    HW119460   3.014   1.643   6.216
 6187SOL    HW219461   3.035   1.733   6.082
 6188SOL     OW19462   1.543   1.630   5.616
 6188SOL    HW119463   1.476   1.555   5.616
 6188SOL    HW219464   1.540   1.676   5.704
 6189SOL     OW19465   6.519   5.045   0.348
 6189SOL    HW119466   6.468   4.987   0.284
 6189SOL    HW219467   6.483   5.139   0.343
 6190SOL     OW19468   0.813   2.519   3.517
 6190SOL    HW119469   0.729   2.465   3.528
 6190SOL    HW219470   0.854   2.535   3.606
 6191SOL     OW19471   2.442   4.240   0.511
 6191SOL    HW119472   2.513   4.299   0.548
 6191SOL    HW219473   2.354   4.263   0.554
 6192SOL     OW19474   3.090   1.744   1.272
 6192SOL    HW119475   3.092   1.654   1.228
 6192SOL    HW219476   2.995   1.769   1.290
 6193SOL     OW19477   4.098   5.905   6.921
 6193SOL    HW119478   4.110   6.003   6.937
 6193SOL    HW219479   4.182   5.866   6.884
 6194SOL     OW19480   5.419   0.328   5.973
 6194SOL    HW119481   5.387   0.343   5.879
 6194SOL    HW219482   5.358   0.376   6.036
 6195SOL     OW19483   4.481   5.469   5.771
 6195SOL    HW119484   4.537   5.391   5.741
 6195SOL    HW219485   4.537   5.552   5.773
 6196SOL     OW19486   6.428   3.582   3.130
 6196SOL    HW119487   6.398   3.494   3.093
 6196SOL    HW219488   6.500   3.619   3.072
 6197SOL     OW19489   0.823   5.329   0.871
 6197SOL    HW119490   0.897   5.319   0.937
 6197SOL    HW219491   0.814   5.426   0.846
 6198SOL     OW19492   5.921   1.452   6.644
 6198SOL    HW119493   6.003   1.505   6.621
 6198SOL    HW219494   5.861   1.508   6.701
 6199SOL     OW19495   2.524   0.152   6.007
 6199SOL    HW119496   2.578   0.170   5.925
 6199SOL    HW219497   2.522   0.054   6.026
 6200SOL     OW19498   1.621   0.331   0.792
 6200SOL    HW119499   1.653   0.417   0.754
 6200SOL    HW219500   1.567   0.282   0.723
 6201SOL     OW19501   0.289   5.200   3.544
 6201SOL    HW119502   0.300   5.275   3.609
 6201SOL    HW219503   0.231   5.129   3.584
 6202SOL     OW19504   5.709   0.942   1.893
 6202SOL    HW119505   5.721   0.861   1.836
 6202SOL    HW219506   5.624   0.988   1.868
 6203SOL     OW19507   6.345   0.987   2.161
 6203SOL    HW119508   6.418   0.943   2.110
 6203SOL    HW219509   6.370   1.083   2.180
 6204SOL     OW19510   0.869   5.519   4.668
 6204SOL    HW119511   0.801   5.574   4.716
 6204SOL    HW219512   0.941   5.493   4.732
 6205SOL     OW19513   6.198   4.601   3.260
 6205SOL    HW119514   6.202   4.607   3.160
 6205SOL    HW219515   6.250   4.677   3.300
 6206SOL     OW19516   5.180   2.134   3.460
 6206SOL    HW119517   5.105   2.117   3.524
 6206SOL    HW219518   5.184   2.060   3.393
 6207SOL     OW19519   1.875   5.627   3.524
 6207SOL    HW119520   1.829   5.556   3.472
 6207SOL    HW219521   1.854   5.717   3.484
 6208SOL     OW19522   4.011   4.502   6.404
 6208SOL    HW119523   4.031   4.511   6.502
 6208SOL    HW219524   3.985   4.408   6.384
 6209SOL     OW19525   3.686   1.284   1.978
 6209SOL    HW119526   3.660   1.277   1.882
 6209SOL    HW219527   3.626   1.350   2.024
 6210SOL     OW19528   5.466   1.272   4.133
 6210SOL    HW119529   5.467   1.354   4.191
 6210SOL    HW219530   5.537   1.281   4.063
 6211SOL     OW19531   5.279   2.978   5.328
 6211SOL    HW119532   5.263   2.976   5.426
 6211SOL    HW219533   5.317   3.067   5.302
 6212SOL     OW19534   4.994   4.363   5.140
 6212SOL    HW119535   4.925   4.435   5.150
 6212SOL    HW219536   4.966   4.299   5.069
 6213SOL     OW19537   5.345   5.850   0.630
 6213SOL    HW119538   5.430   5.897   0.653
 6213SOL    HW219539   5.300   5.819   0.713
 6214SOL     OW19540   6.602   0.070   6.485
 6214SOL    HW119541   6.606   6.996   6.449
 6214SOL    HW219542   6.662   0.079   6.564
 6215SOL     OW19543   5.783   2.047   5.069
 6215SOL    HW119544   5.737   1.962   5.044
 6215SOL    HW219545   5.834   2.034   5.155
 6216SOL     OW19546   5.170   2.241   5.439
 6216SOL    HW119547   5.212   2.168   5.386
 6216SOL    HW219548   5.075   2.253   5.409
 6217SOL     OW19549   6.897   4.414   2.486
 6217SOL    HW119550   6.802   4.392   2.508
 6217SOL    HW219551   6.927   4.356   2.410
 6218SOL     OW19552   4.804   6.777   0.790
 6218SOL    HW119553   4.782   6.872   0.812
 6218SOL    HW219554   4.724   6.731   0.753
 6219SOL     OW19555   2.313   0.383   6.910
 6219SOL    HW119556   2.327   0.458   6.975
 6219SOL    HW219557   2.243   0.409   6.844
 6220SOL     OW19558   3.317   6.844   2.176
 6220SOL    HW119559   3.344   6.868   2.270
 6220SOL    HW219560   3.239   6.782   2.179
 6221SOL     OW19561   4.679   5.781   5.315
 6221SOL    HW119562   4.661   5.683   5.319
 6221SOL    HW219563   4.609   5.830   5.368
 6222SOL     OW19564   6.051   1.728   2.547
 6222SOL    HW119565   5.956   1.734   2.576
 6222SOL    HW219566   6.093   1.646   2.585
 6223SOL     OW19567   6.628   5.225   4.432
 6223SOL    HW119568   6.607   5.321   4.414
 6223SOL    HW219569   6.687   5.189   4.360
 6224SOL     OW19570   4.326   6.611   0.219
 6224SOL    HW119571   4.240   6.611   0.270
 6224SOL    HW219572   4.389   6.677   0.260
 6225SOL     OW19573   5.169   6.152   6.519
 6225SOL    HW119574   5.249   6.157   6.460
 6225SOL    HW219575   5.085   6.162   6.465
 6226SOL     OW19576   0.663   1.105   3.898
 6226SOL    HW119577   0.750   1.132   3.939
 6226SOL    HW219578   0.666   1.121   3.800
 6227SOL     OW19579   2.368   4.727   6.148
 6227SOL    HW119580   2.330   4.757   6.060
 6227SOL    HW219581   2.364   4.802   6.213
 6228SOL     OW19582   0.998   3.339   3.893
 6228SOL    HW119583   1.081   3.356   3.946
 6228SOL    HW219584   0.918   3.350   3.952
 6229SOL     OW19585   0.161   4.324   4.586
 6229SOL    HW119586   0.112   4.407   4.559
 6229SOL    HW219587   0.147   4.307   4.684
 6230SOL     OW19588   0.816   0.916   1.447
 6230SOL    HW119589   0.816   0.840   1.512
 6230SOL    HW219590   0.733   0.971   1.460
 6231SOL     OW19591   2.130   5.393   6.187
 6231SOL    HW119592   2.049   5.450   6.199
 6231SOL    HW219593   2.112   5.324   6.117
 6232SOL     OW19594   4.346   0.340   6.901
 6232SOL    HW119595   4.277   0.305   6.964
 6232SOL    HW219596   4.322   0.433   6.873
 6233SOL     OW19597   0.002   4.037   1.587
 6233SOL    HW119598   0.025   4.103   1.659
 6233SOL    HW219599   0.040   3.947   1.611
 6234SOL     OW19600   4.953   6.133   3.783
 6234SOL    HW119601   4.860   6.106   3.761
 6234SOL    HW219602   4.998   6.062   3.836
 6235SOL     OW19603   0.428   0.444   1.722
 6235SOL    HW119604   0.383   0.383   1.656
 6235SOL    HW219605   0.413   0.539   1.694
 6236SOL     OW19606   0.070   6.262   1.444
 6236SOL    HW119607   7.011   6.258   1.507
 6236SOL    HW219608   0.147   6.305   1.491
 6237SOL     OW19609   3.792   1.216   2.570
 6237SOL    HW119610   3.872   1.187   2.622
 6237SOL    HW219611   3.720   1.245   2.633
 6238SOL     OW19612   2.463   0.485   3.708
 6238SOL    HW119613   2.416   0.551   3.766
 6238SOL    HW219614   2.404   0.463   3.629
 6239SOL     OW19615   3.951   1.373   3.930
 6239SOL    HW119616   3.963   1.300   3.862
 6239SOL    HW219617   4.039   1.395   3.972
 6240SOL     OW19618   3.883   3.064   4.324
 6240SOL    HW119619   3.827   3.142   4.352
 6240SOL    HW219620   3.963   3.097   4.274
 6241SOL     OW19621   3.377   0.130   3.504
 6241SOL    HW119622   3.367   0.035   3.532
 6241SOL    HW219623   3.291   0.163   3.466
 6242SOL     OW19624   3.575   2.140   4.286
 6242SOL    HW119625   3.509   2.081   4.334
 6242SOL    HW219626   3.533   2.229   4.269
 6243SOL     OW19627   3.951   1.158   0.365
 6243SOL    HW119628   4.028   1.161   0.429
 6243SOL    HW219629   3.871   1.202   0.406
 6244SOL     OW19630   4.399   2.302   2.158
 6244SOL    HW119631   4.388   2.294   2.059
 6244SOL    HW219632   4.464   2.374   2.179
 6245SOL     OW19633   6.742   5.189   1.404
 6245SOL    HW119634   6.663   5.152   1.453
 6245SOL    HW219635   6.797   5.114   1.368
 6246SOL     OW19636   0.815   5.832   4.948
 6246SOL    HW119637   0.871   5.787   5.018
 6246SOL    HW219638   0.745   5.769   4.915
 6247SOL     OW19639   5.847   5.402   2.923
 6247SOL    HW119640   5.882   5.308   2.920
 6247SOL    HW219641   5.923   5.466   2.911
 6248SOL     OW19642   4.315   2.720   5.526
 6248SOL    HW119643   4.322   2.750   5.430
 6248SOL    HW219644   4.399   2.743   5.574
 6249SOL     OW19645   5.516   2.744   3.300
 6249SOL    HW119646   5.493   2.671   3.236
 6249SOL    HW219647   5.557   2.705   3.383
 6250SOL     OW19648   5.324   0.403   5.700
 6250SOL    HW119649   5.305   0.346   5.620
 6250SOL    HW219650   5.288   0.495   5.684
 6251SOL     OW19651   2.782   0.688   4.218
 6251SOL    HW119652   2.781   0.629   4.136
 6251SOL    HW219653   2.727   0.645   4.290
 6252SOL     OW19654   3.295   5.300   0.404
 6252SOL    HW119655   3.356   5.234   0.450
 6252SOL    HW219656   3.261   5.259   0.319
 6253SOL     OW19657   5.033   6.464   3.587
 6253SOL    HW119658   4.973   6.535   3.549
 6253SOL    HW219659   4.985   6.415   3.659
 6254SOL     OW19660   0.510   0.228   1.885
 6254SOL    HW119661   0.490   0.316   1.842
 6254SOL    HW219662   0.559   0.169   1.821
 6255SOL     OW19663   2.003   0.886   0.876
 6255SOL    HW119664   1.918   0.926   0.911
 6255SOL    HW219665   2.046   0.950   0.813
 6256SOL     OW19666   6.121   5.079   2.073
 6256SOL    HW119667   6.056   5.138   2.122
 6256SOL    HW219668   6.113   5.096   1.974
 6257SOL     OW19669   3.661   3.720   0.794
 6257SOL    HW119670   3.577   3.694   0.841
 6257SOL    HW219671   3.680   3.654   0.721
 6258SOL     OW19672   3.880   5.247   4.936
 6258SOL    HW119673   3.882   5.149   4.914
 6258SOL    HW219674   3.933   5.297   4.867
 6259SOL     OW19675   4.562   1.300   4.786
 6259SOL    HW119676   4.638   1.266   4.841
 6259SOL    HW219677   4.560   1.400   4.790
 6260SOL     OW19678   3.221   2.005   0.260
 6260SOL    HW119679   3.265   2.095   0.263
 6260SOL    HW219680   3.256   1.953   0.182
 6261SOL     OW19681   3.945   6.877   0.834
 6261SOL    HW119682   3.879   6.922   0.894
 6261SOL    HW219683   3.934   6.911   0.740
 6262SOL     OW19684   6.023   1.443   2.888
 6262SOL    HW119685   6.102   1.416   2.942
 6262SOL    HW219686   5.939   1.411   2.932
 6263SOL     OW19687   6.243   6.008   6.101
 6263SOL    HW119688   6.226   5.954   6.183
 6263SOL    HW219689   6.248   5.948   6.021
 6264SOL     OW19690   0.840   6.156   0.767
 6264SOL    HW119691   0.823   6.116   0.857
 6264SOL    HW219692   0.863   6.083   0.703
 6265SOL     OW19693   3.922   6.852   6.605
 6265SOL    HW119694   3.866   6.909   6.545
 6265SOL    HW219695   3.916   6.757   6.575
 6266SOL     OW19696   3.134   5.237   3.077
 6266SOL    HW119697   3.184   5.303   3.134
 6266SOL    HW219698   3.038   5.238   3.103
 6267SOL     OW19699   0.284   6.355   4.394
 6267SOL    HW119700   0.229   6.333   4.313
 6267SOL    HW219701   0.380   6.332   4.377
 6268SOL     OW19702   3.626   1.863   1.175
 6268SOL    HW119703   3.530   1.843   1.156
 6268SOL    HW219704   3.684   1.810   1.113
 6269SOL     OW19705   6.920   6.194   0.316
 6269SOL    HW119706   6.827   6.179   0.283
 6269SOL    HW219707   6.964   6.263   0.259
 6270SOL     OW19708   1.083   6.534   1.104
 6270SOL    HW119709   1.046   6.594   1.033
 6270SOL    HW219710   1.182   6.548   1.111
 6271SOL     OW19711   6.660   3.031   5.601
 6271SOL    HW119712   6.686   3.106   5.541
 6271SOL    HW219713   6.565   3.006   5.586
 6272SOL     OW19714   0.875   0.874   0.327
 6272SOL    HW119715   0.884   0.949   0.262
 6272SOL    HW219716   0.872   0.912   0.420
 6273SOL     OW19717   0.495   6.434   3.491
 6273SOL    HW119718   0.564   6.489   3.445
 6273SOL    HW219719   0.500   6.449   3.590
 6274SOL     OW19720   2.828   6.131   4.216
 6274SOL    HW119721   2.808   6.054   4.278
 6274SOL    HW219722   2.817   6.217   4.265
 6275SOL     OW19723   2.370   5.985   0.735
 6275SOL    HW119724   2.453   6.002   0.680
 6275SOL    HW219725   2.362   5.887   0.753
 6276SOL     OW19726   1.754   4.984   2.664
 6276SOL    HW119727   1.760   5.069   2.612
 6276SOL    HW219728   1.666   4.940   2.648
 6277SOL     OW19729   5.283   2.723   1.221
 6277SOL    HW119730   5.209   2.658   1.207
 6277SOL    HW219731   5.250   2.816   1.205
 6278SOL     OW19732   3.296   2.522   0.350
 6278SOL    HW119733   3.332   2.569   0.430
 6278SOL    HW219734   3.343   2.554   0.268
 6279SOL     OW19735   1.637   6.363   2.285
 6279SOL    HW119736   1.593   6.273   2.279
 6279SOL    HW219737   1.668   6.390   2.194
 6280SOL     OW19738   5.106   1.053   0.171
 6280SOL    HW119739   5.012   1.022   0.183
 6280SOL    HW219740   5.144   1.015   0.087
 6281SOL     OW19741   5.363   4.272   6.047
 6281SOL    HW119742   5.267   4.272   6.017
 6281SOL    HW219743   5.422   4.274   5.966
 6282SOL     OW19744   0.720   3.587   5.588
 6282SOL    HW119745   0.697   3.633   5.673
 6282SOL    HW219746   0.676   3.497   5.586
 6283SOL     OW19747   2.465   0.636   4.657
 6283SOL    HW119748   2.368   0.615   4.648
 6283SOL    HW219749   2.511   0.563   4.707
 6284SOL     OW19750   1.687   3.496   6.288
 6284SOL    HW119751   1.680   3.510   6.387
 6284SOL    HW219752   1.611   3.439   6.257
 6285SOL     OW19753   1.181   4.035   3.328
 6285SOL    HW119754   1.155   4.062   3.421
 6285SOL    HW219755   1.109   3.978   3.289
 6286SOL     OW19756   0.900   2.421   6.769
 6286SOL    HW119757   0.934   2.352   6.832
 6286SOL    HW219758   0.913   2.390   6.675
 6287SOL     OW19759   4.349   5.143   4.565
 6287SOL    HW119760   4.357   5.091   4.480
 6287SOL    HW219761   4.289   5.094   4.628
 6288SOL     OW19762   3.142   3.620   5.916
 6288SOL    HW119763   3.078   3.544   5.928
 6288SOL    HW219764   3.194   3.606   5.831
 6289SOL     OW19765   2.565   4.635   4.978
 6289SOL    HW119766   2.537   4.549   4.935
 6289SOL    HW219767   2.660   4.627   5.010
 6290SOL     OW19768   6.652   6.855   3.289
 6290SOL    HW119769   6.557   6.850   3.321
 6290SOL    HW219770   6.704   6.779   3.328
 6291SOL     OW19771   3.286   3.889   1.806
 6291SOL    HW119772   3.187   3.897   1.817
 6291SOL    HW219773   3.323   3.832   1.880
 6292SOL     OW19774   1.331   4.522   4.516
 6292SOL    HW119775   1.328   4.484   4.424
 6292SOL    HW219776   1.426   4.531   4.545
 6293SOL     OW19777   3.160   1.213   6.819
 6293SOL    HW119778   3.109   1.174   6.742
 6293SOL    HW219779   3.108   1.201   6.903
 6294SOL     OW19780   1.892   0.805   2.090
 6294SOL    HW119781   1.838   0.752   2.025
 6294SOL    HW219782   1.841   0.886   2.117
 6295SOL     OW19783   4.618   3.008   5.999
 6295SOL    HW119784   4.538   2.958   6.032
 6295SOL    HW219785   4.591   3.072   5.927
 6296SOL     OW19786   0.252   2.787   0.164
 6296SOL    HW119787   0.264   2.715   0.096
 6296SOL    HW219788   0.179   2.849   0.135
 6297SOL     OW19789   6.498   0.716   4.118
 6297SOL    HW119790   6.460   0.767   4.195
 6297SOL    HW219791   6.586   0.676   4.144
 6298SOL     OW19792   6.803   6.847   6.866
 6298SOL    HW119793   6.769   6.819   6.956
 6298SOL    HW219794   6.903   6.846   6.868
 6299SOL     OW19795   3.626   1.591   3.954
 6299SOL    HW119796   3.638   1.627   3.861
 6299SOL    HW219797   3.681   1.645   4.017
 6300SOL     OW19798   2.572   1.771   1.033
 6300SOL    HW119799   2.626   1.854   1.043
 6300SOL    HW219800   2.499   1.770   1.102
 6301SOL     OW19801   4.199   6.569   0.527
 6301SOL    HW119802   4.104   6.564   0.556
 6301SOL    HW219803   4.218   6.497   0.460
 6302SOL     OW19804   1.398   3.472   0.080
 6302SOL    HW119805   1.406   3.463   0.179
 6302SOL    HW219806   1.423   3.386   0.036
 6303SOL     OW19807   6.896   5.255   4.527
 6303SOL    HW119808   6.815   5.218   4.481
 6303SOL    HW219809   6.875   5.273   4.623
 6304SOL     OW19810   2.356   1.570   3.544
 6304SOL    HW119811   2.341   1.495   3.479
 6304SOL    HW219812   2.381   1.653   3.494
 6305SOL     OW19813   0.475   5.347   5.700
 6305SOL    HW119814   0.390   5.310   5.736
 6305SOL    HW219815   0.491   5.438   5.740
 6306SOL     OW19816   0.719   4.329   4.025
 6306SOL    HW119817   0.756   4.322   3.933
 6306SOL    HW219818   0.682   4.421   4.039
 6307SOL     OW19819   3.138   2.977   3.037
 6307SOL    HW119820   3.064   2.909   3.036
 6307SOL    HW219821   3.226   2.929   3.038
 6308SOL     OW19822   1.198   1.822   0.701
 6308SOL    HW119823   1.149   1.816   0.614
 6308SOL    HW219824   1.165   1.902   0.752
 6309SOL     OW19825   2.033   5.402   5.329
 6309SOL    HW119826   1.978   5.437   5.253
 6309SOL    HW219827   1.995   5.315   5.359
 6310SOL     OW19828   0.641   6.728   3.621
 6310SOL    HW119829   0.715   6.669   3.653
 6310SOL    HW219830   0.669   6.775   3.537
 6311SOL     OW19831   6.348   1.055   6.673
 6311SOL    HW119832   6.249   1.050   6.689
 6311SOL    HW219833   6.385   1.138   6.715
 6312SOL     OW19834   3.458   5.582   1.029
 6312SOL    HW119835   3.389   5.565   0.959
 6312SOL    HW219836   3.498   5.495   1.059
 6313SOL     OW19837   5.570   4.974   3.447
 6313SOL    HW119838   5.520   4.909   3.389
 6313SOL    HW219839   5.667   4.973   3.421
 6314SOL     OW19840   1.851   0.110   3.686
 6314SOL    HW119841   1.881   0.051   3.762
 6314SOL    HW219842   1.866   0.063   3.599
 6315SOL     OW19843   2.605   2.428   3.367
 6315SOL    HW119844   2.620   2.525   3.388
 6315SOL    HW219845   2.508   2.406   3.379
 6316SOL     OW19846   4.261   0.459   5.187
 6316SOL    HW119847   4.195   0.526   5.221
 6316SOL    HW219848   4.250   0.373   5.237
 6317SOL     OW19849   4.439   4.465   2.812
 6317SOL    HW119850   4.395   4.532   2.753
 6317SOL    HW219851   4.400   4.469   2.904
 6318SOL     OW19852   6.097   6.847   6.800
 6318SOL    HW119853   6.068   6.935   6.837
 6318SOL    HW219854   6.124   6.786   6.875
 6319SOL     OW19855   5.265   2.428   4.713
 6319SOL    HW119856   5.241   2.525   4.715
 6319SOL    HW219857   5.231   2.383   4.796
 6320SOL     OW19858   6.356   1.406   6.222
 6320SOL    HW119859   6.292   1.372   6.291
 6320SOL    HW219860   6.358   1.506   6.223
 6321SOL     OW19861   0.531   3.884   0.440
 6321SOL    HW119862   0.454   3.932   0.398
 6321SOL    HW219863   0.538   3.910   0.536
 6322SOL     OW19864   1.769   1.686   2.657
 6322SOL    HW119865   1.726   1.623   2.592
 6322SOL    HW219866   1.795   1.635   2.739
 6323SOL     OW19867   2.287   5.994   1.531
 6323SOL    HW119868   2.276   6.060   1.457
 6323SOL    HW219869   2.363   5.933   1.510
 6324SOL     OW19870   5.165   3.226   0.870
 6324SOL    HW119871   5.106   3.290   0.821
 6324SOL    HW219872   5.113   3.178   0.940
 6325SOL     OW19873   1.397   3.706   3.725
 6325SOL    HW119874   1.446   3.633   3.678
 6325SOL    HW219875   1.451   3.790   3.721
 6326SOL     OW19876   4.844   5.408   5.207
 6326SOL    HW119877   4.917   5.476   5.211
 6326SOL    HW219878   4.775   5.429   5.276
 6327SOL     OW19879   0.593   0.699   2.647
 6327SOL    HW119880   0.623   0.769   2.711
 6327SOL    HW219881   0.500   0.720   2.617
 6328SOL     OW19882   3.832   3.645   5.373
 6328SOL    HW119883   3.743   3.601   5.380
 6328SOL    HW219884   3.820   3.744   5.372
 6329SOL     OW19885   0.241   2.982   4.815
 6329SOL    HW119886   0.340   2.997   4.821
 6329SOL    HW219887   0.223   2.894   4.773
 6330SOL     OW19888   4.034   1.938   3.582
 6330SOL    HW119889   4.033   1.918   3.680
 6330SOL    HW219890   4.112   1.893   3.539
 6331SOL     OW19891   1.674   3.585   4.058
 6331SOL    HW119892   1.674   3.681   4.084
 6331SOL    HW219893   1.749   3.538   4.104
 6332SOL     OW19894   4.475   1.527   0.215
 6332SOL    HW119895   4.485   1.595   0.143
 6332SOL    HW219896   4.501   1.567   0.303
 6333SOL     OW19897   5.816   0.504   0.398
 6333SOL    HW119898   5.778   0.498   0.491
 6333SOL    HW219899   5.893   0.568   0.397
 6334SOL     OW19900   2.654   1.309   1.861
 6334SOL    HW119901   2.699   1.264   1.784
 6334SOL    HW219902   2.579   1.252   1.895
 6335SOL     OW19903   6.753   3.270   5.467
 6335SOL    HW119904   6.680   3.315   5.518
 6335SOL    HW219905   6.759   3.310   5.375
 6336SOL     OW19906   0.938   4.368   5.346
 6336SOL    HW119907   0.926   4.415   5.258
 6336SOL    HW219908   1.022   4.399   5.389
 6337SOL     OW19909   5.839   6.947   5.144
 6337SOL    HW119910   5.879   0.011   5.184
 6337SOL    HW219911   5.859   6.944   5.046
 6338SOL     OW19912   0.708   0.667   2.386
 6338SOL    HW119913   0.680   0.659   2.481
 6338SOL    HW219914   0.719   0.763   2.362
 6339SOL     OW19915   0.471   3.941   3.389
 6339SOL    HW119916   0.389   3.906   3.434
 6339SOL    HW219917   0.507   3.872   3.327
 6340SOL     OW19918   2.659   5.055   6.335
 6340SOL    HW119919   2.753   5.071   6.304
 6340SOL    HW219920   2.640   5.113   6.414
 6341SOL     OW19921   0.148   4.757   2.957
 6341SOL    HW119922   0.245   4.782   2.957
 6341SOL    HW219923   0.107   4.782   2.869
 6342SOL     OW19924   2.021   0.544   1.443
 6342SOL    HW119925   2.038   0.596   1.527
 6342SOL    HW219926   1.946   0.481   1.457
 6343SOL     OW19927   1.682   5.155   6.878
 6343SOL    HW119928   1.695   5.242   6.831
 6343SOL    HW219929   1.601   5.161   6.937
 6344SOL     OW19930   1.171   1.686   4.489
 6344SOL    HW119931   1.268   1.709   4.480
 6344SOL    HW219932   1.124   1.704   4.402
 6345SOL     OW19933   0.073   3.388   3.573
 6345SOL    HW119934   0.147   3.361   3.635
 6345SOL    HW219935   0.008   3.313   3.563
 6346SOL     OW19936   0.330   4.719   4.387
 6346SOL    HW119937   0.398   4.773   4.337
 6346SOL    HW219938   0.310   4.636   4.336
 6347SOL     OW19939   1.971   2.568   3.335
 6347SOL    HW119940   1.950   2.659   3.299
 6347SOL    HW219941   1.918   2.551   3.418
 6348SOL     OW19942   0.910   2.897   6.534
 6348SOL    HW119943   0.957   2.930   6.616
 6348SOL    HW219944   0.836   2.960   6.511
 6349SOL     OW19945   6.095   1.391   0.728
 6349SOL    HW119946   6.149   1.421   0.807
 6349SOL    HW219947   6.134   1.307   0.691
 6350SOL     OW19948   0.723   6.100   1.395
 6350SOL    HW119949   0.801   6.095   1.333
 6350SOL    HW219950   0.638   6.099   1.342
 6351SOL     OW19951   6.005   2.636   1.803
 6351SOL    HW119952   5.935   2.690   1.848
 6351SOL    HW219953   6.091   2.686   1.803
 6352SOL     OW19954   4.514   0.810   4.528
 6352SOL    HW119955   4.485   0.721   4.563
 6352SOL    HW219956   4.610   0.825   4.553
 6353SOL     OW19957   3.464   6.475   6.105
 6353SOL    HW119958   3.467   6.503   6.201
 6353SOL    HW219959   3.374   6.436   6.084
 6354SOL     OW19960   5.509   5.192   2.718
 6354SOL    HW119961   5.436   5.197   2.787
 6354SOL    HW219962   5.566   5.113   2.738
 6355SOL     OW19963   5.030   5.836   0.423
 6355SOL    HW119964   4.993   5.847   0.516
 6355SOL    HW219965   4.975   5.770   0.372
 6356SOL     OW19966   0.356   6.790   6.189
 6356SOL    HW119967   0.436   6.731   6.199
 6356SOL    HW219968   0.274   6.733   6.180
 6357SOL     OW19969   4.923   2.163   3.032
 6357SOL    HW119970   4.955   2.180   2.939
 6357SOL    HW219971   4.900   2.067   3.042
 6358SOL     OW19972   1.188   2.007   4.442
 6358SOL    HW119973   1.169   2.083   4.380
 6358SOL    HW219974   1.111   1.943   4.441
 6359SOL     OW19975   5.946   4.636   0.974
 6359SOL    HW119976   5.927   4.589   0.888
 6359SOL    HW219977   6.023   4.592   1.020
 6360SOL     OW19978   2.255   3.033   1.085
 6360SOL    HW119979   2.282   3.128   1.069
 6360SOL    HW219980   2.329   2.972   1.056
 6361SOL     OW19981   7.001   2.081   2.540
 6361SOL    HW119982   0.049   2.015   2.574
 6361SOL    HW219983   0.023   2.136   2.467
 6362SOL     OW19984   1.838   5.162   0.355
 6362SOL    HW119985   1.867   5.078   0.308
 6362SOL    HW219986   1.868   5.241   0.302
 6363SOL     OW19987   1.025   2.190   1.981
 6363SOL    HW119988   0.989   2.116   2.038
 6363SOL    HW219989   1.110   2.160   1.938
 6364SOL     OW19990   2.840   1.103   3.980
 6364SOL    HW119991   2.747   1.096   4.015
 6364SOL    HW219992   2.842   1.170   3.905
 6365SOL     OW19993   6.709   6.917   2.649
 6365SOL    HW119994   6.686   6.925   2.552
 6365SOL    HW219995   6.766   6.836   2.664
 6366SOL     OW19996   5.869   1.602   5.138
 6366SOL    HW119997   5.948   1.603   5.199
 6366SOL    HW219998   5.788   1.634   5.187
 6367SOL     OW19999   1.151   2.356   4.503
 6367SOL    HW120000   1.058   2.389   4.486
 6367SOL    HW220001   1.159   2.262   4.471
 6368SOL     OW20002   4.969   3.378   5.042
 6368SOL    HW120003   4.917   3.450   4.995
 6368SOL    HW220004   5.008   3.414   5.126
 6369SOL     OW20005   3.209   4.220   0.988
 6369SOL    HW120006   3.250   4.303   1.024
 6369SOL    HW220007   3.127   4.243   0.936
 6370SOL     OW20008   6.053   4.160   4.760
 6370SOL    HW120009   6.000   4.155   4.845
 6370SOL    HW220010   6.079   4.255   4.743
 6371SOL     OW20011   5.846   4.283   0.893
 6371SOL    HW120012   5.903   4.237   0.825
 6371SOL    HW220013   5.801   4.362   0.852
 6372SOL     OW20014   6.565   0.933   0.915
 6372SOL    HW120015   6.606   0.978   0.994
 6372SOL    HW220016   6.494   0.870   0.946
 6373SOL     OW20017   5.301   2.117   1.363
 6373SOL    HW120018   5.380   2.088   1.418
 6373SOL    HW220019   5.284   2.214   1.378
 6374SOL     OW20020   4.395   3.163   6.633
 6374SOL    HW120021   4.397   3.087   6.698
 6374SOL    HW220022   4.350   3.135   6.549
 6375SOL     OW20023   5.149   0.857   2.254
 6375SOL    HW120024   5.213   0.920   2.297
 6375SOL    HW220025   5.075   0.909   2.210
 6376SOL     OW20026   2.723   6.596   0.539
 6376SOL    HW120027   2.631   6.557   0.543
 6376SOL    HW220028   2.717   6.691   0.509
 6377SOL     OW20029   0.395   0.934   0.295
 6377SOL    HW120030   0.437   0.854   0.336
 6377SOL    HW220031   0.381   1.004   0.365
 6378SOL     OW20032   6.200   3.970   2.834
 6378SOL    HW120033   6.125   3.942   2.773
 6378SOL    HW220034   6.165   3.980   2.927
 6379SOL     OW20035   3.127   5.426   6.790
 6379SOL    HW120036   3.092   5.401   6.880
 6379SOL    HW220037   3.128   5.525   6.780
 6380SOL     OW20038   2.163   3.205   4.694
 6380SOL    HW120039   2.185   3.128   4.755
 6380SOL    HW220040   2.244   3.228   4.640
 6381SOL     OW20041   3.320   3.835   0.814
 6381SOL    HW120042   3.315   3.744   0.856
 6381SOL    HW220043   3.282   3.831   0.722
 6382SOL     OW20044   2.163   1.292   1.240
 6382SOL    HW120045   2.070   1.324   1.259
 6382SOL    HW220046   2.202   1.251   1.323
 6383SOL     OW20047   2.650   2.062   2.700
 6383SOL    HW120048   2.674   1.976   2.654
 6383SOL    HW220049   2.704   2.072   2.783
 6384SOL     OW20050   6.778   1.823   2.095
 6384SOL    HW120051   6.705   1.818   2.027
 6384SOL    HW220052   6.766   1.750   2.162
 6385SOL     OW20053   0.058   3.663   1.130
 6385SOL    HW120054   0.094   3.573   1.104
 6385SOL    HW220055   0.132   3.718   1.168
 6386SOL     OW20056   3.266   3.782   0.535
 6386SOL    HW120057   3.195   3.723   0.495
 6386SOL    HW220058   3.356   3.747   0.510
 6387SOL     OW20059   6.467   0.818   6.185
 6387SOL    HW120060   6.462   0.877   6.265
 6387SOL    HW220061   6.392   0.753   6.187
 6388SOL     OW20062   6.108   4.785   1.786
 6388SOL    HW120063   6.009   4.783   1.775
 6388SOL    HW220064   6.141   4.879   1.774
 6389SOL     OW20065   6.473   6.208   0.812
 6389SOL    HW120066   6.534   6.253   0.747
 6389SOL    HW220067   6.510   6.215   0.904
 6390SOL     OW20068   4.898   6.710   6.327
 6390SOL    HW120069   4.877   6.798   6.285
 6390SOL    HW220070   4.973   6.667   6.278
 6391SOL     OW20071   1.681   2.332   4.992
 6391SOL    HW120072   1.678   2.417   4.940
 6391SOL    HW220073   1.759   2.334   5.055
 6392SOL     OW20074   5.117   6.587   3.933
 6392SOL    HW120075   5.064   6.506   3.910
 6392SOL    HW220076   5.086   6.664   3.877
 6393SOL     OW20077   2.237   5.429   0.497
 6393SOL    HW120078   2.213   5.346   0.448
 6393SOL    HW220079   2.329   5.421   0.534
 6394SOL     OW20080   1.780   5.363   2.210
 6394SOL    HW120081   1.739   5.423   2.278
 6394SOL    HW220082   1.867   5.402   2.179
 6395SOL     OW20083   1.534   4.093   4.766
 6395SOL    HW120084   1.614   4.152   4.757
 6395SOL    HW220085   1.475   4.105   4.686
 6396SOL     OW20086   1.421   3.389   5.234
 6396SOL    HW120087   1.474   3.315   5.275
 6396SOL    HW220088   1.426   3.383   5.134
 6397SOL     OW20089   6.944   2.710   5.199
 6397SOL    HW120090   6.993   2.686   5.115
 6397SOL    HW220091   7.010   2.736   5.269
 6398SOL     OW20092   1.218   0.408   2.507
 6398SOL    HW120093   1.205   0.504   2.483
 6398SOL    HW220094   1.204   0.397   2.606
 6399SOL     OW20095   2.501   0.199   6.862
 6399SOL    HW120096   2.543   0.179   6.950
 6399SOL    HW220097   2.427   0.264   6.874
 6400SOL     OW20098   0.822   6.272   2.855
 6400SOL    HW120099   0.912   6.308   2.881
 6400SOL    HW220100   0.771   6.249   2.937
 6401SOL     OW20101   3.990   5.037   1.938
 6401SOL    HW120102   3.911   4.996   1.891
 6401SOL    HW220103   4.029   4.970   2.001
 6402SOL     OW20104   3.852   3.756   6.185
 6402SOL    HW120105   3.934   3.720   6.139
 6402SOL    HW220106   3.833   3.848   6.151
 6403SOL     OW20107   4.165   5.486   5.667
 6403SOL    HW120108   4.246   5.506   5.612
 6403SOL    HW220109   4.162   5.388   5.689
 6404SOL     OW20110   4.724   5.637   6.238
 6404SOL    HW120111   4.776   5.578   6.301
 6404SOL    HW220112   4.671   5.703   6.291
 6405SOL     OW20113   4.333   0.958   2.296
 6405SOL    HW120114   4.323   1.033   2.361
 6405SOL    HW220115   4.279   0.879   2.328
 6406SOL     OW20116   0.542   3.450   2.197
 6406SOL    HW120117   0.573   3.375   2.139
 6406SOL    HW220118   0.593   3.448   2.283
 6407SOL     OW20119   0.491   6.861   1.573
 6407SOL    HW120120   0.449   6.807   1.645
 6407SOL    HW220121   0.443   6.846   1.487
 6408SOL     OW20122   0.200   1.051   1.592
 6408SOL    HW120123   0.112   1.005   1.589
 6408SOL    HW220124   0.223   1.072   1.687
 6409SOL     OW20125   5.685   4.196   3.605
 6409SOL    HW120126   5.672   4.187   3.704
 6409SOL    HW220127   5.773   4.240   3.586
 6410SOL     OW20128   1.772   0.906   0.345
 6410SOL    HW120129   1.834   0.903   0.267
 6410SOL    HW220130   1.739   0.814   0.365
 6411SOL     OW20131   1.256   2.601   3.820
 6411SOL    HW120132   1.185   2.671   3.823
 6411SOL    HW220133   1.323   2.618   3.891
 6412SOL     OW20134   3.868   7.009   0.169
 6412SOL    HW120135   3.880   6.963   0.257
 6412SOL    HW220136   3.951   0.041   0.147
 6413SOL     OW20137   4.390   6.031   3.231
 6413SOL    HW120138   4.316   6.043   3.164
 6413SOL    HW220139   4.415   6.119   3.270
 6414SOL     OW20140   3.144   0.036   0.321
 6414SOL    HW120141   3.178   0.079   0.237
 6414SOL    HW220142   3.203   0.061   0.398
 6415SOL     OW20143   0.686   2.067   3.639
 6415SOL    HW120144   0.611   2.001   3.637
 6415SOL    HW220145   0.714   2.088   3.545
 6416SOL     OW20146   2.968   4.878   0.421
 6416SOL    HW120147   2.872   4.850   0.419
 6416SOL    HW220148   3.025   4.804   0.387
 6417SOL     OW20149   4.122   3.434   6.403
 6417SOL    HW120150   4.184   3.484   6.342
 6417SOL    HW220151   4.167   3.417   6.490
 6418SOL     OW20152   4.734   5.152   0.342
 6418SOL    HW120153   4.664   5.126   0.276
 6418SOL    HW220154   4.717   5.246   0.373
 6419SOL     OW20155   1.019   6.633   6.380
 6419SOL    HW120156   1.117   6.616   6.392
 6419SOL    HW220157   1.006   6.721   6.334
 6420SOL     OW20158   2.801   4.743   3.157
 6420SOL    HW120159   2.839   4.803   3.227
 6420SOL    HW220160   2.862   4.740   3.078
 6421SOL     OW20161   5.747   6.968   1.514
 6421SOL    HW120162   5.837   7.010   1.510
 6421SOL    HW220163   5.720   6.956   1.610
 6422SOL     OW20164   0.799   2.111   4.572
 6422SOL    HW120165   0.752   2.182   4.623
 6422SOL    HW220166   0.790   2.024   4.621
 6423SOL     OW20167   1.054   4.223   4.275
 6423SOL    HW120168   0.988   4.201   4.203
 6423SOL    HW220169   1.027   4.177   4.360
 6424SOL     OW20170   0.005   3.662   5.540
 6424SOL    HW120171   7.000   3.752   5.504
 6424SOL    HW220172   6.942   3.605   5.544
 6425SOL     OW20173   0.826   6.847   5.276
 6425SOL    HW120174   0.916   6.804   5.269
 6425SOL    HW220175   0.826   6.935   5.228
 6426SOL     OW20176   3.684   5.774   3.748
 6426SOL    HW120177   3.733   5.860   3.730
 6426SOL    HW220178   3.739   5.697   3.716
 6427SOL     OW20179   3.961   3.185   3.579
 6427SOL    HW120180   3.962   3.113   3.648
 6427SOL    HW220181   4.000   3.151   3.494
 6428SOL     OW20182   6.060   2.284   0.649
 6428SOL    HW120183   6.018   2.296   0.559
 6428SOL    HW220184   6.033   2.197   0.688
 6429SOL     OW20185   2.697   1.372   4.740
 6429SOL    HW120186   2.625   1.356   4.672
 6429SOL    HW220187   2.655   1.380   4.831
 6430SOL     OW20188   5.662   1.377   4.419
 6430SOL    HW120189   5.578   1.422   4.389
 6430SOL    HW220190   5.733   1.446   4.433
 6431SOL     OW20191   3.196   4.994   2.987
 6431SOL    HW120192   3.165   5.078   3.031
 6431SOL    HW220193   3.124   4.924   2.994
 6432SOL     OW20194   4.266   3.067   6.413
 6432SOL    HW120195   4.207   2.988   6.429
 6432SOL    HW220196   4.221   3.130   6.350
 6433SOL     OW20197   3.403   5.373   6.163
 6433SOL    HW120198   3.368   5.391   6.072
 6433SOL    HW220199   3.398   5.458   6.217
 6434SOL     OW20200   6.620   4.788   6.195
 6434SOL    HW120201   6.579   4.873   6.163
 6434SOL    HW220202   6.565   4.711   6.163
 6435SOL     OW20203   4.393   1.359   1.232
 6435SOL    HW120204   4.482   1.385   1.194
 6435SOL    HW220205   4.321   1.387   1.169
 6436SOL     OW20206   0.462   2.922   3.593
 6436SOL    HW120207   0.437   2.831   3.559
 6436SOL    HW220208   0.561   2.929   3.600
 6437SOL     OW20209   1.814   2.997   5.579
 6437SOL    HW120210   1.865   2.970   5.660
 6437SOL    HW220211   1.737   2.934   5.566
 6438SOL     OW20212   0.431   4.923   1.006
 6438SOL    HW120213   0.390   4.842   0.964
 6438SOL    HW220214   0.449   4.991   0.935
 6439SOL     OW20215   5.064   6.469   3.142
 6439SOL    HW120216   5.132   6.517   3.197
 6439SOL    HW220217   5.020   6.398   3.196
 6440SOL     OW20218   2.506   1.668   5.350
 6440SOL    HW120219   2.503   1.608   5.270
 6440SOL    HW220220   2.597   1.666   5.390
 6441SOL     OW20221   1.040   1.844   1.687
 6441SOL    HW120222   0.943   1.840   1.661
 6441SOL    HW220223   1.049   1.821   1.784
 6442SOL     OW20224   2.589   1.645   4.270
 6442SOL    HW120225   2.637   1.592   4.340
 6442SOL    HW220226   2.596   1.742   4.292
 6443SOL     OW20227   2.501   2.709   6.145
 6443SOL    HW120228   2.577   2.719   6.081
 6443SOL    HW220229   2.422   2.672   6.097
 6444SOL     OW20230   0.232   3.655   5.021
 6444SOL    HW120231   0.330   3.641   5.009
 6444SOL    HW220232   0.182   3.603   4.951
 6445SOL     OW20233   3.704   2.932   3.322
 6445SOL    HW120234   3.763   3.003   3.285
 6445SOL    HW220235   3.714   2.928   3.422
 6446SOL     OW20236   1.718   1.004   1.461
 6446SOL    HW120237   1.703   0.921   1.407
 6446SOL    HW220238   1.772   0.982   1.542
 6447SOL     OW20239   5.897   3.894   1.059
 6447SOL    HW120240   5.868   3.811   1.106
 6447SOL    HW220241   5.923   3.964   1.126
 6448SOL     OW20242   4.025   4.243   1.375
 6448SOL    HW120243   4.106   4.202   1.417
 6448SOL    HW220244   3.947   4.182   1.388
 6449SOL     OW20245   4.228   5.369   0.660
 6449SOL    HW120246   4.221   5.438   0.589
 6449SOL    HW220247   4.286   5.294   0.628
 6450SOL     OW20248   4.646   3.441   0.124
 6450SOL    HW120249   4.613   3.465   0.033
 6450SOL    HW220250   4.583   3.374   0.165
 6451SOL     OW20251   4.353   2.857   1.539
 6451SOL    HW120252   4.423   2.881   1.606
 6451SOL    HW220253   4.265   2.897   1.567
 6452SOL     OW20254   4.249   1.848   4.169
 6452SOL    HW120255   4.278   1.836   4.074
 6452SOL    HW220256   4.300   1.923   4.210
 6453SOL     OW20257   2.288   0.487   2.858
 6453SOL    HW120258   2.319   0.405   2.905
 6453SOL    HW220259   2.356   0.516   2.791
 6454SOL     OW20260   5.123   3.733   4.785
 6454SOL    HW120261   5.037   3.758   4.740
 6454SOL    HW220262   5.186   3.696   4.717
 6455SOL     OW20263   0.390   2.637   4.371
 6455SOL    HW120264   0.423   2.586   4.292
 6455SOL    HW220265   0.421   2.732   4.365
 6456SOL     OW20266   6.154   2.033   3.388
 6456SOL    HW120267   6.111   2.034   3.479
 6456SOL    HW220268   6.252   2.048   3.398
 6457SOL     OW20269   1.751   5.868   3.137
 6457SOL    HW120270   1.728   5.842   3.043
 6457SOL    HW220271   1.688   5.824   3.200
 6458SOL     OW20272   1.563   0.433   4.667
 6458SOL    HW120273   1.483   0.481   4.630
 6458SOL    HW220274   1.576   0.347   4.618
 6459SOL     OW20275   0.441   3.210   2.926
 6459SOL    HW120276   0.533   3.175   2.907
 6459SOL    HW220277   0.404   3.255   2.845
 6460SOL     OW20278   1.912   4.941   5.809
 6460SOL    HW120279   1.935   4.880   5.885
 6460SOL    HW220280   1.996   4.973   5.766
 6461SOL     OW20281   0.366   6.877   1.324
 6461SOL    HW120282   0.343   6.974   1.333
 6461SOL    HW220283   0.295   6.830   1.272
 6462SOL     OW20284   2.437   3.971   5.790
 6462SOL    HW120285   2.505   3.971   5.716
 6462SOL    HW220286   2.347   3.996   5.753
 6463SOL     OW20287   4.574   3.160   1.099
 6463SOL    HW120288   4.551   3.090   1.167
 6463SOL    HW220289   4.490   3.208   1.072
 6464SOL     OW20290   1.150   3.509   3.160
 6464SOL    HW120291   1.206   3.428   3.174
 6464SOL    HW220292   1.101   3.531   3.244
 6465SOL     OW20293   2.330   1.548   2.961
 6465SOL    HW120294   2.331   1.631   3.017
 6465SOL    HW220295   2.357   1.570   2.868
 6466SOL     OW20296   6.534   5.064   6.790
 6466SOL    HW120297   6.631   5.039   6.798
 6466SOL    HW220298   6.523   5.161   6.813
 6467SOL     OW20299   2.378   3.499   5.772
 6467SOL    HW120300   2.437   3.506   5.851
 6467SOL    HW220301   2.421   3.544   5.693
 6468SOL     OW20302   1.196   0.565   1.143
 6468SOL    HW120303   1.263   0.490   1.148
 6468SOL    HW220304   1.243   0.653   1.146
 6469SOL     OW20305   2.374   0.756   1.211
 6469SOL    HW120306   2.316   0.830   1.178
 6469SOL    HW220307   2.457   0.794   1.253
 6470SOL     OW20308   6.093   1.628   6.573
 6470SOL    HW120309   6.098   1.712   6.626
 6470SOL    HW220310   6.047   1.646   6.486
 6471SOL     OW20311   0.541   6.371   5.883
 6471SOL    HW120312   0.558   6.294   5.822
 6471SOL    HW220313   0.608   6.443   5.865
 6472SOL     OW20314   0.550   6.915   1.122
 6472SOL    HW120315   0.487   6.900   1.198
 6472SOL    HW220316   0.582   6.827   1.086
 6473SOL     OW20317   2.873   1.882   3.530
 6473SOL    HW120318   2.888   1.960   3.469
 6473SOL    HW220319   2.844   1.914   3.620
 6474SOL     OW20320   3.646   0.026   4.367
 6474SOL    HW120321   3.549   0.033   4.345
 6474SOL    HW220322   3.667   0.083   4.447
 6475SOL     OW20323   5.285   5.705   3.303
 6475SOL    HW120324   5.351   5.702   3.228
 6475SOL    HW220325   5.259   5.800   3.320
 6476SOL     OW20326   5.027   4.126   5.600
 6476SOL    HW120327   5.071   4.041   5.571
 6476SOL    HW220328   4.985   4.171   5.522
 6477SOL     OW20329   0.483   6.409   0.723
 6477SOL    HW120330   0.422   6.335   0.695
 6477SOL    HW220331   0.429   6.492   0.739
 6478SOL     OW20332   1.528   6.281   0.710
 6478SOL    HW120333   1.607   6.342   0.704
 6478SOL    HW220334   1.548   6.194   0.665
 6479SOL     OW20335   4.676   6.123   3.841
 6479SOL    HW120336   4.602   6.178   3.877
 6479SOL    HW220337   4.681   6.036   3.891
 6480SOL     OW20338   3.063   1.489   5.375
 6480SOL    HW120339   3.034   1.478   5.280
 6480SOL    HW220340   3.066   1.586   5.398
 6481SOL     OW20341   4.340   3.151   1.730
 6481SOL    HW120342   4.421   3.115   1.776
 6481SOL    HW220343   4.353   3.145   1.631
 6482SOL     OW20344   5.237   3.257   5.173
 6482SOL    HW120345   5.337   3.268   5.171
 6482SOL    HW220346   5.196   3.335   5.220
 6483SOL     OW20347   1.631   5.734   5.802
 6483SOL    HW120348   1.624   5.659   5.869
 6483SOL    HW220349   1.551   5.794   5.811
 6484SOL     OW20350   4.018   1.613   2.996
 6484SOL    HW120351   3.987   1.541   3.058
 6484SOL    HW220352   4.113   1.596   2.970
 6485SOL     OW20353   2.481   4.893   4.425
 6485SOL    HW120354   2.538   4.813   4.443
 6485SOL    HW220355   2.461   4.940   4.511
 6486SOL     OW20356   6.977   4.331   2.232
 6486SOL    HW120357   0.044   4.280   2.226
 6486SOL    HW220358   6.981   4.411   2.173
 6487SOL     OW20359   5.930   5.346   4.026
 6487SOL    HW120360   5.941   5.357   4.124
 6487SOL    HW220361   5.838   5.375   3.999
 6488SOL     OW20362   3.888   5.084   3.996
 6488SOL    HW120363   3.976   5.127   4.015
 6488SOL    HW220364   3.837   5.141   3.931
 6489SOL     OW20365   6.684   3.087   4.725
 6489SOL    HW120366   6.733   3.173   4.740
 6489SOL    HW220367   6.715   3.019   4.791
 6490SOL     OW20368   1.828   3.104   0.177
 6490SOL    HW120369   1.802   3.021   0.226
 6490SOL    HW220370   1.925   3.122   0.193
 6491SOL     OW20371   1.801   0.448   1.720
 6491SOL    HW120372   1.899   0.431   1.730
 6491SOL    HW220373   1.770   0.416   1.631
 6492SOL     OW20374   4.128   3.696   3.804
 6492SOL    HW120375   4.169   3.607   3.822
 6492SOL    HW220376   4.075   3.725   3.884
 6493SOL     OW20377   1.233   4.751   4.228
 6493SOL    HW120378   1.183   4.821   4.176
 6493SOL    HW220379   1.194   4.661   4.210
 6494SOL     OW20380   6.717   0.988   1.534
 6494SOL    HW120381   6.761   0.907   1.495
 6494SOL    HW220382   6.737   1.068   1.477
 6495SOL     OW20383   6.507   6.570   2.507
 6495SOL    HW120384   6.502   6.472   2.485
 6495SOL    HW220385   6.565   6.583   2.588
 6496SOL     OW20386   2.969   2.273   1.445
 6496SOL    HW120387   3.045   2.338   1.450
 6496SOL    HW220388   3.005   2.180   1.454
 6497SOL     OW20389   0.855   2.207   1.099
 6497SOL    HW120390   0.799   2.268   1.043
 6497SOL    HW220391   0.945   2.248   1.113
 6498SOL     OW20392   2.176   4.517   4.369
 6498SOL    HW120393   2.267   4.507   4.408
 6498SOL    HW220394   2.108   4.485   4.435
 6499SOL     OW20395   5.670   2.428   2.569
 6499SOL    HW120396   5.619   2.392   2.490
 6499SOL    HW220397   5.634   2.387   2.653
 6500SOL     OW20398   1.717   3.788   2.375
 6500SOL    HW120399   1.634   3.807   2.426
 6500SOL    HW220400   1.744   3.693   2.389
 6501SOL     OW20401   6.665   0.846   2.640
 6501SOL    HW120402   6.737   0.909   2.612
 6501SOL    HW220403   6.686   0.755   2.604
 6502SOL     OW20404   0.993   3.012   1.850
 6502SOL    HW120405   1.090   3.019   1.829
 6502SOL    HW220406   0.942   2.979   1.770
 6503SOL     OW20407   0.216   2.574   5.395
 6503SOL    HW120408   0.277   2.572   5.316
 6503SOL    HW220409   0.172   2.664   5.401
 6504SOL     OW20410   4.016   6.835   5.867
 6504SOL    HW120411   3.947   6.814   5.936
 6504SOL    HW220412   3.988   6.916   5.816
 6505SOL     OW20413   0.321   6.520   0.052
 6505SOL    HW120414   0.297   6.423   0.051
 6505SOL    HW220415   0.415   6.531   0.083
 6506SOL     OW20416   0.163   3.537   1.420
 6506SOL    HW120417   0.081   3.480   1.432
 6506SOL    HW220418   0.141   3.632   1.444
 6507SOL     OW20419   4.073   5.637   0.981
 6507SOL    HW120420   4.053   5.545   0.947
 6507SOL    HW220421   4.006   5.702   0.945
 6508SOL     OW20422   0.053   0.413   4.210
 6508SOL    HW120423   0.062   0.420   4.309
 6508SOL    HW220424   6.975   0.413   4.185
 6509SOL     OW20425   2.251   1.879   0.466
 6509SOL    HW120426   2.335   1.930   0.451
 6509SOL    HW220427   2.199   1.875   0.381
 6510SOL     OW20428   3.443   4.985   4.564
 6510SOL    HW120429   3.402   5.075   4.553
 6510SOL    HW220430   3.431   4.932   4.480
 6511SOL     OW20431   3.300   2.678   6.814
 6511SOL    HW120432   3.295   2.689   6.913
 6511SOL    HW220433   3.212   2.702   6.773
 6512SOL     OW20434   5.256   0.878   1.140
 6512SOL    HW120435   5.223   0.797   1.092
 6512SOL    HW220436   5.181   0.919   1.192
 6513SOL     OW20437   3.273   4.855   2.717
 6513SOL    HW120438   3.236   4.906   2.795
 6513SOL    HW220439   3.198   4.819   2.662
 6514SOL     OW20440   4.936   5.643   5.648
 6514SOL    HW120441   4.896   5.551   5.653
 6514SOL    HW220442   4.868   5.711   5.674
 6515SOL     OW20443   0.551   4.931   2.058
 6515SOL    HW120444   0.562   5.021   2.100
 6515SOL    HW220445   0.582   4.934   1.963
 6516SOL     OW20446   5.712   1.234   3.914
 6516SOL    HW120447   5.768   1.179   3.852
 6516SOL    HW220448   5.619   1.243   3.877
 6517SOL     OW20449   6.638   4.052   0.501
 6517SOL    HW120450   6.602   4.103   0.579
 6517SOL    HW220451   6.566   4.040   0.433
 6518SOL     OW20452   0.991   1.487   1.965
 6518SOL    HW120453   0.996   1.467   2.063
 6518SOL    HW220454   0.952   1.578   1.952
 6519SOL     OW20455   1.331   1.642   3.318
 6519SOL    HW120456   1.420   1.677   3.349
 6519SOL    HW220457   1.268   1.641   3.395
 6520SOL     OW20458   6.149   5.831   6.576
 6520SOL    HW120459   6.220   5.776   6.620
 6520SOL    HW220460   6.087   5.867   6.646
 6521SOL     OW20461   1.590   4.523   4.622
 6521SOL    HW120462   1.541   4.579   4.690
 6521SOL    HW220463   1.653   4.581   4.571
 6522SOL     OW20464   2.193   2.990   5.165
 6522SOL    HW120465   2.137   2.909   5.180
 6522SOL    HW220466   2.282   2.963   5.128
 6523SOL     OW20467   5.658   6.495   0.507
 6523SOL    HW120468   5.618   6.533   0.424
 6523SOL    HW220469   5.668   6.396   0.497
 6524SOL     OW20470   3.346   2.715   1.253
 6524SOL    HW120471   3.324   2.774   1.331
 6524SOL    HW220472   3.413   2.647   1.281
 6525SOL     OW20473   1.989   4.460   4.148
 6525SOL    HW120474   2.078   4.488   4.184
 6525SOL    HW220475   1.947   4.395   4.211
 6526SOL     OW20476   6.468   6.035   0.549
 6526SOL    HW120477   6.548   6.063   0.601
 6526SOL    HW220478   6.456   6.096   0.470
 6527SOL     OW20479   5.265   2.144   1.061
 6527SOL    HW120480   5.172   2.110   1.049
 6527SOL    HW220481   5.299   2.116   1.151
 6528SOL     OW20482   4.547   6.414   0.312
 6528SOL    HW120483   4.608   6.471   0.368
 6528SOL    HW220484   4.454   6.449   0.321
 6529SOL     OW20485   4.343   0.042   1.709
 6529SOL    HW120486   4.366   0.100   1.631
 6529SOL    HW220487   4.249   0.062   1.739
 6530SOL     OW20488   0.272   2.369   3.972
 6530SOL    HW120489   0.319   2.389   3.886
 6530SOL    HW220490   0.312   2.425   4.045
 6531SOL     OW20491   3.665   3.195   3.596
 6531SOL    HW120492   3.762   3.204   3.577
 6531SOL    HW220493   3.622   3.286   3.596
 6532SOL     OW20494   0.974   5.671   0.245
 6532SOL    HW120495   1.017   5.615   0.316
 6532SOL    HW220496   0.922   5.745   0.288
 6533SOL     OW20497   4.908   5.185   1.428
 6533SOL    HW120498   4.932   5.189   1.331
 6533SOL    HW220499   4.940   5.267   1.474
 6534SOL     OW20500   6.630   3.172   4.061
 6534SOL    HW120501   6.614   3.220   4.147
 6534SOL    HW220502   6.570   3.209   3.991
 6535SOL     OW20503   5.257   3.693   5.861
 6535SOL    HW120504   5.179   3.712   5.921
 6535SOL    HW220505   5.265   3.595   5.846
 6536SOL     OW20506   0.378   4.953   5.732
 6536SOL    HW120507   0.417   4.963   5.640
 6536SOL    HW220508   0.441   4.903   5.790
 6537SOL     OW20509   6.544   5.485   4.394
 6537SOL    HW120510   6.519   5.442   4.307
 6537SOL    HW220511   6.614   5.554   4.377
 6538SOL     OW20512   1.476   3.253   3.611
 6538SOL    HW120513   1.554   3.190   3.611
 6538SOL    HW220514   1.421   3.238   3.529
 6539SOL     OW20515   5.177   6.888   6.061
 6539SOL    HW120516   5.202   6.896   6.158
 6539SOL    HW220517   5.260   6.884   6.006
 6540SOL     OW20518   1.020   2.407   4.898
 6540SOL    HW120519   1.047   2.327   4.845
 6540SOL    HW220520   1.034   2.489   4.843
 6541SOL     OW20521   3.868   1.636   5.519
 6541SOL    HW120522   3.835   1.698   5.590
 6541SOL    HW220523   3.796   1.621   5.451
 6542SOL     OW20524   1.637   4.221   2.019
 6542SOL    HW120525   1.700   4.149   1.990
 6542SOL    HW220526   1.548   4.207   1.974
 6543SOL     OW20527   3.839   1.441   4.203
 6543SOL    HW120528   3.846   1.397   4.113
 6543SOL    HW220529   3.930   1.448   4.244
 6544SOL     OW20530   0.856   0.288   1.033
 6544SOL    HW120531   0.882   0.193   1.051
 6544SOL    HW220532   0.895   0.347   1.104
 6545SOL     OW20533   5.802   5.714   0.937
 6545SOL    HW120534   5.899   5.711   0.912
 6545SOL    HW220535   5.773   5.810   0.941
 6546SOL     OW20536   4.421   5.403   5.136
 6546SOL    HW120537   4.462   5.340   5.070
 6546SOL    HW220538   4.467   5.492   5.129
 6547SOL     OW20539   1.113   6.372   5.196
 6547SOL    HW120540   1.183   6.320   5.147
 6547SOL    HW220541   1.071   6.437   5.133
 6548SOL     OW20542   1.422   2.271   5.913
 6548SOL    HW120543   1.386   2.183   5.882
 6548SOL    HW220544   1.451   2.263   6.009
 6549SOL     OW20545   3.729   1.508   2.444
 6549SOL    HW120546   3.667   1.431   2.430
 6549SOL    HW220547   3.684   1.592   2.415
 6550SOL     OW20548   6.023   0.080   1.886
 6550SOL    HW120549   6.095   0.082   1.816
 6550SOL    HW220550   5.994   7.005   1.901
 6551SOL     OW20551   2.713   4.948   1.305
 6551SOL    HW120552   2.780   4.963   1.378
 6551SOL    HW220553   2.691   4.851   1.299
 6552SOL     OW20554   2.290   3.959   0.024
 6552SOL    HW120555   2.197   3.941   0.057
 6552SOL    HW220556   2.327   4.039   0.071
 6553SOL     OW20557   0.024   1.873   3.294
 6553SOL    HW120558   0.026   1.829   3.204
 6553SOL    HW220559   6.959   1.846   3.342
 6554SOL     OW20560   1.570   2.109   3.491
 6554SOL    HW120561   1.659   2.073   3.520
 6554SOL    HW220562   1.506   2.105   3.567
 6555SOL     OW20563   1.248   3.604   2.387
 6555SOL    HW120564   1.238   3.601   2.486
 6555SOL    HW220565   1.344   3.621   2.364
 6556SOL     OW20566   5.008   3.347   3.275
 6556SOL    HW120567   5.089   3.339   3.217
 6556SOL    HW220568   4.946   3.415   3.237
 6557SOL     OW20569   1.774   0.026   2.790
 6557SOL    HW120570   1.692   0.041   2.735
 6557SOL    HW220571   1.795   0.109   2.842
 6558SOL     OW20572   5.195   5.523   1.027
 6558SOL    HW120573   5.220   5.596   0.963
 6558SOL    HW220574   5.096   5.520   1.037
 6559SOL     OW20575   0.336   1.720   6.447
 6559SOL    HW120576   0.257   1.762   6.492
 6559SOL    HW220577   0.382   1.658   6.511
 6560SOL     OW20578   6.874   4.751   6.284
 6560SOL    HW120579   6.783   4.780   6.254
 6560SOL    HW220580   6.920   4.701   6.210
 6561SOL     OW20581   2.680   5.539   0.831
 6561SOL    HW120582   2.760   5.536   0.771
 6561SOL    HW220583   2.710   5.534   0.927
 6562SOL     OW20584   4.788   2.338   1.863
 6562SOL    HW120585   4.695   2.341   1.826
 6562SOL    HW220586   4.794   2.266   1.932
 6563SOL     OW20587   6.064   5.877   5.333
 6563SOL    HW120588   6.012   5.799   5.298
 6563SOL    HW220589   6.017   5.962   5.307
 6564SOL     OW20590   5.227   3.581   2.631
 6564SOL    HW120591   5.137   3.612   2.599
 6564SOL    HW220592   5.246   3.490   2.594
 6565SOL     OW20593   4.933   6.012   2.381
 6565SOL    HW120594   4.906   6.050   2.469
 6565SOL    HW220595   4.964   5.918   2.393
 6566SOL     OW20596   5.052   5.654   3.717
 6566SOL    HW120597   5.067   5.668   3.619
 6566SOL    HW220598   5.082   5.563   3.742
 6567SOL     OW20599   3.000   0.840   2.828
 6567SOL    HW120600   3.003   0.831   2.927
 6567SOL    HW220601   3.093   0.843   2.792
 6568SOL     OW20602   5.326   1.262   1.318
 6568SOL    HW120603   5.301   1.355   1.293
 6568SOL    HW220604   5.252   1.199   1.294
 6569SOL     OW20605   1.734   4.658   3.416
 6569SOL    HW120606   1.784   4.647   3.502
 6569SOL    HW220607   1.777   4.730   3.361
 6570SOL     OW20608   4.867   0.056   2.657
 6570SOL    HW120609   4.912   6.997   2.613
 6570SOL    HW220610   4.808   0.102   2.590
 6571SOL     OW20611   2.969   6.375   2.909
 6571SOL    HW120612   2.925   6.458   2.944
 6571SOL    HW220613   3.062   6.397   2.879
 6572SOL     OW20614   1.621   6.162   3.813
 6572SOL    HW120615   1.630   6.161   3.713
 6572SOL    HW220616   1.694   6.107   3.854
 6573SOL     OW20617   0.443   2.128   3.171
 6573SOL    HW120618   0.350   2.135   3.136
 6573SOL    HW220619   0.486   2.219   3.171
 6574SOL     OW20620   0.505   5.378   1.886
 6574SOL    HW120621   0.443   5.442   1.841
 6574SOL    HW220622   0.594   5.380   1.840
 6575SOL     OW20623   0.106   1.506   3.482
 6575SOL    HW120624   0.087   1.467   3.572
 6575SOL    HW220625   0.020   1.531   3.437
 6576SOL     OW20626   4.026   6.801   1.852
 6576SOL    HW120627   4.000   6.781   1.947
 6576SOL    HW220628   4.082   6.726   1.816
 6577SOL     OW20629   3.342   1.023   5.115
 6577SOL    HW120630   3.389   1.067   5.038
 6577SOL    HW220631   3.405   1.017   5.193
 6578SOL     OW20632   1.323   5.817   6.494
 6578SOL    HW120633   1.381   5.823   6.575
 6578SOL    HW220634   1.234   5.778   6.519
 6579SOL     OW20635   1.693   1.527   3.347
 6579SOL    HW120636   1.663   1.599   3.285
 6579SOL    HW220637   1.793   1.518   3.344
 6580SOL     OW20638   2.910   3.054   0.006
 6580SOL    HW120639   2.839   2.984   0.006
 6580SOL    HW220640   2.950   3.060   6.934
 6581SOL     OW20641   0.630   2.502   2.165
 6581SOL    HW120642   0.593   2.457   2.246
 6581SOL    HW220643   0.704   2.446   2.127
 6582SOL     OW20644   4.329   0.684   3.397
 6582SOL    HW120645   4.308   0.760   3.336
 6582SOL    HW220646   4.316   0.597   3.348
 6583SOL     OW20647   2.759   4.486   1.079
 6583SOL    HW120648   2.841   4.528   1.039
 6583SOL    HW220649   2.712   4.432   1.009
 6584SOL     OW20650   3.997   3.206   6.305
 6584SOL    HW120651   3.903   3.177   6.322
 6584SOL    HW220652   4.013   3.295   6.348
 6585SOL     OW20653   5.563   0.479   1.644
 6585SOL    HW120654   5.557   0.447   1.738
 6585SOL    HW220655   5.571   0.401   1.582
 6586SOL     OW20656   6.678   1.528   0.064
 6586SOL    HW120657   6.662   1.595   7.010
 6586SOL    HW220658   6.590   1.499   0.101
 6587SOL     OW20659   3.081   5.015   5.226
 6587SOL    HW120660   2.991   5.031   5.267
 6587SOL    HW220661   3.071   5.000   5.128
 6588SOL     OW20662   1.098   1.252   0.399
 6588SOL    HW120663   1.164   1.288   0.333
 6588SOL    HW220664   1.146   1.227   0.483
 6589SOL     OW20665   6.075   6.819   1.068
 6589SOL    HW120666   6.124   6.854   0.988
 6589SOL    HW220667   6.078   6.886   1.142
 6590SOL     OW20668   1.490   5.972   4.743
 6590SOL    HW120669   1.448   6.050   4.790
 6590SOL    HW220670   1.480   5.890   4.799
 6591SOL     OW20671   6.377   3.285   3.574
 6591SOL    HW120672   6.389   3.234   3.489
 6591SOL    HW220673   6.467   3.300   3.617
 6592SOL     OW20674   0.251   0.755   4.054
 6592SOL    HW120675   0.343   0.750   4.093
 6592SOL    HW220676   0.228   0.850   4.035
 6593SOL     OW20677   1.310   0.558   2.968
 6593SOL    HW120678   1.320   0.494   3.044
 6593SOL    HW220679   1.400   0.583   2.934
 6594SOL     OW20680   5.665   0.340   6.558
 6594SOL    HW120681   5.696   0.333   6.463
 6594SOL    HW220682   5.711   0.271   6.613
 6595SOL     OW20683   1.459   1.542   5.019
 6595SOL    HW120684   1.556   1.531   5.042
 6595SOL    HW220685   1.426   1.459   4.975
 6596SOL     OW20686   5.513   0.950   3.204
 6596SOL    HW120687   5.569   0.988   3.277
 6596SOL    HW220688   5.417   0.970   3.222
 6597SOL     OW20689   0.966   5.232   1.074
 6597SOL    HW120690   0.944   5.145   1.031
 6597SOL    HW220691   0.941   5.229   1.171
 6598SOL     OW20692   0.996   5.236   1.788
 6598SOL    HW120693   1.018   5.283   1.702
 6598SOL    HW220694   1.054   5.156   1.798
 6599SOL     OW20695   0.764   5.580   6.281
 6599SOL    HW120696   0.838   5.607   6.220
 6599SOL    HW220697   0.742   5.657   6.342
 6600SOL     OW20698   4.190   6.199   4.983
 6600SOL    HW120699   4.187   6.295   5.011
 6600SOL    HW220700   4.151   6.189   4.891
 6601SOL     OW20701   0.946   2.844   2.286
 6601SOL    HW120702   0.876   2.786   2.326
 6601SOL    HW220703   0.935   2.845   2.186
 6602SOL     OW20704   6.113   5.732   0.935
 6602SOL    HW120705   6.101   5.787   1.018
 6602SOL    HW220706   6.165   5.784   0.868
 6603SOL     OW20707   0.176   4.553   2.405
 6603SOL    HW120708   0.129   4.532   2.320
 6603SOL    HW220709   0.114   4.535   2.482
 6604SOL     OW20710   1.236   5.297   2.445
 6604SOL    HW120711   1.289   5.375   2.480
 6604SOL    HW220712   1.246   5.292   2.345
 6605SOL     OW20713   0.009   5.015   1.150
 6605SOL    HW120714   0.060   5.087   1.197
 6605SOL    HW220715   6.954   4.983   1.210
 6606SOL     OW20716   1.264   4.458   2.871
 6606SOL    HW120717   1.171   4.423   2.886
 6606SOL    HW220718   1.321   4.436   2.951
 6607SOL     OW20719   6.530   3.644   4.330
 6607SOL    HW120720   6.546   3.605   4.239
 6607SOL    HW220721   6.497   3.738   4.321
 6608SOL     OW20722   1.360   0.359   5.332
 6608SOL    HW120723   1.330   0.370   5.427
 6608SOL    HW220724   1.406   0.443   5.302
 6609SOL     OW20725   3.114   2.612   0.037
 6609SOL    HW120726   3.118   2.513   0.025
 6609SOL    HW220727   3.049   2.652   6.991
 6610SOL     OW20728   3.262   6.552   1.565
 6610SOL    HW120729   3.310   6.570   1.479
 6610SOL    HW220730   3.166   6.578   1.556
 6611SOL     OW20731   3.161   1.712   4.375
 6611SOL    HW120732   3.226   1.786   4.391
 6611SOL    HW220733   3.191   1.659   4.296
 6612SOL     OW20734   0.095   6.915   6.901
 6612SOL    HW120735   0.134   6.836   6.949
 6612SOL    HW220736   0.150   6.996   6.922
 6613SOL     OW20737   4.218   6.621   1.371
 6613SOL    HW120738   4.298   6.624   1.432
 6613SOL    HW220739   4.248   6.602   1.278
 6614SOL     OW20740   3.596   4.417   0.933
 6614SOL    HW120741   3.633   4.352   1.000
 6614SOL    HW220742   3.555   4.494   0.982
 6615SOL     OW20743   3.084   5.801   5.885
 6615SOL    HW120744   3.071   5.743   5.804
 6615SOL    HW220745   3.152   5.871   5.865
 6616SOL     OW20746   4.022   2.066   6.575
 6616SOL    HW120747   3.944   2.114   6.533
 6616SOL    HW220748   4.008   2.060   6.674
 6617SOL     OW20749   3.487   1.513   4.213
 6617SOL    HW120750   3.543   1.490   4.293
 6617SOL    HW220751   3.547   1.527   4.134
 6618SOL     OW20752   5.844   3.329   3.414
 6618SOL    HW120753   5.777   3.255   3.425
 6618SOL    HW220754   5.796   3.415   3.396
 6619SOL     OW20755   4.772   5.163   4.108
 6619SOL    HW120756   4.816   5.211   4.183
 6619SOL    HW220757   4.673   5.173   4.117
 6620SOL     OW20758   1.449   2.872   3.260
 6620SOL    HW120759   1.449   2.782   3.304
 6620SOL    HW220760   1.527   2.925   3.293
 6621SOL     OW20761   3.493   3.754   3.455
 6621SOL    HW120762   3.573   3.711   3.412
 6621SOL    HW220763   3.444   3.808   3.387
 6622SOL     OW20764   0.108   4.670   1.153
 6622SOL    HW120765   0.012   4.695   1.137
 6622SOL    HW220766   0.152   4.742   1.206
 6623SOL     OW20767   3.558   3.439   3.594
 6623SOL    HW120768   3.574   3.520   3.651
 6623SOL    HW220769   3.504   3.464   3.514
 6624SOL     OW20770   2.648   2.358   2.893
 6624SOL    HW120771   2.600   2.438   2.930
 6624SOL    HW220772   2.662   2.369   2.795
 6625SOL     OW20773   0.045   4.513   5.416
 6625SOL    HW120774   0.062   4.488   5.321
 6625SOL    HW220775   0.011   4.607   5.421
 6626SOL     OW20776   2.862   5.589   5.903
 6626SOL    HW120777   2.940   5.539   5.867
 6626SOL    HW220778   2.894   5.674   5.946
 6627SOL     OW20779   2.611   6.645   4.523
 6627SOL    HW120780   2.540   6.706   4.487
 6627SOL    HW220781   2.574   6.552   4.531
 6628SOL     OW20782   3.700   0.336   3.320
 6628SOL    HW120783   3.764   0.330   3.397
 6628SOL    HW220784   3.610   0.364   3.354
 6629SOL     OW20785   4.882   5.778   4.907
 6629SOL    HW120786   4.846   5.868   4.886
 6629SOL    HW220787   4.838   5.710   4.849
 6630SOL     OW20788   2.037   0.189   0.454
 6630SOL    HW120789   1.985   0.141   0.526
 6630SOL    HW220790   2.009   0.285   0.451
 6631SOL     OW20791   1.561   2.367   5.385
 6631SOL    HW120792   1.553   2.273   5.418
 6631SOL    HW220793   1.644   2.376   5.331
 6632SOL     OW20794   1.381   0.109   6.616
 6632SOL    HW120795   1.323   0.096   6.536
 6632SOL    HW220796   1.403   0.206   6.625
 6633SOL     OW20797   4.714   6.727   5.891
 6633SOL    HW120798   4.650   6.787   5.940
 6633SOL    HW220799   4.806   6.764   5.898
 6634SOL     OW20800   2.733   2.274   3.875
 6634SOL    HW120801   2.680   2.351   3.840
 6634SOL    HW220802   2.728   2.198   3.810
 6635SOL     OW20803   4.884   5.943   6.030
 6635SOL    HW120804   4.872   5.923   5.933
 6635SOL    HW220805   4.977   5.919   6.057
 6636SOL     OW20806   3.972   1.287   1.057
 6636SOL    HW120807   3.985   1.340   0.973
 6636SOL    HW220808   3.955   1.348   1.133
 6637SOL     OW20809   6.972   2.085   6.822
 6637SOL    HW120810   6.959   2.069   6.724
 6637SOL    HW220811   6.901   2.148   6.854
 6638SOL     OW20812   2.899   3.458   3.726
 6638SOL    HW120813   2.872   3.364   3.705
 6638SOL    HW220814   2.903   3.470   3.825
 6639SOL     OW20815   4.527   2.946   1.240
 6639SOL    HW120816   4.599   2.923   1.305
 6639SOL    HW220817   4.537   2.891   1.157
 6640SOL     OW20818   0.943   3.865   4.433
 6640SOL    HW120819   0.979   3.952   4.466
 6640SOL    HW220820   0.971   3.791   4.494
 6641SOL     OW20821   6.035   2.564   0.030
 6641SOL    HW120822   5.952   2.513   0.049
 6641SOL    HW220823   6.041   2.642   0.091
 6642SOL     OW20824   1.079   5.280   6.063
 6642SOL    HW120825   1.173   5.307   6.080
 6642SOL    HW220826   1.073   5.180   6.056
 6643SOL     OW20827   4.294   5.850   6.078
 6643SOL    HW120828   4.223   5.780   6.065
 6643SOL    HW220829   4.251   5.940   6.080
 6644SOL     OW20830   1.841   0.460   3.587
 6644SOL    HW120831   1.747   0.430   3.608
 6644SOL    HW220832   1.839   0.552   3.550
 6645SOL     OW20833   4.749   2.370   5.666
 6645SOL    HW120834   4.749   2.456   5.614
 6645SOL    HW220835   4.661   2.359   5.711
 6646SOL     OW20836   4.910   0.427   6.581
 6646SOL    HW120837   4.963   0.387   6.506
 6646SOL    HW220838   4.891   0.357   6.650
 6647SOL     OW20839   4.108   4.648   1.192
 6647SOL    HW120840   4.105   4.563   1.140
 6647SOL    HW220841   4.174   4.710   1.151
 6648SOL     OW20842   3.437   5.282   5.589
 6648SOL    HW120843   3.361   5.280   5.524
 6648SOL    HW220844   3.497   5.204   5.573
 6649SOL     OW20845   5.198   2.304   6.020
 6649SOL    HW120846   5.144   2.314   5.937
 6649SOL    HW220847   5.281   2.360   6.013
 6650SOL     OW20848   2.505   1.341   4.932
 6650SOL    HW120849   2.419   1.362   4.886
 6650SOL    HW220850   2.523   1.242   4.925
 6651SOL     OW20851   6.751   1.243   4.134
 6651SOL    HW120852   6.842   1.238   4.092
 6651SOL    HW220853   6.716   1.151   4.149
 6652SOL     OW20854   0.187   4.435   6.677
 6652SOL    HW120855   0.218   4.465   6.587
 6652SOL    HW220856   0.094   4.466   6.693
 6653SOL     OW20857   5.548   4.081   6.669
 6653SOL    HW120858   5.516   4.041   6.755
 6653SOL    HW220859   5.498   4.042   6.592
 6654SOL     OW20860   6.784   1.839   3.350
 6654SOL    HW120861   6.701   1.790   3.375
 6654SOL    HW220862   6.779   1.869   3.255
 6655SOL     OW20863   6.985   6.056   1.310
 6655SOL    HW120864   7.018   6.133   1.365
 6655SOL    HW220865   6.983   5.973   1.366
 6656SOL     OW20866   4.333   1.192   2.105
 6656SOL    HW120867   4.307   1.096   2.111
 6656SOL    HW220868   4.251   1.248   2.094
 6657SOL     OW20869   4.747   2.043   4.627
 6657SOL    HW120870   4.755   2.125   4.683
 6657SOL    HW220871   4.822   1.980   4.649
 6658SOL     OW20872   6.716   5.936   4.602
 6658SOL    HW120873   6.756   5.863   4.659
 6658SOL    HW220874   6.788   6.002   4.579
 6659SOL     OW20875   0.500   5.990   0.809
 6659SOL    HW120876   0.402   6.012   0.813
 6659SOL    HW220877   0.522   5.955   0.718
 6660SOL     OW20878   0.906   0.192   4.361
 6660SOL    HW120879   0.963   0.273   4.346
 6660SOL    HW220880   0.928   0.151   4.449
 6661SOL     OW20881   3.957   6.401   3.899
 6661SOL    HW120882   4.020   6.378   3.825
 6661SOL    HW220883   3.863   6.381   3.871
 6662SOL     OW20884   3.391   6.932   2.421
 6662SOL    HW120885   3.433   0.002   2.437
 6662SOL    HW220886   3.293   6.938   2.439
 6663SOL     OW20887   1.640   4.198   5.525
 6663SOL    HW120888   1.602   4.227   5.438
 6663SOL    HW220889   1.729   4.155   5.510
 6664SOL     OW20890   3.272   0.194   2.231
 6664SOL    HW120891   3.274   0.138   2.149
 6664SOL    HW220892   3.178   0.208   2.261
 6665SOL     OW20893   2.838   0.802   0.393
 6665SOL    HW120894   2.814   0.875   0.458
 6665SOL    HW220895   2.772   0.802   0.319
 6666SOL     OW20896   2.606   5.860   5.536
 6666SOL    HW120897   2.640   5.849   5.443
 6666SOL    HW220898   2.636   5.783   5.592
 6667SOL     OW20899   1.855   5.723   0.392
 6667SOL    HW120900   1.921   5.755   0.460
 6667SOL    HW220901   1.901   5.705   0.306
 6668SOL     OW20902   6.883   3.625   6.499
 6668SOL    HW120903   6.957   3.636   6.565
 6668SOL    HW220904   6.894   3.690   6.424
 6669SOL     OW20905   1.038   2.904   3.443
 6669SOL    HW120906   1.090   2.820   3.463
 6669SOL    HW220907   0.951   2.879   3.400
 6670SOL     OW20908   2.824   3.718   0.660
 6670SOL    HW120909   2.914   3.711   0.703
 6670SOL    HW220910   2.818   3.654   0.584
 6671SOL     OW20911   4.375   5.192   0.510
 6671SOL    HW120912   4.382   5.279   0.460
 6671SOL    HW220913   4.467   5.156   0.528
 6672SOL     OW20914   1.703   2.891   1.322
 6672SOL    HW120915   1.704   2.792   1.331
 6672SOL    HW220916   1.633   2.930   1.381
 6673SOL     OW20917   5.743   3.912   3.913
 6673SOL    HW120918   5.778   3.821   3.894
 6673SOL    HW220919   5.818   3.978   3.913
 6674SOL     OW20920   6.920   0.332   0.411
 6674SOL    HW120921   6.894   0.271   0.336
 6674SOL    HW220922   6.946   0.421   0.374
 6675SOL     OW20923   4.437   1.104   0.340
 6675SOL    HW120924   4.457   1.010   0.312
 6675SOL    HW220925   4.409   1.158   0.260
 6676SOL     OW20926   0.724   4.293   4.989
 6676SOL    HW120927   0.702   4.326   5.081
 6676SOL    HW220928   0.669   4.212   4.969
 6677SOL     OW20929   0.192   2.265   6.790
 6677SOL    HW120930   0.150   2.340   6.841
 6677SOL    HW220931   0.121   2.205   6.753
 6678SOL     OW20932   2.726   4.239   6.585
 6678SOL    HW120933   2.772   4.324   6.562
 6678SOL    HW220934   2.636   4.259   6.624
 6679SOL     OW20935   1.250   0.483   4.333
 6679SOL    HW120936   1.340   0.525   4.328
 6679SOL    HW220937   1.209   0.480   4.242
 6680SOL     OW20938   6.142   5.101   1.801
 6680SOL    HW120939   6.176   5.192   1.777
 6680SOL    HW220940   6.043   5.098   1.789
 6681SOL     OW20941   2.946   5.893   1.063
 6681SOL    HW120942   2.868   5.940   1.022
 6681SOL    HW220943   2.914   5.831   1.135
 6682SOL     OW20944   2.555   5.242   6.564
 6682SOL    HW120945   2.500   5.324   6.549
 6682SOL    HW220946   2.547   5.213   6.659
 6683SOL     OW20947   6.492   6.145   6.064
 6683SOL    HW120948   6.393   6.132   6.056
 6683SOL    HW220949   6.539   6.080   6.004
 6684SOL     OW20950   2.531   6.011   5.978
 6684SOL    HW120951   2.433   5.999   5.961
 6684SOL    HW220952   2.582   5.983   5.897
 6685SOL     OW20953   4.282   2.405   1.000
 6685SOL    HW120954   4.263   2.358   0.913
 6685SOL    HW220955   4.335   2.345   1.059
 6686SOL     OW20956   4.515   4.782   5.453
 6686SOL    HW120957   4.433   4.725   5.442
 6686SOL    HW220958   4.583   4.755   5.385
 6687SOL     OW20959   0.459   2.123   1.609
 6687SOL    HW120960   0.403   2.206   1.600
 6687SOL    HW220961   0.548   2.138   1.566
 6688SOL     OW20962   4.780   5.668   0.671
 6688SOL    HW120963   4.718   5.683   0.594
 6688SOL    HW220964   4.842   5.592   0.651
 6689SOL     OW20965   3.378   5.193   6.354
 6689SOL    HW120966   3.328   5.222   6.435
 6689SOL    HW220967   3.378   5.266   6.286
 6690SOL     OW20968   1.310   0.360   0.563
 6690SOL    HW120969   1.293   0.393   0.656
 6690SOL    HW220970   1.303   0.436   0.498
 6691SOL     OW20971   2.789   1.798   1.958
 6691SOL    HW120972   2.787   1.873   1.892
 6691SOL    HW220973   2.776   1.711   1.911
 6692SOL     OW20974   4.189   6.647   2.171
 6692SOL    HW120975   4.162   6.595   2.090
 6692SOL    HW220976   4.152   6.604   2.253
 6693SOL     OW20977   3.376   1.453   5.820
 6693SOL    HW120978   3.284   1.425   5.845
 6693SOL    HW220979   3.374   1.498   5.731
 6694SOL     OW20980   4.414   3.827   1.612
 6694SOL    HW120981   4.459   3.911   1.580
 6694SOL    HW220982   4.321   3.850   1.643
 6695SOL     OW20983   2.622   2.502   0.390
 6695SOL    HW120984   2.683   2.424   0.375
 6695SOL    HW220985   2.658   2.582   0.340
 6696SOL     OW20986   3.743   3.067   5.263
 6696SOL    HW120987   3.809   2.993   5.276
 6696SOL    HW220988   3.654   3.038   5.298
 6697SOL     OW20989   4.530   2.140   2.610
 6697SOL    HW120990   4.583   2.068   2.566
 6697SOL    HW220991   4.444   2.153   2.561
 6698SOL     OW20992   2.774   3.665   1.565
 6698SOL    HW120993   2.804   3.676   1.660
 6698SOL    HW220994   2.853   3.663   1.505
 6699SOL     OW20995   1.487   3.327   6.249
 6699SOL    HW120996   1.402   3.361   6.288
 6699SOL    HW220997   1.475   3.231   6.222
 6700SOL     OW20998   5.751   1.015   1.297
 6700SOL    HW120999   5.724   1.009   1.201
 6700SOL    HW221000   5.669   1.013   1.355
 6701SOL     OW21001   5.627   0.269   1.473
 6701SOL    HW121002   5.704   0.264   1.410
 6701SOL    HW221003   5.621   0.184   1.526
 6702SOL     OW21004   3.905   2.810   0.984
 6702SOL    HW121005   3.922   2.815   1.082
 6702SOL    HW221006   3.989   2.780   0.938
 6703SOL     OW21007   0.827   1.187   0.322
 6703SOL    HW121008   0.923   1.201   0.349
 6703SOL    HW221009   0.803   1.251   0.249
 6704SOL     OW21010   2.972   7.011   5.667
 6704SOL    HW121011   2.924   0.059   5.722
 6704SOL    HW221012   3.047   0.036   5.618
 6705SOL     OW21013   0.015   4.503   2.003
 6705SOL    HW121014   6.962   4.464   1.946
 6705SOL    HW221015   0.104   4.474   1.968
 6706SOL     OW21016   0.073   5.937   0.333
 6706SOL    HW121017   0.040   5.987   0.253
 6706SOL    HW221018   0.166   5.904   0.315
 6707SOL     OW21019   4.468   1.219   2.849
 6707SOL    HW121020   4.375   1.249   2.868
 6707SOL    HW221021   4.467   1.148   2.779
 6708SOL     OW21022   0.621   2.915   0.437
 6708SOL    HW121023   0.588   2.983   0.502
 6708SOL    HW221024   0.686   2.957   0.374
 6709SOL     OW21025   2.391   4.480   1.944
 6709SOL    HW121026   2.308   4.532   1.965
 6709SOL    HW221027   2.467   4.543   1.933
 6710SOL     OW21028   4.559   1.692   1.155
 6710SOL    HW121029   4.586   1.692   1.252
 6710SOL    HW221030   4.593   1.609   1.111
 6711SOL     OW21031   3.999   5.975   6.331
 6711SOL    HW121032   3.922   5.911   6.326
 6711SOL    HW221033   4.056   5.950   6.409
 6712SOL     OW21034   5.072   3.893   1.289
 6712SOL    HW121035   4.978   3.875   1.317
 6712SOL    HW221036   5.130   3.904   1.370
 6713SOL     OW21037   1.913   4.130   4.167
 6713SOL    HW121038   1.962   4.179   4.096
 6713SOL    HW221039   1.820   4.166   4.175
 6714SOL     OW21040   5.264   1.540   1.929
 6714SOL    HW121041   5.214   1.485   1.862
 6714SOL    HW221042   5.275   1.634   1.895
 6715SOL     OW21043   1.180   0.388   5.956
 6715SOL    HW121044   1.265   0.411   6.003
 6715SOL    HW221045   1.105   0.443   5.992
 6716SOL     OW21046   1.272   5.243   1.595
 6716SOL    HW121047   1.202   5.197   1.540
 6716SOL    HW221048   1.273   5.204   1.687
 6717SOL     OW21049   6.672   2.230   5.312
 6717SOL    HW121050   6.679   2.138   5.274
 6717SOL    HW221051   6.584   2.240   5.358
 6718SOL     OW21052   4.676   2.076   1.169
 6718SOL    HW121053   4.737   2.099   1.245
 6718SOL    HW221054   4.668   1.976   1.162
 6719SOL     OW21055   1.963   1.209   0.553
 6719SOL    HW121056   1.969   1.309   0.546
 6719SOL    HW221057   1.944   1.171   0.463
 6720SOL     OW21058   1.277   1.644   5.428
 6720SOL    HW121059   1.243   1.684   5.342
 6720SOL    HW221060   1.291   1.546   5.415
 6721SOL     OW21061   6.726   6.196   7.001
 6721SOL    HW121062   6.719   6.162   0.076
 6721SOL    HW221063   6.766   6.126   6.943
 6722SOL     OW21064   6.260   4.740   0.816
 6722SOL    HW121065   6.187   4.772   0.877
 6722SOL    HW221066   6.219   4.707   0.731
 6723SOL     OW21067   1.351   3.269   4.296
 6723SOL    HW121068   1.289   3.341   4.263
 6723SOL    HW221069   1.395   3.299   4.381
 6724SOL     OW21070   2.068   3.651   4.662
 6724SOL    HW121071   1.986   3.708   4.654
 6724SOL    HW221072   2.075   3.616   4.756
 6725SOL     OW21073   4.851   3.308   4.142
 6725SOL    HW121074   4.852   3.260   4.229
 6725SOL    HW221075   4.944   3.337   4.119
 6726SOL     OW21076   0.144   1.468   6.743
 6726SOL    HW121077   0.216   1.534   6.760
 6726SOL    HW221078   0.055   1.515   6.742
 6727SOL     OW21079   0.650   5.031   5.320
 6727SOL    HW121080   0.722   5.088   5.280
 6727SOL    HW221081   0.668   4.935   5.298
 6728SOL     OW21082   3.483   1.221   4.221
 6728SOL    HW121083   3.458   1.318   4.226
 6728SOL    HW221084   3.409   1.165   4.259
 6729SOL     OW21085   4.027   0.996   1.631
 6729SOL    HW121086   4.019   1.095   1.636
 6729SOL    HW221087   4.112   0.971   1.586
 6730SOL     OW21088   0.386   1.825   0.823
 6730SOL    HW121089   0.400   1.813   0.921
 6730SOL    HW221090   0.441   1.902   0.790
 6731SOL     OW21091   3.889   0.349   6.410
 6731SOL    HW121092   3.820   0.352   6.482
 6731SOL    HW221093   3.872   0.271   6.351
 6732SOL     OW21094   6.427   4.981   5.724
 6732SOL    HW121095   6.483   5.063   5.735
 6732SOL    HW221096   6.483   4.900   5.735
 6733SOL     OW21097   4.998   5.234   4.808
 6733SOL    HW121098   5.027   5.166   4.875
 6733SOL    HW221099   4.908   5.208   4.771
 6734SOL     OW21100   5.852   2.333   5.144
 6734SOL    HW121101   5.869   2.243   5.105
 6734SOL    HW221102   5.896   2.340   5.233
 6735SOL     OW21103   5.276   3.034   4.311
 6735SOL    HW121104   5.287   3.131   4.334
 6735SOL    HW221105   5.366   2.990   4.311
 6736SOL     OW21106   3.579   4.199   0.438
 6736SOL    HW121107   3.576   4.247   0.526
 6736SOL    HW221108   3.660   4.141   0.434
 6737SOL     OW21109   6.332   3.670   0.823
 6737SOL    HW121110   6.249   3.720   0.852
 6737SOL    HW221111   6.357   3.605   0.895
 6738SOL     OW21112   2.134   6.610   4.490
 6738SOL    HW121113   2.137   6.526   4.544
 6738SOL    HW221114   2.093   6.683   4.544
 6739SOL     OW21115   6.939   6.974   5.847
 6739SOL    HW121116   6.851   6.926   5.839
 6739SOL    HW221117   6.924   0.042   5.893
 6740SOL     OW21118   0.388   6.748   1.806
 6740SOL    HW121119   0.379   6.821   1.875
 6740SOL    HW221120   0.298   6.710   1.785
 6741SOL     OW21121   3.438   1.811   0.430
 6741SOL    HW121122   3.372   1.849   0.366
 6741SOL    HW221123   3.465   1.881   0.496
 6742SOL     OW21124   6.529   4.499   2.401
 6742SOL    HW121125   6.612   4.468   2.353
 6742SOL    HW221126   6.450   4.487   2.341
 6743SOL     OW21127   3.790   3.816   6.694
 6743SOL    HW121128   3.734   3.743   6.733
 6743SOL    HW221129   3.765   3.903   6.735
 6744SOL     OW21130   6.620   6.854   5.587
 6744SOL    HW121131   6.710   6.830   5.549
 6744SOL    HW221132   6.632   6.922   5.660
 6745SOL     OW21133   6.755   3.789   5.482
 6745SOL    HW121134   6.683   3.853   5.511
 6745SOL    HW221135   6.746   3.703   5.533
 6746SOL     OW21136   1.381   2.200   2.901
 6746SOL    HW121137   1.467   2.186   2.949
 6746SOL    HW221138   1.307   2.153   2.950
 6747SOL     OW21139   1.325   6.191   4.818
 6747SOL    HW121140   1.381   6.273   4.829
 6747SOL    HW221141   1.270   6.199   4.735
 6748SOL     OW21142   1.792   1.252   5.110
 6748SOL    HW121143   1.753   1.179   5.054
 6748SOL    HW221144   1.800   1.221   5.205
 6749SOL     OW21145   4.377   4.956   2.164
 6749SOL    HW121146   4.362   5.006   2.249
 6749SOL    HW221147   4.381   5.021   2.087
 6750SOL     OW21148   3.445   1.073   5.576
 6750SOL    HW121149   3.467   1.169   5.593
 6750SOL    HW221150   3.349   1.056   5.596
 6751SOL     OW21151   4.226   0.822   4.684
 6751SOL    HW121152   4.149   0.857   4.738
 6751SOL    HW221153   4.305   0.882   4.697
 6752SOL     OW21154   2.064   4.704   2.461
 6752SOL    HW121155   2.108   4.681   2.548
 6752SOL    HW221156   2.069   4.803   2.447
 6753SOL     OW21157   3.799   4.298   0.077
 6753SOL    HW121158   3.846   4.293   0.165
 6753SOL    HW221159   3.858   4.260   0.005
 6754SOL     OW21160   6.306   1.171   0.602
 6754SOL    HW121161   6.353   1.085   0.620
 6754SOL    HW221162   6.279   1.175   0.506
 6755SOL     OW21163   3.215   5.665   6.089
 6755SOL    HW121164   3.201   5.690   6.185
 6755SOL    HW221165   3.146   5.709   6.033
 6756SOL     OW21166   3.690   3.062   6.419
 6756SOL    HW121167   3.756   2.999   6.378
 6756SOL    HW221168   3.690   3.148   6.369
 6757SOL     OW21169   4.304   0.140   1.439
 6757SOL    HW121170   4.360   0.081   1.381
 6757SOL    HW221171   4.218   0.095   1.461
 6758SOL     OW21172   5.350   3.357   3.029
 6758SOL    HW121173   5.327   3.297   2.952
 6758SOL    HW221174   5.338   3.453   3.002
 6759SOL     OW21175   1.447   1.579   2.589
 6759SOL    HW121176   1.395   1.494   2.580
 6759SOL    HW221177   1.408   1.634   2.662
 6760SOL     OW21178   5.642   2.335   5.478
 6760SOL    HW121179   5.739   2.320   5.463
 6760SOL    HW221180   5.595   2.337   5.389
 6761SOL     OW21181   3.112   0.830   5.115
 6761SOL    HW121182   3.016   0.855   5.112
 6761SOL    HW221183   3.169   0.911   5.103
 6762SOL     OW21184   5.720   4.653   4.474
 6762SOL    HW121185   5.764   4.669   4.385
 6762SOL    HW221186   5.659   4.729   4.495
 6763SOL     OW21187   5.859   6.866   4.065
 6763SOL    HW121188   5.786   6.798   4.059
 6763SOL    HW221189   5.819   6.954   4.091
 6764SOL     OW21190   0.438   4.980   1.613
 6764SOL    HW121191   0.378   4.903   1.633
 6764SOL    HW221192   0.408   5.025   1.529
 6765SOL     OW21193   0.249   3.799   2.419
 6765SOL    HW121194   0.153   3.795   2.391
 6765SOL    HW221195   0.276   3.710   2.458
 6766SOL     OW21196   5.889   0.335   0.859
 6766SOL    HW121197   5.872   0.237   0.867
 6766SOL    HW221198   5.821   0.385   0.913
 6767SOL     OW21199   2.951   0.568   1.316
 6767SOL    HW121200   2.941   0.668   1.318
 6767SOL    HW221201   2.867   0.527   1.280
 6768SOL     OW21202   1.972   6.820   6.759
 6768SOL    HW121203   1.932   6.827   6.667
 6768SOL    HW221204   1.966   6.909   6.805
 6769SOL     OW21205   4.983   3.112   1.048
 6769SOL    HW121206   4.902   3.106   0.990
 6769SOL    HW221207   4.958   3.154   1.136
 6770SOL     OW21208   0.055   1.446   1.626
 6770SOL    HW121209   0.022   1.410   1.714
 6770SOL    HW221210   0.084   1.541   1.639
 6771SOL     OW21211   5.001   1.861   3.470
 6771SOL    HW121212   4.951   1.948   3.477
 6771SOL    HW221213   5.094   1.879   3.438
 6772SOL     OW21214   3.545   1.743   4.450
 6772SOL    HW121215   3.584   1.652   4.442
 6772SOL    HW221216   3.494   1.766   4.367
 6773SOL     OW21217   0.491   3.961   1.417
 6773SOL    HW121218   0.454   3.957   1.324
 6773SOL    HW221219   0.519   3.869   1.445
 6774SOL     OW21220   0.920   2.426   6.272
 6774SOL    HW121221   0.835   2.475   6.253
 6774SOL    HW221222   0.986   2.443   6.199
 6775SOL     OW21223   1.201   4.116   6.904
 6775SOL    HW121224   1.174   4.051   6.975
 6775SOL    HW221225   1.148   4.099   6.821
 6776SOL     OW21226   5.943   5.960   6.808
 6776SOL    HW121227   5.968   6.016   6.887
 6776SOL    HW221228   5.901   5.875   6.840
 6777SOL     OW21229   4.805   5.212   6.887
 6777SOL    HW121230   4.792   5.310   6.875
 6777SOL    HW221231   4.820   5.169   6.798
 6778SOL     OW21232   6.475   5.988   3.108
 6778SOL    HW121233   6.445   5.954   3.019
 6778SOL    HW221234   6.396   6.000   3.168
 6779SOL     OW21235   6.072   3.690   6.120
 6779SOL    HW121236   6.147   3.659   6.179
 6779SOL    HW221237   5.985   3.681   6.168
 6780SOL     OW21238   0.781   3.197   1.838
 6780SOL    HW121239   0.853   3.135   1.870
 6780SOL    HW221240   0.797   3.289   1.874
 6781SOL     OW21241   6.013   5.182   5.587
 6781SOL    HW121242   5.950   5.258   5.603
 6781SOL    HW221243   6.077   5.175   5.663
 6782SOL     OW21244   5.971   0.972   3.678
 6782SOL    HW121245   5.999   1.010   3.590
 6782SOL    HW221246   5.880   0.930   3.668
 6783SOL     OW21247   1.091   5.772   6.576
 6783SOL    HW121248   1.038   5.761   6.660
 6783SOL    HW221249   1.028   5.777   6.498
 6784SOL     OW21250   4.219   2.993   0.150
 6784SOL    HW121251   4.289   2.966   0.084
 6784SOL    HW221252   4.130   2.997   0.104
 6785SOL     OW21253   5.898   5.237   2.128
 6785SOL    HW121254   5.952   5.319   2.144
 6785SOL    HW221255   5.867   5.236   2.032
 6786SOL     OW21256   1.811   3.717   5.794
 6786SOL    HW121257   1.874   3.669   5.855
 6786SOL    HW221258   1.753   3.650   5.747
 6787SOL     OW21259   0.816   3.982   1.426
 6787SOL    HW121260   0.790   4.010   1.334
 6787SOL    HW221261   0.785   3.888   1.442
 6788SOL     OW21262   2.627   4.294   0.942
 6788SOL    HW121263   2.540   4.338   0.918
 6788SOL    HW221264   2.647   4.222   0.876
 6789SOL     OW21265   0.867   5.544   3.456
 6789SOL    HW121266   0.807   5.527   3.378
 6789SOL    HW221267   0.888   5.458   3.501
 6790SOL     OW21268   1.094   2.598   0.768
 6790SOL    HW121269   1.116   2.578   0.672
 6790SOL    HW221270   1.085   2.512   0.818
 6791SOL     OW21271   3.371   3.966   6.126
 6791SOL    HW121272   3.278   3.941   6.099
 6791SOL    HW221273   3.431   3.887   6.116
 6792SOL     OW21274   0.352   4.741   0.354
 6792SOL    HW121275   0.431   4.747   0.292
 6792SOL    HW221276   0.277   4.693   0.308
 6793SOL     OW21277   5.965   1.520   1.568
 6793SOL    HW121278   5.916   1.497   1.652
 6793SOL    HW221279   5.914   1.588   1.516
 6794SOL     OW21280   4.297   1.161   4.304
 6794SOL    HW121281   4.206   1.171   4.344
 6794SOL    HW221282   4.366   1.192   4.370
 6795SOL     OW21283   3.722   6.316   0.012
 6795SOL    HW121284   3.817   6.331   0.038
 6795SOL    HW221285   3.684   6.400   6.993
 6796SOL     OW21286   3.878   1.830   2.898
 6796SOL    HW121287   3.896   1.927   2.910
 6796SOL    HW221288   3.930   1.778   2.965
 6797SOL     OW21289   6.651   2.271   1.952
 6797SOL    HW121290   6.705   2.201   1.905
 6797SOL    HW221291   6.554   2.257   1.932
 6798SOL     OW21292   6.437   0.414   2.430
 6798SOL    HW121293   6.407   0.443   2.521
 6798SOL    HW221294   6.525   0.367   2.437
 6799SOL     OW21295   5.061   5.893   1.993
 6799SOL    HW121296   5.070   5.807   2.043
 6799SOL    HW221297   4.965   5.912   1.975
 6800SOL     OW21298   3.383   3.974   6.761
 6800SOL    HW121299   3.365   3.882   6.727
 6800SOL    HW221300   3.365   4.041   6.689
 6801SOL     OW21301   1.284   2.737   2.899
 6801SOL    HW121302   1.194   2.748   2.941
 6801SOL    HW221303   1.304   2.640   2.888
 6802SOL     OW21304   2.629   4.571   2.647
 6802SOL    HW121305   2.558   4.586   2.578
 6802SOL    HW221306   2.709   4.627   2.624
 6803SOL     OW21307   3.717   2.584   0.754
 6803SOL    HW121308   3.734   2.518   0.827
 6803SOL    HW221309   3.740   2.542   0.666
 6804SOL     OW21310   1.138   0.148   3.782
 6804SOL    HW121311   1.067   0.085   3.750
 6804SOL    HW221312   1.154   0.133   3.880
 6805SOL     OW21313   5.852   1.048   5.178
 6805SOL    HW121314   5.764   1.017   5.141
 6805SOL    HW221315   5.867   1.144   5.154
 6806SOL     OW21316   5.371   6.369   5.126
 6806SOL    HW121317   5.384   6.384   5.028
 6806SOL    HW221318   5.454   6.394   5.175
 6807SOL     OW21319   3.623   3.642   6.794
 6807SOL    HW121320   3.594   3.621   6.887
 6807SOL    HW221321   3.544   3.666   6.739
 6808SOL     OW21322   2.145   3.507   3.671
 6808SOL    HW121323   2.134   3.524   3.573
 6808SOL    HW221324   2.108   3.417   3.693
 6809SOL     OW21325   1.662   3.377   6.744
 6809SOL    HW121326   1.602   3.330   6.678
 6809SOL    HW221327   1.624   3.367   6.836
 6810SOL     OW21328   5.600   1.549   3.324
 6810SOL    HW121329   5.638   1.627   3.274
 6810SOL    HW221330   5.673   1.506   3.378
 6811SOL     OW21331   4.782   5.629   2.302
 6811SOL    HW121332   4.816   5.535   2.310
 6811SOL    HW221333   4.790   5.659   2.207
 6812SOL     OW21334   3.704   3.132   2.533
 6812SOL    HW121335   3.645   3.096   2.461
 6812SOL    HW221336   3.658   3.208   2.579
 6813SOL     OW21337   5.300   3.396   1.043
 6813SOL    HW121338   5.270   3.305   1.015
 6813SOL    HW221339   5.296   3.458   0.964
 6814SOL     OW21340   2.274   2.867   0.759
 6814SOL    HW121341   2.322   2.887   0.844
 6814SOL    HW221342   2.336   2.878   0.682
 6815SOL     OW21343   1.211   0.139   1.320
 6815SOL    HW121344   1.234   0.130   1.417
 6815SOL    HW221345   1.270   0.209   1.278
 6816SOL     OW21346   6.338   3.936   1.280
 6816SOL    HW121347   6.258   3.879   1.302
 6816SOL    HW221348   6.329   3.969   1.186
 6817SOL     OW21349   0.655   2.316   6.507
 6817SOL    HW121350   0.750   2.341   6.525
 6817SOL    HW221351   0.636   2.327   6.410
 6818SOL     OW21352   3.879   5.372   1.405
 6818SOL    HW121353   3.903   5.284   1.446
 6818SOL    HW221354   3.840   5.357   1.314
 6819SOL     OW21355   3.164   1.560   3.696
 6819SOL    HW121356   3.237   1.628   3.696
 6819SOL    HW221357   3.185   1.490   3.765
 6820SOL     OW21358   2.204   5.266   4.273
 6820SOL    HW121359   2.114   5.282   4.234
 6820SOL    HW221360   2.228   5.169   4.263
 6821SOL     OW21361   2.444   2.656   4.319
 6821SOL    HW121362   2.537   2.671   4.354
 6821SOL    HW221363   2.449   2.622   4.225
 6822SOL     OW21364   4.873   1.638   6.047
 6822SOL    HW121365   4.890   1.686   6.133
 6822SOL    HW221366   4.816   1.694   5.988
 6823SOL     OW21367   4.096   3.437   2.067
 6823SOL    HW121368   4.107   3.473   1.975
 6823SOL    HW221369   4.005   3.461   2.102
 6824SOL     OW21370   1.503   4.964   6.107
 6824SOL    HW121371   1.552   4.888   6.150
 6824SOL    HW221372   1.408   4.965   6.141
 6825SOL     OW21373   5.634   6.912   3.807
 6825SOL    HW121374   5.543   6.949   3.823
 6825SOL    HW221375   5.656   6.919   3.710
 6826SOL     OW21376   0.738   2.990   2.701
 6826SOL    HW121377   0.778   3.033   2.782
 6826SOL    HW221378   0.789   3.017   2.620
 6827SOL     OW21379   5.802   6.255   4.875
 6827SOL    HW121380   5.874   6.189   4.850
 6827SOL    HW221381   5.719   6.205   4.900
 6828SOL     OW21382   2.202   2.002   1.253
 6828SOL    HW121383   2.130   1.934   1.266
 6828SOL    HW221384   2.171   2.091   1.285
 6829SOL     OW21385   5.402   5.171   3.446
 6829SOL    HW121386   5.469   5.098   3.457
 6829SOL    HW221387   5.327   5.157   3.510
 6830SOL     OW21388   5.079   2.179   4.240
 6830SOL    HW121389   5.128   2.218   4.318
 6830SOL    HW221390   5.112   2.220   4.155
 6831SOL     OW21391   6.637   1.363   5.946
 6831SOL    HW121392   6.637   1.269   5.911
 6831SOL    HW221393   6.664   1.362   6.043
 6832SOL     OW21394   3.112   5.407   1.760
 6832SOL    HW121395   3.090   5.395   1.664
 6832SOL    HW221396   3.062   5.339   1.814
 6833SOL     OW21397   4.385   5.664   0.106
 6833SOL    HW121398   4.452   5.589   0.105
 6833SOL    HW221399   4.293   5.627   0.094
 6834SOL     OW21400   3.634   5.440   2.373
 6834SOL    HW121401   3.687   5.398   2.299
 6834SOL    HW221402   3.569   5.506   2.333
 6835SOL     OW21403   4.339   7.000   4.725
 6835SOL    HW121404   4.247   6.960   4.731
 6835SOL    HW221405   4.350   0.049   4.797
 6836SOL     OW21406   3.800   5.688   6.726
 6836SOL    HW121407   3.730   5.721   6.663
 6836SOL    HW221408   3.767   5.606   6.773
 6837SOL     OW21409   0.328   2.913   2.812
 6837SOL    HW121410   0.351   2.987   2.875
 6837SOL    HW221411   0.264   2.947   2.743
 6838SOL     OW21412   2.427   1.677   0.492
 6838SOL    HW121413   2.497   1.692   0.561
 6838SOL    HW221414   2.358   1.749   0.499
 6839SOL     OW21415   4.474   0.721   1.735
 6839SOL    HW121416   4.398   0.672   1.691
 6839SOL    HW221417   4.533   0.761   1.665
 6840SOL     OW21418   0.787   0.934   6.751
 6840SOL    HW121419   0.802   1.023   6.708
 6840SOL    HW221420   0.689   0.914   6.754
 6841SOL     OW21421   0.123   3.119   5.745
 6841SOL    HW121422   0.048   3.173   5.708
 6841SOL    HW221423   0.192   3.104   5.675
 6842SOL     OW21424   2.450   4.677   2.455
 6842SOL    HW121425   2.352   4.680   2.469
 6842SOL    HW221426   2.471   4.689   2.358
 6843SOL     OW21427   4.477   0.071   1.050
 6843SOL    HW121428   4.461   6.995   1.024
 6843SOL    HW221429   4.542   0.074   1.127
 6844SOL     OW21430   5.749   0.760   5.835
 6844SOL    HW121431   5.731   0.777   5.932
 6844SOL    HW221432   5.844   0.731   5.824
 6845SOL     OW21433   5.076   2.217   2.811
 6845SOL    HW121434   5.061   2.313   2.786
 6845SOL    HW221435   5.044   2.158   2.736
 6846SOL     OW21436   2.142   3.262   6.991
 6846SOL    HW121437   2.049   3.290   7.012
 6846SOL    HW221438   2.207   3.319   0.022
 6847SOL     OW21439   6.830   2.443   4.682
 6847SOL    HW121440   6.783   2.523   4.644
 6847SOL    HW221441   6.927   2.463   4.689
 6848SOL     OW21442   6.862   5.062   3.496
 6848SOL    HW121443   6.829   5.155   3.511
 6848SOL    HW221444   6.952   5.065   3.452
 6849SOL     OW21445   2.875   4.668   6.124
 6849SOL    HW121446   2.826   4.621   6.198
 6849SOL    HW221447   2.827   4.753   6.102
 6850SOL     OW21448   4.841   0.306   4.231
 6850SOL    HW121449   4.826   0.207   4.220
 6850SOL    HW221450   4.937   0.323   4.251
 6851SOL     OW21451   1.705   3.910   2.689
 6851SOL    HW121452   1.722   3.962   2.605
 6851SOL    HW221453   1.683   3.972   2.764
 6852SOL     OW21454   4.384   4.136   0.506
 6852SOL    HW121455   4.291   4.112   0.532
 6852SOL    HW221456   4.404   4.101   0.415
 6853SOL     OW21457   4.173   4.870   6.582
 6853SOL    HW121458   4.178   4.785   6.636
 6853SOL    HW221459   4.143   4.849   6.489
 6854SOL     OW21460   5.061   5.627   5.907
 6854SOL    HW121461   5.034   5.610   5.812
 6854SOL    HW221462   5.160   5.640   5.911
 6855SOL     OW21463   4.266   5.055   3.350
 6855SOL    HW121464   4.171   5.036   3.326
 6855SOL    HW221465   4.295   5.142   3.309
 6856SOL     OW21466   6.981   2.638   0.128
 6856SOL    HW121467   6.996   2.582   0.210
 6856SOL    HW221468   6.883   2.640   0.107
 6857SOL     OW21469   1.291   4.221   5.786
 6857SOL    HW121470   1.236   4.184   5.861
 6857SOL    HW221471   1.256   4.311   5.760
 6858SOL     OW21472   1.399   4.162   1.904
 6858SOL    HW121473   1.319   4.155   1.962
 6858SOL    HW221474   1.383   4.230   1.833
 6859SOL     OW21475   1.937   2.017   1.366
 6859SOL    HW121476   1.850   2.007   1.317
 6859SOL    HW221477   1.924   1.990   1.462
 6860SOL     OW21478   0.330   6.234   0.056
 6860SOL    HW121479   0.398   6.195   7.013
 6860SOL    HW221480   0.252   6.171   0.062
 6861SOL     OW21481   5.991   3.153   6.103
 6861SOL    HW121482   5.909   3.199   6.137
 6861SOL    HW221483   6.005   3.068   6.154
 6862SOL     OW21484   1.152   4.525   3.710
 6862SOL    HW121485   1.244   4.540   3.745
 6862SOL    HW221486   1.157   4.489   3.616
 6863SOL     OW21487   5.307   1.598   4.887
 6863SOL    HW121488   5.356   1.515   4.915
 6863SOL    HW221489   5.306   1.662   4.964
 6864SOL     OW21490   1.209   3.373   6.360
 6864SOL    HW121491   1.194   3.471   6.371
 6864SOL    HW221492   1.130   3.333   6.313
 6865SOL     OW21493   2.307   0.583   4.355
 6865SOL    HW121494   2.247   0.572   4.434
 6865SOL    HW221495   2.252   0.610   4.276
 6866SOL     OW21496   1.899   4.698   0.279
 6866SOL    HW121497   1.833   4.716   0.352
 6866SOL    HW221498   1.927   4.785   0.237
 6867SOL     OW21499   2.332   2.863   6.639
 6867SOL    HW121500   2.235   2.859   6.665
 6867SOL    HW221501   2.360   2.958   6.628
 6868SOL     OW21502   3.622   4.956   3.312
 6868SOL    HW121503   3.533   4.940   3.269
 6868SOL    HW221504   3.689   4.979   3.241
 6869SOL     OW21505   1.992   0.972   5.677
 6869SOL    HW121506   2.064   1.024   5.722
 6869SOL    HW221507   1.905   1.019   5.688
 6870SOL     OW21508   5.527   2.259   6.689
 6870SOL    HW121509   5.616   2.239   6.650
 6870SOL    HW221510   5.458   2.200   6.646
 6871SOL     OW21511   6.744   2.906   2.593
 6871SOL    HW121512   6.686   2.904   2.674
 6871SOL    HW221513   6.732   2.821   2.542
 6872SOL     OW21514   1.235   4.242   1.254
 6872SOL    HW121515   1.283   4.316   1.207
 6872SOL    HW221516   1.286   4.157   1.242
 6873SOL     OW21517   0.364   4.337   3.024
 6873SOL    HW121518   0.457   4.300   3.031
 6873SOL    HW221519   0.305   4.270   2.978
 6874SOL     OW21520   4.391   6.469   2.327
 6874SOL    HW121521   4.460   6.493   2.395
 6874SOL    HW221522   4.390   6.539   2.255
 6875SOL     OW21523   2.888   1.152   0.122
 6875SOL    HW121524   2.983   1.133   0.143
 6875SOL    HW221525   2.861   1.239   0.165
 6876SOL     OW21526   5.074   5.192   3.322
 6876SOL    HW121527   5.117   5.160   3.407
 6876SOL    HW221528   4.977   5.208   3.338
 6877SOL     OW21529   0.559   4.571   1.754
 6877SOL    HW121530   0.479   4.583   1.696
 6877SOL    HW221531   0.608   4.489   1.727
 6878SOL     OW21532   2.300   0.420   4.750
 6878SOL    HW121533   2.214   0.409   4.699
 6878SOL    HW221534   2.284   0.481   4.828
 6879SOL     OW21535   1.114   1.779   1.112
 6879SOL    HW121536   1.094   1.866   1.158
 6879SOL    HW221537   1.206   1.781   1.074
 6880SOL     OW21538   1.920   6.191   0.649
 6880SOL    HW121539   1.840   6.131   0.651
 6880SOL    HW221540   1.912   6.253   0.570
 6881SOL     OW21541   6.867   3.346   0.486
 6881SOL    HW121542   6.837   3.375   0.395
 6881SOL    HW221543   6.792   3.358   0.551
 6882SOL     OW21544   3.148   6.579   0.311
 6882SOL    HW121545   3.059   6.550   0.346
 6882SOL    HW221546   3.220   6.542   0.370
 6883SOL     OW21547   5.539   0.838   1.259
 6883SOL    HW121548   5.509   0.846   1.354
 6883SOL    HW221549   5.461   0.851   1.198
 6884SOL     OW21550   2.253   4.626   3.815
 6884SOL    HW121551   2.172   4.659   3.863
 6884SOL    HW221552   2.290   4.698   3.757
 6885SOL     OW21553   5.750   4.856   4.888
 6885SOL    HW121554   5.678   4.834   4.954
 6885SOL    HW221555   5.828   4.795   4.903
 6886SOL     OW21556   5.528   3.504   0.042
 6886SOL    HW121557   5.506   3.504   6.963
 6886SOL    HW221558   5.444   3.515   0.095
 6887SOL     OW21559   5.359   6.022   5.779
 6887SOL    HW121560   5.308   6.079   5.714
 6887SOL    HW221561   5.340   6.052   5.872
 6888SOL     OW21562   6.494   3.839   6.880
 6888SOL    HW121563   6.486   3.939   6.881
 6888SOL    HW221564   6.459   3.802   6.966
 6889SOL     OW21565   6.951   1.768   5.562
 6889SOL    HW121566   6.917   1.814   5.480
 6889SOL    HW221567   6.879   1.709   5.599
 6890SOL     OW21568   4.915   4.610   4.151
 6890SOL    HW121569   4.937   4.625   4.055
 6890SOL    HW221570   4.978   4.543   4.190
 6891SOL     OW21571   1.598   1.930   0.647
 6891SOL    HW121572   1.565   1.839   0.623
 6891SOL    HW221573   1.697   1.929   0.657
 6892SOL     OW21574   2.827   0.833   5.351
 6892SOL    HW121575   2.780   0.872   5.272
 6892SOL    HW221576   2.808   0.735   5.355
 6893SOL     OW21577   6.105   2.752   0.222
 6893SOL    HW121578   6.131   2.678   0.284
 6893SOL    HW221579   6.067   2.828   0.275
 6894SOL     OW21580   5.445   4.882   6.908
 6894SOL    HW121581   5.370   4.822   6.880
 6894SOL    HW221582   5.505   4.833   6.971
 6895SOL     OW21583   0.796   5.316   2.208
 6895SOL    HW121584   0.868   5.272   2.261
 6895SOL    HW221585   0.832   5.399   2.165
 6896SOL     OW21586   5.084   1.436   5.767
 6896SOL    HW121587   5.049   1.357   5.817
 6896SOL    HW221588   5.127   1.500   5.831
 6897SOL     OW21589   4.404   2.680   5.266
 6897SOL    HW121590   4.321   2.640   5.227
 6897SOL    HW221591   4.484   2.636   5.226
 6898SOL     OW21592   1.686   6.859   1.302
 6898SOL    HW121593   1.687   6.830   1.398
 6898SOL    HW221594   1.748   6.937   1.291
 6899SOL     OW21595   5.652   5.810   2.504
 6899SOL    HW121596   5.616   5.877   2.438
 6899SOL    HW221597   5.575   5.766   2.550
 6900SOL     OW21598   6.680   3.687   4.541
 6900SOL    HW121599   6.628   3.679   4.456
 6900SOL    HW221600   6.754   3.753   4.528
 6901SOL     OW21601   4.915   4.942   5.946
 6901SOL    HW121602   4.815   4.938   5.949
 6901SOL    HW221603   4.949   4.890   5.868
 6902SOL     OW21604   0.511   5.661   5.537
 6902SOL    HW121605   0.607   5.684   5.528
 6902SOL    HW221606   0.490   5.641   5.632
 6903SOL     OW21607   1.616   6.211   5.145
 6903SOL    HW121608   1.641   6.241   5.237
 6903SOL    HW221609   1.698   6.179   5.097
 6904SOL     OW21610   0.518   0.584   5.510
 6904SOL    HW121611   0.520   0.583   5.610
 6904SOL    HW221612   0.503   0.491   5.476
 6905SOL     OW21613   4.834   5.904   5.758
 6905SOL    HW121614   4.851   5.965   5.681
 6905SOL    HW221615   4.749   5.931   5.804
 6906SOL     OW21616   2.426   0.700   3.884
 6906SOL    HW121617   2.383   0.790   3.881
 6906SOL    HW221618   2.524   0.710   3.902
 6907SOL     OW21619   5.836   1.735   0.896
 6907SOL    HW121620   5.821   1.676   0.975
 6907SOL    HW221621   5.787   1.821   0.910
 6908SOL     OW21622   3.688   5.531   0.465
 6908SOL    HW121623   3.607   5.562   0.514
 6908SOL    HW221624   3.728   5.607   0.415
 6909SOL     OW21625   5.836   3.971   2.079
 6909SOL    HW121626   5.805   3.911   2.152
 6909SOL    HW221627   5.771   3.967   2.003
 6910SOL     OW21628   0.978   2.206   2.324
 6910SOL    HW121629   1.061   2.259   2.306
 6910SOL    HW221630   0.900   2.251   2.280
 6911SOL     OW21631   2.917   6.602   5.505
 6911SOL    HW121632   2.854   6.524   5.506
 6911SOL    HW221633   2.995   6.580   5.447
 6912SOL     OW21634   3.369   4.010   0.030
 6912SOL    HW121635   3.274   3.991   0.058
 6912SOL    HW221636   3.376   4.000   6.949
 6913SOL     OW21637   4.119   5.714   5.787
 6913SOL    HW121638   4.056   5.698   5.863
 6913SOL    HW221639   4.139   5.626   5.742
 6914SOL     OW21640   6.267   2.356   2.495
 6914SOL    HW121641   6.345   2.403   2.538
 6914SOL    HW221642   6.182   2.385   2.538
 6915SOL     OW21643   0.309   3.336   3.747
 6915SOL    HW121644   0.247   3.350   3.824
 6915SOL    HW221645   0.399   3.311   3.780
 6916SOL     OW21646   4.702   6.453   5.842
 6916SOL    HW121647   4.703   6.550   5.866
 6916SOL    HW221648   4.794   6.425   5.813
 6917SOL     OW21649   3.475   6.245   2.039
 6917SOL    HW121650   3.440   6.170   2.095
 6917SOL    HW221651   3.409   6.320   2.039
 6918SOL     OW21652   1.706   3.482   0.418
 6918SOL    HW121653   1.607   3.487   0.406
 6918SOL    HW221654   1.727   3.444   0.508
 6919SOL     OW21655   6.390   6.368   3.109
 6919SOL    HW121656   6.470   6.357   3.050
 6919SOL    HW221657   6.314   6.316   3.071
 6920SOL     OW21658   6.789   2.245   5.598
 6920SOL    HW121659   6.741   2.317   5.647
 6920SOL    HW221660   6.775   2.256   5.500
 6921SOL     OW21661   3.525   0.280   4.116
 6921SOL    HW121662   3.536   0.379   4.123
 6921SOL    HW221663   3.607   0.234   4.150
 6922SOL     OW21664   3.016   5.175   6.739
 6922SOL    HW121665   2.956   5.137   6.808
 6922SOL    HW221666   3.066   5.253   6.778
 6923SOL     OW21667   5.182   6.958   2.912
 6923SOL    HW121668   5.095   6.907   2.907
 6923SOL    HW221669   5.199   7.002   2.824
 6924SOL     OW21670   3.408   5.570   1.827
 6924SOL    HW121671   3.345   5.499   1.859
 6924SOL    HW221672   3.380   5.600   1.735
 6925SOL     OW21673   5.775   6.662   4.895
 6925SOL    HW121674   5.854   6.712   4.862
 6925SOL    HW221675   5.804   6.588   4.955
 6926SOL     OW21676   2.777   2.300   0.331
 6926SOL    HW121677   2.865   2.344   0.350
 6926SOL    HW221678   2.787   2.201   0.337
 6927SOL     OW21679   3.462   0.217   6.672
 6927SOL    HW121680   3.546   0.214   6.726
 6927SOL    HW221681   3.419   0.126   6.672
 6928SOL     OW21682   3.469   5.503   0.163
 6928SOL    HW121683   3.511   5.420   0.200
 6928SOL    HW221684   3.525   5.538   0.088
 6929SOL     OW21685   4.748   4.873   2.735
 6929SOL    HW121686   4.781   4.796   2.681
 6929SOL    HW221687   4.822   4.939   2.748
 6930SOL     OW21688   0.856   6.282   1.999
 6930SOL    HW121689   0.936   6.310   2.052
 6930SOL    HW221690   0.794   6.229   2.057
 6931SOL     OW21691   3.088   3.088   1.114
 6931SOL    HW121692   3.064   3.161   1.051
 6931SOL    HW221693   3.005   3.041   1.145
 6932SOL     OW21694   4.559   0.237   6.533
 6932SOL    HW121695   4.478   0.182   6.554
 6932SOL    HW221696   4.536   0.306   6.464
 6933SOL     OW21697   2.734   5.990   5.786
 6933SOL    HW121698   2.747   6.088   5.804
 6933SOL    HW221699   2.715   5.977   5.689
 6934SOL     OW21700   5.085   5.347   6.780
 6934SOL    HW121701   5.071   5.363   6.878
 6934SOL    HW221702   5.174   5.383   6.753
 6935SOL     OW21703   3.812   6.013   1.922
 6935SOL    HW121704   3.845   5.986   1.832
 6935SOL    HW221705   3.809   6.113   1.928
 6936SOL     OW21706   1.185   2.109   6.460
 6936SOL    HW121707   1.265   2.109   6.520
 6936SOL    HW221708   1.116   2.047   6.498
 6937SOL     OW21709   5.715   5.261   0.463
 6937SOL    HW121710   5.680   5.286   0.373
 6937SOL    HW221711   5.808   5.226   0.454
 6938SOL     OW21712   3.158   0.571   4.618
 6938SOL    HW121713   3.172   0.637   4.543
 6938SOL    HW221714   3.230   0.581   4.686
 6939SOL     OW21715   5.565   3.006   3.278
 6939SOL    HW121716   5.628   3.024   3.202
 6939SOL    HW221717   5.539   2.910   3.277
 6940SOL     OW21718   2.561   6.659   1.019
 6940SOL    HW121719   2.477   6.648   1.073
 6940SOL    HW221720   2.611   6.573   1.017
 6941SOL     OW21721   3.930   3.004   2.481
 6941SOL    HW121722   3.846   3.050   2.509
 6941SOL    HW221723   3.934   2.998   2.382
 6942SOL     OW21724   6.389   4.834   2.920
 6942SOL    HW121725   6.468   4.812   2.863
 6942SOL    HW221726   6.341   4.914   2.883
 6943SOL     OW21727   4.084   5.104   6.005
 6943SOL    HW121728   4.122   5.038   5.940
 6943SOL    HW221729   4.155   5.132   6.069
 6944SOL     OW21730   0.777   4.667   5.010
 6944SOL    HW121731   0.692   4.619   4.989
 6944SOL    HW221732   0.766   4.765   4.989
 6945SOL     OW21733   4.935   1.999   0.718
 6945SOL    HW121734   4.922   2.090   0.757
 6945SOL    HW221735   4.937   1.931   0.792
 6946SOL     OW21736   5.440   6.174   2.392
 6946SOL    HW121737   5.412   6.176   2.296
 6946SOL    HW221738   5.430   6.082   2.428
 6947SOL     OW21739   6.219   4.021   5.315
 6947SOL    HW121740   6.269   3.950   5.266
 6947SOL    HW221741   6.280   4.098   5.334
 6948SOL     OW21742   6.897   4.111   6.941
 6948SOL    HW121743   6.866   4.202   6.968
 6948SOL    HW221744   6.819   4.056   6.911
 6949SOL     OW21745   2.996   1.292   2.989
 6949SOL    HW121746   3.077   1.350   2.989
 6949SOL    HW221747   2.962   1.283   2.895
 6950SOL     OW21748   1.828   0.934   3.584
 6950SOL    HW121749   1.768   0.892   3.652
 6950SOL    HW221750   1.818   1.034   3.588
 6951SOL     OW21751   1.065   3.730   6.635
 6951SOL    HW121752   1.074   3.693   6.543
 6951SOL    HW221753   1.114   3.671   6.700
 6952SOL     OW21754   4.273   6.031   3.579
 6952SOL    HW121755   4.310   5.956   3.524
 6952SOL    HW221756   4.308   6.118   3.544
 6953SOL     OW21757   6.865   1.092   1.794
 6953SOL    HW121758   6.818   1.050   1.871
 6953SOL    HW221759   6.829   1.054   1.708
 6954SOL     OW21760   6.803   4.211   6.178
 6954SOL    HW121761   6.806   4.306   6.209
 6954SOL    HW221762   6.721   4.166   6.215
 6955SOL     OW21763   4.340   5.733   3.086
 6955SOL    HW121764   4.265   5.777   3.037
 6955SOL    HW221765   4.425   5.746   3.035
 6956SOL     OW21766   5.247   5.437   1.699
 6956SOL    HW121767   5.205   5.355   1.660
 6956SOL    HW221768   5.255   5.425   1.798
 6957SOL     OW21769   6.050   5.192   5.130
 6957SOL    HW121770   6.028   5.169   5.224
 6957SOL    HW221771   6.046   5.291   5.118
 6958SOL     OW21772   3.316   3.620   2.263
 6958SOL    HW121773   3.318   3.559   2.183
 6958SOL    HW221774   3.408   3.626   2.301
 6959SOL     OW21775   1.403   4.403   2.601
 6959SOL    HW121776   1.380   4.499   2.587
 6959SOL    HW221777   1.380   4.377   2.695
 6960SOL     OW21778   5.207   4.924   1.594
 6960SOL    HW121779   5.239   4.829   1.583
 6960SOL    HW221780   5.145   4.946   1.518
 6961SOL     OW21781   4.894   2.444   5.246
 6961SOL    HW121782   4.993   2.433   5.254
 6961SOL    HW221783   4.849   2.374   5.300
 6962SOL     OW21784   2.602   6.214   0.310
 6962SOL    HW121785   2.576   6.287   0.247
 6962SOL    HW221786   2.679   6.164   0.272
 6963SOL     OW21787   0.681   6.584   6.532
 6963SOL    HW121788   0.687   6.556   6.436
 6963SOL    HW221789   0.686   6.684   6.537
 6964SOL     OW21790   1.964   1.632   4.882
 6964SOL    HW121791   1.913   1.715   4.905
 6964SOL    HW221792   2.062   1.652   4.883
 6965SOL     OW21793   1.964   1.307   0.166
 6965SOL    HW121794   1.943   1.334   0.072
 6965SOL    HW221795   1.991   1.388   0.218
 6966SOL     OW21796   1.349   6.590   1.124
 6966SOL    HW121797   1.443   6.566   1.149
 6966SOL    HW221798   1.324   6.676   1.167
 6967SOL     OW21799   3.717   0.281   0.036
 6967SOL    HW121800   3.617   0.286   0.037
 6967SOL    HW221801   3.745   0.198   7.007
 6968SOL     OW21802   3.195   0.268   2.967
 6968SOL    HW121803   3.128   0.226   3.029
 6968SOL    HW221804   3.150   0.293   2.882
 6969SOL     OW21805   1.893   2.879   2.127
 6969SOL    HW121806   1.970   2.941   2.139
 6969SOL    HW221807   1.823   2.899   2.195
 6970SOL     OW21808   2.962   5.797   5.450
 6970SOL    HW121809   3.004   5.765   5.534
 6970SOL    HW221810   2.988   5.737   5.374
 6971SOL     OW21811   6.181   3.774   6.629
 6971SOL    HW121812   6.116   3.811   6.562
 6971SOL    HW221813   6.159   3.678   6.646
 6972SOL     OW21814   5.481   3.944   1.229
 6972SOL    HW121815   5.570   3.908   1.255
 6972SOL    HW221816   5.439   3.989   1.307
 6973SOL     OW21817   0.917   1.473   3.090
 6973SOL    HW121818   0.991   1.534   3.118
 6973SOL    HW221819   0.919   1.391   3.146
 6974SOL     OW21820   4.148   3.518   2.864
 6974SOL    HW121821   4.173   3.523   2.768
 6974SOL    HW221822   4.151   3.610   2.905
 6975SOL     OW21823   2.672   5.258   4.867
 6975SOL    HW121824   2.698   5.235   4.773
 6975SOL    HW221825   2.740   5.221   4.930
 6976SOL     OW21826   4.281   5.487   5.978
 6976SOL    HW121827   4.350   5.468   6.048
 6976SOL    HW221828   4.325   5.496   5.889
 6977SOL     OW21829   4.803   4.539   2.343
 6977SOL    HW121830   4.884   4.481   2.349
 6977SOL    HW221831   4.805   4.590   2.257
 6978SOL     OW21832   0.895   4.091   0.638
 6978SOL    HW121833   0.872   4.132   0.550
 6978SOL    HW221834   0.816   4.039   0.672
 6979SOL     OW21835   1.376   3.569   2.831
 6979SOL    HW121836   1.308   3.521   2.776
 6979SOL    HW221837   1.422   3.638   2.774
 6980SOL     OW21838   2.236   4.729   2.675
 6980SOL    HW121839   2.188   4.811   2.707
 6980SOL    HW221840   2.318   4.715   2.730
 6981SOL     OW21841   4.598   3.011   6.879
 6981SOL    HW121842   4.685   2.966   6.858
 6981SOL    HW221843   4.577   2.998   6.976
 6982SOL     OW21844   6.901   0.475   1.566
 6982SOL    HW121845   6.910   0.502   1.662
 6982SOL    HW221846   6.898   0.375   1.560
 6983SOL     OW21847   6.600   6.936   4.194
 6983SOL    HW121848   6.543   7.018   4.199
 6983SOL    HW221849   6.681   6.955   4.138
 6984SOL     OW21850   1.564   4.252   3.382
 6984SOL    HW121851   1.603   4.160   3.374
 6984SOL    HW221852   1.619   4.315   3.328
 6985SOL     OW21853   5.178   2.843   0.591
 6985SOL    HW121854   5.233   2.918   0.553
 6985SOL    HW221855   5.118   2.878   0.663
 6986SOL     OW21856   3.851   5.177   5.850
 6986SOL    HW121857   3.916   5.150   5.921
 6986SOL    HW221858   3.834   5.276   5.856
 6987SOL     OW21859   6.738   1.124   6.356
 6987SOL    HW121860   6.818   1.101   6.411
 6987SOL    HW221861   6.757   1.206   6.301
 6988SOL     OW21862   2.376   1.358   6.266
 6988SOL    HW121863   2.362   1.447   6.311
 6988SOL    HW221864   2.374   1.371   6.167
 6989SOL     OW21865   0.494   4.190   2.324
 6989SOL    HW121866   0.411   4.244   2.308
 6989SOL    HW221867   0.570   4.251   2.346
 6990SOL     OW21868   3.733   4.047   6.832
 6990SOL    HW121869   3.637   4.031   6.811
 6990SOL    HW221870   3.751   4.023   6.927
 6991SOL     OW21871   5.846   4.048   3.134
 6991SOL    HW121872   5.811   3.985   3.203
 6991SOL    HW221873   5.769   4.096   3.091
 6992SOL     OW21874   1.853   4.943   6.930
 6992SOL    HW121875   1.912   4.916   6.853
 6992SOL    HW221876   1.794   5.018   6.901
 6993SOL     OW21877   4.003   2.325   1.767
 6993SOL    HW121878   3.919   2.372   1.796
 6993SOL    HW221879   4.072   2.333   1.839
 6994SOL     OW21880   3.017   0.874   3.099
 6994SOL    HW121881   3.000   0.841   3.192
 6994SOL    HW221882   3.081   0.951   3.102
 6995SOL     OW21883   0.323   4.202   0.317
 6995SOL    HW121884   0.406   4.200   0.372
 6995SOL    HW221885   0.348   4.200   0.220
 6996SOL     OW21886   0.802   1.151   6.592
 6996SOL    HW121887   0.772   1.104   6.509
 6996SOL    HW221888   0.881   1.209   6.572
 6997SOL     OW21889   6.300   6.384   5.944
 6997SOL    HW121890   6.278   6.479   5.923
 6997SOL    HW221891   6.271   6.362   6.037
 6998SOL     OW21892   0.648   0.315   0.517
 6998SOL    HW121893   0.681   0.392   0.461
 6998SOL    HW221894   0.647   0.232   0.461
 6999SOL     OW21895   6.703   2.599   0.099
 6999SOL    HW121896   6.654   2.665   0.157
 6999SOL    HW221897   6.653   2.588   0.013
 7000SOL     OW21898   0.583   5.298   3.550
 7000SOL    HW121899   0.534   5.216   3.580
 7000SOL    HW221900   0.529   5.379   3.573
 7001SOL     OW21901   0.284   1.323   3.796
 7001SOL    HW121902   0.208   1.365   3.844
 7001SOL    HW221903   0.300   1.372   3.710
 7002SOL     OW21904   0.630   4.835   2.628
 7002SOL    HW121905   0.671   4.918   2.590
 7002SOL    HW221906   0.694   4.759   2.618
 7003SOL     OW21907   0.492   5.079   6.711
 7003SOL    HW121908   0.487   5.130   6.797
 7003SOL    HW221909   0.505   5.143   6.636
 7004SOL     OW21910   1.923   0.142   6.666
 7004SOL    HW121911   1.882   0.115   6.579
 7004SOL    HW221912   2.014   0.178   6.649
 7005SOL     OW21913   1.703   5.395   0.464
 7005SOL    HW121914   1.780   5.409   0.527
 7005SOL    HW221915   1.719   5.312   0.410
 7006SOL     OW21916   0.921   0.721   3.916
 7006SOL    HW121917   0.930   0.645   3.980
 7006SOL    HW221918   0.878   0.799   3.962
 7007SOL     OW21919   1.925   0.347   6.209
 7007SOL    HW121920   1.987   0.374   6.283
 7007SOL    HW221921   1.972   0.355   6.122
 7008SOL     OW21922   5.114   3.015   3.298
 7008SOL    HW121923   5.157   2.938   3.345
 7008SOL    HW221924   5.178   3.092   3.295
 7009SOL     OW21925   5.318   6.136   2.132
 7009SOL    HW121926   5.294   6.218   2.080
 7009SOL    HW221927   5.238   6.103   2.183
 7010SOL     OW21928   5.212   3.216   2.816
 7010SOL    HW121929   5.210   3.117   2.824
 7010SOL    HW221930   5.128   3.248   2.771
 7011SOL     OW21931   2.734   6.661   5.942
 7011SOL    HW121932   2.770   6.754   5.946
 7011SOL    HW221933   2.726   6.625   6.035
 7012SOL     OW21934   0.164   3.623   0.695
 7012SOL    HW121935   0.198   3.571   0.774
 7012SOL    HW221936   0.100   3.693   0.727
 7013SOL     OW21937   3.586   2.841   0.136
 7013SOL    HW121938   3.607   2.793   0.221
 7013SOL    HW221939   3.494   2.817   0.105
 7014SOL     OW21940   6.029   3.051   0.107
 7014SOL    HW121941   6.011   3.023   0.202
 7014SOL    HW221942   6.097   2.990   0.067
 7015SOL     OW21943   6.183   6.223   1.024
 7015SOL    HW121944   6.252   6.151   1.016
 7015SOL    HW221945   6.196   6.273   1.110
 7016SOL     OW21946   3.101   5.048   1.191
 7016SOL    HW121947   3.030   5.005   1.135
 7016SOL    HW221948   3.134   4.982   1.259
 7017SOL     OW21949   6.030   4.501   6.460
 7017SOL    HW121950   6.079   4.453   6.533
 7017SOL    HW221951   5.946   4.541   6.496
 7018SOL     OW21952   5.670   3.624   5.166
 7018SOL    HW121953   5.618   3.648   5.248
 7018SOL    HW221954   5.677   3.704   5.106
 7019SOL     OW21955   3.766   5.314   2.180
 7019SOL    HW121956   3.778   5.354   2.089
 7019SOL    HW221957   3.721   5.225   2.173
 7020SOL     OW21958   0.868   2.160   6.917
 7020SOL    HW121959   0.939   2.106   6.870
 7020SOL    HW221960   0.781   2.148   6.869
 7021SOL     OW21961   1.056   1.811   4.695
 7021SOL    HW121962   1.078   1.756   4.613
 7021SOL    HW221963   0.958   1.805   4.713
 7022SOL     OW21964   2.144   3.780   0.955
 7022SOL    HW121965   2.147   3.879   0.963
 7022SOL    HW221966   2.096   3.754   0.872
 7023SOL     OW21967   0.151   1.806   0.698
 7023SOL    HW121968   0.084   1.814   0.772
 7023SOL    HW221969   0.243   1.812   0.737
 7024SOL     OW21970   3.349   3.751   5.498
 7024SOL    HW121971   3.421   3.818   5.517
 7024SOL    HW221972   3.284   3.791   5.433
 7025SOL     OW21973   3.272   0.873   1.230
 7025SOL    HW121974   3.350   0.921   1.192
 7025SOL    HW221975   3.248   0.795   1.172
 7026SOL     OW21976   2.933   2.298   1.106
 7026SOL    HW121977   2.939   2.351   1.190
 7026SOL    HW221978   2.995   2.220   1.112
 7027SOL     OW21979   3.194   4.817   1.687
 7027SOL    HW121980   3.289   4.788   1.685
 7027SOL    HW221981   3.135   4.736   1.686
 7028SOL     OW21982   3.153   0.323   3.409
 7028SOL    HW121983   3.170   0.332   3.311
 7028SOL    HW221984   3.222   0.373   3.460
 7029SOL     OW21985   3.343   4.087   3.388
 7029SOL    HW121986   3.429   4.077   3.338
 7029SOL    HW221987   3.273   4.122   3.326
 7030SOL     OW21988   6.271   6.794   5.227
 7030SOL    HW121989   6.370   6.791   5.215
 7030SOL    HW221990   6.245   6.741   5.307
 7031SOL     OW21991   4.910   5.480   1.021
 7031SOL    HW121992   4.932   5.436   0.934
 7031SOL    HW221993   4.812   5.476   1.038
 7032SOL     OW21994   4.164   5.059   4.753
 7032SOL    HW121995   4.169   5.126   4.827
 7032SOL    HW221996   4.086   4.999   4.768
 7033SOL     OW21997   1.933   1.686   5.377
 7033SOL    HW121998   1.876   1.762   5.410
 7033SOL    HW221999   2.025   1.720   5.360
 7034SOL     OW22000   6.858   1.702   2.357
 7034SOL    HW122001   6.880   1.637   2.429
 7034SOL    HW222002   6.939   1.719   2.301
 7035SOL     OW22003   2.780   1.848   1.305
 7035SOL    HW122004   2.732   1.886   1.384
 7035SOL    HW222005   2.760   1.904   1.224
 7036SOL     OW22006   6.107   1.782   1.852
 7036SOL    HW122007   6.053   1.844   1.909
 7036SOL    HW222008   6.105   1.815   1.757
 7037SOL     OW22009   1.643   0.446   6.277
 7037SOL    HW122010   1.656   0.359   6.325
 7037SOL    HW222011   1.701   0.516   6.317
 7038SOL     OW22012   0.559   4.749   0.180
 7038SOL    HW122013   0.533   4.828   0.126
 7038SOL    HW222014   0.516   4.667   0.143
 7039SOL     OW22015   6.471   0.357   1.497
 7039SOL    HW122016   6.516   0.271   1.523
 7039SOL    HW222017   6.540   0.428   1.484
 7040SOL     OW22018   5.625   2.929   5.383
 7040SOL    HW122019   5.563   2.872   5.331
 7040SOL    HW222020   5.634   3.018   5.339
 7041SOL     OW22021   1.068   0.415   3.778
 7041SOL    HW122022   1.030   0.419   3.870
 7041SOL    HW222023   1.107   0.324   3.762
 7042SOL     OW22024   5.930   6.094   5.234
 7042SOL    HW122025   5.870   6.045   5.169
 7042SOL    HW222026   5.894   6.186   5.249
 7043SOL     OW22027   2.312   6.255   0.659
 7043SOL    HW122028   2.253   6.314   0.715
 7043SOL    HW222029   2.310   6.162   0.694
 7044SOL     OW22030   4.690   6.395   5.439
 7044SOL    HW122031   4.625   6.435   5.504
 7044SOL    HW222032   4.777   6.443   5.443
 7045SOL     OW22033   5.721   6.586   2.001
 7045SOL    HW122034   5.783   6.591   1.923
 7045SOL    HW222035   5.742   6.658   2.066
 7046SOL     OW22036   2.472   1.353   3.065
 7046SOL    HW122037   2.429   1.425   3.011
 7046SOL    HW222038   2.552   1.389   3.113
 7047SOL     OW22039   1.468   6.990   1.181
 7047SOL    HW122040   1.549   6.964   1.233
 7047SOL    HW222041   1.386   6.956   1.227
 7048SOL     OW22042   0.614   6.084   3.919
 7048SOL    HW122043   0.564   6.171   3.915
 7048SOL    HW222044   0.555   6.013   3.958
 7049SOL     OW22045   3.377   1.238   4.725
 7049SOL    HW122046   3.293   1.233   4.778
 7049SOL    HW222047   3.371   1.314   4.660
 7050SOL     OW22048   4.137   4.284   0.955
 7050SOL    HW122049   4.150   4.187   0.972
 7050SOL    HW222050   4.052   4.315   1.000
 7051SOL     OW22051   1.646   1.728   2.044
 7051SOL    HW122052   1.729   1.720   1.990
 7051SOL    HW222053   1.635   1.646   2.101
 7052SOL     OW22054   5.103   2.598   2.947
 7052SOL    HW122055   5.175   2.656   2.986
 7052SOL    HW222056   5.015   2.621   2.989
 7053SOL     OW22057   1.345   4.993   3.755
 7053SOL    HW122058   1.419   5.026   3.696
 7053SOL    HW222059   1.383   4.952   3.837
 7054SOL     OW22060   5.588   7.017   0.130
 7054SOL    HW122061   5.563   0.065   0.061
 7054SOL    HW222062   5.688   7.012   0.137
 7055SOL     OW22063   2.295   0.272   0.756
 7055SOL    HW122064   2.354   0.227   0.689
 7055SOL    HW222065   2.259   0.357   0.717
 7056SOL     OW22066   6.767   5.553   0.712
 7056SOL    HW122067   6.771   5.641   0.665
 7056SOL    HW222068   6.698   5.556   0.784
 7057SOL     OW22069   3.570   5.488   4.472
 7057SOL    HW122070   3.483   5.504   4.518
 7057SOL    HW222071   3.646   5.512   4.533
 7058SOL     OW22072   6.275   2.187   6.076
 7058SOL    HW122073   6.240   2.168   6.168
 7058SOL    HW222074   6.375   2.186   6.078
 7059SOL     OW22075   1.900   0.347   5.430
 7059SOL    HW122076   1.812   0.301   5.421
 7059SOL    HW222077   1.928   0.347   5.526
 7060SOL     OW22078   3.181   2.425   1.456
 7060SOL    HW122079   3.262   2.368   1.452
 7060SOL    HW222080   3.171   2.463   1.548
 7061SOL     OW22081   2.110   0.994   1.410
 7061SOL    HW122082   2.072   0.948   1.329
 7061SOL    HW222083   2.122   0.927   1.483
 7062SOL     OW22084   3.674   0.818   4.553
 7062SOL    HW122085   3.600   0.874   4.591
 7062SOL    HW222086   3.743   0.877   4.512
 7063SOL     OW22087   0.166   0.886   1.922
 7063SOL    HW122088   0.257   0.922   1.899
 7063SOL    HW222089   0.099   0.923   1.858
 7064SOL     OW22090   2.878   1.291   5.651
 7064SOL    HW122091   2.840   1.360   5.591
 7064SOL    HW222092   2.853   1.200   5.618
 7065SOL     OW22093   3.737   6.501   4.723
 7065SOL    HW122094   3.749   6.479   4.820
 7065SOL    HW222095   3.800   6.446   4.668
 7066SOL     OW22096   3.309   0.761   1.491
 7066SOL    HW122097   3.293   0.797   1.399
 7066SOL    HW222098   3.229   0.777   1.548
 7067SOL     OW22099   2.049   4.383   6.304
 7067SOL    HW122100   2.143   4.409   6.283
 7067SOL    HW222101   2.046   4.337   6.393
 7068SOL     OW22102   5.186   4.381   4.454
 7068SOL    HW122103   5.271   4.348   4.495
 7068SOL    HW222104   5.134   4.433   4.521
 7069SOL     OW22105   4.601   0.656   5.241
 7069SOL    HW122106   4.657   0.598   5.300
 7069SOL    HW222107   4.659   0.722   5.194
 7070SOL     OW22108   0.352   1.107   5.876
 7070SOL    HW122109   0.422   1.140   5.812
 7070SOL    HW222110   0.264   1.149   5.853
 7071SOL     OW22111   4.332   5.703   6.388
 7071SOL    HW122112   4.416   5.756   6.375
 7071SOL    HW222113   4.253   5.764   6.382
 7072SOL     OW22114   0.805   3.990   6.325
 7072SOL    HW122115   0.874   3.958   6.260
 7072SOL    HW222116   0.721   3.937   6.314
 7073SOL     OW22117   4.487   1.147   3.722
 7073SOL    HW122118   4.559   1.097   3.674
 7073SOL    HW222119   4.523   1.182   3.808
 7074SOL     OW22120   6.247   3.650   1.709
 7074SOL    HW122121   6.256   3.746   1.685
 7074SOL    HW222122   6.195   3.642   1.794
 7075SOL     OW22123   2.217   5.358   2.186
 7075SOL    HW122124   2.211   5.258   2.178
 7075SOL    HW222125   2.200   5.385   2.281
 7076SOL     OW22126   6.025   1.854   1.177
 7076SOL    HW122127   6.096   1.785   1.184
 7076SOL    HW222128   6.055   1.927   1.116
 7077SOL     OW22129   3.543   6.094   1.362
 7077SOL    HW122130   3.629   6.112   1.409
 7077SOL    HW222131   3.542   5.999   1.330
 7078SOL     OW22132   6.830   1.299   6.570
 7078SOL    HW122133   6.803   1.362   6.643
 7078SOL    HW222134   6.767   1.308   6.493
 7079SOL     OW22135   1.945   5.433   5.061
 7079SOL    HW122136   1.867   5.472   5.012
 7079SOL    HW222137   1.938   5.334   5.062
 7080SOL     OW22138   3.930   1.373   5.988
 7080SOL    HW122139   3.948   1.437   6.062
 7080SOL    HW222140   3.888   1.422   5.911
 7081SOL     OW22141   2.120   6.537   0.283
 7081SOL    HW122142   2.183   6.582   0.345
 7081SOL    HW222143   2.033   6.587   0.282
 7082SOL     OW22144   0.528   4.680   2.149
 7082SOL    HW122145   0.548   4.775   2.124
 7082SOL    HW222146   0.518   4.673   2.248
 7083SOL     OW22147   5.097   2.956   2.873
 7083SOL    HW122148   5.079   2.888   2.802
 7083SOL    HW222149   5.018   2.961   2.935
 7084SOL     OW22150   1.054   4.947   0.708
 7084SOL    HW122151   1.006   4.919   0.791
 7084SOL    HW222152   1.045   5.046   0.697
 7085SOL     OW22153   0.419   4.230   2.612
 7085SOL    HW122154   0.337   4.172   2.612
 7085SOL    HW222155   0.471   4.213   2.528
 7086SOL     OW22156   4.757   0.732   3.490
 7086SOL    HW122157   4.675   0.707   3.541
 7086SOL    HW222158   4.784   0.825   3.514
 7087SOL     OW22159   5.605   2.797   3.573
 7087SOL    HW122160   5.529   2.758   3.624
 7087SOL    HW222161   5.588   2.894   3.557
 7088SOL     OW22162   5.832   2.814   4.803
 7088SOL    HW122163   5.895   2.746   4.842
 7088SOL    HW222164   5.740   2.797   4.838
 7089SOL     OW22165   3.192   5.808   1.123
 7089SOL    HW122166   3.182   5.709   1.120
 7089SOL    HW222167   3.106   5.851   1.096
 7090SOL     OW22168   4.731   2.891   0.805
 7090SOL    HW122169   4.818   2.850   0.779
 7090SOL    HW222170   4.746   2.984   0.838
 7091SOL     OW22171   6.060   0.478   6.710
 7091SOL    HW122172   5.999   0.539   6.659
 7091SOL    HW222173   6.086   0.401   6.652
 7092SOL     OW22174   4.229   0.312   6.585
 7092SOL    HW122175   4.223   0.342   6.490
 7092SOL    HW222176   4.267   0.220   6.589
 7093SOL     OW22177   3.812   3.261   0.534
 7093SOL    HW122178   3.839   3.172   0.570
 7093SOL    HW222179   3.735   3.250   0.471
 7094SOL     OW22180   4.640   1.022   4.873
 7094SOL    HW122181   4.558   1.035   4.817
 7094SOL    HW222182   4.613   1.001   4.967
 7095SOL     OW22183   2.719   4.720   4.178
 7095SOL    HW122184   2.684   4.679   4.094
 7095SOL    HW222185   2.689   4.665   4.257
 7096SOL     OW22186   6.538   5.761   0.614
 7096SOL    HW122187   6.526   5.720   0.523
 7096SOL    HW222188   6.554   5.859   0.604
 7097SOL     OW22189   4.851   1.850   2.963
 7097SOL    HW122190   4.777   1.847   2.895
 7097SOL    HW222191   4.815   1.885   3.050
 7098SOL     OW22192   0.720   1.290   2.665
 7098SOL    HW122193   0.623   1.297   2.640
 7098SOL    HW222194   0.738   1.350   2.743
 7099SOL     OW22195   3.649   1.971   4.549
 7099SOL    HW122196   3.570   2.028   4.574
 7099SOL    HW222197   3.616   1.885   4.510
 7100SOL     OW22198   0.267   4.350   1.670
 7100SOL    HW122199   0.236   4.379   1.580
 7100SOL    HW222200   0.346   4.288   1.661
 7101SOL     OW22201   2.943   5.272   4.097
 7101SOL    HW122202   3.005   5.351   4.099
 7101SOL    HW222203   2.855   5.300   4.060
 7102SOL     OW22204   5.224   1.289   3.182
 7102SOL    HW122205   5.186   1.379   3.165
 7102SOL    HW222206   5.310   1.298   3.233
 7103SOL     OW22207   5.671   4.169   3.891
 7103SOL    HW122208   5.675   4.069   3.900
 7103SOL    HW222209   5.743   4.210   3.947
 7104SOL     OW22210   5.237   2.872   4.560
 7104SOL    HW122211   5.239   2.934   4.482
 7104SOL    HW222212   5.242   2.925   4.645
 7105SOL     OW22213   3.293   4.016   2.362
 7105SOL    HW122214   3.255   3.961   2.437
 7105SOL    HW222215   3.386   4.044   2.386
 7106SOL     OW22216   2.839   2.184   2.276
 7106SOL    HW122217   2.883   2.237   2.204
 7106SOL    HW222218   2.742   2.174   2.255
 7107SOL     OW22219   3.838   1.049   6.558
 7107SOL    HW122220   3.746   1.050   6.597
 7107SOL    HW222221   3.902   1.015   6.627
 7108SOL     OW22222   3.497   6.955   1.862
 7108SOL    HW122223   3.582   6.913   1.831
 7108SOL    HW222224   3.439   6.976   1.783
 7109SOL     OW22225   3.227   4.713   5.739
 7109SOL    HW122226   3.239   4.630   5.794
 7109SOL    HW222227   3.136   4.713   5.699
 7110SOL     OW22228   2.495   6.098   5.572
 7110SOL    HW122229   2.534   6.014   5.535
 7110SOL    HW222230   2.561   6.172   5.563
 7111SOL     OW22231   6.781   0.921   4.772
 7111SOL    HW122232   6.766   0.832   4.814
 7111SOL    HW222233   6.707   0.983   4.796
 7112SOL     OW22234   0.004   4.799   5.410
 7112SOL    HW122235   0.028   4.851   5.492
 7112SOL    HW222236   0.074   4.812   5.340
 7113SOL     OW22237   3.119   6.853   5.109
 7113SOL    HW122238   3.218   6.842   5.099
 7113SOL    HW222239   3.099   6.896   5.197
 7114SOL     OW22240   5.392   4.000   0.596
 7114SOL    HW122241   5.325   4.043   0.656
 7114SOL    HW222242   5.433   4.070   0.537
 7115SOL     OW22243   4.763   2.626   5.555
 7115SOL    HW122244   4.746   2.680   5.472
 7115SOL    HW222245   4.698   2.654   5.626
 7116SOL     OW22246   6.701   4.933   4.467
 7116SOL    HW122247   6.777   4.992   4.437
 7116SOL    HW222248   6.632   4.988   4.513
 7117SOL     OW22249   4.574   0.391   2.840
 7117SOL    HW122250   4.501   0.458   2.828
 7117SOL    HW222251   4.607   0.393   2.934
 7118SOL     OW22252   4.785   4.010   5.771
 7118SOL    HW122253   4.803   3.960   5.856
 7118SOL    HW222254   4.826   4.101   5.777
 7119SOL     OW22255   2.918   6.444   4.598
 7119SOL    HW122256   2.983   6.394   4.541
 7119SOL    HW222257   2.829   6.400   4.594
 7120SOL     OW22258   4.293   1.606   1.645
 7120SOL    HW122259   4.291   1.521   1.592
 7120SOL    HW222260   4.275   1.683   1.584
 7121SOL     OW22261   1.073   5.954   2.321
 7121SOL    HW122262   1.052   5.922   2.229
 7121SOL    HW222263   0.993   5.943   2.380
 7122SOL     OW22264   3.439   1.987   6.459
 7122SOL    HW122265   3.443   1.955   6.554
 7122SOL    HW222266   3.370   2.059   6.452
 7123SOL     OW22267   4.792   4.484   6.401
 7123SOL    HW122268   4.872   4.435   6.436
 7123SOL    HW222269   4.733   4.511   6.477
 7124SOL     OW22270   2.729   2.852   0.038
 7124SOL    HW122271   2.660   2.886   6.993
 7124SOL    HW222272   2.765   2.765   0.004
 7125SOL     OW22273   0.859   6.694   1.743
 7125SOL    HW122274   0.776   6.664   1.790
 7125SOL    HW222275   0.870   6.641   1.659
 7126SOL     OW22276   4.268   5.064   1.413
 7126SOL    HW122277   4.338   4.999   1.383
 7126SOL    HW222278   4.180   5.038   1.373
 7127SOL     OW22279   2.925   6.223   5.929
 7127SOL    HW122280   2.936   6.316   5.894
 7127SOL    HW222281   2.980   6.212   6.012
 7128SOL     OW22282   3.342   4.163   0.302
 7128SOL    HW122283   3.382   4.117   0.222
 7128SOL    HW222284   3.416   4.197   0.360
 7129SOL     OW22285   6.947   0.514   6.902
 7129SOL    HW122286   0.018   0.477   6.881
 7129SOL    HW222287   6.877   0.467   6.849
 7130SOL     OW22288   3.577   0.549   4.211
 7130SOL    HW122289   3.557   0.541   4.114
 7130SOL    HW222290   3.642   0.623   4.227
 7131SOL     OW22291   2.502   1.679   2.420
 7131SOL    HW122292   2.419   1.716   2.378
 7131SOL    HW222293   2.482   1.589   2.459
 7132SOL     OW22294   5.253   4.391   1.805
 7132SOL    HW122295   5.246   4.343   1.892
 7132SOL    HW222296   5.298   4.479   1.819
 7133SOL     OW22297   4.435   6.013   2.779
 7133SOL    HW122298   4.436   5.930   2.723
 7133SOL    HW222299   4.359   6.010   2.843
 7134SOL     OW22300   4.913   5.002   0.056
 7134SOL    HW122301   4.886   5.073   7.010
 7134SOL    HW222302   4.873   4.914   0.029
 7135SOL     OW22303   2.071   4.593   1.360
 7135SOL    HW122304   2.049   4.547   1.446
 7135SOL    HW222305   2.165   4.625   1.362
 7136SOL     OW22306   1.223   2.820   1.693
 7136SOL    HW122307   1.137   2.818   1.641
 7136SOL    HW222308   1.291   2.764   1.647
 7137SOL     OW22309   2.378   0.909   2.045
 7137SOL    HW122310   2.392   0.833   1.982
 7137SOL    HW222311   2.293   0.895   2.096
 7138SOL     OW22312   6.792   3.174   6.761
 7138SOL    HW122313   6.747   3.189   6.673
 7138SOL    HW222314   6.769   3.248   6.824
 7139SOL     OW22315   5.965   5.501   1.138
 7139SOL    HW122316   5.909   5.426   1.173
 7139SOL    HW222317   5.984   5.485   1.041
 7140SOL     OW22318   0.168   5.352   0.229
 7140SOL    HW122319   0.173   5.411   0.310
 7140SOL    HW222320   0.163   5.409   0.147
 7141SOL     OW22321   3.482   1.335   0.940
 7141SOL    HW122322   3.507   1.239   0.923
 7141SOL    HW222323   3.432   1.371   0.862
 7142SOL     OW22324   4.743   6.991   5.575
 7142SOL    HW122325   4.705   6.900   5.557
 7142SOL    HW222326   4.841   6.991   5.552
 7143SOL     OW22327   3.103   2.808   6.127
 7143SOL    HW122328   3.152   2.882   6.172
 7143SOL    HW222329   3.119   2.811   6.029
 7144SOL     OW22330   6.605   1.087   5.667
 7144SOL    HW122331   6.644   1.175   5.640
 7144SOL    HW222332   6.508   1.098   5.689
 7145SOL     OW22333   6.587   2.327   5.906
 7145SOL    HW122334   6.522   2.362   5.974
 7145SOL    HW222335   6.574   2.375   5.820
 7146SOL     OW22336   0.140   1.760   4.557
 7146SOL    HW122337   0.085   1.814   4.621
 7146SOL    HW222338   0.219   1.722   4.606
 7147SOL     OW22339   6.877   6.936   0.800
 7147SOL    HW122340   6.967   6.917   0.839
 7147SOL    HW222341   6.887   6.994   0.719
 7148SOL     OW22342   5.626   6.653   0.888
 7148SOL    HW122343   5.648   6.582   0.955
 7148SOL    HW222344   5.686   6.644   0.809
 7149SOL     OW22345   5.616   4.096   5.978
 7149SOL    HW122346   5.705   4.114   6.021
 7149SOL    HW222347   5.598   4.165   5.908
 7150SOL     OW22348   3.107   2.332   0.039
 7150SOL    HW122349   3.155   2.316   0.126
 7150SOL    HW222350   3.063   2.248   0.009
 7151SOL     OW22351   5.456   1.832   0.065
 7151SOL    HW122352   5.448   1.925   0.027
 7151SOL    HW222353   5.522   1.781   0.011
 7152SOL     OW22354   5.002   7.012   5.475
 7152SOL    HW122355   4.986   7.003   5.376
 7152SOL    HW222356   5.035   6.924   5.511
 7153SOL     OW22357   4.384   5.951   0.776
 7153SOL    HW122358   4.375   6.010   0.857
 7153SOL    HW222359   4.441   5.872   0.799
 7154SOL     OW22360   5.161   0.869   1.658
 7154SOL    HW122361   5.061   0.872   1.651
 7154SOL    HW222362   5.187   0.846   1.752
 7155SOL     OW22363   2.086   6.754   1.238
 7155SOL    HW122364   2.015   6.685   1.254
 7155SOL    HW222365   2.058   6.813   1.162
 7156SOL     OW22366   6.451   3.478   5.221
 7156SOL    HW122367   6.415   3.572   5.221
 7156SOL    HW222368   6.463   3.447   5.127
 7157SOL     OW22369   0.218   3.380   5.546
 7157SOL    HW122370   0.261   3.458   5.590
 7157SOL    HW222371   0.119   3.383   5.561
 7158SOL     OW22372   5.235   0.449   3.736
 7158SOL    HW122373   5.184   0.526   3.697
 7158SOL    HW222374   5.315   0.431   3.679
 7159SOL     OW22375   0.395   6.152   3.450
 7159SOL    HW122376   0.452   6.233   3.464
 7159SOL    HW222377   0.453   6.076   3.419
 7160SOL     OW22378   5.839   0.035   2.681
 7160SOL    HW122379   5.756   0.036   2.625
 7160SOL    HW222380   5.862   0.128   2.707
 7161SOL     OW22381   3.736   3.646   2.215
 7161SOL    HW122382   3.662   3.657   2.281
 7161SOL    HW222383   3.705   3.677   2.125
 7162SOL     OW22384   0.295   6.259   0.621
 7162SOL    HW122385   0.284   6.186   0.690
 7162SOL    HW222386   0.302   6.217   0.530
 7163SOL     OW22387   6.816   0.021   0.518
 7163SOL    HW122388   6.790   0.068   0.434
 7163SOL    HW222389   6.888   6.973   0.497
 7164SOL     OW22390   1.773   0.209   0.198
 7164SOL    HW122391   1.801   0.250   0.111
 7164SOL    HW222392   1.854   0.192   0.253
 7165SOL     OW22393   4.751   1.990   6.264
 7165SOL    HW122394   4.778   2.051   6.339
 7165SOL    HW222395   4.676   1.931   6.295
 7166SOL     OW22396   6.583   5.756   5.134
 7166SOL    HW122397   6.563   5.767   5.231
 7166SOL    HW222398   6.590   5.846   5.091
 7167SOL     OW22399   0.488   3.158   5.730
 7167SOL    HW122400   0.584   3.135   5.742
 7167SOL    HW222401   0.452   3.111   5.650
 7168SOL     OW22402   1.222   0.767   2.634
 7168SOL    HW122403   1.218   0.750   2.535
 7168SOL    HW222404   1.136   0.808   2.664
 7169SOL     OW22405   1.528   4.512   6.135
 7169SOL    HW122406   1.621   4.529   6.103
 7169SOL    HW222407   1.464   4.566   6.080
 7170SOL     OW22408   3.721   2.111   1.203
 7170SOL    HW122409   3.700   2.013   1.205
 7170SOL    HW222410   3.686   2.154   1.285
 7171SOL     OW22411   7.012   4.712   0.827
 7171SOL    HW122412   0.085   4.729   0.792
 7171SOL    HW222413   6.984   4.619   0.802
 7172SOL     OW22414   1.023   2.315   3.464
 7172SOL    HW122415   1.098   2.342   3.524
 7172SOL    HW222416   0.956   2.389   3.458
 7173SOL     OW22417   3.373   5.628   4.973
 7173SOL    HW122418   3.394   5.709   4.918
 7173SOL    HW222419   3.457   5.594   5.015
 7174SOL     OW22420   6.697   3.727   2.236
 7174SOL    HW122421   6.685   3.760   2.142
 7174SOL    HW222422   6.661   3.634   2.244
 7175SOL     OW22423   6.705   3.334   5.795
 7175SOL    HW122424   6.782   3.306   5.853
 7175SOL    HW222425   6.625   3.278   5.816
 7176SOL     OW22426   0.323   1.257   6.702
 7176SOL    HW122427   0.283   1.166   6.688
 7176SOL    HW222428   0.249   1.324   6.713
 7177SOL     OW22429   1.303   5.219   3.395
 7177SOL    HW122430   1.369   5.208   3.321
 7177SOL    HW222431   1.330   5.298   3.451
 7178SOL     OW22432   1.180   6.326   5.818
 7178SOL    HW122433   1.104   6.267   5.791
 7178SOL    HW222434   1.218   6.370   5.736
 7179SOL     OW22435   4.663   4.563   6.017
 7179SOL    HW122436   4.640   4.630   5.946
 7179SOL    HW222437   4.706   4.611   6.094
 7180SOL     OW22438   0.977   2.809   2.027
 7180SOL    HW122439   1.071   2.800   2.059
 7180SOL    HW222440   0.973   2.873   1.951
 7181SOL     OW22441   3.110   0.806   0.509
 7181SOL    HW122442   3.013   0.788   0.494
 7181SOL    HW222443   3.123   0.842   0.601
 7182SOL     OW22444   2.171   0.943   3.273
 7182SOL    HW122445   2.267   0.967   3.257
 7182SOL    HW222446   2.115   1.025   3.265
 7183SOL     OW22447   1.249   0.170   1.581
 7183SOL    HW122448   1.287   0.261   1.597
 7183SOL    HW222449   1.247   0.119   1.667
 7184SOL     OW22450   7.015   0.990   3.757
 7184SOL    HW122451   0.089   0.966   3.785
 7184SOL    HW222452   6.949   0.939   3.812
 7185SOL     OW22453   4.104   0.652   3.806
 7185SOL    HW122454   4.007   0.665   3.827
 7185SOL    HW222455   4.136   0.567   3.847
 7186SOL     OW22456   6.779   1.370   6.230
 7186SOL    HW122457   6.830   1.444   6.187
 7186SOL    HW222458   6.718   1.408   6.300
 7187SOL     OW22459   3.378   3.312   3.874
 7187SOL    HW122460   3.316   3.337   3.800
 7187SOL    HW222461   3.389   3.389   3.936
 7188SOL     OW22462   5.178   5.008   0.122
 7188SOL    HW122463   5.236   4.927   0.110
 7188SOL    HW222464   5.087   4.990   0.085
 7189SOL     OW22465   6.848   2.342   6.027
 7189SOL    HW122466   6.780   2.305   5.963
 7189SOL    HW222467   6.882   2.268   6.084
 7190SOL     OW22468   6.094   5.523   0.138
 7190SOL    HW122469   6.191   5.530   0.113
 7190SOL    HW222470   6.051   5.612   0.126
 7191SOL     OW22471   0.120   5.035   2.114
 7191SOL    HW122472   0.197   5.025   2.050
 7191SOL    HW222473   0.035   5.014   2.066
 7192SOL     OW22474   2.785   4.011   5.262
 7192SOL    HW122475   2.738   4.000   5.175
 7192SOL    HW222476   2.803   3.920   5.301
 7193SOL     OW22477   3.522   1.332   3.848
 7193SOL    HW122478   3.605   1.311   3.796
 7193SOL    HW222479   3.537   1.415   3.902
 7194SOL     OW22480   3.299   2.468   5.891
 7194SOL    HW122481   3.397   2.483   5.875
 7194SOL    HW222482   3.271   2.383   5.847
 7195SOL     OW22483   0.639   3.449   5.940
 7195SOL    HW122484   0.647   3.544   5.908
 7195SOL    HW222485   0.714   3.395   5.901
 7196SOL     OW22486   3.063   3.526   1.657
 7196SOL    HW122487   3.138   3.580   1.619
 7196SOL    HW222488   2.993   3.587   1.695
 7197SOL     OW22489   3.673   5.050   6.710
 7197SOL    HW122490   3.623   5.121   6.760
 7197SOL    HW222491   3.629   4.962   6.724
 7198SOL     OW22492   1.155   0.437   1.990
 7198SOL    HW122493   1.211   0.388   2.057
 7198SOL    HW222494   1.064   0.396   1.986
 7199SOL     OW22495   6.097   1.042   3.450
 7199SOL    HW122496   6.176   0.983   3.437
 7199SOL    HW222497   6.045   1.047   3.365
 7200SOL     OW22498   0.982   3.055   6.770
 7200SOL    HW122499   0.897   3.081   6.815
 7200SOL    HW222500   1.053   3.038   6.838
 7201SOL     OW22501   6.136   6.246   3.947
 7201SOL    HW122502   6.097   6.165   3.992
 7201SOL    HW222503   6.221   6.220   3.900
 7202SOL     OW22504   4.753   0.648   5.851
 7202SOL    HW122505   4.819   0.723   5.853
 7202SOL    HW222506   4.754   0.600   5.938
 7203SOL     OW22507   0.733   1.741   0.808
 7203SOL    HW122508   0.815   1.703   0.852
 7203SOL    HW222509   0.704   1.824   0.856
 7204SOL     OW22510   5.525   0.804   2.830
 7204SOL    HW122511   5.516   0.889   2.881
 7204SOL    HW222512   5.494   0.818   2.736
 7205SOL     OW22513   3.085   1.374   4.114
 7205SOL    HW122514   2.989   1.400   4.101
 7205SOL    HW222515   3.141   1.456   4.129
 7206SOL     OW22516   2.354   3.136   6.657
 7206SOL    HW122517   2.408   3.196   6.716
 7206SOL    HW222518   2.276   3.188   6.619
 7207SOL     OW22519   1.571   1.202   2.793
 7207SOL    HW122520   1.655   1.148   2.786
 7207SOL    HW222521   1.579   1.266   2.870
 7208SOL     OW22522   3.460   0.341   3.750
 7208SOL    HW122523   3.413   0.364   3.664
 7208SOL    HW222524   3.555   0.317   3.730
 7209SOL     OW22525   3.626   1.024   2.322
 7209SOL    HW122526   3.533   1.040   2.290
 7209SOL    HW222527   3.651   1.094   2.389
 7210SOL     OW22528   3.661   1.503   4.423
 7210SOL    HW122529   3.704   1.504   4.513
 7210SOL    HW222530   3.731   1.497   4.352
 7211SOL     OW22531   3.871   6.228   5.882
 7211SOL    HW122532   3.804   6.283   5.931
 7211SOL    HW222533   3.871   6.135   5.917
 7212SOL     OW22534   0.798   5.718   5.470
 7212SOL    HW122535   0.824   5.811   5.444
 7212SOL    HW222536   0.879   5.669   5.503
 7213SOL     OW22537   4.435   2.810   0.417
 7213SOL    HW122538   4.386   2.892   0.389
 7213SOL    HW222539   4.425   2.797   0.515
 7214SOL     OW22540   6.224   1.052   6.221
 7214SOL    HW122541   6.184   1.080   6.134
 7214SOL    HW222542   6.323   1.068   6.220
 7215SOL     OW22543   6.511   1.606   2.523
 7215SOL    HW122544   6.426   1.587   2.474
 7215SOL    HW222545   6.547   1.695   2.494
 7216SOL     OW22546   5.277   6.838   3.590
 7216SOL    HW122547   5.302   6.934   3.576
 7216SOL    HW222548   5.308   6.784   3.512
 7217SOL     OW22549   1.130   3.207   3.076
 7217SOL    HW122550   1.105   3.286   3.020
 7217SOL    HW222551   1.228   3.189   3.064
 7218SOL     OW22552   6.262   2.406   5.004
 7218SOL    HW122553   6.250   2.450   5.093
 7218SOL    HW222554   6.336   2.451   4.955
 7219SOL     OW22555   2.411   6.068   2.085
 7219SOL    HW122556   2.444   6.141   2.144
 7219SOL    HW222557   2.326   6.031   2.122
 7220SOL     OW22558   6.575   4.039   3.568
 7220SOL    HW122559   6.627   3.992   3.496
 7220SOL    HW222560   6.636   4.061   3.644
 7221SOL     OW22561   4.011   5.037   3.583
 7221SOL    HW122562   4.014   5.111   3.515
 7221SOL    HW222563   3.949   4.965   3.552
 7222SOL     OW22564   0.052   5.675   4.338
 7222SOL    HW122565   0.084   5.674   4.243
 7222SOL    HW222566   0.088   5.596   4.387
 7223SOL     OW22567   6.717   5.643   1.897
 7223SOL    HW122568   6.710   5.732   1.941
 7223SOL    HW222569   6.636   5.628   1.840
 7224SOL     OW22570   4.559   2.261   2.870
 7224SOL    HW122571   4.568   2.215   2.781
 7224SOL    HW222572   4.506   2.345   2.859
 7225SOL     OW22573   0.993   6.059   0.303
 7225SOL    HW122574   1.017   6.156   0.301
 7225SOL    HW222575   1.062   6.006   0.254
 7226SOL     OW22576   5.753   6.239   0.166
 7226SOL    HW122577   5.750   6.215   0.263
 7226SOL    HW222578   5.752   6.338   0.156
 7227SOL     OW22579   1.768   1.057   2.110
 7227SOL    HW122580   1.827   1.127   2.151
 7227SOL    HW222581   1.675   1.092   2.103
 7228SOL     OW22582   5.789   2.963   2.658
 7228SOL    HW122583   5.753   2.880   2.616
 7228SOL    HW222584   5.713   3.025   2.681
 7229SOL     OW22585   5.916   6.934   4.860
 7229SOL    HW122586   5.911   0.015   4.862
 7229SOL    HW222587   5.858   6.899   4.786
 7230SOL     OW22588   2.299   5.398   4.981
 7230SOL    HW122589   2.349   5.365   5.061
 7230SOL    HW222590   2.216   5.445   5.009
 7231SOL     OW22591   3.853   3.530   6.362
 7231SOL    HW122592   3.821   3.617   6.323
 7231SOL    HW222593   3.952   3.523   6.351
 7232SOL     OW22594   4.401   6.282   3.526
 7232SOL    HW122595   4.340   6.350   3.484
 7232SOL    HW222596   4.490   6.324   3.542
 7233SOL     OW22597   0.468   1.488   6.266
 7233SOL    HW122598   0.474   1.491   6.366
 7233SOL    HW222599   0.380   1.524   6.236
 7234SOL     OW22600   5.369   4.774   3.340
 7234SOL    HW122601   5.382   4.703   3.410
 7234SOL    HW222602   5.377   4.733   3.249
 7235SOL     OW22603   6.436   0.584   1.748
 7235SOL    HW122604   6.468   0.490   1.757
 7235SOL    HW222605   6.336   0.585   1.747
 7236SOL     OW22606   1.230   3.731   3.021
 7236SOL    HW122607   1.309   3.678   2.989
 7236SOL    HW222608   1.162   3.669   3.061
 7237SOL     OW22609   5.432   1.735   0.303
 7237SOL    HW122610   5.467   1.643   0.315
 7237SOL    HW222611   5.444   1.764   0.208
 7238SOL     OW22612   4.093   3.648   6.974
 7238SOL    HW122613   4.122   3.670   6.881
 7238SOL    HW222614   3.995   3.630   6.976
 7239SOL     OW22615   5.794   2.297   2.018
 7239SOL    HW122616   5.819   2.367   1.950
 7239SOL    HW222617   5.732   2.231   1.975
 7240SOL     OW22618   0.145   1.560   0.271
 7240SOL    HW122619   0.167   1.470   0.309
 7240SOL    HW222620   0.214   1.586   0.205
 7241SOL     OW22621   1.805   6.696   2.558
 7241SOL    HW122622   1.712   6.717   2.529
 7241SOL    HW222623   1.820   6.730   2.651
 7242SOL     OW22624   6.517   4.737   5.518
 7242SOL    HW122625   6.519   4.733   5.618
 7242SOL    HW222626   6.602   4.779   5.485
 7243SOL     OW22627   5.194   4.693   6.230
 7243SOL    HW122628   5.144   4.727   6.149
 7243SOL    HW222629   5.230   4.602   6.211
 7244SOL     OW22630   6.785   5.877   6.818
 7244SOL    HW122631   6.860   5.810   6.823
 7244SOL    HW222632   6.700   5.834   6.847
 7245SOL     OW22633   1.218   2.969   0.004
 7245SOL    HW122634   1.309   2.968   6.981
 7245SOL    HW222635   1.211   2.895   0.071
 7246SOL     OW22636   4.069   0.190   3.437
 7246SOL    HW122637   4.044   0.179   3.341
 7246SOL    HW222638   3.989   0.173   3.495
 7247SOL     OW22639   3.075   3.984   4.348
 7247SOL    HW122640   3.010   4.024   4.284
 7247SOL    HW222641   3.168   3.994   4.312
 7248SOL     OW22642   3.010   1.614   5.629
 7248SOL    HW122643   3.105   1.637   5.652
 7248SOL    HW222644   3.007   1.523   5.588
 7249SOL     OW22645   3.460   5.656   2.804
 7249SOL    HW122646   3.504   5.718   2.868
 7249SOL    HW222647   3.366   5.686   2.788
 7250SOL     OW22648   5.569   5.303   5.658
 7250SOL    HW122649   5.504   5.308   5.733
 7250SOL    HW222650   5.526   5.336   5.574
 7251SOL     OW22651   0.927   5.360   4.274
 7251SOL    HW122652   0.971   5.446   4.247
 7251SOL    HW222653   0.963   5.331   4.362
 7252SOL     OW22654   4.169   3.519   2.340
 7252SOL    HW122655   4.150   3.508   2.242
 7252SOL    HW222656   4.266   3.503   2.357
 7253SOL     OW22657   2.397   5.281   4.699
 7253SOL    HW122658   2.308   5.325   4.699
 7253SOL    HW222659   2.445   5.302   4.784
 7254SOL     OW22660   6.268   3.698   3.719
 7254SOL    HW122661   6.220   3.646   3.790
 7254SOL    HW222662   6.207   3.767   3.681
 7255SOL     OW22663   4.788   3.898   0.246
 7255SOL    HW122664   4.767   3.922   0.340
 7255SOL    HW222665   4.789   3.798   0.237
 7256SOL     OW22666   3.168   0.048   4.130
 7256SOL    HW122667   3.202   0.109   4.058
 7256SOL    HW222668   3.068   0.043   4.125
 7257SOL     OW22669   0.734   1.417   4.922
 7257SOL    HW122670   0.724   1.500   4.977
 7257SOL    HW222671   0.771   1.442   4.832
 7258SOL     OW22672   6.210   2.804   1.952
 7258SOL    HW122673   6.279   2.735   1.974
 7258SOL    HW222674   6.253   2.893   1.944
 7259SOL     OW22675   1.418   3.852   2.515
 7259SOL    HW122676   1.393   3.876   2.608
 7259SOL    HW222677   1.380   3.919   2.452
 7260SOL     OW22678   6.201   3.200   0.995
 7260SOL    HW122679   6.154   3.125   0.949
 7260SOL    HW222680   6.151   3.224   1.078
 7261SOL     OW22681   6.767   3.839   6.711
 7261SOL    HW122682   6.677   3.835   6.756
 7261SOL    HW222683   6.826   3.768   6.750
 7262SOL     OW22684   4.966   1.230   4.882
 7262SOL    HW122685   4.876   1.225   4.926
 7262SOL    HW222686   4.991   1.140   4.847
 7263SOL     OW22687   6.778   5.372   5.808
 7263SOL    HW122688   6.828   5.417   5.882
 7263SOL    HW222689   6.837   5.366   5.727
 7264SOL     OW22690   5.482   1.522   1.754
 7264SOL    HW122691   5.423   1.477   1.820
 7264SOL    HW222692   5.473   1.621   1.763
 7265SOL     OW22693   4.058   0.733   5.392
 7265SOL    HW122694   4.111   0.805   5.438
 7265SOL    HW222695   4.056   0.652   5.450
 7266SOL     OW22696   0.350   0.623   2.968
 7266SOL    HW122697   0.304   0.699   3.013
 7266SOL    HW222698   0.283   0.555   2.939
 7267SOL     OW22699   6.911   4.249   4.467
 7267SOL    HW122700   7.001   4.219   4.434
 7267SOL    HW222701   6.922   4.328   4.526
 7268SOL     OW22702   6.221   6.646   4.057
 7268SOL    HW122703   6.274   6.598   4.127
 7268SOL    HW222704   6.134   6.600   4.043
 7269SOL     OW22705   2.552   4.665   4.671
 7269SOL    HW122706   2.474   4.689   4.729
 7269SOL    HW222707   2.635   4.703   4.712
 7270SOL     OW22708   0.838   0.555   4.909
 7270SOL    HW122709   0.816   0.525   5.002
 7270SOL    HW222710   0.757   0.596   4.867
 7271SOL     OW22711   0.463   5.044   3.364
 7271SOL    HW122712   0.397   5.086   3.426
 7271SOL    HW222713   0.452   4.945   3.365
 7272SOL     OW22714   6.523   3.837   1.779
 7272SOL    HW122715   6.543   3.916   1.838
 7272SOL    HW222716   6.441   3.856   1.726
 7273SOL     OW22717   0.730   1.480   5.359
 7273SOL    HW122718   0.646   1.462   5.308
 7273SOL    HW222719   0.716   1.557   5.421
 7274SOL     OW22720   0.130   4.988   5.902
 7274SOL    HW122721   0.165   5.070   5.857
 7274SOL    HW222722   0.206   4.938   5.942
 7275SOL     OW22723   1.055   5.835   3.848
 7275SOL    HW122724   1.134   5.869   3.797
 7275SOL    HW222725   1.022   5.750   3.806
 7276SOL     OW22726   4.772   5.859   3.494
 7276SOL    HW122727   4.871   5.852   3.502
 7276SOL    HW222728   4.742   5.950   3.524
 7277SOL     OW22729   4.707   1.070   0.384
 7277SOL    HW122730   4.611   1.097   0.372
 7277SOL    HW222731   4.748   1.053   0.294
 7278SOL     OW22732   3.516   2.955   2.338
 7278SOL    HW122733   3.603   2.924   2.299
 7278SOL    HW222734   3.492   2.897   2.415
 7279SOL     OW22735   3.579   6.758   6.105
 7279SOL    HW122736   3.546   6.681   6.050
 7279SOL    HW222737   3.517   6.836   6.094
 7280SOL     OW22738   4.711   1.836   5.946
 7280SOL    HW122739   4.671   1.857   5.857
 7280SOL    HW222740   4.664   1.889   6.017
 7281SOL     OW22741   5.143   1.047   6.466
 7281SOL    HW122742   5.205   1.102   6.410
 7281SOL    HW222743   5.085   0.992   6.407
 7282SOL     OW22744   5.641   6.132   2.035
 7282SOL    HW122745   5.608   6.066   2.103
 7282SOL    HW222746   5.567   6.193   2.007
 7283SOL     OW22747   2.327   0.948   3.870
 7283SOL    HW122748   2.387   1.012   3.821
 7283SOL    HW222749   2.239   0.943   3.823
 7284SOL     OW22750   0.922   1.740   5.353
 7284SOL    HW122751   0.904   1.693   5.439
 7284SOL    HW222752   0.980   1.683   5.295
 7285SOL     OW22753   5.814   4.787   1.743
 7285SOL    HW122754   5.781   4.809   1.651
 7285SOL    HW222755   5.773   4.701   1.773
 7286SOL     OW22756   2.229   4.312   0.702
 7286SOL    HW122757   2.202   4.218   0.678
 7286SOL    HW222758   2.151   4.373   0.687
 7287SOL     OW22759   5.825   1.654   5.576
 7287SOL    HW122760   5.792   1.747   5.557
 7287SOL    HW222761   5.816   1.634   5.673
 7288SOL     OW22762   2.667   6.989   0.245
 7288SOL    HW122763   2.701   0.016   0.327
 7288SOL    HW222764   2.741   6.934   0.205
 7289SOL     OW22765   5.208   2.336   4.412
 7289SOL    HW122766   5.127   2.376   4.456
 7289SOL    HW222767   5.283   2.333   4.479
 7290SOL     OW22768   2.380   5.881   4.899
 7290SOL    HW122769   2.348   5.818   4.828
 7290SOL    HW222770   2.344   5.854   4.987
 7291SOL     OW22771   3.447   5.068   1.597
 7291SOL    HW122772   3.454   5.155   1.645
 7291SOL    HW222773   3.442   5.085   1.499
 7292SOL     OW22774   3.224   6.934   4.738
 7292SOL    HW122775   3.303   6.895   4.691
 7292SOL    HW222776   3.157   6.862   4.756
 7293SOL     OW22777   2.060   1.783   6.556
 7293SOL    HW122778   2.037   1.793   6.653
 7293SOL    HW222779   1.990   1.829   6.501
 7294SOL     OW22780   4.654   5.745   0.442
 7294SOL    HW122781   4.731   5.714   0.387
 7294SOL    HW222782   4.618   5.831   0.405
 7295SOL     OW22783   5.286   0.341   1.432
 7295SOL    HW122784   5.363   0.405   1.427
 7295SOL    HW222785   5.310   0.265   1.492
 7296SOL     OW22786   4.108   5.151   1.717
 7296SOL    HW122787   4.057   5.136   1.801
 7296SOL    HW222788   4.206   5.134   1.734
 7297SOL     OW22789   5.373   6.628   2.169
 7297SOL    HW122790   5.277   6.606   2.186
 7297SOL    HW222791   5.385   6.727   2.170
 7298SOL     OW22792   6.781   3.745   3.985
 7298SOL    HW122793   6.869   3.700   3.972
 7298SOL    HW222794   6.719   3.684   4.034
 7299SOL     OW22795   5.345   3.684   6.207
 7299SOL    HW122796   5.248   3.661   6.205
 7299SOL    HW222797   5.358   3.780   6.181
 7300SOL     OW22798   4.942   5.380   1.609
 7300SOL    HW122799   4.999   5.373   1.691
 7300SOL    HW222800   4.859   5.431   1.630
 7301SOL     OW22801   6.534   1.163   6.174
 7301SOL    HW122802   6.586   1.134   6.254
 7301SOL    HW222803   6.464   1.229   6.201
 7302SOL     OW22804   5.602   1.034   6.294
 7302SOL    HW122805   5.572   0.995   6.381
 7302SOL    HW222806   5.660   1.113   6.310
 7303SOL     OW22807   3.669   0.748   0.852
 7303SOL    HW122808   3.716   0.717   0.769
 7303SOL    HW222809   3.716   0.828   0.888
 7304SOL     OW22810   3.585   3.605   5.155
 7304SOL    HW122811   3.529   3.552   5.091
 7304SOL    HW222812   3.552   3.699   5.158
 7305SOL     OW22813   5.693   1.448   0.521
 7305SOL    HW122814   5.792   1.463   0.532
 7305SOL    HW222815   5.644   1.498   0.592
 7306SOL     OW22816   4.923   4.913   2.141
 7306SOL    HW122817   4.975   4.827   2.135
 7306SOL    HW222818   4.831   4.894   2.175
 7307SOL     OW22819   4.064   6.543   2.375
 7307SOL    HW122820   3.971   6.573   2.394
 7307SOL    HW222821   4.102   6.497   2.455
 7308SOL     OW22822   6.223   1.008   4.234
 7308SOL    HW122823   6.219   1.027   4.136
 7308SOL    HW222824   6.290   0.936   4.252
 7309SOL     OW22825   4.344   5.436   2.371
 7309SOL    HW122826   4.278   5.440   2.446
 7309SOL    HW222827   4.401   5.518   2.371
 7310SOL     OW22828   2.075   5.717   1.409
 7310SOL    HW122829   2.049   5.628   1.371
 7310SOL    HW222830   2.120   5.704   1.497
 7311SOL     OW22831   2.639   2.180   1.929
 7311SOL    HW122832   2.727   2.226   1.947
 7311SOL    HW222833   2.594   2.160   2.016
 7312SOL     OW22834   0.058   2.106   5.929
 7312SOL    HW122835   0.053   2.123   6.028
 7312SOL    HW222836   6.987   2.121   5.888
 7313SOL     OW22837   3.686   2.381   6.262
 7313SOL    HW122838   3.716   2.306   6.203
 7313SOL    HW222839   3.699   2.468   6.215
 7314SOL     OW22840   1.027   2.631   4.687
 7314SOL    HW122841   0.982   2.634   4.598
 7314SOL    HW222842   1.125   2.618   4.675
 7315SOL     OW22843   0.085   0.926   5.819
 7315SOL    HW122844   0.161   0.955   5.877
 7315SOL    HW222845   0.095   0.967   5.729
 7316SOL     OW22846   4.006   3.276   5.067
 7316SOL    HW122847   3.987   3.204   5.000
 7316SOL    HW222848   3.964   3.361   5.036
 7317SOL     OW22849   3.497   1.019   3.665
 7317SOL    HW122850   3.453   1.029   3.754
 7317SOL    HW222851   3.563   1.093   3.652
 7318SOL     OW22852   1.413   1.797   1.072
 7318SOL    HW122853   1.504   1.760   1.049
 7318SOL    HW222854   1.412   1.895   1.053
 7319SOL     OW22855   0.133   3.916   5.995
 7319SOL    HW122856   0.210   3.975   5.970
 7319SOL    HW222857   0.117   3.851   5.921
 7320SOL     OW22858   6.783   2.553   2.321
 7320SOL    HW122859   6.827   2.612   2.253
 7320SOL    HW222860   6.761   2.465   2.279
 7321SOL     OW22861   2.852   1.266   4.496
 7321SOL    HW122862   2.947   1.282   4.469
 7321SOL    HW222863   2.841   1.171   4.525
 7322SOL     OW22864   0.227   3.590   1.874
 7322SOL    HW122865   0.308   3.620   1.924
 7322SOL    HW222866   0.181   3.518   1.927
 7323SOL     OW22867   2.185   4.065   2.979
 7323SOL    HW122868   2.109   4.094   2.920
 7323SOL    HW222869   2.208   3.970   2.958
 7324SOL     OW22870   5.261   5.401   2.331
 7324SOL    HW122871   5.272   5.407   2.430
 7324SOL    HW222872   5.203   5.322   2.309
 7325SOL     OW22873   3.139   6.292   0.492
 7325SOL    HW122874   3.143   6.209   0.549
 7325SOL    HW222875   3.206   6.358   0.527
 7326SOL     OW22876   2.301   0.866   4.953
 7326SOL    HW122877   2.323   0.905   5.042
 7326SOL    HW222878   2.327   0.769   4.951
 7327SOL     OW22879   1.590   2.687   4.956
 7327SOL    HW122880   1.620   2.720   4.866
 7327SOL    HW222881   1.510   2.741   4.985
 7328SOL     OW22882   2.641   6.728   6.626
 7328SOL    HW122883   2.595   6.639   6.620
 7328SOL    HW222884   2.638   6.761   6.720
 7329SOL     OW22885   4.705   3.503   1.413
 7329SOL    HW122886   4.776   3.521   1.481
 7329SOL    HW222887   4.615   3.521   1.453
 7330SOL     OW22888   4.410   1.966   0.735
 7330SOL    HW122889   4.422   1.922   0.824
 7330SOL    HW222890   4.452   2.057   0.737
 7331SOL     OW22891   5.076   1.175   2.201
 7331SOL    HW122892   4.982   1.171   2.168
 7331SOL    HW222893   5.076   1.174   2.301
 7332SOL     OW22894   3.301   5.095   0.989
 7332SOL    HW122895   3.252   5.049   1.063
 7332SOL    HW222896   3.342   5.026   0.929
 7333SOL     OW22897   0.293   4.604   2.721
 7333SOL    HW122898   0.196   4.579   2.717
 7333SOL    HW222899   0.349   4.527   2.690
 7334SOL     OW22900   3.839   6.898   4.491
 7334SOL    HW122901   3.782   6.969   4.449
 7334SOL    HW222902   3.795   6.864   4.574
 7335SOL     OW22903   2.315   2.816   2.651
 7335SOL    HW122904   2.385   2.764   2.699
 7335SOL    HW222905   2.339   2.824   2.555
 7336SOL     OW22906   1.922   6.438   4.223
 7336SOL    HW122907   1.870   6.401   4.146
 7336SOL    HW222908   2.018   6.449   4.197
 7337SOL     OW22909   4.831   2.166   2.100
 7337SOL    HW122910   4.901   2.225   2.141
 7337SOL    HW222911   4.757   2.153   2.166
 7338SOL     OW22912   6.524   3.183   0.154
 7338SOL    HW122913   6.460   3.240   0.102
 7338SOL    HW222914   6.525   3.091   0.116
 7339SOL     OW22915   1.134   5.644   4.566
 7339SOL    HW122916   1.124   5.742   4.586
 7339SOL    HW222917   1.055   5.595   4.601
 7340SOL     OW22918   2.513   6.977   6.497
 7340SOL    HW122919   2.416   6.964   6.517
 7340SOL    HW222920   2.566   6.908   6.546
 7341SOL     OW22921   6.774   1.815   0.519
 7341SOL    HW122922   6.719   1.764   0.453
 7341SOL    HW222923   6.871   1.798   0.502
 7342SOL     OW22924   0.449   6.595   2.276
 7342SOL    HW122925   0.500   6.666   2.228
 7342SOL    HW222926   0.512   6.530   2.318
 7343SOL     OW22927   5.679   2.941   0.457
 7343SOL    HW122928   5.611   2.911   0.390
 7343SOL    HW222929   5.632   2.979   0.537
 7344SOL     OW22930   2.096   6.065   6.351
 7344SOL    HW122931   2.145   6.001   6.411
 7344SOL    HW222932   2.007   6.085   6.391
 7345SOL     OW22933   3.019   5.479   6.290
 7345SOL    HW122934   3.093   5.478   6.223
 7345SOL    HW222935   3.029   5.559   6.349
 7346SOL     OW22936   4.304   5.126   2.682
 7346SOL    HW122937   4.271   5.069   2.606
 7346SOL    HW222938   4.400   5.149   2.666
 7347SOL     OW22939   6.222   1.634   0.335
 7347SOL    HW122940   6.130   1.596   0.334
 7347SOL    HW222941   6.289   1.561   0.324
 7348SOL     OW22942   6.183   4.377   6.950
 7348SOL    HW122943   6.160   4.467   6.912
 7348SOL    HW222944   6.124   4.357   0.009
 7349SOL     OW22945   3.651   1.694   1.699
 7349SOL    HW122946   3.562   1.678   1.742
 7349SOL    HW222947   3.721   1.699   1.769
 7350SOL     OW22948   3.864   0.769   4.034
 7350SOL    HW122949   3.837   0.727   3.947
 7350SOL    HW222950   3.897   0.862   4.018
 7351SOL     OW22951   2.356   4.314   4.142
 7351SOL    HW122952   2.312   4.226   4.120
 7351SOL    HW222953   2.303   4.361   4.212
 7352SOL     OW22954   6.054   3.845   3.989
 7352SOL    HW122955   6.052   3.863   4.087
 7352SOL    HW222956   6.099   3.757   3.972
 7353SOL     OW22957   6.437   0.596   5.595
 7353SOL    HW122958   6.362   0.653   5.629
 7353SOL    HW222959   6.405   0.539   5.520
 7354SOL     OW22960   0.721   1.475   2.878
 7354SOL    HW122961   0.631   1.449   2.913
 7354SOL    HW222962   0.788   1.473   2.952
 7355SOL     OW22963   3.205   1.545   0.420
 7355SOL    HW122964   3.188   1.563   0.323
 7355SOL    HW222965   3.137   1.594   0.475
 7356SOL     OW22966   3.912   3.900   5.945
 7356SOL    HW122967   3.867   3.871   5.860
 7356SOL    HW222968   3.882   3.993   5.968
 7357SOL     OW22969   5.102   6.567   2.053
 7357SOL    HW122970   5.090   6.666   2.062
 7357SOL    HW222971   5.061   6.521   2.131
 7358SOL     OW22972   5.730   0.850   3.626
 7358SOL    HW122973   5.705   0.754   3.638
 7358SOL    HW222974   5.647   0.904   3.609
 7359SOL     OW22975   4.316   6.798   1.791
 7359SOL    HW122976   4.332   6.890   1.755
 7359SOL    HW222977   4.316   6.800   1.890
 7360SOL     OW22978   2.889   3.379   5.027
 7360SOL    HW122979   2.829   3.303   5.003
 7360SOL    HW222980   2.969   3.379   4.968
 7361SOL     OW22981   6.959   0.520   3.241
 7361SOL    HW122982   7.009   0.439   3.209
 7361SOL    HW222983   6.942   0.581   3.163
 7362SOL     OW22984   3.312   5.688   0.319
 7362SOL    HW122985   3.236   5.623   0.321
 7362SOL    HW222986   3.382   5.655   0.255
 7363SOL     OW22987   4.359   0.913   1.059
 7363SOL    HW122988   4.444   0.867   1.033
 7363SOL    HW222989   4.380   0.988   1.121
 7364SOL     OW22990   6.030   6.498   1.587
 7364SOL    HW122991   6.081   6.419   1.553
 7364SOL    HW222992   5.949   6.467   1.637
 7365SOL     OW22993   4.864   3.630   2.171
 7365SOL    HW122994   4.766   3.617   2.183
 7365SOL    HW222995   4.885   3.727   2.165
 7366SOL     OW22996   1.734   0.344   3.860
 7366SOL    HW122997   1.653   0.399   3.840
 7366SOL    HW222998   1.756   0.288   3.781
 7367SOL     OW22999   4.026   0.953   6.730
 7367SOL    HW123000   4.041   0.864   6.687
 7367SOL    HW223001   4.112   1.004   6.734
 7368SOL     OW23002   3.451   3.249   3.346
 7368SOL    HW123003   3.380   3.227   3.280
 7368SOL    HW223004   3.441   3.191   3.427
 7369SOL     OW23005   5.436   3.191   0.210
 7369SOL    HW123006   5.390   3.183   0.121
 7369SOL    HW223007   5.504   3.118   0.219
 7370SOL     OW23008   2.012   1.108   4.577
 7370SOL    HW123009   1.967   1.154   4.653
 7370SOL    HW223010   2.051   1.175   4.515
 7371SOL     OW23011   3.988   1.163   3.729
 7371SOL    HW123012   4.082   1.133   3.747
 7371SOL    HW223013   3.969   1.159   3.631
 7372SOL     OW23014   5.340   1.287   5.209
 7372SOL    HW123015   5.414   1.266   5.273
 7372SOL    HW223016   5.379   1.315   5.121
 7373SOL     OW23017   6.112   3.205   4.591
 7373SOL    HW123018   6.183   3.184   4.523
 7373SOL    HW223019   6.122   3.143   4.669
 7374SOL     OW23020   0.364   1.978   6.123
 7374SOL    HW123021   0.353   2.045   6.049
 7374SOL    HW223022   0.275   1.941   6.147
 7375SOL     OW23023   1.453   3.752   0.734
 7375SOL    HW123024   1.422   3.829   0.678
 7375SOL    HW223025   1.549   3.765   0.759
 7376SOL     OW23026   6.726   4.013   0.920
 7376SOL    HW123027   6.804   3.987   0.976
 7376SOL    HW223028   6.715   4.112   0.922
 7377SOL     OW23029   2.550   5.839   1.521
 7377SOL    HW123030   2.512   5.802   1.437
 7377SOL    HW223031   2.491   5.816   1.598
 7378SOL     OW23032   2.028   5.187   4.862
 7378SOL    HW123033   2.116   5.229   4.884
 7378SOL    HW223034   2.021   5.099   4.910
 7379SOL     OW23035   4.311   1.636   2.672
 7379SOL    HW123036   4.361   1.713   2.631
 7379SOL    HW223037   4.224   1.625   2.625
 7380SOL     OW23038   5.517   3.210   1.545
 7380SOL    HW123039   5.611   3.192   1.571
 7380SOL    HW223040   5.459   3.211   1.626
 7381SOL     OW23041   3.727   6.830   1.815
 7381SOL    HW123042   3.823   6.830   1.844
 7381SOL    HW223043   3.720   6.786   1.726
 7382SOL     OW23044   6.641   1.675   5.998
 7382SOL    HW123045   6.572   1.603   6.009
 7382SOL    HW223046   6.725   1.649   6.045
 7383SOL     OW23047   1.953   6.633   0.717
 7383SOL    HW123048   1.870   6.631   0.662
 7383SOL    HW223049   1.950   6.710   0.780
 7384SOL     OW23050   6.631   6.386   0.596
 7384SOL    HW123051   6.723   6.353   0.573
 7384SOL    HW223052   6.636   6.483   0.619
 7385SOL     OW23053   6.109   4.936   3.091
 7385SOL    HW123054   6.039   4.866   3.082
 7385SOL    HW223055   6.196   4.901   3.056
 7386SOL     OW23056   5.403   3.508   6.805
 7386SOL    HW123057   5.409   3.425   6.750
 7386SOL    HW223058   5.310   3.519   6.839
 7387SOL     OW23059   6.112   5.811   4.833
 7387SOL    HW123060   6.170   5.829   4.912
 7387SOL    HW223061   6.142   5.726   4.788
 7388SOL     OW23062   2.264   4.329   2.471
 7388SOL    HW123063   2.347   4.332   2.416
 7388SOL    HW223064   2.221   4.239   2.462
 7389SOL     OW23065   6.552   3.085   0.431
 7389SOL    HW123066   6.532   3.141   0.350
 7389SOL    HW223067   6.566   3.144   0.510
 7390SOL     OW23068   2.437   2.606   4.043
 7390SOL    HW123069   2.524   2.601   3.996
 7390SOL    HW223070   2.380   2.678   4.003
 7391SOL     OW23071   3.501   3.832   3.124
 7391SOL    HW123072   3.553   3.747   3.117
 7391SOL    HW223073   3.419   3.826   3.067
 7392SOL     OW23074   3.265   6.829   0.230
 7392SOL    HW123075   3.224   6.904   0.283
 7392SOL    HW223076   3.209   6.747   0.240
 7393SOL     OW23077   4.713   5.529   3.401
 7393SOL    HW123078   4.726   5.570   3.491
 7393SOL    HW223079   4.635   5.572   3.355
 7394SOL     OW23080   2.151   1.963   5.522
 7394SOL    HW123081   2.216   1.997   5.454
 7394SOL    HW223082   2.058   1.967   5.484
 7395SOL     OW23083   2.777   6.209   1.260
 7395SOL    HW123084   2.763   6.178   1.166
 7395SOL    HW223085   2.874   6.231   1.273
 7396SOL     OW23086   1.317   5.130   2.660
 7396SOL    HW123087   1.240   5.128   2.724
 7396SOL    HW223088   1.303   5.202   2.592
 7397SOL     OW23089   6.203   4.853   3.939
 7397SOL    HW123090   6.274   4.817   3.878
 7397SOL    HW223091   6.125   4.884   3.885
 7398SOL     OW23092   3.191   4.863   2.253
 7398SOL    HW123093   3.168   4.793   2.322
 7398SOL    HW223094   3.123   4.860   2.180
 7399SOL     OW23095   5.213   1.428   6.201
 7399SOL    HW123096   5.146   1.443   6.274
 7399SOL    HW223097   5.185   1.479   6.119
 7400SOL     OW23098   4.725   3.484   5.551
 7400SOL    HW123099   4.682   3.574   5.549
 7400SOL    HW223100   4.786   3.479   5.630
 7401SOL     OW23101   1.640   2.550   4.004
 7401SOL    HW123102   1.707   2.533   4.076
 7401SOL    HW223103   1.548   2.551   4.042
 7402SOL     OW23104   3.619   5.475   4.193
 7402SOL    HW123105   3.704   5.514   4.159
 7402SOL    HW223106   3.610   5.494   4.291
 7403SOL     OW23107   2.042   4.311   4.481
 7403SOL    HW123108   1.958   4.296   4.430
 7403SOL    HW223109   2.114   4.252   4.446
 7404SOL     OW23110   2.649   3.842   0.841
 7404SOL    HW123111   2.714   3.809   0.772
 7404SOL    HW223112   2.699   3.868   0.924
 7405SOL     OW23113   3.710   6.672   5.491
 7405SOL    HW123114   3.727   6.748   5.554
 7405SOL    HW223115   3.710   6.586   5.542
 7406SOL     OW23116   0.873   2.386   4.492
 7406SOL    HW123117   0.792   2.429   4.452
 7406SOL    HW223118   0.855   2.289   4.507
 7407SOL     OW23119   1.143   6.240   5.441
 7407SOL    HW123120   1.144   6.301   5.361
 7407SOL    HW223121   1.214   6.171   5.430
 7408SOL     OW23122   4.496   5.730   4.901
 7408SOL    HW123123   4.574   5.677   4.935
 7408SOL    HW223124   4.443   5.765   4.978
 7409SOL     OW23125   6.771   4.162   1.354
 7409SOL    HW123126   6.693   4.151   1.292
 7409SOL    HW223127   6.811   4.073   1.372
 7410SOL     OW23128   6.675   0.471   1.119
 7410SOL    HW123129   6.635   0.501   1.032
 7410SOL    HW223130   6.635   0.383   1.145
 7411SOL     OW23131   3.057   1.866   4.916
 7411SOL    HW123132   3.055   1.766   4.912
 7411SOL    HW223133   2.963   1.901   4.909
 7412SOL     OW23134   3.957   0.045   0.643
 7412SOL    HW123135   3.938   0.138   0.674
 7412SOL    HW223136   3.982   0.046   0.547
 7413SOL     OW23137   4.782   0.999   3.566
 7413SOL    HW123138   4.773   1.041   3.476
 7413SOL    HW223139   4.821   1.065   3.630
 7414SOL     OW23140   2.737   0.739   3.861
 7414SOL    HW123141   2.731   0.653   3.912
 7414SOL    HW223142   2.817   0.791   3.893
 7415SOL     OW23143   4.114   6.947   6.218
 7415SOL    HW123144   4.029   6.994   6.241
 7415SOL    HW223145   4.095   6.867   6.161
 7416SOL     OW23146   1.750   0.720   1.806
 7416SOL    HW123147   1.811   0.789   1.765
 7416SOL    HW223148   1.788   0.629   1.790
 7417SOL     OW23149   0.841   0.825   2.124
 7417SOL    HW123150   0.890   0.754   2.073
 7417SOL    HW223151   0.887   0.913   2.110
 7418SOL     OW23152   1.317   3.975   6.260
 7418SOL    HW123153   1.295   4.063   6.301
 7418SOL    HW223154   1.408   3.946   6.289
 7419SOL     OW23155   0.191   3.548   4.401
 7419SOL    HW123156   0.228   3.535   4.493
 7419SOL    HW223157   0.258   3.597   4.345
 7420SOL     OW23158   7.001   6.192   0.941
 7420SOL    HW123159   0.006   6.244   0.859
 7420SOL    HW223160   0.063   6.143   0.974
 7421SOL     OW23161   5.802   3.966   0.742
 7421SOL    HW123162   5.734   3.967   0.816
 7421SOL    HW223163   5.786   4.045   0.683
 7422SOL     OW23164   5.781   3.134   1.598
 7422SOL    HW123165   5.877   3.162   1.607
 7422SOL    HW223166   5.755   3.078   1.676
 7423SOL     OW23167   4.564   2.616   6.084
 7423SOL    HW123168   4.522   2.534   6.122
 7423SOL    HW223169   4.651   2.591   6.040
 7424SOL     OW23170   0.668   2.333   3.175
 7424SOL    HW123171   0.692   2.419   3.219
 7424SOL    HW223172   0.720   2.258   3.217
 7425SOL     OW23173   5.561   0.927   0.747
 7425SOL    HW123174   5.567   0.999   0.678
 7425SOL    HW223175   5.523   0.965   0.831
 7426SOL     OW23176   2.698   2.785   5.974
 7426SOL    HW123177   2.749   2.831   6.046
 7426SOL    HW223178   2.756   2.715   5.931
 7427SOL     OW23179   2.839   0.150   3.582
 7427SOL    HW123180   2.883   0.068   3.617
 7427SOL    HW223181   2.873   0.230   3.631
 7428SOL     OW23182   3.387   6.817   5.103
 7428SOL    HW123183   3.416   6.742   5.162
 7428SOL    HW223184   3.424   6.904   5.138
 7429SOL     OW23185   0.934   0.007   2.364
 7429SOL    HW123186   1.016   0.037   2.413
 7429SOL    HW223187   0.952   6.938   2.320
 7430SOL     OW23188   6.666   4.854   2.809
 7430SOL    HW123189   6.756   4.812   2.824
 7430SOL    HW223190   6.666   4.900   2.720
 7431SOL     OW23191   0.976   1.876   3.580
 7431SOL    HW123192   0.929   1.934   3.513
 7431SOL    HW223193   0.914   1.806   3.613
 7432SOL     OW23194   1.795   1.053   2.833
 7432SOL    HW123195   1.792   1.016   2.926
 7432SOL    HW223196   1.773   0.980   2.768
 7433SOL     OW23197   3.092   6.772   6.527
 7433SOL    HW123198   3.126   6.857   6.566
 7433SOL    HW223199   3.084   6.781   6.428
 7434SOL     OW23200   4.199   6.933   3.692
 7434SOL    HW123201   4.142   6.985   3.756
 7434SOL    HW223202   4.214   6.841   3.728
 7435SOL     OW23203   5.002   4.502   3.196
 7435SOL    HW123204   4.973   4.579   3.253
 7435SOL    HW223205   4.929   4.478   3.133
 7436SOL     OW23206   5.691   3.036   5.919
 7436SOL    HW123207   5.687   3.003   6.013
 7436SOL    HW223208   5.634   2.978   5.861
 7437SOL     OW23209   3.224   0.487   1.411
 7437SOL    HW123210   3.132   0.507   1.379
 7437SOL    HW223211   3.276   0.573   1.417
 7438SOL     OW23212   2.198   0.242   6.609
 7438SOL    HW123213   2.227   0.246   6.514
 7438SOL    HW223214   2.206   0.333   6.650
 7439SOL     OW23215   0.801   4.874   6.066
 7439SOL    HW123216   0.763   4.895   5.976
 7439SOL    HW223217   0.899   4.897   6.067
 7440SOL     OW23218   5.872   4.136   4.076
 7440SOL    HW123219   5.938   4.208   4.099
 7440SOL    HW223220   5.826   4.106   4.160
 7441SOL     OW23221   4.958   5.850   1.071
 7441SOL    HW123222   5.050   5.811   1.079
 7441SOL    HW223223   4.909   5.838   1.157
 7442SOL     OW23224   4.983   1.062   6.673
 7442SOL    HW123225   4.894   1.031   6.640
 7442SOL    HW223226   5.047   1.067   6.597
 7443SOL     OW23227   0.230   0.351   1.039
 7443SOL    HW123228   0.156   0.366   0.973
 7443SOL    HW223229   0.307   0.410   1.017
 7444SOL     OW23230   1.737   6.449   0.257
 7444SOL    HW123231   1.665   6.512   0.287
 7444SOL    HW223232   1.773   6.479   0.168
 7445SOL     OW23233   3.822   5.683   1.990
 7445SOL    HW123234   3.865   5.772   1.973
 7445SOL    HW223235   3.845   5.652   2.082
 7446SOL     OW23236   5.644   4.856   6.657
 7446SOL    HW123237   5.637   4.763   6.693
 7446SOL    HW223238   5.567   4.911   6.690
 7447SOL     OW23239   0.457   5.068   0.777
 7447SOL    HW123240   0.455   5.106   0.684
 7447SOL    HW223241   0.551   5.074   0.813
 7448SOL     OW23242   4.589   5.304   6.465
 7448SOL    HW123243   4.679   5.315   6.507
 7448SOL    HW223244   4.599   5.260   6.376
 7449SOL     OW23245   6.424   4.256   5.816
 7449SOL    HW123246   6.502   4.287   5.869
 7449SOL    HW223247   6.395   4.166   5.848
 7450SOL     OW23248   5.728   2.182   6.505
 7450SOL    HW123249   5.648   2.184   6.445
 7450SOL    HW223250   5.809   2.210   6.454
 7451SOL     OW23251   4.591   4.334   3.132
 7451SOL    HW123252   4.676   4.307   3.176
 7451SOL    HW223253   4.555   4.416   3.176
 7452SOL     OW23254   6.389   5.384   5.985
 7452SOL    HW123255   6.354   5.477   5.996
 7452SOL    HW223256   6.388   5.337   6.073
 7453SOL     OW23257   4.107   6.072   6.051
 7453SOL    HW123258   4.081   6.098   6.144
 7453SOL    HW223259   4.180   6.132   6.019
 7454SOL     OW23260   3.447   2.320   1.433
 7454SOL    HW123261   3.467   2.416   1.413
 7454SOL    HW223262   3.533   2.272   1.452
 7455SOL     OW23263   6.833   1.096   3.152
 7455SOL    HW123264   6.807   1.061   3.061
 7455SOL    HW223265   6.921   1.143   3.146
 7456SOL     OW23266   2.978   1.997   6.157
 7456SOL    HW123267   2.983   1.897   6.152
 7456SOL    HW223268   2.902   2.029   6.100
 7457SOL     OW23269   1.097   1.039   2.652
 7457SOL    HW123270   1.174   1.079   2.701
 7457SOL    HW223271   1.117   1.040   2.554
 7458SOL     OW23272   1.554   5.538   5.398
 7458SOL    HW123273   1.619   5.499   5.334
 7458SOL    HW223274   1.599   5.555   5.486
 7459SOL     OW23275   5.661   0.292   3.338
 7459SOL    HW123276   5.652   0.354   3.416
 7459SOL    HW223277   5.702   0.341   3.261
 7460SOL     OW23278   1.407   0.529   1.486
 7460SOL    HW123279   1.308   0.537   1.488
 7460SOL    HW223280   1.449   0.620   1.491
 7461SOL     OW23281   1.848   4.629   5.021
 7461SOL    HW123282   1.829   4.667   4.931
 7461SOL    HW223283   1.785   4.553   5.040
 7462SOL     OW23284   1.708   4.137   0.421
 7462SOL    HW123285   1.621   4.178   0.394
 7462SOL    HW223286   1.779   4.163   0.356
 7463SOL     OW23287   4.725   5.210   1.813
 7463SOL    HW123288   4.688   5.273   1.745
 7463SOL    HW223289   4.672   5.125   1.812
 7464SOL     OW23290   6.201   6.162   5.258
 7464SOL    HW123291   6.230   6.124   5.345
 7464SOL    HW223292   6.110   6.127   5.234
 7465SOL     OW23293   1.415   4.440   6.798
 7465SOL    HW123294   1.371   4.423   6.886
 7465SOL    HW223295   1.354   4.494   6.740
 7466SOL     OW23296   0.004   0.375   4.935
 7466SOL    HW123297   0.008   0.470   4.901
 7466SOL    HW223298   6.929   0.353   4.962
 7467SOL     OW23299   0.687   3.855   4.579
 7467SOL    HW123300   0.719   3.793   4.651
 7467SOL    HW223301   0.758   3.863   4.508
 7468SOL     OW23302   5.582   2.521   5.685
 7468SOL    HW123303   5.548   2.609   5.651
 7468SOL    HW223304   5.614   2.466   5.607
 7469SOL     OW23305   0.480   1.888   0.379
 7469SOL    HW123306   0.529   1.854   0.459
 7469SOL    HW223307   0.519   1.847   0.296
 7470SOL     OW23308   5.383   3.130   3.886
 7470SOL    HW123309   5.374   3.036   3.918
 7470SOL    HW223310   5.443   3.182   3.946
 7471SOL     OW23311   3.638   6.888   6.792
 7471SOL    HW123312   3.699   6.848   6.724
 7471SOL    HW223313   3.690   6.949   6.852
 7472SOL     OW23314   0.305   0.167   5.750
 7472SOL    HW123315   0.303   0.202   5.656
 7472SOL    HW223316   0.307   0.068   5.748
 7473SOL     OW23317   3.834   5.589   3.555
 7473SOL    HW123318   3.911   5.619   3.499
 7473SOL    HW223319   3.800   5.501   3.522
 7474SOL     OW23320   5.988   2.061   0.756
 7474SOL    HW123321   5.889   2.058   0.762
 7474SOL    HW223322   6.022   1.973   0.722
 7475SOL     OW23323   5.023   2.875   0.837
 7475SOL    HW123324   5.025   2.949   0.904
 7475SOL    HW223325   5.040   2.788   0.883
 7476SOL     OW23326   2.738   0.937   2.810
 7476SOL    HW123327   2.738   0.960   2.712
 7476SOL    HW223328   2.828   0.901   2.836
 7477SOL     OW23329   2.527   3.566   5.998
 7477SOL    HW123330   2.624   3.554   6.018
 7477SOL    HW223331   2.505   3.664   5.996
 7478SOL     OW23332   0.095   1.959   5.661
 7478SOL    HW123333   0.078   1.965   5.759
 7478SOL    HW223334   0.052   1.878   5.624
 7479SOL     OW23335   5.027   2.559   1.450
 7479SOL    HW123336   5.016   2.480   1.509
 7479SOL    HW223337   4.980   2.638   1.490
 7480SOL     OW23338   3.916   6.015   2.982
 7480SOL    HW123339   3.860   5.942   3.021
 7480SOL    HW223340   3.887   6.033   2.889
 7481SOL     OW23341   0.246   3.738   6.434
 7481SOL    HW123342   0.192   3.745   6.350
 7481SOL    HW223343   0.185   3.721   6.512
 7482SOL     OW23344   5.402   2.165   4.124
 7482SOL    HW123345   5.387   2.109   4.042
 7482SOL    HW223346   5.373   2.259   4.105
 7483SOL     OW23347   4.451   1.821   6.099
 7483SOL    HW123348   4.396   1.864   6.170
 7483SOL    HW223349   4.500   1.742   6.137
 7484SOL     OW23350   3.130   0.476   4.021
 7484SOL    HW123351   3.135   0.497   4.119
 7484SOL    HW223352   3.165   0.384   4.005
 7485SOL     OW23353   3.756   0.251   6.650
 7485SOL    HW123354   3.698   0.294   6.719
 7485SOL    HW223355   3.848   0.290   6.654
 7486SOL     OW23356   4.436   0.434   0.704
 7486SOL    HW123357   4.389   0.382   0.776
 7486SOL    HW223358   4.391   0.523   0.694
 7487SOL     OW23359   3.414   6.443   4.104
 7487SOL    HW123360   3.352   6.370   4.075
 7487SOL    HW223361   3.486   6.455   4.036
 7488SOL     OW23362   1.101   5.568   4.145
 7488SOL    HW123363   1.098   5.620   4.059
 7488SOL    HW223364   1.179   5.506   4.144
 7489SOL     OW23365   5.820   3.027   6.917
 7489SOL    HW123366   5.893   3.039   6.983
 7489SOL    HW223367   5.750   3.098   6.930
 7490SOL     OW23368   1.418   2.753   2.222
 7490SOL    HW123369   1.475   2.673   2.242
 7490SOL    HW223370   1.403   2.759   2.123
 7491SOL     OW23371   4.211   3.832   0.125
 7491SOL    HW123372   4.168   3.754   0.079
 7491SOL    HW223373   4.140   3.898   0.152
 7492SOL     OW23374   1.723   0.629   4.151
 7492SOL    HW123375   1.758   0.699   4.214
 7492SOL    HW223376   1.790   0.616   4.077
 7493SOL     OW23377   6.107   4.922   4.872
 7493SOL    HW123378   6.108   4.874   4.784
 7493SOL    HW223379   6.137   4.860   4.944
 7494SOL     OW23380   6.342   1.286   2.709
 7494SOL    HW123381   6.284   1.359   2.674
 7494SOL    HW223382   6.297   1.198   2.693
 7495SOL     OW23383   1.675   3.124   5.042
 7495SOL    HW123384   1.755   3.142   4.985
 7495SOL    HW223385   1.615   3.060   4.996
 7496SOL     OW23386   6.312   3.979   2.260
 7496SOL    HW123387   6.223   4.015   2.232
 7496SOL    HW223388   6.316   3.970   2.359
 7497SOL     OW23389   6.303   6.955   1.524
 7497SOL    HW123390   6.311   0.004   1.451
 7497SOL    HW223391   6.258   6.873   1.489
 7498SOL     OW23392   3.074   6.413   3.643
 7498SOL    HW123393   3.163   6.459   3.652
 7498SOL    HW223394   3.006   6.478   3.609
 7499SOL     OW23395   3.333   1.143   3.451
 7499SOL    HW123396   3.234   1.154   3.444
 7499SOL    HW223397   3.355   1.051   3.483
 7500SOL     OW23398   4.341   0.807   3.883
 7500SOL    HW123399   4.261   0.767   3.837
 7500SOL    HW223400   4.311   0.875   3.949
 7501SOL     OW23401   6.838   1.818   4.953
 7501SOL    HW123402   6.766   1.861   5.009
 7501SOL    HW223403   6.907   1.887   4.930
 7502SOL     OW23404   4.514   0.683   4.043
 7502SOL    HW123405   4.448   0.731   3.985
 7502SOL    HW223406   4.516   0.724   4.134
 7503SOL     OW23407   1.780   5.693   1.785
 7503SOL    HW123408   1.859   5.751   1.807
 7503SOL    HW223409   1.711   5.701   1.857
 7504SOL     OW23410   5.696   6.675   4.527
 7504SOL    HW123411   5.775   6.629   4.485
 7504SOL    HW223412   5.725   6.722   4.610
 7505SOL     OW23413   0.526   6.229   5.160
 7505SOL    HW123414   0.620   6.195   5.156
 7505SOL    HW223415   0.467   6.159   5.200
 7506SOL     OW23416   3.224   2.059   3.788
 7506SOL    HW123417   3.128   2.034   3.789
 7506SOL    HW223418   3.258   2.059   3.694
 7507SOL     OW23419   6.454   4.327   6.638
 7507SOL    HW123420   6.400   4.286   6.711
 7507SOL    HW223421   6.477   4.421   6.661
 7508SOL     OW23422   2.610   6.283   0.787
 7508SOL    HW123423   2.640   6.290   0.692
 7508SOL    HW223424   2.567   6.194   0.802
 7509SOL     OW23425   6.078   4.094   2.170
 7509SOL    HW123426   6.092   4.193   2.169
 7509SOL    HW223427   6.005   4.070   2.106
 7510SOL     OW23428   3.707   4.005   2.184
 7510SOL    HW123429   3.700   3.979   2.281
 7510SOL    HW223430   3.724   4.103   2.178
 7511SOL     OW23431   4.258   6.061   3.949
 7511SOL    HW123432   4.237   6.057   4.047
 7511SOL    HW223433   4.238   5.973   3.907
 7512SOL     OW23434   4.115   0.753   0.966
 7512SOL    HW123435   4.144   0.791   0.878
 7512SOL    HW223436   4.173   0.789   1.039
 7513SOL     OW23437   1.274   1.020   2.080
 7513SOL    HW123438   1.277   0.998   1.982
 7513SOL    HW223439   1.314   1.111   2.094
 7514SOL     OW23440   0.122   6.687   1.382
 7514SOL    HW123441   0.120   6.601   1.332
 7514SOL    HW223442   0.043   6.743   1.357
 7515SOL     OW23443   0.175   4.459   5.143
 7515SOL    HW123444   0.154   4.389   5.074
 7515SOL    HW223445   0.254   4.430   5.197
 7516SOL     OW23446   1.668   6.387   5.386
 7516SOL    HW123447   1.656   6.460   5.454
 7516SOL    HW223448   1.722   6.313   5.426
 7517SOL     OW23449   0.908   1.580   6.217
 7517SOL    HW123450   0.818   1.623   6.210
 7517SOL    HW223451   0.958   1.620   6.293
 7518SOL     OW23452   3.993   1.803   4.263
 7518SOL    HW123453   3.973   1.895   4.297
 7518SOL    HW223454   4.078   1.805   4.210
 7519SOL     OW23455   3.951   0.130   4.550
 7519SOL    HW123456   3.926   0.174   4.636
 7519SOL    HW223457   3.918   0.036   4.549
 7520SOL     OW23458   2.134   1.582   0.711
 7520SOL    HW123459   2.232   1.577   0.729
 7520SOL    HW223460   2.111   1.526   0.631
 7521SOL     OW23461   4.218   1.393   4.970
 7521SOL    HW123462   4.225   1.476   5.025
 7521SOL    HW223463   4.251   1.315   5.023
 7522SOL     OW23464   1.986   6.891   3.815
 7522SOL    HW123465   1.944   6.800   3.811
 7522SOL    HW223466   2.013   6.912   3.909
 7523SOL     OW23467   5.845   0.866   0.461
 7523SOL    HW123468   5.824   0.772   0.489
 7523SOL    HW223469   5.818   0.929   0.534
 7524SOL     OW23470   0.437   3.853   4.692
 7524SOL    HW123471   0.346   3.862   4.651
 7524SOL    HW223472   0.505   3.838   4.620
 7525SOL     OW23473   3.430   4.804   6.100
 7525SOL    HW123474   3.372   4.724   6.091
 7525SOL    HW223475   3.481   4.800   6.185
 7526SOL     OW23476   2.228   3.995   0.742
 7526SOL    HW123477   2.204   4.013   0.837
 7526SOL    HW223478   2.326   3.977   0.735
 7527SOL     OW23479   2.861   5.076   2.944
 7527SOL    HW123480   2.926   5.115   2.880
 7527SOL    HW223481   2.848   5.138   3.021
 7528SOL     OW23482   6.225   2.065   5.818
 7528SOL    HW123483   6.316   2.053   5.778
 7528SOL    HW223484   6.235   2.096   5.913
 7529SOL     OW23485   6.200   3.377   4.152
 7529SOL    HW123486   6.187   3.404   4.247
 7529SOL    HW223487   6.115   3.338   4.116
 7530SOL     OW23488   1.097   2.830   3.145
 7530SOL    HW123489   1.125   2.876   3.229
 7530SOL    HW223490   1.059   2.740   3.168
 7531SOL     OW23491   3.931   2.215   3.557
 7531SOL    HW123492   3.977   2.266   3.484
 7531SOL    HW223493   3.990   2.141   3.588
 7532SOL     OW23494   4.575   5.827   6.372
 7532SOL    HW123495   4.589   5.898   6.303
 7532SOL    HW223496   4.582   5.868   6.464
 7533SOL     OW23497   4.235   4.289   1.632
 7533SOL    HW123498   4.282   4.364   1.584
 7533SOL    HW223499   4.283   4.269   1.717
 7534SOL     OW23500   4.926   5.886   5.238
 7534SOL    HW123501   4.844   5.830   5.251
 7534SOL    HW223502   4.902   5.971   5.191
 7535SOL     OW23503   0.347   6.547   3.849
 7535SOL    HW123504   0.371   6.450   3.853
 7535SOL    HW223505   0.299   6.573   3.933
 7536SOL     OW23506   6.309   6.171   3.459
 7536SOL    HW123507   6.358   6.257   3.472
 7536SOL    HW223508   6.211   6.186   3.476
 7537SOL     OW23509   1.735   6.560   2.914
 7537SOL    HW123510   1.690   6.509   2.841
 7537SOL    HW223511   1.785   6.638   2.875
 7538SOL     OW23512   0.339   4.612   6.850
 7538SOL    HW123513   0.420   4.654   6.809
 7538SOL    HW223514   0.290   4.559   6.781
 7539SOL     OW23515   6.767   0.167   4.370
 7539SOL    HW123516   6.687   0.135   4.320
 7539SOL    HW223517   6.849   0.150   4.317
 7540SOL     OW23518   5.314   4.635   3.110
 7540SOL    HW123519   5.251   4.558   3.126
 7540SOL    HW223520   5.294   4.676   3.021
 7541SOL     OW23521   2.686   4.123   5.936
 7541SOL    HW123522   2.618   4.191   5.964
 7541SOL    HW223523   2.649   4.067   5.862
 7542SOL     OW23524   5.827   5.766   4.718
 7542SOL    HW123525   5.889   5.701   4.674
 7542SOL    HW223526   5.881   5.839   4.761
 7543SOL     OW23527   2.315   1.465   0.306
 7543SOL    HW123528   2.316   1.516   0.393
 7543SOL    HW223529   2.286   1.526   0.232
 7544SOL     OW23530   6.542   1.176   4.465
 7544SOL    HW123531   6.622   1.198   4.522
 7544SOL    HW223532   6.468   1.144   4.524
 7545SOL     OW23533   1.940   5.461   5.731
 7545SOL    HW123534   1.890   5.413   5.804
 7545SOL    HW223535   2.037   5.436   5.735
 7546SOL     OW23536   2.343   2.682   1.927
 7546SOL    HW123537   2.316   2.778   1.932
 7546SOL    HW223538   2.433   2.674   1.884
 7547SOL     OW23539   4.045   0.140   1.757
 7547SOL    HW123540   3.990   0.063   1.723
 7547SOL    HW223541   4.017   0.224   1.709
 7548SOL     OW23542   2.936   2.458   6.551
 7548SOL    HW123543   2.961   2.381   6.491
 7548SOL    HW223544   2.884   2.525   6.499
 7549SOL     OW23545   5.054   0.520   4.565
 7549SOL    HW123546   4.987   0.481   4.628
 7549SOL    HW223547   5.010   0.586   4.505
 7550SOL     OW23548   2.551   5.811   4.447
 7550SOL    HW123549   2.574   5.795   4.543
 7550SOL    HW223550   2.464   5.860   4.441
 7551SOL     OW23551   6.318   2.697   6.158
 7551SOL    HW123552   6.230   2.721   6.118
 7551SOL    HW223553   6.384   2.676   6.085
 7552SOL     OW23554   2.364   6.515   4.834
 7552SOL    HW123555   2.394   6.501   4.929
 7552SOL    HW223556   2.438   6.488   4.772
 7553SOL     OW23557   6.544   6.346   5.808
 7553SOL    HW123558   6.464   6.374   5.860
 7553SOL    HW223559   6.584   6.425   5.762
 7554SOL     OW23560   4.889   1.664   0.670
 7554SOL    HW123561   4.861   1.760   0.683
 7554SOL    HW223562   4.815   1.604   0.703
 7555SOL     OW23563   4.584   4.853   4.239
 7555SOL    HW123564   4.525   4.774   4.256
 7555SOL    HW223565   4.671   4.840   4.286
 7556SOL     OW23566   1.215   6.233   1.664
 7556SOL    HW123567   1.268   6.183   1.732
 7556SOL    HW223568   1.161   6.304   1.709
 7557SOL     OW23569   4.518   6.945   1.391
 7557SOL    HW123570   4.563   0.014   1.377
 7557SOL    HW223571   4.578   6.871   1.359
 7558SOL     OW23572   0.566   1.882   3.174
 7558SOL    HW123573   0.507   1.814   3.218
 7558SOL    HW223574   0.519   1.970   3.169
 7559SOL     OW23575   2.922   1.280   4.883
 7559SOL    HW123576   2.865   1.304   4.804
 7559SOL    HW223577   2.867   1.231   4.951
 7560SOL     OW23578   1.058   1.161   5.928
 7560SOL    HW123579   1.152   1.192   5.914
 7560SOL    HW223580   1.010   1.224   5.989
 7561SOL     OW23581   5.159   1.102   5.654
 7561SOL    HW123582   5.076   1.061   5.693
 7561SOL    HW223583   5.150   1.105   5.554
 7562SOL     OW23584   2.181   5.681   3.330
 7562SOL    HW123585   2.197   5.617   3.405
 7562SOL    HW223586   2.268   5.702   3.285
 7563SOL     OW23587   3.555   5.929   3.067
 7563SOL    HW123588   3.576   5.982   3.150
 7563SOL    HW223589   3.480   5.866   3.087
 7564SOL     OW23590   4.269   1.981   5.214
 7564SOL    HW123591   4.202   1.922   5.169
 7564SOL    HW223592   4.353   1.985   5.160
 7565SOL     OW23593   6.691   3.022   5.861
 7565SOL    HW123594   6.601   3.058   5.884
 7565SOL    HW223595   6.703   3.025   5.762
 7566SOL     OW23596   4.934   4.551   1.876
 7566SOL    HW123597   4.961   4.629   1.819
 7566SOL    HW223598   5.009   4.485   1.880
 7567SOL     OW23599   1.139   0.107   4.673
 7567SOL    HW123600   1.128   0.165   4.754
 7567SOL    HW223601   1.146   0.164   4.592
 7568SOL     OW23602   5.950   4.342   1.486
 7568SOL    HW123603   5.880   4.272   1.472
 7568SOL    HW223604   6.039   4.305   1.458
 7569SOL     OW23605   4.790   3.615   0.269
 7569SOL    HW123606   4.756   3.624   0.362
 7569SOL    HW223607   4.737   3.545   0.221
 7570SOL     OW23608   1.083   3.460   1.734
 7570SOL    HW123609   1.067   3.395   1.659
 7570SOL    HW223610   1.033   3.431   1.815
 7571SOL     OW23611   4.542   1.475   2.738
 7571SOL    HW123612   4.477   1.548   2.759
 7571SOL    HW223613   4.518   1.393   2.790
 7572SOL     OW23614   5.026   6.986   4.294
 7572SOL    HW123615   5.037   6.887   4.307
 7572SOL    HW223616   4.929   7.009   4.287
 7573SOL     OW23617   4.237   6.660   6.135
 7573SOL    HW123618   4.311   6.618   6.187
 7573SOL    HW223619   4.272   6.742   6.088
 7574SOL     OW23620   0.452   2.514   4.139
 7574SOL    HW123621   0.496   2.435   4.096
 7574SOL    HW223622   0.493   2.598   4.104
 7575SOL     OW23623   6.913   6.588   1.638
 7575SOL    HW123624   6.904   6.533   1.721
 7575SOL    HW223625   6.879   6.536   1.560
 7576SOL     OW23626   4.814   2.287   6.770
 7576SOL    HW123627   4.890   2.282   6.834
 7576SOL    HW223628   4.793   2.383   6.750
 7577SOL     OW23629   0.952   0.301   6.917
 7577SOL    HW123630   0.885   0.310   6.843
 7577SOL    HW223631   0.917   0.346   6.999
 7578SOL     OW23632   6.436   6.490   3.456
 7578SOL    HW123633   6.454   6.581   3.494
 7578SOL    HW223634   6.429   6.496   3.357
 7579SOL     OW23635   0.917   1.847   6.806
 7579SOL    HW123636   1.015   1.833   6.811
 7579SOL    HW223637   0.873   1.809   6.887
 7580SOL     OW23638   2.578   5.551   3.128
 7580SOL    HW123639   2.667   5.531   3.086
 7580SOL    HW223640   2.513   5.579   3.057
 7581SOL     OW23641   6.867   0.202   1.654
 7581SOL    HW123642   6.881   0.191   1.753
 7581SOL    HW223643   6.948   0.170   1.605
 7582SOL     OW23644   2.481   1.850   6.049
 7582SOL    HW123645   2.433   1.871   6.134
 7582SOL    HW223646   2.539   1.769   6.062
 7583SOL     OW23647   5.708   3.158   2.263
 7583SOL    HW123648   5.627   3.185   2.315
 7583SOL    HW223649   5.787   3.211   2.293
 7584SOL     OW23650   0.751   1.145   3.643
 7584SOL    HW123651   0.696   1.136   3.559
 7584SOL    HW223652   0.844   1.114   3.625
 7585SOL     OW23653   1.159   1.581   6.060
 7585SOL    HW123654   1.137   1.530   5.977
 7585SOL    HW223655   1.093   1.560   6.132
 7586SOL     OW23656   2.020   6.723   4.066
 7586SOL    HW123657   2.099   6.663   4.055
 7586SOL    HW223658   1.958   6.710   3.988
 7587SOL     OW23659   4.754   0.239   1.722
 7587SOL    HW123660   4.848   0.207   1.718
 7587SOL    HW223661   4.752   0.335   1.747
 7588SOL     OW23662   2.254   2.831   4.286
 7588SOL    HW123663   2.175   2.781   4.249
 7588SOL    HW223664   2.324   2.765   4.315
 7589SOL     OW23665   0.038   0.580   2.781
 7589SOL    HW123666   0.064   0.538   2.868
 7589SOL    HW223667   7.017   0.511   2.722
 7590SOL     OW23668   6.236   1.142   0.346
 7590SOL    HW123669   6.319   1.087   0.337
 7590SOL    HW223670   6.163   1.102   0.290
 7591SOL     OW23671   3.045   3.996   4.627
 7591SOL    HW123672   3.017   4.090   4.645
 7591SOL    HW223673   3.050   3.982   4.528
 7592SOL     OW23674   0.180   6.269   3.813
 7592SOL    HW123675   0.229   6.297   3.731
 7592SOL    HW223676   0.109   6.336   3.833
 7593SOL     OW23677   0.125   1.225   5.829
 7593SOL    HW123678   0.139   1.318   5.797
 7593SOL    HW223679   0.039   1.190   5.791
 7594SOL     OW23680   6.825   3.734   5.852
 7594SOL    HW123681   6.828   3.826   5.893
 7594SOL    HW223682   6.917   3.695   5.850
 7595SOL     OW23683   0.601   3.434   6.539
 7595SOL    HW123684   0.589   3.464   6.444
 7595SOL    HW223685   0.622   3.514   6.597
 7596SOL     OW23686   2.828   1.426   0.200
 7596SOL    HW123687   2.737   1.466   0.188
 7596SOL    HW223688   2.894   1.478   0.147
 7597SOL     OW23689   2.269   5.061   1.100
 7597SOL    HW123690   2.280   5.122   1.177
 7597SOL    HW223691   2.201   5.099   1.036
 7598SOL     OW23692   5.806   0.895   2.134
 7598SOL    HW123693   5.882   0.958   2.123
 7598SOL    HW223694   5.754   0.889   2.049
 7599SOL     OW23695   3.099   3.590   0.983
 7599SOL    HW123696   3.128   3.662   1.046
 7599SOL    HW223697   3.016   3.547   1.019
 7600SOL     OW23698   0.892   7.010   4.160
 7600SOL    HW123699   0.796   6.991   4.140
 7600SOL    HW223700   0.898   0.043   4.245
 7601SOL     OW23701   2.668   6.734   1.263
 7601SOL    HW123702   2.649   6.827   1.296
 7601SOL    HW223703   2.652   6.730   1.164
 7602SOL     OW23704   1.020   1.310   0.720
 7602SOL    HW123705   1.029   1.410   0.720
 7602SOL    HW223706   1.110   1.269   0.704
 7603SOL     OW23707   4.181   0.987   6.084
 7603SOL    HW123708   4.087   0.985   6.120
 7603SOL    HW223709   4.212   1.082   6.080
 7604SOL     OW23710   1.838   2.504   4.800
 7604SOL    HW123711   1.902   2.463   4.735
 7604SOL    HW223712   1.773   2.562   4.751
 7605SOL     OW23713   2.642   6.505   6.876
 7605SOL    HW123714   2.725   6.513   6.820
 7605SOL    HW223715   2.568   6.467   6.820
 7606SOL     OW23716   0.135   0.433   3.415
 7606SOL    HW123717   0.069   0.472   3.351
 7606SOL    HW223718   0.227   0.438   3.375
 7607SOL     OW23719   1.783   5.954   5.653
 7607SOL    HW123720   1.761   5.878   5.592
 7607SOL    HW223721   1.882   5.961   5.664
 7608SOL     OW23722   0.168   2.265   6.390
 7608SOL    HW123723   0.167   2.361   6.419
 7608SOL    HW223724   0.263   2.236   6.377
 7609SOL     OW23725   3.157   1.103   4.878
 7609SOL    HW123726   3.159   1.072   4.973
 7609SOL    HW223727   3.089   1.176   4.869
 7610SOL     OW23728   4.065   4.781   4.554
 7610SOL    HW123729   4.076   4.713   4.627
 7610SOL    HW223730   4.142   4.774   4.490
 7611SOL     OW23731   4.510   2.518   0.397
 7611SOL    HW123732   4.477   2.611   0.386
 7611SOL    HW223733   4.604   2.511   0.362
 7612SOL     OW23734   3.967   2.102   2.951
 7612SOL    HW123735   4.029   2.175   2.979
 7612SOL    HW223736   3.908   2.135   2.877
 7613SOL     OW23737   0.891   0.443   0.146
 7613SOL    HW123738   0.852   0.535   0.155
 7613SOL    HW223739   0.856   0.385   0.219
 7614SOL     OW23740   5.533   4.695   0.715
 7614SOL    HW123741   5.487   4.742   0.791
 7614SOL    HW223742   5.487   4.716   0.629
 7615SOL     OW23743   6.315   3.272   5.481
 7615SOL    HW123744   6.292   3.282   5.384
 7615SOL    HW223745   6.388   3.336   5.506
 7616SOL     OW23746   6.873   6.687   2.695
 7616SOL    HW123747   6.964   6.679   2.736
 7616SOL    HW223748   6.829   6.597   2.695
 7617SOL     OW23749   6.744   4.087   2.624
 7617SOL    HW123750   6.695   4.041   2.550
 7617SOL    HW223751   6.738   4.186   2.611
 7618SOL     OW23752   2.614   2.619   0.636
 7618SOL    HW123753   2.638   2.575   0.550
 7618SOL    HW223754   2.542   2.567   0.681
 7619SOL     OW23755   1.316   1.203   4.570
 7619SOL    HW123756   1.393   1.153   4.609
 7619SOL    HW223757   1.243   1.210   4.638
 7620SOL     OW23758   3.133   3.335   0.908
 7620SOL    HW123759   3.205   3.286   0.957
 7620SOL    HW223760   3.151   3.433   0.910
 7621SOL     OW23761   5.792   4.539   6.619
 7621SOL    HW123762   5.743   4.466   6.571
 7621SOL    HW223763   5.738   4.570   6.697
 7622SOL     OW23764   3.266   3.718   1.596
 7622SOL    HW123765   3.258   3.772   1.680
 7622SOL    HW223766   3.252   3.777   1.517
 7623SOL     OW23767   5.348   3.824   1.690
 7623SOL    HW123768   5.400   3.904   1.721
 7623SOL    HW223769   5.409   3.763   1.639
 7624SOL     OW23770   0.699   3.470   2.429
 7624SOL    HW123771   0.687   3.544   2.495
 7624SOL    HW223772   0.733   3.388   2.476
 7625SOL     OW23773   5.389   0.588   2.051
 7625SOL    HW123774   5.293   0.569   2.071
 7625SOL    HW223775   5.438   0.604   2.137
 7626SOL     OW23776   4.450   0.054   0.316
 7626SOL    HW123777   4.475   0.134   0.370
 7626SOL    HW223778   4.500   0.055   0.229
 7627SOL     OW23779   4.234   3.006   5.744
 7627SOL    HW123780   4.329   2.999   5.714
 7627SOL    HW223781   4.216   3.100   5.774
 7628SOL     OW23782   2.760   3.019   0.533
 7628SOL    HW123783   2.821   3.098   0.530
 7628SOL    HW223784   2.666   3.049   0.517
 7629SOL     OW23785   6.441   2.360   3.611
 7629SOL    HW123786   6.445   2.295   3.535
 7629SOL    HW223787   6.401   2.446   3.578
 7630SOL     OW23788   1.321   6.087   3.926
 7630SOL    HW123789   1.406   6.117   3.882
 7630SOL    HW223790   1.244   6.104   3.864
 7631SOL     OW23791   1.052   0.643   5.724
 7631SOL    HW123792   0.996   0.573   5.769
 7631SOL    HW223793   0.992   0.716   5.691
 7632SOL     OW23794   4.535   5.696   1.402
 7632SOL    HW123795   4.615   5.710   1.461
 7632SOL    HW223796   4.452   5.709   1.455
 7633SOL     OW23797   5.911   1.190   1.665
 7633SOL    HW123798   5.992   1.200   1.606
 7633SOL    HW223799   5.879   1.280   1.693
 7634SOL     OW23800   0.508   1.945   6.614
 7634SOL    HW123801   0.456   1.959   6.698
 7634SOL    HW223802   0.466   1.998   6.540
 7635SOL     OW23803   2.033   3.412   5.469
 7635SOL    HW123804   2.090   3.475   5.522
 7635SOL    HW223805   2.086   3.331   5.444
 7636SOL     OW23806   0.031   3.665   3.914
 7636SOL    HW123807   0.071   3.575   3.894
 7636SOL    HW223808   0.061   3.731   3.846
 7637SOL     OW23809   0.521   4.563   5.022
 7637SOL    HW123810   0.461   4.641   5.037
 7637SOL    HW223811   0.511   4.497   5.097
 7638SOL     OW23812   0.465   5.819   1.177
 7638SOL    HW123813   0.384   5.824   1.118
 7638SOL    HW223814   0.443   5.763   1.258
 7639SOL     OW23815   1.903   0.041   0.639
 7639SOL    HW123816   1.806   0.024   0.623
 7639SOL    HW223817   1.935   7.001   0.714
 7640SOL     OW23818   3.236   1.187   1.045
 7640SOL    HW123819   3.334   1.180   1.032
 7640SOL    HW223820   3.189   1.127   0.979
 7641SOL     OW23821   0.290   5.152   4.987
 7641SOL    HW123822   0.300   5.199   5.074
 7641SOL    HW223823   0.264   5.056   5.004
 7642SOL     OW23824   5.347   0.956   3.819
 7642SOL    HW123825   5.287   1.034   3.803
 7642SOL    HW223826   5.397   0.934   3.736
 7643SOL     OW23827   5.364   3.469   4.871
 7643SOL    HW123828   5.312   3.429   4.796
 7643SOL    HW223829   5.445   3.516   4.835
 7644SOL     OW23830   5.170   4.122   0.813
 7644SOL    HW123831   5.176   4.076   0.902
 7644SOL    HW223832   5.223   4.206   0.816
 7645SOL     OW23833   4.545   5.047   0.195
 7645SOL    HW123834   4.449   5.018   0.204
 7645SOL    HW223835   4.571   5.045   0.098
 7646SOL     OW23836   0.163   2.210   1.192
 7646SOL    HW123837   0.177   2.128   1.137
 7646SOL    HW223838   0.233   2.278   1.170
 7647SOL     OW23839   0.040   2.229   4.053
 7647SOL    HW123840   6.995   2.305   4.042
 7647SOL    HW223841   0.133   2.264   4.050
 7648SOL     OW23842   2.104   2.606   1.751
 7648SOL    HW123843   2.149   2.525   1.714
 7648SOL    HW223844   2.151   2.637   1.833
 7649SOL     OW23845   4.017   0.614   0.333
 7649SOL    HW123846   4.068   0.547   0.387
 7649SOL    HW223847   4.062   0.703   0.341
 7650SOL     OW23848   3.573   2.436   0.281
 7650SOL    HW123849   3.554   2.446   0.183
 7650SOL    HW223850   3.662   2.392   0.293
 7651SOL     OW23851   3.635   5.529   6.099
 7651SOL    HW123852   3.561   5.469   6.069
 7651SOL    HW223853   3.600   5.621   6.113
 7652SOL     OW23854   1.222   0.904   4.914
 7652SOL    HW123855   1.150   0.841   4.886
 7652SOL    HW223856   1.219   0.916   5.013
 7653SOL     OW23857   2.044   6.991   0.278
 7653SOL    HW123858   2.084   0.008   0.193
 7653SOL    HW223859   2.057   0.038   0.351
 7654SOL     OW23860   6.816   2.080   5.814
 7654SOL    HW123861   6.833   2.102   5.718
 7654SOL    HW223862   6.727   2.116   5.841
 7655SOL     OW23863   3.585   1.767   5.027
 7655SOL    HW123864   3.639   1.840   4.985
 7655SOL    HW223865   3.546   1.800   5.113
 7656SOL     OW23866   5.806   3.944   6.641
 7656SOL    HW123867   5.841   3.903   6.726
 7656SOL    HW223868   5.732   4.007   6.663
 7657SOL     OW23869   1.039   3.939   4.791
 7657SOL    HW123870   1.026   3.919   4.889
 7657SOL    HW223871   1.069   3.857   4.743
 7658SOL     OW23872   2.614   0.869   1.333
 7658SOL    HW123873   2.665   0.798   1.383
 7658SOL    HW223874   2.639   0.864   1.236
 7659SOL     OW23875   5.051   4.792   5.753
 7659SOL    HW123876   5.141   4.773   5.713
 7659SOL    HW223877   5.005   4.862   5.698
 7660SOL     OW23878   6.648   6.569   5.700
 7660SOL    HW123879   6.656   6.621   5.615
 7660SOL    HW223880   6.718   6.599   5.765
 7661SOL     OW23881   3.074   0.832   5.458
 7661SOL    HW123882   2.990   0.835   5.403
 7661SOL    HW223883   3.145   0.886   5.413
 7662SOL     OW23884   0.003   5.856   1.035
 7662SOL    HW123885   6.980   5.772   1.069
 7662SOL    HW223886   0.032   5.913   1.112
 7663SOL     OW23887   0.689   5.586   4.479
 7663SOL    HW123888   0.692   5.686   4.474
 7663SOL    HW223889   0.757   5.554   4.545
 7664SOL     OW23890   4.637   2.082   2.260
 7664SOL    HW123891   4.660   2.006   2.321
 7664SOL    HW223892   4.556   2.059   2.207
 7665SOL     OW23893   3.364   0.774   5.630
 7665SOL    HW123894   3.304   0.854   5.634
 7665SOL    HW223895   3.376   0.746   5.535
 7666SOL     OW23896   5.173   5.375   3.839
 7666SOL    HW123897   5.162   5.335   3.931
 7666SOL    HW223898   5.101   5.341   3.779
 7667SOL     OW23899   4.026   6.271   2.094
 7667SOL    HW123900   3.934   6.301   2.070
 7667SOL    HW223901   4.025   6.228   2.184
 7668SOL     OW23902   1.649   5.873   0.451
 7668SOL    HW123903   1.724   5.872   0.385
 7668SOL    HW223904   1.584   5.945   0.426
 7669SOL     OW23905   2.652   1.647   6.693
 7669SOL    HW123906   2.633   1.599   6.779
 7669SOL    HW223907   2.701   1.732   6.711
 7670SOL     OW23908   0.871   0.501   0.849
 7670SOL    HW123909   0.864   0.411   0.892
 7670SOL    HW223910   0.828   0.569   0.908
 7671SOL     OW23911   2.962   6.955   1.650
 7671SOL    HW123912   2.925   7.002   1.569
 7671SOL    HW223913   2.949   7.013   1.730
 7672SOL     OW23914   5.515   3.497   2.241
 7672SOL    HW123915   5.437   3.539   2.195
 7672SOL    HW223916   5.482   3.422   2.299
 7673SOL     OW23917   1.822   6.927   4.596
 7673SOL    HW123918   1.862   6.935   4.505
 7673SOL    HW223919   1.873   6.859   4.649
 7674SOL     OW23920   3.852   5.520   4.578
 7674SOL    HW123921   3.880   5.579   4.503
 7674SOL    HW223922   3.931   5.498   4.635
 7675SOL     OW23923   4.462   6.629   3.228
 7675SOL    HW123924   4.466   6.715   3.280
 7675SOL    HW223925   4.434   6.649   3.134
 7676SOL     OW23926   3.225   2.927   4.877
 7676SOL    HW123927   3.222   2.840   4.828
 7676SOL    HW223928   3.310   2.932   4.931
 7677SOL     OW23929   6.817   4.935   6.814
 7677SOL    HW123930   6.833   4.848   6.861
 7677SOL    HW223931   6.793   5.006   6.880
 7678SOL     OW23932   3.566   1.416   5.428
 7678SOL    HW123933   3.549   1.338   5.368
 7678SOL    HW223934   3.607   1.384   5.513
 7679SOL     OW23935   2.775   5.112   4.617
 7679SOL    HW123936   2.799   5.144   4.525
 7679SOL    HW223937   2.856   5.118   4.676
 7680SOL     OW23938   2.217   6.975   4.075
 7680SOL    HW123939   2.232   6.886   4.119
 7680SOL    HW223940   2.275   6.982   3.994
 7681SOL     OW23941   2.039   2.255   5.370
 7681SOL    HW123942   2.103   2.220   5.301
 7681SOL    HW223943   2.084   2.327   5.423
 7682SOL     OW23944   3.366   0.958   2.237
 7682SOL    HW123945   3.326   1.036   2.187
 7682SOL    HW223946   3.317   0.875   2.213
 7683SOL     OW23947   0.666   4.716   4.678
 7683SOL    HW123948   0.692   4.769   4.759
 7683SOL    HW223949   0.739   4.651   4.657
 7684SOL     OW23950   5.290   2.891   1.506
 7684SOL    HW123951   5.328   2.858   1.593
 7684SOL    HW223952   5.213   2.833   1.481
 7685SOL     OW23953   2.814   0.527   0.569
 7685SOL    HW123954   2.846   0.615   0.604
 7685SOL    HW223955   2.854   0.510   0.479
 7686SOL     OW23956   7.004   0.150   4.224
 7686SOL    HW123957   0.033   0.233   4.194
 7686SOL    HW223958   0.029   0.070   4.184
 7687SOL     OW23959   4.852   3.145   6.099
 7687SOL    HW123960   4.924   3.077   6.082
 7687SOL    HW223961   4.770   3.120   6.046
 7688SOL     OW23962   5.672   2.736   6.913
 7688SOL    HW123963   5.771   2.738   6.900
 7688SOL    HW223964   5.627   2.720   6.826
 7689SOL     OW23965   5.806   0.338   2.324
 7689SOL    HW123966   5.782   0.402   2.251
 7689SOL    HW223967   5.836   0.388   2.405
 7690SOL     OW23968   5.443   4.873   2.226
 7690SOL    HW123969   5.445   4.973   2.217
 7690SOL    HW223970   5.510   4.833   2.163
 7691SOL     OW23971   5.129   3.054   4.080
 7691SOL    HW123972   5.178   3.015   4.158
 7691SOL    HW223973   5.077   2.983   4.034
 7692SOL     OW23974   2.771   6.578   2.013
 7692SOL    HW123975   2.693   6.628   1.976
 7692SOL    HW223976   2.856   6.615   1.976
 7693SOL     OW23977   2.867   1.600   1.647
 7693SOL    HW123978   2.925   1.679   1.666
 7693SOL    HW223979   2.873   1.576   1.550
 7694SOL     OW23980   4.072   2.517   6.891
 7694SOL    HW123981   4.035   2.509   6.798
 7694SOL    HW223982   4.048   2.607   6.929
 7695SOL     OW23983   5.047   6.800   3.734
 7695SOL    HW123984   5.136   6.783   3.692
 7695SOL    HW223985   5.057   6.871   3.804
 7696SOL     OW23986   2.651   2.338   5.471
 7696SOL    HW123987   2.627   2.328   5.568
 7696SOL    HW223988   2.587   2.402   5.428
 7697SOL     OW23989   5.934   6.736   3.045
 7697SOL    HW123990   5.851   6.687   3.073
 7697SOL    HW223991   5.911   6.830   3.022
 7698SOL     OW23992   6.482   2.569   1.098
 7698SOL    HW123993   6.541   2.608   1.170
 7698SOL    HW223994   6.413   2.637   1.073
 7699SOL     OW23995   4.062   6.569   5.632
 7699SOL    HW123996   4.019   6.542   5.546
 7699SOL    HW223997   4.065   6.491   5.694
 7700SOL     OW23998   6.102   5.448   1.607
 7700SOL    HW123999   6.152   5.430   1.692
 7700SOL    HW224000   6.163   5.433   1.529
 7701SOL     OW24001   2.230   1.599   6.646
 7701SOL    HW124002   2.178   1.665   6.591
 7701SOL    HW224003   2.299   1.555   6.588
 7702SOL     OW24004   5.554   6.548   5.541
 7702SOL    HW124005   5.512   6.464   5.576
 7702SOL    HW224006   5.542   6.552   5.442
 7703SOL     OW24007   0.060   6.325   5.518
 7703SOL    HW124008   0.054   6.277   5.606
 7703SOL    HW224009   0.153   6.360   5.505
 7704SOL     OW24010   1.847   1.626   4.625
 7704SOL    HW124011   1.770   1.689   4.628
 7704SOL    HW224012   1.878   1.607   4.718
 7705SOL     OW24013   0.317   4.212   0.030
 7705SOL    HW124014   0.379   4.212   6.971
 7705SOL    HW224015   0.230   4.255   0.005
 7706SOL     OW24016   3.288   3.311   2.464
 7706SOL    HW124017   3.189   3.318   2.476
 7706SOL    HW224018   3.309   3.227   2.413
 7707SOL     OW24019   6.916   4.264   6.515
 7707SOL    HW124020   6.950   4.310   6.434
 7707SOL    HW224021   6.889   4.331   6.584
 7708SOL     OW24022   0.862   0.134   4.634
 7708SOL    HW124023   0.806   0.052   4.640
 7708SOL    HW224024   0.952   0.117   4.676
 7709SOL     OW24025   6.592   4.505   0.850
 7709SOL    HW124026   6.600   4.600   0.821
 7709SOL    HW224027   6.500   4.472   0.833
 7710SOL     OW24028   6.554   3.257   2.035
 7710SOL    HW124029   6.483   3.327   2.022
 7710SOL    HW224030   6.636   3.283   1.983
 7711SOL     OW24031   0.972   4.495   3.888
 7711SOL    HW124032   1.042   4.510   3.818
 7711SOL    HW224033   0.894   4.448   3.848
 7712SOL     OW24034   0.552   4.895   4.494
 7712SOL    HW124035   0.597   4.828   4.552
 7712SOL    HW224036   0.500   4.959   4.550
 7713SOL     OW24037   0.810   4.809   0.826
 7713SOL    HW124038   0.862   4.742   0.879
 7713SOL    HW224039   0.797   4.891   0.881
 7714SOL     OW24040   6.107   1.685   5.258
 7714SOL    HW124041   6.100   1.666   5.356
 7714SOL    HW224042   6.194   1.651   5.223
 7715SOL     OW24043   3.445   2.672   6.483
 7715SOL    HW124044   3.357   2.627   6.497
 7715SOL    HW224045   3.437   2.770   6.503
 7716SOL     OW24046   1.323   6.987   6.378
 7716SOL    HW124047   1.343   7.011   6.283
 7716SOL    HW224048   1.279   6.898   6.382
 7717SOL     OW24049   0.651   1.694   6.223
 7717SOL    HW124050   0.577   1.629   6.207
 7717SOL    HW224051   0.633   1.779   6.175
 7718SOL     OW24052   0.240   3.355   2.758
 7718SOL    HW124053   0.233   3.269   2.708
 7718SOL    HW224054   0.154   3.374   2.805
 7719SOL     OW24055   1.864   5.659   5.311
 7719SOL    HW124056   1.852   5.624   5.404
 7719SOL    HW224057   1.951   5.707   5.305
 7720SOL     OW24058   4.689   1.564   6.795
 7720SOL    HW124059   4.646   1.652   6.779
 7720SOL    HW224060   4.789   1.575   6.794
 7721SOL     OW24061   5.875   5.585   2.204
 7721SOL    HW124062   5.818   5.554   2.281
 7721SOL    HW224063   5.966   5.545   2.211
 7722SOL     OW24064   0.668   6.100   4.235
 7722SOL    HW124065   0.676   6.125   4.138
 7722SOL    HW224066   0.757   6.074   4.271
 7723SOL     OW24067   4.317   4.255   0.043
 7723SOL    HW124068   4.385   4.313   0.088
 7723SOL    HW224069   4.316   4.165   0.088
 7724SOL     OW24070   1.380   3.725   0.044
 7724SOL    HW124071   1.373   3.626   0.053
 7724SOL    HW224072   1.403   3.749   6.969
 7725SOL     OW24073   5.741   3.692   4.397
 7725SOL    HW124074   5.741   3.600   4.436
 7725SOL    HW224075   5.667   3.699   4.330
 7726SOL     OW24076   2.149   3.323   6.630
 7726SOL    HW124077   2.152   3.291   6.725
 7726SOL    HW224078   2.118   3.418   6.628
 7727SOL     OW24079   5.346   0.684   2.582
 7727SOL    HW124080   5.307   0.643   2.665
 7727SOL    HW224081   5.389   0.612   2.527
 7728SOL     OW24082   2.134   3.401   4.515
 7728SOL    HW124083   2.102   3.492   4.542
 7728SOL    HW224084   2.120   3.337   4.591
 7729SOL     OW24085   0.107   1.041   2.677
 7729SOL    HW124086   0.100   1.129   2.725
 7729SOL    HW224087   0.069   0.969   2.735
 7730SOL     OW24088   5.836   4.813   5.420
 7730SOL    HW124089   5.836   4.714   5.405
 7730SOL    HW224090   5.924   4.851   5.393
 7731SOL     OW24091   6.884   0.297   5.847
 7731SOL    HW124092   6.922   0.376   5.895
 7731SOL    HW224093   6.784   0.304   5.844
 7732SOL     OW24094   4.811   0.988   0.121
 7732SOL    HW124095   4.746   1.025   0.055
 7732SOL    HW224096   4.826   0.891   0.102
 7733SOL     OW24097   6.816   5.653   1.116
 7733SOL    HW124098   6.780   5.670   1.208
 7733SOL    HW224099   6.746   5.610   1.059
 7734SOL     OW24100   4.131   3.715   3.296
 7734SOL    HW124101   4.061   3.643   3.295
 7734SOL    HW224102   4.137   3.754   3.388
 7735SOL     OW24103   0.979   5.899   0.969
 7735SOL    HW124104   1.068   5.944   0.975
 7735SOL    HW224105   0.951   5.894   0.873
 7736SOL     OW24106   1.866   1.995   0.346
 7736SOL    HW124107   1.932   1.947   0.288
 7736SOL    HW224108   1.893   2.090   0.357
 7737SOL     OW24109   4.307   4.385   6.795
 7737SOL    HW124110   4.306   4.358   6.892
 7737SOL    HW224111   4.379   4.333   6.747
 7738SOL     OW24112   1.311   0.965   5.424
 7738SOL    HW124113   1.407   0.961   5.453
 7738SOL    HW224114   1.253   0.936   5.500
 7739SOL     OW24115   1.529   2.537   0.668
 7739SOL    HW124116   1.619   2.495   0.683
 7739SOL    HW224117   1.521   2.619   0.724
 7740SOL     OW24118   2.666   0.888   4.531
 7740SOL    HW124119   2.734   0.914   4.599
 7740SOL    HW224120   2.608   0.815   4.567
 7741SOL     OW24121   7.018   4.135   5.979
 7741SOL    HW124122   0.044   4.046   5.985
 7741SOL    HW224123   6.977   4.157   6.068
 7742SOL     OW24124   4.331   2.320   3.970
 7742SOL    HW124125   4.258   2.383   3.994
 7742SOL    HW224126   4.418   2.370   3.964
 7743SOL     OW24127   3.710   1.072   6.074
 7743SOL    HW124128   3.704   1.169   6.050
 7743SOL    HW224129   3.640   1.020   6.023
 7744SOL     OW24130   0.636   6.974   4.548
 7744SOL    HW124131   0.576   7.006   4.474
 7744SOL    HW224132   0.724   6.947   4.510
 7745SOL     OW24133   2.711   0.107   0.792
 7745SOL    HW124134   2.660   0.190   0.767
 7745SOL    HW224135   2.754   0.069   0.710
 7746SOL     OW24136   0.323   6.569   1.075
 7746SOL    HW124137   0.256   6.524   1.134
 7746SOL    HW224138   0.415   6.542   1.103
 7747SOL     OW24139   0.169   5.256   1.201
 7747SOL    HW124140   0.102   5.326   1.180
 7747SOL    HW224141   0.253   5.273   1.150
 7748SOL     OW24142   4.389   0.922   6.251
 7748SOL    HW124143   4.293   0.926   6.280
 7748SOL    HW224144   4.401   0.973   6.166
 7749SOL     OW24145   3.605   2.943   2.786
 7749SOL    HW124146   3.622   2.907   2.877
 7749SOL    HW224147   3.685   2.996   2.756
 7750SOL     OW24148   5.058   5.065   6.152
 7750SOL    HW124149   5.149   5.048   6.114
 7750SOL    HW224150   4.990   5.014   6.099
 7751SOL     OW24151   6.854   1.011   4.518
 7751SOL    HW124152   6.867   1.109   4.536
 7751SOL    HW224153   6.813   0.968   4.599
 7752SOL     OW24154   6.416   4.710   5.074
 7752SOL    HW124155   6.326   4.668   5.066
 7752SOL    HW224156   6.419   4.766   5.157
 7753SOL     OW24157   2.857   0.832   5.004
 7753SOL    HW124158   2.869   0.754   4.943
 7753SOL    HW224159   2.760   0.851   5.017
 7754SOL     OW24160   5.961   0.788   0.940
 7754SOL    HW124161   5.992   0.812   1.032
 7754SOL    HW224162   6.040   0.779   0.880
 7755SOL     OW24163   1.384   6.112   5.447
 7755SOL    HW124164   1.421   6.070   5.364
 7755SOL    HW224165   1.457   6.121   5.516
 7756SOL     OW24166   4.069   5.673   3.412
 7756SOL    HW124167   4.143   5.740   3.409
 7756SOL    HW224168   4.107   5.581   3.408
 7757SOL     OW24169   3.511   0.366   6.041
 7757SOL    HW124170   3.444   0.389   6.111
 7757SOL    HW224171   3.583   0.435   6.040
 7758SOL     OW24172   2.744   2.620   6.389
 7758SOL    HW124173   2.655   2.667   6.384
 7758SOL    HW224174   2.789   2.624   6.300
 7759SOL     OW24175   1.660   0.622   4.832
 7759SOL    HW124176   1.647   0.537   4.780
 7759SOL    HW224177   1.572   0.667   4.843
 7760SOL     OW24178   5.137   2.443   3.566
 7760SOL    HW124179   5.047   2.422   3.603
 7760SOL    HW224180   5.139   2.421   3.469
 7761SOL     OW24181   4.514   0.995   6.888
 7761SOL    HW124182   4.421   0.989   6.926
 7761SOL    HW224183   4.552   1.085   6.910
 7762SOL     OW24184   1.442   2.805   0.206
 7762SOL    HW124185   1.467   2.880   0.268
 7762SOL    HW224186   1.446   2.837   0.111
 7763SOL     OW24187   2.125   2.342   1.624
 7763SOL    HW124188   2.192   2.375   1.556
 7763SOL    HW224189   2.137   2.244   1.637
 7764SOL     OW24190   3.835   3.403   2.221
 7764SOL    HW124191   3.755   3.343   2.227
 7764SOL    HW224192   3.808   3.497   2.239
 7765SOL     OW24193   6.972   1.544   2.119
 7765SOL    HW124194   6.986   1.597   2.035
 7765SOL    HW224195   6.884   1.497   2.114
 7766SOL     OW24196   0.049   3.153   6.818
 7766SOL    HW124197   6.970   3.137   6.835
 7766SOL    HW224198   0.060   3.236   6.764
 7767SOL     OW24199   5.729   4.110   5.393
 7767SOL    HW124200   5.775   4.021   5.379
 7767SOL    HW224201   5.633   4.095   5.414
 7768SOL     OW24202   3.938   5.484   1.833
 7768SOL    HW124203   3.903   5.392   1.852
 7768SOL    HW224204   3.892   5.550   1.893
 7769SOL     OW24205   5.749   2.083   3.014
 7769SOL    HW124206   5.654   2.064   3.036
 7769SOL    HW224207   5.771   2.178   3.037
 7770SOL     OW24208   3.390   6.314   1.383
 7770SOL    HW124209   3.328   6.289   1.457
 7770SOL    HW224210   3.458   6.242   1.371
 7771SOL     OW24211   2.025   1.331   4.388
 7771SOL    HW124212   2.083   1.358   4.464
 7771SOL    HW224213   2.042   1.390   4.309
 7772SOL     OW24214   5.935   0.703   5.437
 7772SOL    HW124215   5.866   0.670   5.502
 7772SOL    HW224216   5.964   0.628   5.378
 7773SOL     OW24217   3.838   4.647   6.270
 7773SOL    HW124218   3.897   4.593   6.329
 7773SOL    HW224219   3.890   4.679   6.191
 7774SOL     OW24220   4.857   1.699   0.124
 7774SOL    HW124221   4.952   1.705   0.156
 7774SOL    HW224222   4.826   1.789   0.096
 7775SOL     OW24223   1.777   6.877   2.127
 7775SOL    HW124224   1.732   6.902   2.213
 7775SOL    HW224225   1.859   6.822   2.147
 7776SOL     OW24226   3.440   3.572   0.928
 7776SOL    HW124227   3.474   3.479   0.923
 7776SOL    HW224228   3.429   3.599   1.024
 7777SOL     OW24229   1.007   0.078   6.570
 7777SOL    HW124230   1.037   0.041   6.658
 7777SOL    HW224231   1.053   0.165   6.554
 7778SOL     OW24232   4.990   1.655   1.718
 7778SOL    HW124233   5.018   1.560   1.733
 7778SOL    HW224234   4.976   1.700   1.806
 7779SOL     OW24235   4.178   2.828   0.570
 7779SOL    HW124236   4.180   2.910   0.513
 7779SOL    HW224237   4.210   2.851   0.662
 7780SOL     OW24238   1.056   0.289   4.875
 7780SOL    HW124239   1.023   0.378   4.909
 7780SOL    HW224240   1.110   0.245   4.947
 7781SOL     OW24241   1.725   4.791   5.501
 7781SOL    HW124242   1.677   4.860   5.555
 7781SOL    HW224243   1.822   4.790   5.527
 7782SOL     OW24244   4.742   4.613   0.200
 7782SOL    HW124245   4.725   4.596   0.103
 7782SOL    HW224246   4.806   4.545   0.235
 7783SOL     OW24247   2.236   6.292   0.167
 7783SOL    HW124248   2.297   6.237   0.224
 7783SOL    HW224249   2.216   6.378   0.214
 7784SOL     OW24250   6.654   3.503   0.701
 7784SOL    HW124251   6.736   3.535   0.748
 7784SOL    HW224252   6.619   3.576   0.643
 7785SOL     OW24253   1.804   5.395   6.405
 7785SOL    HW124254   1.709   5.425   6.399
 7785SOL    HW224255   1.847   5.437   6.484
 7786SOL     OW24256   3.524   4.189   4.985
 7786SOL    HW124257   3.602   4.130   5.008
 7786SOL    HW224258   3.553   4.258   4.919
 7787SOL     OW24259   2.915   2.477   5.298
 7787SOL    HW124260   2.990   2.464   5.232
 7787SOL    HW224261   2.857   2.396   5.299
 7788SOL     OW24262   0.551   2.040   0.734
 7788SOL    HW124263   0.628   2.045   0.798
 7788SOL    HW224264   0.523   2.133   0.709
 7789SOL     OW24265   2.322   0.312   1.506
 7789SOL    HW124266   2.298   0.390   1.449
 7789SOL    HW224267   2.354   0.344   1.595
 7790SOL     OW24268   6.524   3.586   2.786
 7790SOL    HW124269   6.546   3.599   2.690
 7790SOL    HW224270   6.592   3.633   2.843
 7791SOL     OW24271   0.415   4.956   5.469
 7791SOL    HW124272   0.499   4.963   5.415
 7791SOL    HW224273   0.362   4.877   5.437
 7792SOL     OW24274   1.784   5.390   6.771
 7792SOL    HW124275   1.855   5.410   6.704
 7792SOL    HW224276   1.811   5.426   6.861
 7793SOL     OW24277   1.770   1.339   6.452
 7793SOL    HW124278   1.832   1.281   6.401
 7793SOL    HW224279   1.788   1.435   6.430
 7794SOL     OW24280   5.094   5.367   2.788
 7794SOL    HW124281   5.076   5.344   2.884
 7794SOL    HW224282   5.193   5.367   2.772
 7795SOL     OW24283   1.231   4.196   6.423
 7795SOL    HW124284   1.147   4.247   6.441
 7795SOL    HW224285   1.303   4.258   6.392
 7796SOL     OW24286   3.864   3.805   4.936
 7796SOL    HW124287   3.884   3.804   4.838
 7796SOL    HW224288   3.910   3.728   4.980
 7797SOL     OW24289   1.022   6.912   2.894
 7797SOL    HW124290   1.119   6.937   2.896
 7797SOL    HW224291   1.013   6.813   2.898
 7798SOL     OW24292   4.270   6.260   5.950
 7798SOL    HW124293   4.219   6.326   6.005
 7798SOL    HW224294   4.230   6.254   5.859
 7799SOL     OW24295   6.362   5.185   0.987
 7799SOL    HW124296   6.429   5.112   0.998
 7799SOL    HW224297   6.345   5.228   1.075
 7800SOL     OW24298   0.631   5.923   2.234
 7800SOL    HW124299   0.610   6.020   2.242
 7800SOL    HW224300   0.656   5.886   2.323
 7801SOL     OW24301   4.117   2.098   5.400
 7801SOL    HW124302   4.051   2.028   5.428
 7801SOL    HW224303   4.199   2.054   5.363
 7802SOL     OW24304   5.394   2.257   0.286
 7802SOL    HW124305   5.406   2.265   0.385
 7802SOL    HW224306   5.482   2.269   0.241
 7803SOL     OW24307   3.165   3.829   5.272
 7803SOL    HW124308   3.160   3.737   5.231
 7803SOL    HW224309   3.145   3.897   5.202
 7804SOL     OW24310   4.782   0.933   6.530
 7804SOL    HW124311   4.696   0.960   6.486
 7804SOL    HW224312   4.785   0.833   6.539
 7805SOL     OW24313   5.386   2.715   1.740
 7805SOL    HW124314   5.320   2.639   1.742
 7805SOL    HW224315   5.457   2.696   1.672
 7806SOL     OW24316   4.854   3.188   6.728
 7806SOL    HW124317   4.792   3.267   6.720
 7806SOL    HW224318   4.848   3.133   6.644
 7807SOL     OW24319   0.439   3.177   6.852
 7807SOL    HW124320   0.465   3.081   6.849
 7807SOL    HW224321   0.397   3.198   6.940
 7808SOL     OW24322   0.566   0.634   5.040
 7808SOL    HW124323   0.631   0.631   5.116
 7808SOL    HW224324   0.546   0.729   5.016
 7809SOL     OW24325   1.325   5.367   5.524
 7809SOL    HW124326   1.251   5.432   5.538
 7809SOL    HW224327   1.344   5.358   5.427
 7810SOL     OW24328   2.546   1.108   6.857
 7810SOL    HW124329   2.614   1.158   6.909
 7810SOL    HW224330   2.464   1.164   6.847
 7811SOL     OW24331   0.355   4.829   4.939
 7811SOL    HW124332   0.281   4.808   5.003
 7811SOL    HW224333   0.356   4.761   4.866
 7812SOL     OW24334   0.393   2.120   3.453
 7812SOL    HW124335   0.332   2.046   3.481
 7812SOL    HW224336   0.381   2.138   3.355
 7813SOL     OW24337   6.405   2.270   1.113
 7813SOL    HW124338   6.419   2.254   1.211
 7813SOL    HW224339   6.435   2.362   1.090
 7814SOL     OW24340   1.896   3.622   4.349
 7814SOL    HW124341   1.933   3.548   4.293
 7814SOL    HW224342   1.951   3.704   4.336
 7815SOL     OW24343   0.197   1.725   5.449
 7815SOL    HW124344   0.097   1.721   5.443
 7815SOL    HW224345   0.226   1.701   5.541
 7816SOL     OW24346   1.207   4.651   5.053
 7816SOL    HW124347   1.111   4.628   5.068
 7816SOL    HW224348   1.251   4.668   5.142
 7817SOL     OW24349   5.608   3.451   5.658
 7817SOL    HW124350   5.523   3.401   5.644
 7817SOL    HW224351   5.685   3.396   5.625
 7818SOL     OW24352   5.035   4.130   2.784
 7818SOL    HW124353   4.970   4.156   2.712
 7818SOL    HW224354   4.993   4.062   2.844
 7819SOL     OW24355   0.829   1.327   0.948
 7819SOL    HW124356   0.763   1.398   0.924
 7819SOL    HW224357   0.897   1.319   0.875
 7820SOL     OW24358   2.781   0.048   6.239
 7820SOL    HW124359   2.772   6.989   6.300
 7820SOL    HW224360   2.877   0.057   6.211
 7821SOL     OW24361   3.261   5.017   0.661
 7821SOL    HW124362   3.267   5.014   0.561
 7821SOL    HW224363   3.196   5.088   0.688
 7822SOL     OW24364   1.989   6.574   5.666
 7822SOL    HW124365   2.008   6.476   5.667
 7822SOL    HW224366   2.072   6.625   5.643
 7823SOL     OW24367   1.857   3.918   5.019
 7823SOL    HW124368   1.933   3.919   5.084
 7823SOL    HW224369   1.797   3.841   5.038
 7824SOL     OW24370   0.706   3.451   5.213
 7824SOL    HW124371   0.610   3.425   5.224
 7824SOL    HW224372   0.765   3.387   5.261
 7825SOL     OW24373   3.111   0.786   6.823
 7825SOL    HW124374   3.055   0.718   6.870
 7825SOL    HW224375   3.107   0.872   6.872
 7826SOL     OW24376   0.537   3.374   5.527
 7826SOL    HW124377   0.487   3.333   5.603
 7826SOL    HW224378   0.511   3.328   5.442
 7827SOL     OW24379   5.913   5.260   4.288
 7827SOL    HW124380   5.831   5.205   4.301
 7827SOL    HW224381   5.977   5.242   4.362
 7828SOL     OW24382   0.747   4.978   6.784
 7828SOL    HW124383   0.804   5.013   6.858
 7828SOL    HW224384   0.675   5.043   6.763
 7829SOL     OW24385   4.139   4.872   0.678
 7829SOL    HW124386   4.126   4.914   0.767
 7829SOL    HW224387   4.129   4.773   0.686
 7830SOL     OW24388   2.310   5.508   3.551
 7830SOL    HW124389   2.404   5.541   3.550
 7830SOL    HW224390   2.284   5.485   3.645
 7831SOL     OW24391   1.580   0.180   5.840
 7831SOL    HW124392   1.572   0.106   5.906
 7831SOL    HW224393   1.579   0.268   5.889
 7832SOL     OW24394   6.542   0.909   5.351
 7832SOL    HW124395   6.592   0.908   5.437
 7832SOL    HW224396   6.449   0.875   5.366
 7833SOL     OW24397   0.857   0.578   2.987
 7833SOL    HW124398   0.898   0.652   2.933
 7833SOL    HW224399   0.789   0.530   2.931
 7834SOL     OW24400   6.798   3.352   4.812
 7834SOL    HW124401   6.862   3.404   4.755
 7834SOL    HW224402   6.763   3.410   4.885
 7835SOL     OW24403   4.062   2.422   5.724
 7835SOL    HW124404   4.097   2.451   5.635
 7835SOL    HW224405   4.055   2.322   5.726
 7836SOL     OW24406   3.307   3.893   4.595
 7836SOL    HW124407   3.302   3.913   4.497
 7836SOL    HW224408   3.225   3.928   4.640
 7837SOL     OW24409   1.138   5.489   6.882
 7837SOL    HW124410   1.105   5.398   6.859
 7837SOL    HW224411   1.065   5.541   6.926
 7838SOL     OW24412   4.249   5.398   2.074
 7838SOL    HW124413   4.206   5.392   2.164
 7838SOL    HW224414   4.212   5.476   2.025
 7839SOL     OW24415   6.228   4.355   4.469
 7839SOL    HW124416   6.316   4.382   4.508
 7839SOL    HW224417   6.240   4.275   4.411
 7840SOL     OW24418   2.322   2.776   3.630
 7840SOL    HW124419   2.267   2.767   3.713
 7840SOL    HW224420   2.328   2.873   3.604
 7841SOL     OW24421   3.971   1.830   5.968
 7841SOL    HW124422   3.990   1.756   6.033
 7841SOL    HW224423   4.056   1.858   5.924
 7842SOL     OW24424   0.920   0.728   0.982
 7842SOL    HW124425   1.014   0.761   0.989
 7842SOL    HW224426   0.861   0.785   1.038
 7843SOL     OW24427   6.752   6.614   2.097
 7843SOL    HW124428   6.777   6.521   2.123
 7843SOL    HW224429   6.821   6.678   2.130
 7844SOL     OW24430   4.176   0.283   2.562
 7844SOL    HW124431   4.228   0.203   2.530
 7844SOL    HW224432   4.079   0.259   2.568
 7845SOL     OW24433   5.988   3.197   1.222
 7845SOL    HW124434   6.002   3.267   1.293
 7845SOL    HW224435   5.891   3.193   1.198
 7846SOL     OW24436   1.051   0.982   0.736
 7846SOL    HW124437   1.095   0.949   0.820
 7846SOL    HW224438   1.047   1.082   0.738
 7847SOL     OW24439   5.371   4.488   6.211
 7847SOL    HW124440   5.365   4.401   6.163
 7847SOL    HW224441   5.465   4.522   6.207
 7848SOL     OW24442   4.007   4.613   0.352
 7848SOL    HW124443   3.924   4.556   0.346
 7848SOL    HW224444   4.071   4.571   0.416
 7849SOL     OW24445   4.116   5.320   6.982
 7849SOL    HW124446   4.147   5.272   0.045
 7849SOL    HW224447   4.090   5.414   7.007
 7850SOL     OW24448   0.296   0.349   3.797
 7850SOL    HW124449   0.202   0.360   3.764
 7850SOL    HW224450   0.302   0.383   3.891
 7851SOL     OW24451   0.197   5.051   0.846
 7851SOL    HW124452   0.286   5.035   0.804
 7851SOL    HW224453   0.193   5.005   0.935
 7852SOL     OW24454   1.013   3.159   5.680
 7852SOL    HW124455   1.097   3.144   5.732
 7852SOL    HW224456   1.032   3.216   5.601
 7853SOL     OW24457   4.127   2.973   1.600
 7853SOL    HW124458   4.072   2.890   1.605
 7853SOL    HW224459   4.067   3.053   1.597
 7854SOL     OW24460   4.632   1.398   1.110
 7854SOL    HW124461   4.712   1.447   1.075
 7854SOL    HW224462   4.603   1.329   1.043
 7855SOL     OW24463   5.601   6.437   4.025
 7855SOL    HW124464   5.646   6.511   3.975
 7855SOL    HW224465   5.522   6.473   4.074
 7856SOL     OW24466   2.137   6.355   5.552
 7856SOL    HW124467   2.167   6.268   5.591
 7856SOL    HW224468   2.216   6.403   5.515
 7857SOL     OW24469   6.530   4.791   0.814
 7857SOL    HW124470   6.556   4.862   0.748
 7857SOL    HW224471   6.431   4.795   0.830
 7858SOL     OW24472   0.370   3.678   6.028
 7858SOL    HW124473   0.338   3.621   6.104
 7858SOL    HW224474   0.309   3.668   5.950
 7859SOL     OW24475   5.010   2.121   1.078
 7859SOL    HW124476   4.957   2.036   1.070
 7859SOL    HW224477   4.958   2.196   1.038
 7860SOL     OW24478   2.414   1.497   3.827
 7860SOL    HW124479   2.319   1.469   3.815
 7860SOL    HW224480   2.453   1.522   3.738
 7861SOL     OW24481   1.644   5.893   0.995
 7861SOL    HW124482   1.723   5.950   0.973
 7861SOL    HW224483   1.666   5.833   1.072
 7862SOL     OW24484   1.294   6.733   0.019
 7862SOL    HW124485   1.366   6.803   0.027
 7862SOL    HW224486   1.228   6.745   0.093
 7863SOL     OW24487   1.268   4.379   4.285
 7863SOL    HW124488   1.201   4.312   4.315
 7863SOL    HW224489   1.230   4.435   4.212
 7864SOL     OW24490   2.670   5.810   4.956
 7864SOL    HW124491   2.575   5.807   4.923
 7864SOL    HW224492   2.712   5.720   4.945
 7865SOL     OW24493   5.788   4.558   3.554
 7865SOL    HW124494   5.738   4.579   3.638
 7865SOL    HW224495   5.820   4.464   3.556
 7866SOL     OW24496   0.986   0.895   5.595
 7866SOL    HW124497   0.921   0.970   5.607
 7866SOL    HW224498   1.069   0.914   5.647
 7867SOL     OW24499   4.132   4.745   3.938
 7867SOL    HW124500   4.049   4.761   3.884
 7867SOL    HW224501   4.111   4.756   4.035
 7868SOL     OW24502   3.470   6.396   1.668
 7868SOL    HW124503   3.534   6.392   1.591
 7868SOL    HW224504   3.385   6.440   1.638
 7869SOL     OW24505   5.852   4.618   6.995
 7869SOL    HW124506   5.931   4.625   6.935
 7869SOL    HW224507   5.836   4.706   0.020
 7870SOL     OW24508   6.272   6.600   3.776
 7870SOL    HW124509   6.212   6.616   3.855
 7870SOL    HW224510   6.216   6.594   3.693
 7871SOL     OW24511   4.446   1.386   0.557
 7871SOL    HW124512   4.542   1.365   0.575
 7871SOL    HW224513   4.395   1.301   0.546
 7872SOL     OW24514   0.261   5.325   3.031
 7872SOL    HW124515   0.336   5.363   2.977
 7872SOL    HW224516   0.174   5.348   2.988
 7873SOL     OW24517   4.591   2.108   6.733
 7873SOL    HW124518   4.537   2.084   6.813
 7873SOL    HW224519   4.658   2.178   6.758
 7874SOL     OW24520   5.960   2.328   0.403
 7874SOL    HW124521   5.890   2.399   0.397
 7874SOL    HW224522   6.051   2.370   0.401
 7875SOL     OW24523   6.599   4.650   6.654
 7875SOL    HW124524   6.673   4.637   6.588
 7875SOL    HW224525   6.556   4.739   6.638
 7876SOL     OW24526   1.194   6.376   3.208
 7876SOL    HW124527   1.109   6.422   3.233
 7876SOL    HW224528   1.269   6.442   3.208
 7877SOL     OW24529   0.170   3.105   2.672
 7877SOL    HW124530   0.075   3.099   2.705
 7877SOL    HW224531   0.172   3.092   2.573
 7878SOL     OW24532   3.850   6.696   2.481
 7878SOL    HW124533   3.769   6.735   2.439
 7878SOL    HW224534   3.913   6.769   2.507
 7879SOL     OW24535   3.021   5.717   2.955
 7879SOL    HW124536   3.035   5.743   2.860
 7879SOL    HW224537   2.925   5.695   2.971
 7880SOL     OW24538   1.231   4.722   1.915
 7880SOL    HW124539   1.282   4.748   1.996
 7880SOL    HW224540   1.134   4.715   1.938
 7881SOL     OW24541   4.894   3.468   3.709
 7881SOL    HW124542   4.872   3.439   3.615
 7881SOL    HW224543   4.877   3.392   3.772
 7882SOL     OW24544   0.213   3.038   6.648
 7882SOL    HW124545   0.149   3.075   6.716
 7882SOL    HW224546   0.262   3.113   6.604
 7883SOL     OW24547   0.553   0.223   4.604
 7883SOL    HW124548   0.561   0.279   4.686
 7883SOL    HW224549   0.594   0.133   4.620
 7884SOL     OW24550   1.103   2.869   4.107
 7884SOL    HW124551   1.083   2.955   4.154
 7884SOL    HW224552   1.198   2.844   4.123
 7885SOL     OW24553   0.097   5.806   6.954
 7885SOL    HW124554   0.031   5.743   6.912
 7885SOL    HW224555   0.172   5.824   6.889
 7886SOL     OW24556   4.746   3.892   0.848
 7886SOL    HW124557   4.804   3.894   0.767
 7886SOL    HW224558   4.650   3.893   0.820
 7887SOL     OW24559   4.559   2.657   5.757
 7887SOL    HW124560   4.501   2.598   5.813
 7887SOL    HW224561   4.556   2.751   5.793
 7888SOL     OW24562   4.730   5.995   4.840
 7888SOL    HW124563   4.736   6.027   4.745
 7888SOL    HW224564   4.644   5.944   4.852
 7889SOL     OW24565   6.592   5.092   2.992
 7889SOL    HW124566   6.615   5.003   2.951
 7889SOL    HW224567   6.569   5.080   3.088
 7890SOL     OW24568   1.674   3.165   2.578
 7890SOL    HW124569   1.655   3.067   2.571
 7890SOL    HW224570   1.743   3.190   2.510
 7891SOL     OW24571   0.772   4.531   3.000
 7891SOL    HW124572   0.702   4.496   3.061
 7891SOL    HW224573   0.834   4.457   2.974
 7892SOL     OW24574   2.161   1.913   4.724
 7892SOL    HW124575   2.233   1.883   4.786
 7892SOL    HW224576   2.164   2.012   4.714
 7893SOL     OW24577   5.767   6.454   1.034
 7893SOL    HW124578   5.841   6.517   1.056
 7893SOL    HW224579   5.737   6.407   1.117
 7894SOL     OW24580   2.874   0.280   1.982
 7894SOL    HW124581   2.822   0.241   2.058
 7894SOL    HW224582   2.902   0.373   2.004
 7895SOL     OW24583   0.516   1.062   3.503
 7895SOL    HW124584   0.425   1.096   3.527
 7895SOL    HW224585   0.510   0.963   3.484
 7896SOL     OW24586   3.983   1.598   6.170
 7896SOL    HW124587   4.033   1.545   6.239
 7896SOL    HW224588   3.911   1.651   6.215
 7897SOL     OW24589   3.019   3.037   6.760
 7897SOL    HW124590   2.941   2.984   6.726
 7897SOL    HW224591   3.102   3.009   6.711
 7898SOL     OW24592   4.996   1.141   4.283
 7898SOL    HW124593   5.064   1.068   4.290
 7898SOL    HW224594   4.970   1.171   4.374
 7899SOL     OW24595   4.580   1.231   1.974
 7899SOL    HW124596   4.486   1.214   2.002
 7899SOL    HW224597   4.581   1.302   1.903
 7900SOL     OW24598   1.118   5.875   1.560
 7900SOL    HW124599   1.190   5.810   1.536
 7900SOL    HW224600   1.084   5.919   1.477
 7901SOL     OW24601   5.964   5.197   0.829
 7901SOL    HW124602   5.955   5.296   0.842
 7901SOL    HW224603   5.891   5.164   0.770
 7902SOL     OW24604   4.964   4.500   5.720
 7902SOL    HW124605   4.977   4.599   5.716
 7902SOL    HW224606   5.035   4.455   5.666
 7903SOL     OW24607   0.091   3.153   1.066
 7903SOL    HW124608   0.147   3.139   1.148
 7903SOL    HW224609   0.125   3.097   0.991
 7904SOL     OW24610   5.978   2.428   2.551
 7904SOL    HW124611   5.991   2.450   2.648
 7904SOL    HW224612   5.882   2.404   2.535
 7905SOL     OW24613   1.753   1.685   1.801
 7905SOL    HW124614   1.818   1.753   1.769
 7905SOL    HW224615   1.660   1.711   1.774
 7906SOL     OW24616   0.493   4.214   6.823
 7906SOL    HW124617   0.572   4.270   6.849
 7906SOL    HW224618   0.468   4.234   6.728
 7907SOL     OW24619   0.104   2.818   2.955
 7907SOL    HW124620   0.121   2.725   2.921
 7907SOL    HW224621   0.176   2.878   2.921
 7908SOL     OW24622   6.956   1.895   2.856
 7908SOL    HW124623   6.976   1.836   2.934
 7908SOL    HW224624   7.018   1.873   2.780
 7909SOL     OW24625   4.042   6.480   4.809
 7909SOL    HW124626   4.020   6.384   4.789
 7909SOL    HW224627   4.058   6.490   4.908
 7910SOL     OW24628   6.845   2.755   5.830
 7910SOL    HW124629   6.836   2.673   5.885
 7910SOL    HW224630   6.791   2.829   5.870
 7911SOL     OW24631   0.200   5.313   6.753
 7911SOL    HW124632   0.170   5.263   6.672
 7911SOL    HW224633   0.244   5.399   6.725
 7912SOL     OW24634   0.151   5.153   5.389
 7912SOL    HW124635   0.239   5.183   5.353
 7912SOL    HW224636   0.115   5.221   5.453
 7913SOL     OW24637   1.643   5.925   6.399
 7913SOL    HW124638   1.581   6.004   6.391
 7913SOL    HW224639   1.688   5.909   6.311
 7914SOL     OW24640   6.249   4.249   1.035
 7914SOL    HW124641   6.297   4.285   0.955
 7914SOL    HW224642   6.244   4.150   1.030
 7915SOL     OW24643   3.043   1.028   2.632
 7915SOL    HW124644   3.013   0.998   2.541
 7915SOL    HW224645   2.975   0.999   2.700
 7916SOL     OW24646   4.290   3.849   5.644
 7916SOL    HW124647   4.247   3.879   5.730
 7916SOL    HW224648   4.219   3.833   5.575
 7917SOL     OW24649   3.817   3.644   3.681
 7917SOL    HW124650   3.832   3.689   3.593
 7917SOL    HW224651   3.877   3.563   3.687
 7918SOL     OW24652   6.066   2.187   2.788
 7918SOL    HW124653   5.997   2.150   2.851
 7918SOL    HW224654   6.080   2.123   2.713
 7919SOL     OW24655   5.443   4.028   1.828
 7919SOL    HW124656   5.447   4.037   1.928
 7919SOL    HW224657   5.516   4.084   1.788
 7920SOL     OW24658   0.159   6.861   1.635
 7920SOL    HW124659   0.215   6.890   1.713
 7920SOL    HW224660   0.107   6.780   1.660
 7921SOL     OW24661   2.573   5.861   1.953
 7921SOL    HW124662   2.637   5.916   1.899
 7921SOL    HW224663   2.513   5.921   2.006
 7922SOL     OW24664   0.974   4.987   5.646
 7922SOL    HW124665   1.055   4.932   5.666
 7922SOL    HW224666   0.994   5.049   5.571
 7923SOL     OW24667   0.943   1.828   2.846
 7923SOL    HW124668   0.974   1.741   2.808
 7923SOL    HW224669   0.859   1.815   2.897
 7924SOL     OW24670   2.011   0.746   3.189
 7924SOL    HW124671   2.049   0.720   3.100
 7924SOL    HW224672   2.069   0.816   3.231
 7925SOL     OW24673   0.359   1.324   0.017
 7925SOL    HW124674   0.311   1.353   6.953
 7925SOL    HW224675   0.379   1.226   0.011
 7926SOL     OW24676   3.281   0.038   1.987
 7926SOL    HW124677   3.371   0.033   1.944
 7926SOL    HW224678   3.274   6.987   2.058
 7927SOL     OW24679   4.445   4.661   4.571
 7927SOL    HW124680   4.437   4.634   4.475
 7927SOL    HW224681   4.463   4.760   4.576
 7928SOL     OW24682   0.473   4.325   6.523
 7928SOL    HW124683   0.483   4.406   6.465
 7928SOL    HW224684   0.403   4.264   6.484
 7929SOL     OW24685   3.988   3.974   4.647
 7929SOL    HW124686   3.957   3.880   4.630
 7929SOL    HW224687   4.080   3.971   4.687
 7930SOL     OW24688   4.704   6.845   3.133
 7930SOL    HW124689   4.630   6.907   3.155
 7930SOL    HW224690   4.789   6.877   3.176
 7931SOL     OW24691   3.187   3.636   6.424
 7931SOL    HW124692   3.107   3.616   6.367
 7931SOL    HW224693   3.266   3.586   6.389
 7932SOL     OW24694   3.237   0.549   0.586
 7932SOL    HW124695   3.194   0.587   0.668
 7932SOL    HW224696   3.220   0.610   0.508
 7933SOL     OW24697   1.690   1.130   6.022
 7933SOL    HW124698   1.709   1.032   6.018
 7933SOL    HW224699   1.775   1.181   6.013
 7934SOL     OW24700   3.816   2.116   5.667
 7934SOL    HW124701   3.760   2.128   5.585
 7934SOL    HW224702   3.907   2.155   5.651
 7935SOL     OW24703   4.485   5.662   2.367
 7935SOL    HW124704   4.581   5.681   2.386
 7935SOL    HW224705   4.468   5.671   2.269
 7936SOL     OW24706   4.217   6.357   2.537
 7936SOL    HW124707   4.256   6.370   2.446
 7936SOL    HW224708   4.290   6.329   2.600
 7937SOL     OW24709   6.034   1.396   5.921
 7937SOL    HW124710   6.039   1.433   6.014
 7937SOL    HW224711   6.051   1.469   5.855
 7938SOL     OW24712   6.347   4.819   4.541
 7938SOL    HW124713   6.422   4.758   4.565
 7938SOL    HW224714   6.382   4.913   4.533
 7939SOL     OW24715   0.288   6.588   4.139
 7939SOL    HW124716   0.314   6.660   4.204
 7939SOL    HW224717   0.314   6.499   4.176
 7940SOL     OW24718   1.274   5.801   0.558
 7940SOL    HW124719   1.355   5.837   0.604
 7940SOL    HW224720   1.269   5.836   0.465
 7941SOL     OW24721   0.696   0.616   1.208
 7941SOL    HW124722   0.757   0.695   1.198
 7941SOL    HW224723   0.663   0.612   1.302
 7942SOL     OW24724   1.368   0.955   1.848
 7942SOL    HW124725   1.449   1.013   1.855
 7942SOL    HW224726   1.395   0.859   1.847
 7943SOL     OW24727   6.337   2.125   0.510
 7943SOL    HW124728   6.409   2.155   0.572
 7943SOL    HW224729   6.346   2.026   0.494
 7944SOL     OW24730   6.991   3.824   1.848
 7944SOL    HW124731   0.011   3.915   1.859
 7944SOL    HW224732   6.998   3.773   1.933
 7945SOL     OW24733   5.521   0.391   0.575
 7945SOL    HW124734   5.591   0.454   0.608
 7945SOL    HW224735   5.472   0.433   0.498
 7946SOL     OW24736   2.014   1.576   5.782
 7946SOL    HW124737   2.076   1.649   5.752
 7946SOL    HW224738   1.928   1.617   5.814
 7947SOL     OW24739   4.488   5.522   6.187
 7947SOL    HW124740   4.584   5.551   6.189
 7947SOL    HW224741   4.433   5.581   6.246
 7948SOL     OW24742   0.816   5.246   6.274
 7948SOL    HW124743   0.834   5.282   6.183
 7948SOL    HW224744   0.728   5.279   6.307
 7949SOL     OW24745   6.906   3.866   3.618
 7949SOL    HW124746   6.857   3.805   3.557
 7949SOL    HW224747   6.842   3.905   3.685
 7950SOL     OW24748   3.711   4.964   4.185
 7950SOL    HW124749   3.754   4.933   4.270
 7950SOL    HW224750   3.778   4.964   4.111
 7951SOL     OW24751   2.145   3.604   0.651
 7951SOL    HW124752   2.170   3.508   0.648
 7951SOL    HW224753   2.224   3.659   0.676
 7952SOL     OW24754   5.774   4.714   0.581
 7952SOL    HW124755   5.749   4.798   0.533
 7952SOL    HW224756   5.692   4.672   0.621
 7953SOL     OW24757   1.701   3.420   2.755
 7953SOL    HW124758   1.693   3.342   2.692
 7953SOL    HW224759   1.643   3.495   2.724
 7954SOL     OW24760   4.855   5.036   4.464
 7954SOL    HW124761   4.768   4.995   4.437
 7954SOL    HW224762   4.924   5.019   4.394
 7955SOL     OW24763   2.408   6.407   6.051
 7955SOL    HW124764   2.346   6.481   6.024
 7955SOL    HW224765   2.361   6.319   6.043
 7956SOL     OW24766   6.250   6.498   2.751
 7956SOL    HW124767   6.345   6.509   2.725
 7956SOL    HW224768   6.235   6.403   2.781
 7957SOL     OW24769   1.260   2.275   1.061
 7957SOL    HW124770   1.171   2.306   1.096
 7957SOL    HW224771   1.299   2.347   1.003
 7958SOL     OW24772   2.275   6.098   3.367
 7958SOL    HW124773   2.369   6.085   3.333
 7958SOL    HW224774   2.274   6.173   3.433
 7959SOL     OW24775   5.004   5.413   1.923
 7959SOL    HW124776   4.952   5.498   1.930
 7959SOL    HW224777   5.096   5.427   1.959
 7960SOL     OW24778   1.238   2.749   1.391
 7960SOL    HW124779   1.279   2.783   1.306
 7960SOL    HW224780   1.309   2.706   1.447
 7961SOL     OW24781   0.769   6.350   0.237
 7961SOL    HW124782   0.818   6.267   0.208
 7961SOL    HW224783   0.774   6.359   0.336
 7962SOL     OW24784   1.831   6.458   2.433
 7962SOL    HW124785   1.799   6.550   2.455
 7962SOL    HW224786   1.763   6.412   2.375
 7963SOL     OW24787   0.637   6.511   5.148
 7963SOL    HW124788   0.672   6.571   5.076
 7963SOL    HW224789   0.668   6.418   5.132
 7964SOL     OW24790   6.195   5.570   3.864
 7964SOL    HW124791   6.177   5.648   3.924
 7964SOL    HW224792   6.114   5.549   3.811
 7965SOL     OW24793   4.261   1.749   0.615
 7965SOL    HW124794   4.277   1.843   0.646
 7965SOL    HW224795   4.329   1.723   0.547
 7966SOL     OW24796   0.070   0.115   3.429
 7966SOL    HW124797   0.012   0.175   3.484
 7966SOL    HW224798   0.160   0.107   3.471
 7967SOL     OW24799   2.932   0.469   3.444
 7967SOL    HW124800   2.947   0.518   3.530
 7967SOL    HW224801   3.018   0.431   3.411
 7968SOL     OW24802   2.548   1.097   1.487
 7968SOL    HW124803   2.582   1.020   1.433
 7968SOL    HW224804   2.624   1.157   1.511
 7969SOL     OW24805   3.562   1.343   3.456
 7969SOL    HW124806   3.481   1.284   3.455
 7969SOL    HW224807   3.535   1.436   3.479
 7970SOL     OW24808   6.910   5.046   3.967
 7970SOL    HW124809   6.831   5.047   3.906
 7970SOL    HW224810   6.975   5.117   3.939
 7971SOL     OW24811   3.218   1.735   2.387
 7971SOL    HW124812   3.165   1.820   2.389
 7971SOL    HW224813   3.174   1.669   2.327
 7972SOL     OW24814   6.343   5.294   1.250
 7972SOL    HW124815   6.358   5.222   1.318
 7972SOL    HW224816   6.287   5.366   1.291
 7973SOL     OW24817   4.677   2.220   3.358
 7973SOL    HW124818   4.681   2.198   3.260
 7973SOL    HW224819   4.586   2.256   3.380
 7974SOL     OW24820   5.587   6.064   4.133
 7974SOL    HW124821   5.585   6.157   4.094
 7974SOL    HW224822   5.676   6.023   4.117
 7975SOL     OW24823   1.967   1.229   2.214
 7975SOL    HW124824   2.046   1.290   2.212
 7975SOL    HW224825   1.969   1.175   2.299
 7976SOL     OW24826   1.263   6.727   6.126
 7976SOL    HW124827   1.296   6.717   6.220
 7976SOL    HW224828   1.256   6.637   6.083
 7977SOL     OW24829   5.332   6.345   1.227
 7977SOL    HW124830   5.394   6.285   1.176
 7977SOL    HW224831   5.238   6.331   1.194
 7978SOL     OW24832   3.522   1.795   5.588
 7978SOL    HW124833   3.610   1.805   5.542
 7978SOL    HW224834   3.472   1.881   5.585
 7979SOL     OW24835   4.935   6.383   3.908
 7979SOL    HW124836   4.846   6.430   3.910
 7979SOL    HW224837   4.922   6.288   3.879
 7980SOL     OW24838   2.869   0.523   2.773
 7980SOL    HW124839   2.900   0.588   2.842
 7980SOL    HW224840   2.931   0.444   2.771
 7981SOL     OW24841   0.902   5.915   2.513
 7981SOL    HW124842   0.825   5.967   2.551
 7981SOL    HW224843   0.900   5.821   2.549
 7982SOL     OW24844   6.945   2.263   0.606
 7982SOL    HW124845   7.003   2.343   0.621
 7982SOL    HW224846   6.955   2.232   0.511
 7983SOL     OW24847   4.998   2.551   1.854
 7983SOL    HW124848   5.077   2.507   1.812
 7983SOL    HW224849   4.914   2.519   1.810
 7984SOL     OW24850   6.956   0.593   0.304
 7984SOL    HW124851   0.011   0.659   0.286
 7984SOL    HW224852   6.907   0.574   0.218
 7985SOL     OW24853   1.277   1.209   0.639
 7985SOL    HW124854   1.331   1.287   0.669
 7985SOL    HW224855   1.332   1.152   0.578
 7986SOL     OW24856   4.941   3.310   0.230
 7986SOL    HW124857   4.941   3.288   0.328
 7986SOL    HW224858   4.866   3.374   0.211
 7987SOL     OW24859   0.995   2.852   4.851
 7987SOL    HW124860   0.976   2.781   4.783
 7987SOL    HW224861   1.020   2.810   4.938
 7988SOL     OW24862   2.745   1.448   5.480
 7988SOL    HW124863   2.649   1.443   5.507
 7988SOL    HW224864   2.769   1.543   5.458
 7989SOL     OW24865   3.703   3.295   6.301
 7989SOL    HW124866   3.762   3.373   6.319
 7989SOL    HW224867   3.609   3.326   6.287
 7990SOL     OW24868   2.239   2.990   4.817
 7990SOL    HW124869   2.320   2.959   4.866
 7990SOL    HW224870   2.157   2.969   4.870
 7991SOL     OW24871   2.226   2.481   5.832
 7991SOL    HW124872   2.276   2.532   5.762
 7991SOL    HW224873   2.128   2.496   5.821
 7992SOL     OW24874   2.957   1.554   1.106
 7992SOL    HW124875   2.858   1.544   1.101
 7992SOL    HW224876   2.999   1.511   1.027
 7993SOL     OW24877   2.673   6.310   6.109
 7993SOL    HW124878   2.698   6.226   6.062
 7993SOL    HW224879   2.577   6.331   6.091
 7994SOL     OW24880   5.700   0.944   4.671
 7994SOL    HW124881   5.660   1.006   4.604
 7994SOL    HW224882   5.763   0.882   4.624
 7995SOL     OW24883   4.003   5.307   3.148
 7995SOL    HW124884   4.055   5.249   3.085
 7995SOL    HW224885   3.986   5.396   3.106
 7996SOL     OW24886   4.356   1.166   5.109
 7996SOL    HW124887   4.406   1.247   5.140
 7996SOL    HW224888   4.421   1.092   5.092
 7997SOL     OW24889   5.281   2.403   1.430
 7997SOL    HW124890   5.222   2.467   1.382
 7997SOL    HW224891   5.377   2.431   1.420
 7998SOL     OW24892   6.366   4.634   6.183
 7998SOL    HW124893   6.342   4.565   6.250
 7998SOL    HW224894   6.349   4.725   6.221
 7999SOL     OW24895   2.206   1.369   5.486
 7999SOL    HW124896   2.237   1.462   5.508
 7999SOL    HW224897   2.136   1.341   5.551
 8000SOL     OW24898   5.144   0.621   5.866
 8000SOL    HW124899   5.114   0.526   5.856
 8000SOL    HW224900   5.169   0.657   5.776
 8001SOL     OW24901   2.496   5.365   1.107
 8001SOL    HW124902   2.592   5.355   1.081
 8001SOL    HW224903   2.470   5.461   1.098
 8002SOL     OW24904   5.249   2.392   5.680
 8002SOL    HW124905   5.294   2.456   5.618
 8002SOL    HW224906   5.206   2.319   5.627
 8003SOL     OW24907   4.080   5.492   3.694
 8003SOL    HW124908   4.053   5.584   3.667
 8003SOL    HW224909   4.019   5.459   3.767
 8004SOL     OW24910   1.095   4.243   3.185
 8004SOL    HW124911   1.010   4.245   3.238
 8004SOL    HW224912   1.172   4.220   3.245
 8005SOL     OW24913   1.854   0.733   2.684
 8005SOL    HW124914   1.770   0.772   2.647
 8005SOL    HW224915   1.929   0.798   2.671
 8006SOL     OW24916   3.749   6.294   1.978
 8006SOL    HW124917   3.654   6.277   2.005
 8006SOL    HW224918   3.749   6.354   1.898
 8007SOL     OW24919   0.213   1.041   3.994
 8007SOL    HW124920   0.246   1.063   4.086
 8007SOL    HW224921   0.263   1.096   3.927
 8008SOL     OW24922   5.669   5.182   0.877
 8008SOL    HW124923   5.569   5.181   0.878
 8008SOL    HW224924   5.704   5.144   0.963
 8009SOL     OW24925   0.075   6.891   3.609
 8009SOL    HW124926   0.029   6.846   3.533
 8009SOL    HW224927   0.174   6.878   3.601
 8010SOL     OW24928   1.859   2.465   6.741
 8010SOL    HW124929   1.789   2.522   6.785
 8010SOL    HW224930   1.911   2.520   6.676
 8011SOL     OW24931   2.085   3.047   0.237
 8011SOL    HW124932   2.156   3.051   0.168
 8011SOL    HW224933   2.090   2.960   0.286
 8012SOL     OW24934   2.613   6.966   3.149
 8012SOL    HW124935   2.608   6.987   3.247
 8012SOL    HW224936   2.544   6.897   3.127
 8013SOL     OW24937   5.989   5.572   4.586
 8013SOL    HW124938   6.056   5.536   4.522
 8013SOL    HW224939   5.936   5.497   4.625
 8014SOL     OW24940   2.317   6.689   6.685
 8014SOL    HW124941   2.231   6.638   6.679
 8014SOL    HW224942   2.305   6.779   6.643
 8015SOL     OW24943   1.509   2.403   6.187
 8015SOL    HW124944   1.544   2.466   6.118
 8015SOL    HW224945   1.570   2.323   6.192
 8016SOL     OW24946   4.680   5.975   2.202
 8016SOL    HW124947   4.663   5.939   2.294
 8016SOL    HW224948   4.763   6.030   2.203
 8017SOL     OW24949   6.711   3.575   5.656
 8017SOL    HW124950   6.705   3.656   5.714
 8017SOL    HW224951   6.720   3.494   5.714
 8018SOL     OW24952   5.667   2.960   4.038
 8018SOL    HW124953   5.715   2.873   4.046
 8018SOL    HW224954   5.573   2.944   4.008
 8019SOL     OW24955   2.738   5.204   1.317
 8019SOL    HW124956   2.699   5.220   1.408
 8019SOL    HW224957   2.711   5.113   1.285
 8020SOL     OW24958   5.460   6.546   6.587
 8020SOL    HW124959   5.515   6.575   6.665
 8020SOL    HW224960   5.453   6.621   6.521
 8021SOL     OW24961   6.719   1.048   0.527
 8021SOL    HW124962   6.771   0.989   0.589
 8021SOL    HW224963   6.764   1.137   0.520
 8022SOL     OW24964   4.382   5.036   3.591
 8022SOL    HW124965   4.335   5.029   3.503
 8022SOL    HW224966   4.341   4.971   3.655
 8023SOL     OW24967   6.849   6.033   2.991
 8023SOL    HW124968   6.828   6.066   3.083
 8023SOL    HW224969   6.895   5.944   2.998
 8024SOL     OW24970   4.678   5.574   5.041
 8024SOL    HW124971   4.771   5.610   5.046
 8024SOL    HW224972   4.679   5.476   5.058
 8025SOL     OW24973   3.166   6.056   0.620
 8025SOL    HW124974   3.232   6.026   0.550
 8025SOL    HW224975   3.150   5.982   0.685
 8026SOL     OW24976   2.451   2.649   6.567
 8026SOL    HW124977   2.426   2.743   6.589
 8026SOL    HW224978   2.368   2.595   6.552
 8027SOL     OW24979   4.489   3.294   5.502
 8027SOL    HW124980   4.537   3.382   5.500
 8027SOL    HW224981   4.393   3.309   5.522
 8028SOL     OW24982   5.098   5.426   0.355
 8028SOL    HW124983   5.135   5.476   0.277
 8028SOL    HW224984   5.138   5.335   0.358
 8029SOL     OW24985   2.777   4.463   6.889
 8029SOL    HW124986   2.804   4.506   6.975
 8029SOL    HW224987   2.854   4.410   6.853
 8030SOL     OW24988   6.251   3.384   0.678
 8030SOL    HW124989   6.225   3.451   0.747
 8030SOL    HW224990   6.301   3.309   0.722
 8031SOL     OW24991   3.742   6.573   1.281
 8031SOL    HW124992   3.730   6.515   1.200
 8031SOL    HW224993   3.759   6.668   1.251
 8032SOL     OW24994   4.679   4.298   5.932
 8032SOL    HW124995   4.679   4.394   5.959
 8032SOL    HW224996   4.697   4.291   5.834
 8033SOL     OW24997   5.927   1.815   1.476
 8033SOL    HW124998   5.888   1.824   1.384
 8033SOL    HW224999   6.021   1.781   1.469
 8034SOL     OW25000   6.305   1.804   5.516
 8034SOL    HW125001   6.393   1.772   5.481
 8034SOL    HW225002   6.233   1.739   5.492
 8035SOL     OW25003   5.488   5.748   6.415
 8035SOL    HW125004   5.541   5.688   6.475
 8035SOL    HW225005   5.395   5.756   6.450
 8036SOL     OW25006   1.004   4.351   1.724
 8036SOL    HW125007   1.016   4.371   1.822
 8036SOL    HW225008   0.907   4.339   1.705
 8037SOL     OW25009   2.041   3.271   1.979
 8037SOL    HW125010   2.062   3.364   2.007
 8037SOL    HW225011   2.088   3.251   1.893
 8038SOL     OW25012   5.440   1.501   4.316
 8038SOL    HW125013   5.424   1.599   4.317
 8038SOL    HW225014   5.368   1.455   4.369
 8039SOL     OW25015   2.417   6.020   4.186
 8039SOL    HW125016   2.488   5.963   4.145
 8039SOL    HW225017   2.458   6.102   4.226
 8040SOL     OW25018   5.672   6.005   0.427
 8040SOL    HW125019   5.731   5.934   0.388
 8040SOL    HW225020   5.653   5.983   0.523
 8041SOL     OW25021   3.351   1.827   1.107
 8041SOL    HW125022   3.356   1.858   1.012
 8041SOL    HW225023   3.256   1.833   1.139
 8042SOL     OW25024   2.400   5.044   0.452
 8042SOL    HW125025   2.424   4.975   0.384
 8042SOL    HW225026   2.301   5.054   0.457
 8043SOL     OW25027   2.938   0.847   1.371
 8043SOL    HW125028   2.977   0.847   1.463
 8043SOL    HW225029   2.914   0.940   1.345
 8044SOL     OW25030   3.159   3.470   1.915
 8044SOL    HW125031   3.086   3.511   1.969
 8044SOL    HW225032   3.133   3.469   1.819
 8045SOL     OW25033   6.294   2.718   3.782
 8045SOL    HW125034   6.301   2.817   3.777
 8045SOL    HW225035   6.348   2.684   3.858
 8046SOL     OW25036   7.006   5.545   5.144
 8046SOL    HW125037   0.050   5.608   5.190
 8046SOL    HW225038   6.936   5.597   5.096
 8047SOL     OW25039   2.655   0.087   4.611
 8047SOL    HW125040   2.715   0.070   4.533
 8047SOL    HW225041   2.707   0.128   4.686
 8048SOL     OW25042   6.021   1.113   5.862
 8048SOL    HW125043   5.934   1.070   5.883
 8048SOL    HW225044   6.007   1.210   5.843
 8049SOL     OW25045   1.283   7.018   0.647
 8049SOL    HW125046   1.332   6.991   0.730
 8049SOL    HW225047   1.306   0.094   0.624
 8050SOL     OW25048   0.132   3.070   1.505
 8050SOL    HW125049   0.165   3.164   1.499
 8050SOL    HW225050   0.035   3.067   1.478
 8051SOL     OW25051   2.679   1.656   3.448
 8051SOL    HW125052   2.695   1.595   3.525
 8051SOL    HW225053   2.745   1.731   3.451
 8052SOL     OW25054   3.528   2.122   2.977
 8052SOL    HW125055   3.508   2.117   2.879
 8052SOL    HW225056   3.581   2.204   2.996
 8053SOL     OW25057   4.323   3.423   1.698
 8053SOL    HW125058   4.243   3.470   1.735
 8053SOL    HW225059   4.322   3.328   1.729
 8054SOL     OW25060   4.627   6.546   4.309
 8054SOL    HW125061   4.611   6.614   4.238
 8054SOL    HW225062   4.721   6.553   4.342
 8055SOL     OW25063   0.482   0.031   5.419
 8055SOL    HW125064   0.549   0.025   5.493
 8055SOL    HW225065   0.431   6.964   5.413
 8056SOL     OW25066   4.287   1.154   2.461
 8056SOL    HW125067   4.347   1.230   2.486
 8056SOL    HW225068   4.218   1.141   2.532
 8057SOL     OW25069   3.048   0.311   3.743
 8057SOL    HW125070   3.054   0.312   3.644
 8057SOL    HW225071   3.008   0.396   3.776
 8058SOL     OW25072   2.109   6.805   3.480
 8058SOL    HW125073   2.202   6.816   3.515
 8058SOL    HW225074   2.066   6.895   3.471
 8059SOL     OW25075   2.638   0.817   3.608
 8059SOL    HW125076   2.660   0.757   3.532
 8059SOL    HW225077   2.677   0.781   3.692
 8060SOL     OW25078   0.665   2.827   4.926
 8060SOL    HW125079   0.708   2.757   4.870
 8060SOL    HW225080   0.672   2.803   5.023
 8061SOL     OW25081   6.506   6.297   2.525
 8061SOL    HW125082   6.573   6.290   2.599
 8061SOL    HW225083   6.480   6.205   2.495
 8062SOL     OW25084   1.621   3.480   2.034
 8062SOL    HW125085   1.658   3.570   2.058
 8062SOL    HW225086   1.663   3.448   1.949
 8063SOL     OW25087   2.307   2.982   5.999
 8063SOL    HW125088   2.358   3.004   5.917
 8063SOL    HW225089   2.316   2.884   6.019
 8064SOL     OW25090   6.626   2.591   6.408
 8064SOL    HW125091   6.702   2.655   6.396
 8064SOL    HW225092   6.635   2.517   6.341
 8065SOL     OW25093   4.821   0.085   6.497
 8065SOL    HW125094   4.729   0.123   6.489
 8065SOL    HW225095   4.856   0.100   6.589
 8066SOL     OW25096   1.757   6.827   1.854
 8066SOL    HW125097   1.785   6.838   1.949
 8066SOL    HW225098   1.827   6.776   1.804
 8067SOL     OW25099   4.611   2.563   2.262
 8067SOL    HW125100   4.609   2.480   2.318
 8067SOL    HW225101   4.633   2.642   2.319
 8068SOL     OW25102   6.593   4.680   4.601
 8068SOL    HW125103   6.636   4.768   4.582
 8068SOL    HW225104   6.656   4.606   4.577
 8069SOL     OW25105   1.237   6.120   2.067
 8069SOL    HW125106   1.173   6.194   2.085
 8069SOL    HW225107   1.271   6.127   1.973
 8070SOL     OW25108   3.915   0.249   2.586
 8070SOL    HW125109   3.840   0.227   2.649
 8070SOL    HW225110   3.878   0.292   2.504
 8071SOL     OW25111   4.637   6.011   0.102
 8071SOL    HW125112   4.611   5.978   0.193
 8071SOL    HW225113   4.721   5.965   0.073
 8072SOL     OW25114   4.321   0.573   2.816
 8072SOL    HW125115   4.369   0.656   2.788
 8072SOL    HW225116   4.334   0.558   2.914
 8073SOL     OW25117   4.868   0.614   6.094
 8073SOL    HW125118   4.890   0.709   6.074
 8073SOL    HW225119   4.945   0.571   6.143
 8074SOL     OW25120   3.095   4.261   6.787
 8074SOL    HW125121   3.157   4.203   6.734
 8074SOL    HW225122   3.148   4.327   6.839
 8075SOL     OW25123   6.159   2.258   3.673
 8075SOL    HW125124   6.155   2.349   3.716
 8075SOL    HW225125   6.255   2.234   3.657
 8076SOL     OW25126   4.715   2.963   6.290
 8076SOL    HW125127   4.756   3.013   6.213
 8076SOL    HW225128   4.615   2.966   6.282
 8077SOL     OW25129   1.242   0.160   0.259
 8077SOL    HW125130   1.332   0.202   0.269
 8077SOL    HW225131   1.192   0.169   0.345
 8078SOL     OW25132   5.936   2.855   1.011
 8078SOL    HW125133   5.848   2.887   1.047
 8078SOL    HW225134   5.940   2.755   1.019
 8079SOL     OW25135   1.082   2.416   1.673
 8079SOL    HW125136   1.067   2.341   1.609
 8079SOL    HW225137   1.154   2.392   1.737
 8080SOL     OW25138   3.978   4.892   0.371
 8080SOL    HW125139   4.069   4.923   0.398
 8080SOL    HW225140   3.981   4.794   0.350
 8081SOL     OW25141   6.015   2.125   4.592
 8081SOL    HW125142   6.040   2.214   4.631
 8081SOL    HW225143   5.960   2.139   4.509
 8082SOL     OW25144   6.277   3.627   4.542
 8082SOL    HW125145   6.332   3.559   4.590
 8082SOL    HW225146   6.338   3.688   4.490
 8083SOL     OW25147   6.107   1.992   4.893
 8083SOL    HW125148   6.187   1.965   4.838
 8083SOL    HW225149   6.036   1.922   4.884
 8084SOL     OW25150   6.171   6.700   0.363
 8084SOL    HW125151   6.146   6.604   0.354
 8084SOL    HW225152   6.239   6.709   0.436
 8085SOL     OW25153   5.488   2.536   0.920
 8085SOL    HW125154   5.411   2.481   0.951
 8085SOL    HW225155   5.515   2.600   0.992
 8086SOL     OW25156   2.157   5.626   5.936
 8086SOL    HW125157   2.066   5.661   5.915
 8086SOL    HW225158   2.188   5.567   5.861
 8087SOL     OW25159   2.947   4.345   0.436
 8087SOL    HW125160   2.992   4.422   0.482
 8087SOL    HW225161   2.991   4.329   0.347
 8088SOL     OW25162   4.542   1.044   3.262
 8088SOL    HW125163   4.561   0.947   3.277
 8088SOL    HW225164   4.468   1.073   3.323
 8089SOL     OW25165   6.431   2.906   0.639
 8089SOL    HW125166   6.390   2.821   0.607
 8089SOL    HW225167   6.446   2.968   0.561
 8090SOL     OW25168   4.556   2.258   5.165
 8090SOL    HW125169   4.629   2.192   5.144
 8090SOL    HW225170   4.515   2.290   5.080
 8091SOL     OW25171   1.913   4.110   5.246
 8091SOL    HW125172   2.006   4.087   5.217
 8091SOL    HW225173   1.861   4.026   5.261
 8092SOL     OW25174   6.600   1.739   4.472
 8092SOL    HW125175   6.659   1.736   4.553
 8092SOL    HW225176   6.628   1.667   4.408
 8093SOL     OW25177   5.637   5.388   0.704
 8093SOL    HW125178   5.654   5.311   0.766
 8093SOL    HW225179   5.669   5.365   0.612
 8094SOL     OW25180   0.406   4.099   4.089
 8094SOL    HW125181   0.314   4.060   4.083
 8094SOL    HW225182   0.399   4.196   4.112
 8095SOL     OW25183   6.592   3.632   4.795
 8095SOL    HW125184   6.630   3.656   4.706
 8095SOL    HW225185   6.609   3.706   4.859
 8096SOL     OW25186   4.689   0.307   0.795
 8096SOL    HW125187   4.692   0.351   0.885
 8096SOL    HW225188   4.600   0.324   0.753
 8097SOL     OW25189   4.924   1.438   4.420
 8097SOL    HW125190   4.988   1.460   4.347
 8097SOL    HW225191   4.956   1.356   4.468
 8098SOL     OW25192   2.129   1.472   4.181
 8098SOL    HW125193   2.196   1.546   4.178
 8098SOL    HW225194   2.084   1.464   4.092
 8099SOL     OW25195   3.707   6.264   5.285
 8099SOL    HW125196   3.733   6.243   5.379
 8099SOL    HW225197   3.789   6.285   5.232
 8100SOL     OW25198   6.598   6.256   1.058
 8100SOL    HW125199   6.686   6.233   1.100
 8100SOL    HW225200   6.526   6.202   1.103
 8101SOL     OW25201   0.282   4.715   1.944
 8101SOL    HW125202   0.254   4.619   1.937
 8101SOL    HW225203   0.354   4.724   2.013
 8102SOL     OW25204   6.568   0.263   5.813
 8102SOL    HW125205   6.543   0.257   5.910
 8102SOL    HW225206   6.587   0.358   5.789
 8103SOL     OW25207   2.513   2.534   2.404
 8103SOL    HW125208   2.452   2.613   2.392
 8103SOL    HW225209   2.532   2.494   2.314
 8104SOL     OW25210   3.065   0.082   6.194
 8104SOL    HW125211   3.079   0.131   6.108
 8104SOL    HW225212   3.145   0.093   6.253
 8105SOL     OW25213   1.763   2.779   3.160
 8105SOL    HW125214   1.861   2.792   3.168
 8105SOL    HW225215   1.716   2.834   3.229
 8106SOL     OW25216   0.165   3.638   5.285
 8106SOL    HW125217   0.174   3.653   5.187
 8106SOL    HW225218   0.256   3.644   5.328
 8107SOL     OW25219   1.380   5.573   6.757
 8107SOL    HW125220   1.395   5.666   6.788
 8107SOL    HW225221   1.301   5.534   6.805
 8108SOL     OW25222   2.180   3.189   5.393
 8108SOL    HW125223   2.279   3.202   5.399
 8108SOL    HW225224   2.157   3.144   5.307
 8109SOL     OW25225   0.851   5.179   5.201
 8109SOL    HW125226   0.932   5.134   5.165
 8109SOL    HW225227   0.824   5.253   5.140
 8110SOL     OW25228   1.293   4.916   0.360
 8110SOL    HW125229   1.291   4.832   0.414
 8110SOL    HW225230   1.199   4.945   0.340
 8111SOL     OW25231   3.195   6.204   4.270
 8111SOL    HW125232   3.148   6.262   4.337
 8111SOL    HW225233   3.208   6.112   4.308
 8112SOL     OW25234   4.255   0.954   4.088
 8112SOL    HW125235   4.179   1.013   4.115
 8112SOL    HW225236   4.297   0.914   4.170
 8113SOL     OW25237   3.162   2.968   5.812
 8113SOL    HW125238   3.205   3.048   5.769
 8113SOL    HW225239   3.229   2.893   5.817
 8114SOL     OW25240   2.858   3.259   1.831
 8114SOL    HW125241   2.788   3.321   1.795
 8114SOL    HW225242   2.947   3.305   1.831
 8115SOL     OW25243   3.122   2.914   0.774
 8115SOL    HW125244   3.145   2.876   0.863
 8115SOL    HW225245   3.029   2.951   0.775
 8116SOL     OW25246   5.391   1.410   5.583
 8116SOL    HW125247   5.293   1.396   5.592
 8116SOL    HW225248   5.433   1.329   5.542
 8117SOL     OW25249   3.093   2.024   5.887
 8117SOL    HW125250   3.031   2.102   5.883
 8117SOL    HW225251   3.151   2.025   5.806
 8118SOL     OW25252   1.914   2.119   3.843
 8118SOL    HW125253   1.849   2.044   3.829
 8118SOL    HW225254   1.915   2.178   3.762
 8119SOL     OW25255   1.099   6.336   2.171
 8119SOL    HW125256   1.124   6.418   2.120
 8119SOL    HW225257   1.060   6.362   2.259
 8120SOL     OW25258   4.605   4.371   2.404
 8120SOL    HW125259   4.688   4.425   2.393
 8120SOL    HW225260   4.533   4.406   2.343
 8121SOL     OW25261   6.621   6.341   2.933
 8121SOL    HW125262   6.584   6.256   2.896
 8121SOL    HW225263   6.720   6.331   2.945
 8122SOL     OW25264   6.728   5.692   1.360
 8122SOL    HW125265   6.705   5.608   1.409
 8122SOL    HW225266   6.810   5.733   1.402
 8123SOL     OW25267   1.501   5.146   0.046
 8123SOL    HW125268   1.547   5.086   0.112
 8123SOL    HW225269   1.416   5.181   0.086
 8124SOL     OW25270   1.433   6.476   3.238
 8124SOL    HW125271   1.493   6.533   3.295
 8124SOL    HW225272   1.477   6.460   3.150
 8125SOL     OW25273   5.306   5.022   3.216
 8125SOL    HW125274   5.311   4.928   3.249
 8125SOL    HW225275   5.341   5.084   3.286
 8126SOL     OW25276   6.859   4.711   2.478
 8126SOL    HW125277   6.944   4.692   2.528
 8126SOL    HW225278   6.808   4.626   2.466
 8127SOL     OW25279   4.461   5.396   1.344
 8127SOL    HW125280   4.524   5.459   1.388
 8127SOL    HW225281   4.376   5.390   1.396
 8128SOL     OW25282   3.664   1.648   5.351
 8128SOL    HW125283   3.582   1.705   5.356
 8128SOL    HW225284   3.641   1.554   5.375
 8129SOL     OW25285   4.920   6.140   6.398
 8129SOL    HW125286   4.915   6.225   6.345
 8129SOL    HW225287   4.846   6.137   6.465
 8130SOL     OW25288   0.537   0.186   6.833
 8130SOL    HW125289   0.532   0.206   6.735
 8130SOL    HW225290   0.613   0.123   6.851
 8131SOL     OW25291   2.397   1.330   1.003
 8131SOL    HW125292   2.427   1.335   1.098
 8131SOL    HW225293   2.301   1.301   1.000
 8132SOL     OW25294   5.334   4.331   3.432
 8132SOL    HW125295   5.418   4.276   3.435
 8132SOL    HW225296   5.304   4.341   3.338
 8133SOL     OW25297   0.346   5.580   1.786
 8133SOL    HW125298   0.417   5.650   1.785
 8133SOL    HW225299   0.260   5.620   1.754
 8134SOL     OW25300   1.860   2.615   1.968
 8134SOL    HW125301   1.798   2.674   1.917
 8134SOL    HW225302   1.919   2.671   2.027
 8135SOL     OW25303   3.984   6.255   2.641
 8135SOL    HW125304   4.068   6.307   2.620
 8135SOL    HW225305   3.908   6.319   2.654
 8136SOL     OW25306   2.092   6.069   1.706
 8136SOL    HW125307   2.033   6.141   1.669
 8136SOL    HW225308   2.151   6.034   1.634
 8137SOL     OW25309   2.869   3.625   5.095
 8137SOL    HW125310   2.869   3.674   5.008
 8137SOL    HW225311   2.844   3.529   5.079
 8138SOL     OW25312   4.604   1.331   3.493
 8138SOL    HW125313   4.555   1.297   3.573
 8138SOL    HW225314   4.670   1.400   3.521
 8139SOL     OW25315   1.645   3.168   5.941
 8139SOL    HW125316   1.545   3.166   5.941
 8139SOL    HW225317   1.676   3.261   5.919
 8140SOL     OW25318   4.521   1.298   0.847
 8140SOL    HW125319   4.565   1.214   0.814
 8140SOL    HW225320   4.560   1.376   0.798
 8141SOL     OW25321   6.269   0.822   5.449
 8141SOL    HW125322   6.211   0.781   5.519
 8141SOL    HW225323   6.242   0.788   5.359
 8142SOL     OW25324   2.781   5.886   0.620
 8142SOL    HW125325   2.829   5.968   0.653
 8142SOL    HW225326   2.848   5.817   0.594
 8143SOL     OW25327   6.015   4.642   0.217
 8143SOL    HW125328   6.108   4.617   0.244
 8143SOL    HW225329   5.967   4.561   0.185
 8144SOL     OW25330   1.830   5.525   7.010
 8144SOL    HW125331   1.782   5.463   0.053
 8144SOL    HW225332   1.784   5.614   7.010
 8145SOL     OW25333   5.290   5.623   6.189
 8145SOL    HW125334   5.348   5.681   6.246
 8145SOL    HW225335   5.329   5.531   6.185
 8146SOL     OW25336   6.813   6.347   4.827
 8146SOL    HW125337   6.779   6.410   4.897
 8146SOL    HW225338   6.793   6.385   4.737
 8147SOL     OW25339   2.259   0.627   5.454
 8147SOL    HW125340   2.345   0.577   5.446
 8147SOL    HW225341   2.189   0.582   5.397
 8148SOL     OW25342   5.054   4.886   6.721
 8148SOL    HW125343   5.152   4.893   6.701
 8148SOL    HW225344   5.003   4.876   6.636
 8149SOL     OW25345   1.358   6.811   5.711
 8149SOL    HW125346   1.336   6.897   5.757
 8149SOL    HW225347   1.457   6.794   5.717
 8150SOL     OW25348   0.775   4.102   0.369
 8150SOL    HW125349   0.806   4.009   0.351
 8150SOL    HW225350   0.829   4.166   0.314
 8151SOL     OW25351   6.123   4.637   2.547
 8151SOL    HW125352   6.025   4.619   2.558
 8151SOL    HW225353   6.143   4.730   2.577
 8152SOL     OW25354   5.944   1.967   3.596
 8152SOL    HW125355   5.891   1.896   3.643
 8152SOL    HW225356   5.888   2.010   3.526
 8153SOL     OW25357   0.316   1.551   1.564
 8153SOL    HW125358   0.282   1.512   1.478
 8153SOL    HW225359   0.380   1.487   1.607
 8154SOL     OW25360   1.178   0.363   3.348
 8154SOL    HW125361   1.102   0.389   3.287
 8154SOL    HW225362   1.179   0.423   3.427
 8155SOL     OW25363   1.549   4.945   4.564
 8155SOL    HW125364   1.536   4.918   4.469
 8155SOL    HW225365   1.517   4.871   4.624
 8156SOL     OW25366   1.406   3.909   0.508
 8156SOL    HW125367   1.344   3.982   0.539
 8156SOL    HW225368   1.352   3.835   0.468
 8157SOL     OW25369   6.073   4.798   4.629
 8157SOL    HW125370   6.169   4.787   4.605
 8157SOL    HW225371   6.022   4.832   4.550
 8158SOL     OW25372   5.881   5.092   5.872
 8158SOL    HW125373   5.942   5.166   5.842
 8158SOL    HW225374   5.934   5.007   5.880
 8159SOL     OW25375   2.825   0.225   4.798
 8159SOL    HW125376   2.867   0.220   4.888
 8159SOL    HW225377   2.896   0.242   4.729
 8160SOL     OW25378   5.559   2.344   3.015
 8160SOL    HW125379   5.655   2.364   2.996
 8160SOL    HW225380   5.535   2.382   3.105
 8161SOL     OW25381   6.585   2.791   1.882
 8161SOL    HW125382   6.579   2.698   1.847
 8161SOL    HW225383   6.615   2.789   1.978
 8162SOL     OW25384   1.202   5.915   5.523
 8162SOL    HW125385   1.260   5.993   5.499
 8162SOL    HW225386   1.255   5.830   5.518
 8163SOL     OW25387   3.815   4.486   5.353
 8163SOL    HW125388   3.821   4.574   5.306
 8163SOL    HW225389   3.720   4.460   5.365
 8164SOL     OW25390   5.254   1.791   0.806
 8164SOL    HW125391   5.306   1.863   0.853
 8164SOL    HW225392   5.246   1.814   0.709
 8165SOL     OW25393   0.938   1.888   6.275
 8165SOL    HW125394   0.858   1.863   6.329
 8165SOL    HW225395   1.021   1.855   6.321
 8166SOL     OW25396   2.456   2.012   4.593
 8166SOL    HW125397   2.367   2.021   4.548
 8166SOL    HW225398   2.476   2.096   4.644
 8167SOL     OW25399   2.113   2.381   3.183
 8167SOL    HW125400   2.107   2.294   3.232
 8167SOL    HW225401   2.060   2.451   3.232
 8168SOL     OW25402   1.565   6.329   3.050
 8168SOL    HW125403   1.653   6.367   3.022
 8168SOL    HW225404   1.534   6.264   2.982
 8169SOL     OW25405   4.981   4.110   0.544
 8169SOL    HW125406   4.897   4.161   0.566
 8169SOL    HW225407   5.059   4.171   0.552
 8170SOL     OW25408   0.167   4.490   3.092
 8170SOL    HW125409   0.159   4.560   3.022
 8170SOL    HW225410   0.259   4.451   3.090
 8171SOL     OW25411   2.162   2.075   1.636
 8171SOL    HW125412   2.234   2.068   1.705
 8171SOL    HW225413   2.115   1.988   1.627
 8172SOL     OW25414   1.345   4.176   0.641
 8172SOL    HW125415   1.373   4.220   0.726
 8172SOL    HW225416   1.396   4.217   0.564
 8173SOL     OW25417   6.005   0.080   1.502
 8173SOL    HW125418   6.053   0.164   1.527
 8173SOL    HW225419   6.069   0.004   1.502
 8174SOL     OW25420   2.320   6.679   4.046
 8174SOL    HW125421   2.418   6.700   4.052
 8174SOL    HW225422   2.290   6.685   3.951
 8175SOL     OW25423   0.520   2.404   5.408
 8175SOL    HW125424   0.529   2.304   5.405
 8175SOL    HW225425   0.473   2.430   5.492
 8176SOL     OW25426   2.840   5.344   0.463
 8176SOL    HW125427   2.760   5.284   0.470
 8176SOL    HW225428   2.810   5.438   0.447
 8177SOL     OW25429   2.923   1.270   2.711
 8177SOL    HW125430   2.866   1.317   2.643
 8177SOL    HW225431   2.969   1.193   2.667
 8178SOL     OW25432   2.258   6.493   0.892
 8178SOL    HW125433   2.176   6.454   0.852
 8178SOL    HW225434   2.302   6.425   0.952
 8179SOL     OW25435   6.034   0.426   3.535
 8179SOL    HW125436   6.053   0.344   3.588
 8179SOL    HW225437   5.997   0.497   3.594
 8180SOL     OW25438   4.928   5.418   0.573
 8180SOL    HW125439   4.832   5.403   0.548
 8180SOL    HW225440   4.984   5.420   0.490
 8181SOL     OW25441   6.238   0.640   6.175
 8181SOL    HW125442   6.142   0.666   6.182
 8181SOL    HW225443   6.256   0.601   6.084
 8182SOL     OW25444   3.550   3.555   3.040
 8182SOL    HW125445   3.457   3.521   3.052
 8182SOL    HW225446   3.615   3.479   3.044
 8183SOL     OW25447   0.040   0.306   5.630
 8183SOL    HW125448   0.113   0.248   5.666
 8183SOL    HW225449   6.984   0.309   5.695
 8184SOL     OW25450   0.447   5.933   5.476
 8184SOL    HW125451   0.348   5.940   5.464
 8184SOL    HW225452   0.470   5.843   5.513
 8185SOL     OW25453   0.563   5.934   5.234
 8185SOL    HW125454   0.541   5.959   5.328
 8185SOL    HW225455   0.489   5.879   5.195
 8186SOL     OW25456   1.439   5.567   0.539
 8186SOL    HW125457   1.350   5.598   0.573
 8186SOL    HW225458   1.427   5.487   0.481
 8187SOL     OW25459   1.742   6.500   4.774
 8187SOL    HW125460   1.791   6.469   4.693
 8187SOL    HW225461   1.644   6.498   4.757
 8188SOL     OW25462   1.902   2.996   2.543
 8188SOL    HW125463   1.908   3.025   2.638
 8188SOL    HW225464   1.913   2.897   2.538
 8189SOL     OW25465   6.113   4.658   4.101
 8189SOL    HW125466   6.177   4.646   4.177
 8189SOL    HW225467   6.148   4.727   4.039
 8190SOL     OW25468   6.457   4.048   2.767
 8190SOL    HW125469   6.415   4.062   2.677
 8190SOL    HW225470   6.400   3.987   2.821
 8191SOL     OW25471   4.219   5.080   0.943
 8191SOL    HW125472   4.260   5.142   1.010
 8191SOL    HW225473   4.121   5.075   0.959
 8192SOL     OW25474   0.681   6.106   3.658
 8192SOL    HW125475   0.744   6.044   3.610
 8192SOL    HW225476   0.672   6.077   3.753
 8193SOL     OW25477   0.317   5.005   3.862
 8193SOL    HW125478   0.404   5.018   3.814
 8193SOL    HW225479   0.251   4.962   3.801
 8194SOL     OW25480   5.129   0.345   1.844
 8194SOL    HW125481   5.091   0.355   1.936
 8194SOL    HW225482   5.125   0.433   1.797
 8195SOL     OW25483   6.501   6.734   3.629
 8195SOL    HW125484   6.477   6.828   3.603
 8195SOL    HW225485   6.435   6.700   3.696
 8196SOL     OW25486   4.836   0.538   2.411
 8196SOL    HW125487   4.831   0.442   2.384
 8196SOL    HW225488   4.767   0.590   2.361
 8197SOL     OW25489   4.618   1.733   3.542
 8197SOL    HW125490   4.536   1.723   3.486
 8197SOL    HW225491   4.686   1.666   3.515
 8198SOL     OW25492   1.719   5.725   1.169
 8198SOL    HW125493   1.731   5.747   1.266
 8198SOL    HW225494   1.673   5.637   1.160
 8199SOL     OW25495   5.458   2.217   0.545
 8199SOL    HW125496   5.524   2.264   0.605
 8199SOL    HW225497   5.497   2.130   0.515
 8200SOL     OW25498   5.335   4.348   0.772
 8200SOL    HW125499   5.417   4.299   0.802
 8200SOL    HW225500   5.292   4.394   0.850
 8201SOL     OW25501   5.587   6.997   5.285
 8201SOL    HW125502   5.577   0.047   5.356
 8201SOL    HW225503   5.683   6.989   5.258
 8202SOL     OW25504   1.431   5.870   2.054
 8202SOL    HW125505   1.449   5.800   1.985
 8202SOL    HW225506   1.393   5.951   2.010
 8203SOL     OW25507   1.746   3.273   1.141
 8203SOL    HW125508   1.838   3.288   1.177
 8203SOL    HW225509   1.727   3.175   1.136
 8204SOL     OW25510   1.650   3.439   0.921
 8204SOL    HW125511   1.621   3.534   0.935
 8204SOL    HW225512   1.695   3.406   1.004
 8205SOL     OW25513   0.086   3.684   6.647
 8205SOL    HW125514   0.156   3.642   6.705
 8205SOL    HW225515   0.089   3.783   6.659
 8206SOL     OW25516   3.320   1.342   1.304
 8206SOL    HW125517   3.329   1.258   1.357
 8206SOL    HW225518   3.296   1.321   1.210
 8207SOL     OW25519   3.988   3.767   4.185
 8207SOL    HW125520   3.967   3.759   4.088
 8207SOL    HW225521   3.929   3.836   4.227
 8208SOL     OW25522   1.930   0.355   0.033
 8208SOL    HW125523   1.960   0.383   0.125
 8208SOL    HW225524   1.984   0.402   6.983
 8209SOL     OW25525   6.041   2.457   4.302
 8209SOL    HW125526   5.949   2.475   4.336
 8209SOL    HW225527   6.039   2.445   4.203
 8210SOL     OW25528   2.089   2.598   6.107
 8210SOL    HW125529   2.141   2.653   6.173
 8210SOL    HW225530   2.059   2.657   6.032
 8211SOL     OW25531   4.354   4.170   1.343
 8211SOL    HW125532   4.350   4.176   1.244
 8211SOL    HW225533   4.332   4.260   1.383
 8212SOL     OW25534   2.500   2.617   2.709
 8212SOL    HW125535   2.451   2.561   2.776
 8212SOL    HW225536   2.554   2.558   2.649
 8213SOL     OW25537   6.323   4.413   0.805
 8213SOL    HW125538   6.324   4.393   0.707
 8213SOL    HW225539   6.284   4.504   0.821
 8214SOL     OW25540   5.114   3.644   2.929
 8214SOL    HW125541   5.210   3.673   2.920
 8214SOL    HW225542   5.054   3.716   2.895
 8215SOL     OW25543   3.408   5.155   1.994
 8215SOL    HW125544   3.431   5.074   2.049
 8215SOL    HW225545   3.386   5.231   2.055
 8216SOL     OW25546   5.542   3.561   3.110
 8216SOL    HW125547   5.604   3.557   3.189
 8216SOL    HW225548   5.502   3.471   3.094
 8217SOL     OW25549   2.017   5.863   0.540
 8217SOL    HW125550   2.022   5.962   0.528
 8217SOL    HW225551   2.107   5.823   0.525
 8218SOL     OW25552   5.169   2.350   0.606
 8218SOL    HW125553   5.263   2.319   0.592
 8218SOL    HW225554   5.152   2.431   0.551
 8219SOL     OW25555   5.303   2.008   0.302
 8219SOL    HW125556   5.359   1.934   0.266
 8219SOL    HW225557   5.345   2.096   0.280
 8220SOL     OW25558   4.459   3.560   1.507
 8220SOL    HW125559   4.424   3.494   1.575
 8220SOL    HW225560   4.445   3.653   1.541
 8221SOL     OW25561   5.475   4.319   2.815
 8221SOL    HW125562   5.560   4.351   2.856
 8221SOL    HW225563   5.481   4.220   2.799
 8222SOL     OW25564   6.229   1.343   3.052
 8222SOL    HW125565   6.291   1.420   3.038
 8222SOL    HW225566   6.264   1.285   3.125
 8223SOL     OW25567   0.003   5.197   6.196
 8223SOL    HW125568   0.036   5.115   6.242
 8223SOL    HW225569   6.922   5.195   6.192
 8224SOL     OW25570   1.001   3.448   2.930
 8224SOL    HW125571   0.936   3.521   2.911
 8224SOL    HW225572   1.055   3.471   3.011
 8225SOL     OW25573   4.806   1.204   0.812
 8225SOL    HW125574   4.855   1.129   0.857
 8225SOL    HW225575   4.856   1.289   0.825
 8226SOL     OW25576   4.051   0.081   0.391
 8226SOL    HW125577   4.107   0.008   0.352
 8226SOL    HW225578   4.083   0.170   0.358
 8227SOL     OW25579   6.109   4.021   3.082
 8227SOL    HW125580   6.146   4.065   3.164
 8227SOL    HW225581   6.009   4.021   3.086
 8228SOL     OW25582   6.960   1.660   4.272
 8228SOL    HW125583   0.011   1.651   4.201
 8228SOL    HW225584   6.957   1.754   4.304
 8229SOL     OW25585   4.576   5.760   0.863
 8229SOL    HW125586   4.567   5.747   0.962
 8229SOL    HW225587   4.663   5.721   0.832
 8230SOL     OW25588   5.125   6.973   3.941
 8230SOL    HW125589   5.038   0.003   3.947
 8230SOL    HW225590   5.145   6.932   4.030
 8231SOL     OW25591   4.022   5.890   1.462
 8231SOL    HW125592   4.039   5.791   1.469
 8231SOL    HW225593   4.063   5.925   1.378
 8232SOL     OW25594   2.563   2.070   0.006
 8232SOL    HW125595   2.496   1.998   7.004
 8232SOL    HW225596   2.517   2.147   0.049
 8233SOL     OW25597   0.105   5.436   6.124
 8233SOL    HW125598   0.175   5.422   6.054
 8233SOL    HW225599   0.068   5.348   6.152
 8234SOL     OW25600   3.003   3.416   0.035
 8234SOL    HW125601   2.992   3.412   0.134
 8234SOL    HW225602   3.089   3.373   0.009
 8235SOL     OW25603   4.305   2.511   0.017
 8235SOL    HW125604   4.230   2.506   6.971
 8235SOL    HW225605   4.277   2.565   0.097
 8236SOL     OW25606   5.933   2.590   1.029
 8236SOL    HW125607   5.944   2.556   0.936
 8236SOL    HW225608   5.917   2.514   1.091
 8237SOL     OW25609   3.656   6.492   5.687
 8237SOL    HW125610   3.609   6.404   5.691
 8237SOL    HW225611   3.609   6.558   5.747
 8238SOL     OW25612   2.051   0.929   6.971
 8238SOL    HW125613   2.109   0.999   7.014
 8238SOL    HW225614   2.009   0.874   0.024
 8239SOL     OW25615   5.840   1.121   6.865
 8239SOL    HW125616   5.770   1.073   6.917
 8239SOL    HW225617   5.930   1.098   6.903
 8240SOL     OW25618   4.121   3.377   3.129
 8240SOL    HW125619   4.203   3.418   3.088
 8240SOL    HW225620   4.076   3.319   3.062
 8241SOL     OW25621   4.419   6.124   1.706
 8241SOL    HW125622   4.516   6.145   1.716
 8241SOL    HW225623   4.388   6.071   1.785
 8242SOL     OW25624   0.988   3.645   5.547
 8242SOL    HW125625   0.890   3.625   5.542
 8242SOL    HW225626   1.032   3.582   5.611
 8243SOL     OW25627   0.402   3.428   4.842
 8243SOL    HW125628   0.369   3.356   4.904
 8243SOL    HW225629   0.449   3.498   4.896
 8244SOL     OW25630   2.613   5.629   4.674
 8244SOL    HW125631   2.526   5.625   4.723
 8244SOL    HW225632   2.688   5.618   4.739
 8245SOL     OW25633   4.080   3.774   0.422
 8245SOL    HW125634   4.085   3.847   0.490
 8245SOL    HW225635   4.147   3.791   0.350
 8246SOL     OW25636   4.859   4.124   5.211
 8246SOL    HW125637   4.809   4.173   5.140
 8246SOL    HW225638   4.851   4.026   5.195
 8247SOL     OW25639   1.027   6.820   0.423
 8247SOL    HW125640   1.025   6.752   0.496
 8247SOL    HW225641   0.984   6.904   0.455
 8248SOL     OW25642   0.398   4.738   3.369
 8248SOL    HW125643   0.363   4.713   3.460
 8248SOL    HW225644   0.321   4.759   3.309
 8249SOL     OW25645   1.148   5.449   3.144
 8249SOL    HW125646   1.169   5.373   3.205
 8249SOL    HW225647   1.049   5.454   3.131
 8250SOL     OW25648   3.612   3.787   1.961
 8250SOL    HW125649   3.514   3.798   1.977
 8250SOL    HW225650   3.661   3.865   2.001
 8251SOL     OW25651   5.847   1.586   4.582
 8251SOL    HW125652   5.878   1.492   4.573
 8251SOL    HW225653   5.925   1.649   4.576
 8252SOL     OW25654   1.440   3.711   4.425
 8252SOL    HW125655   1.358   3.691   4.479
 8252SOL    HW225656   1.418   3.781   4.356
 8253SOL     OW25657   2.414   3.048   5.611
 8253SOL    HW125658   2.466   2.964   5.595
 8253SOL    HW225659   2.420   3.107   5.530
 8254SOL     OW25660   4.297   5.812   3.369
 8254SOL    HW125661   4.306   5.876   3.293
 8254SOL    HW225662   4.386   5.798   3.412
 8255SOL     OW25663   4.217   4.865   3.716
 8255SOL    HW125664   4.138   4.923   3.697
 8255SOL    HW225665   4.200   4.813   3.799
 8256SOL     OW25666   5.892   2.754   4.021
 8256SOL    HW125667   5.981   2.711   4.036
 8256SOL    HW225668   5.820   2.693   4.053
 8257SOL     OW25669   5.959   4.918   4.410
 8257SOL    HW125670   5.887   4.979   4.377
 8257SOL    HW225671   6.048   4.962   4.399
 8258SOL     OW25672   5.110   1.767   0.226
 8258SOL    HW125673   5.156   1.847   0.265
 8258SOL    HW225674   5.099   1.697   0.296
 8259SOL     OW25675   4.425   1.096   1.250
 8259SOL    HW125676   4.523   1.093   1.271
 8259SOL    HW225677   4.397   1.192   1.236
 8260SOL     OW25678   2.885   5.667   0.002
 8260SOL    HW125679   2.805   5.608   7.015
 8260SOL    HW225680   2.864   5.746   0.059
 8261SOL     OW25681   5.157   1.190   1.672
 8261SOL    HW125682   5.257   1.194   1.679
 8261SOL    HW225683   5.133   1.131   1.595
 8262SOL     OW25684   0.267   2.452   1.085
 8262SOL    HW125685   0.340   2.520   1.084
 8262SOL    HW225686   0.182   2.495   1.117
 8263SOL     OW25687   5.545   1.265   1.138
 8263SOL    HW125688   5.478   1.245   1.209
 8263SOL    HW225689   5.635   1.281   1.180
 8264SOL     OW25690   1.104   4.523   2.213
 8264SOL    HW125691   1.005   4.537   2.215
 8264SOL    HW225692   1.150   4.603   2.250
 8265SOL     OW25693   1.907   0.612   2.333
 8265SOL    HW125694   1.998   0.589   2.368
 8265SOL    HW225695   1.895   0.573   2.242
 8266SOL     OW25696   2.769   0.639   3.094
 8266SOL    HW125697   2.836   0.702   3.135
 8266SOL    HW225698   2.676   0.673   3.113
 8267SOL     OW25699   6.985   3.782   0.766
 8267SOL    HW125700   6.932   3.776   0.681
 8267SOL    HW225701   6.962   3.705   0.825
 8268SOL     OW25702   3.633   5.792   6.504
 8268SOL    HW125703   3.565   5.864   6.485
 8268SOL    HW225704   3.686   5.773   6.422
 8269SOL     OW25705   6.096   2.045   1.009
 8269SOL    HW125706   6.064   2.041   0.915
 8269SOL    HW225707   6.085   2.138   1.044
 8270SOL     OW25708   3.061   6.412   4.374
 8270SOL    HW125709   3.007   6.371   4.301
 8270SOL    HW225710   3.084   6.506   4.349
 8271SOL     OW25711   6.248   2.371   2.854
 8271SOL    HW125712   6.198   2.290   2.824
 8271SOL    HW225713   6.324   2.389   2.791
 8272SOL     OW25714   3.977   1.083   4.274
 8272SOL    HW125715   3.996   1.117   4.181
 8272SOL    HW225716   3.880   1.096   4.295
 8273SOL     OW25717   1.974   6.704   1.707
 8273SOL    HW125718   1.990   6.619   1.657
 8273SOL    HW225719   2.033   6.705   1.788
 8274SOL     OW25720   5.353   3.997   3.434
 8274SOL    HW125721   5.378   4.083   3.389
 8274SOL    HW225722   5.299   3.941   3.371
 8275SOL     OW25723   5.134   2.267   6.748
 8275SOL    HW125724   5.069   2.273   6.673
 8275SOL    HW225725   5.122   2.180   6.796
 8276SOL     OW25726   0.284   1.848   2.900
 8276SOL    HW125727   0.347   1.769   2.900
 8276SOL    HW225728   0.337   1.932   2.905
 8277SOL     OW25729   6.641   1.030   6.902
 8277SOL    HW125730   6.727   1.066   6.864
 8277SOL    HW225731   6.624   0.939   6.865
 8278SOL     OW25732   1.616   2.336   6.472
 8278SOL    HW125733   1.547   2.309   6.539
 8278SOL    HW225734   1.643   2.430   6.487
 8279SOL     OW25735   0.094   6.017   3.743
 8279SOL    HW125736   0.132   6.110   3.743
 8279SOL    HW225737   0.099   5.979   3.651
 8280SOL     OW25738   3.209   2.319   5.638
 8280SOL    HW125739   3.234   2.379   5.562
 8280SOL    HW225740   3.173   2.233   5.602
 8281SOL     OW25741   4.830   5.516   2.855
 8281SOL    HW125742   4.762   5.446   2.833
 8281SOL    HW225743   4.841   5.576   2.775
 8282SOL     OW25744   5.601   2.453   6.231
 8282SOL    HW125745   5.664   2.486   6.161
 8282SOL    HW225746   5.539   2.527   6.257
 8283SOL     OW25747   2.005   2.108   5.733
 8283SOL    HW125748   1.968   2.196   5.705
 8283SOL    HW225749   2.065   2.072   5.662
 8284SOL     OW25750   6.443   4.195   1.666
 8284SOL    HW125751   6.448   4.141   1.750
 8284SOL    HW225752   6.512   4.162   1.601
 8285SOL     OW25753   4.113   3.233   4.229
 8285SOL    HW125754   4.126   3.196   4.137
 8285SOL    HW225755   4.094   3.331   4.223
 8286SOL     OW25756   0.167   1.700   6.046
 8286SOL    HW125757   0.153   1.658   6.136
 8286SOL    HW225758   0.264   1.704   6.025
 8287SOL     OW25759   1.442   6.111   4.188
 8287SOL    HW125760   1.506   6.065   4.249
 8287SOL    HW225761   1.411   6.047   4.118
 8288SOL     OW25762   3.347   1.686   3.214
 8288SOL    HW125763   3.356   1.749   3.137
 8288SOL    HW225764   3.252   1.655   3.220
 8289SOL     OW25765   6.945   5.641   6.776
 8289SOL    HW125766   6.880   5.567   6.797
 8289SOL    HW225767   0.014   5.601   6.751
 8290SOL     OW25768   6.368   2.345   0.723
 8290SOL    HW125769   6.280   2.309   0.690
 8290SOL    HW225770   6.436   2.272   0.724
 8291SOL     OW25771   4.369   0.305   0.952
 8291SOL    HW125772   4.410   0.222   0.989
 8291SOL    HW225773   4.270   0.298   0.954
 8292SOL     OW25774   3.030   0.368   6.259
 8292SOL    HW125775   3.126   0.396   6.262
 8292SOL    HW225776   3.008   0.317   6.341
 8293SOL     OW25777   5.811   5.385   4.734
 8293SOL    HW125778   5.793   5.331   4.817
 8293SOL    HW225779   5.725   5.402   4.686
 8294SOL     OW25780   5.557   3.023   6.967
 8294SOL    HW125781   5.635   2.971   6.932
 8294SOL    HW225782   5.475   2.998   6.915
 8295SOL     OW25783   4.450   3.595   6.642
 8295SOL    HW125784   4.376   3.536   6.675
 8295SOL    HW225785   4.412   3.685   6.618
 8296SOL     OW25786   1.119   5.033   6.451
 8296SOL    HW125787   1.104   5.129   6.428
 8296SOL    HW225788   1.042   5.000   6.505
 8297SOL     OW25789   1.056   2.788   3.844
 8297SOL    HW125790   1.032   2.806   3.940
 8297SOL    HW225791   1.126   2.853   3.815
 8298SOL     OW25792   4.867   1.595   2.419
 8298SOL    HW125793   4.873   1.603   2.320
 8298SOL    HW225794   4.902   1.505   2.448
 8299SOL     OW25795   6.425   2.328   1.391
 8299SOL    HW125796   6.357   2.395   1.364
 8299SOL    HW225797   6.514   2.372   1.400
 8300SOL     OW25798   0.634   5.206   3.196
 8300SOL    HW125799   0.680   5.283   3.238
 8300SOL    HW225800   0.566   5.169   3.259
 8301SOL     OW25801   3.021   2.664   6.747
 8301SOL    HW125802   2.973   2.751   6.734
 8301SOL    HW225803   2.984   2.596   6.683
 8302SOL     OW25804   6.227   5.691   5.565
 8302SOL    HW125805   6.130   5.678   5.548
 8302SOL    HW225806   6.241   5.723   5.658
 8303SOL     OW25807   6.908   0.340   6.154
 8303SOL    HW125808   6.932   0.246   6.178
 8303SOL    HW225809   6.979   0.379   6.096
 8304SOL     OW25810   6.840   3.110   0.689
 8304SOL    HW125811   6.792   3.040   0.741
 8304SOL    HW225812   6.877   3.070   0.605
 8305SOL     OW25813   3.441   5.151   3.332
 8305SOL    HW125814   3.376   5.118   3.401
 8305SOL    HW225815   3.529   5.104   3.345
 8306SOL     OW25816   1.088   3.139   4.211
 8306SOL    HW125817   1.097   3.235   4.188
 8306SOL    HW225818   1.069   3.130   4.309
 8307SOL     OW25819   3.528   5.241   0.786
 8307SOL    HW125820   3.436   5.277   0.795
 8307SOL    HW225821   3.539   5.162   0.846
 8308SOL     OW25822   3.550   0.489   3.048
 8308SOL    HW125823   3.520   0.424   2.978
 8308SOL    HW225824   3.472   0.519   3.103
 8309SOL     OW25825   5.643   6.598   2.411
 8309SOL    HW125826   5.550   6.635   2.417
 8309SOL    HW225827   5.686   6.630   2.327
 8310SOL     OW25828   6.144   4.178   6.625
 8310SOL    HW125829   6.216   4.161   6.692
 8310SOL    HW225830   6.179   4.164   6.533
 8311SOL     OW25831   6.491   0.833   6.787
 8311SOL    HW125832   6.475   0.902   6.716
 8311SOL    HW225833   6.405   0.789   6.811
 8312SOL     OW25834   5.439   6.661   1.242
 8312SOL    HW125835   5.420   6.575   1.195
 8312SOL    HW225836   5.383   6.734   1.202
 8313SOL     OW25837   3.504   1.347   2.400
 8313SOL    HW125838   3.446   1.265   2.400
 8313SOL    HW225839   3.508   1.385   2.308
 8314SOL     OW25840   0.139   5.951   3.179
 8314SOL    HW125841   0.062   5.895   3.211
 8314SOL    HW225842   0.113   6.048   3.182
 8315SOL     OW25843   4.631   4.470   6.633
 8315SOL    HW125844   4.705   4.459   6.699
 8315SOL    HW225845   4.587   4.559   6.646
 8316SOL     OW25846   2.840   5.899   6.705
 8316SOL    HW125847   2.785   5.943   6.633
 8316SOL    HW225848   2.797   5.915   6.794
 8317SOL     OW25849   2.247   4.240   2.039
 8317SOL    HW125850   2.277   4.156   1.994
 8317SOL    HW225851   2.225   4.309   1.970
 8318SOL     OW25852   3.660   0.972   5.746
 8318SOL    HW125853   3.589   1.023   5.698
 8318SOL    HW225854   3.716   0.922   5.679
 8319SOL     OW25855   3.470   0.558   5.042
 8319SOL    HW125856   3.484   0.657   5.042
 8319SOL    HW225857   3.465   0.525   5.136
 8320SOL     OW25858   4.289   4.730   1.470
 8320SOL    HW125859   4.324   4.745   1.562
 8320SOL    HW225860   4.192   4.754   1.467
 8321SOL     OW25861   0.367   0.897   1.420
 8321SOL    HW125862   0.306   0.958   1.472
 8321SOL    HW225863   0.323   0.872   1.334
 8322SOL     OW25864   5.588   6.636   6.792
 8322SOL    HW125865   5.678   6.672   6.768
 8322SOL    HW225866   5.563   6.666   6.884
 8323SOL     OW25867   1.730   1.432   1.855
 8323SOL    HW125868   1.726   1.530   1.835
 8323SOL    HW225869   1.699   1.415   1.948
 8324SOL     OW25870   6.691   1.102   2.305
 8324SOL    HW125871   6.646   1.178   2.351
 8324SOL    HW225872   6.730   1.040   2.373
 8325SOL     OW25873   3.343   4.029   4.313
 8325SOL    HW125874   3.390   4.117   4.305
 8325SOL    HW225875   3.356   3.977   4.228
 8326SOL     OW25876   3.845   2.886   6.305
 8326SOL    HW125877   3.861   2.790   6.331
 8326SOL    HW225878   3.874   2.900   6.210
 8327SOL     OW25879   4.992   2.259   6.489
 8327SOL    HW125880   5.019   2.208   6.407
 8327SOL    HW225881   4.898   2.235   6.513
 8328SOL     OW25882   2.518   2.298   4.668
 8328SOL    HW125883   2.522   2.316   4.570
 8328SOL    HW225884   2.608   2.312   4.709
 8329SOL     OW25885   0.287   2.258   4.789
 8329SOL    HW125886   0.285   2.243   4.888
 8329SOL    HW225887   0.240   2.183   4.743
 8330SOL     OW25888   2.546   6.909   0.842
 8330SOL    HW125889   2.568   6.866   0.929
 8330SOL    HW225890   2.602   6.991   0.829
 8331SOL     OW25891   2.786   6.984   1.009
 8331SOL    HW125892   2.757   0.018   0.929
 8331SOL    HW225893   2.845   6.909   0.980
 8332SOL     OW25894   4.879   5.879   3.075
 8332SOL    HW125895   4.895   5.789   3.116
 8332SOL    HW225896   4.791   5.915   3.107
 8333SOL     OW25897   1.288   5.366   6.204
 8333SOL    HW125898   1.258   5.439   6.265
 8333SOL    HW225899   1.350   5.305   6.253
 8334SOL     OW25900   5.937   0.452   4.158
 8334SOL    HW125901   5.932   0.551   4.144
 8334SOL    HW225902   6.029   0.427   4.188
 8335SOL     OW25903   5.961   6.759   5.524
 8335SOL    HW125904   6.053   6.720   5.525
 8335SOL    HW225905   5.913   6.729   5.442
 8336SOL     OW25906   0.641   2.019   2.183
 8336SOL    HW125907   0.584   2.060   2.254
 8336SOL    HW225908   0.710   1.961   2.225
 8337SOL     OW25909   0.405   6.089   1.862
 8337SOL    HW125910   0.390   6.119   1.956
 8337SOL    HW225911   0.490   6.128   1.827
 8338SOL     OW25912   1.924   4.885   0.781
 8338SOL    HW125913   1.828   4.891   0.753
 8338SOL    HW225914   1.949   4.789   0.793
 8339SOL     OW25915   5.838   0.812   3.355
 8339SOL    HW125916   5.819   0.825   3.452
 8339SOL    HW225917   5.875   0.721   3.340
 8340SOL     OW25918   4.666   3.247   1.373
 8340SOL    HW125919   4.606   3.232   1.294
 8340SOL    HW225920   4.676   3.345   1.389
 8341SOL     OW25921   2.010   6.953   1.069
 8341SOL    HW125922   2.087   6.978   1.010
 8341SOL    HW225923   2.009   7.012   1.150
 8342SOL     OW25924   4.896   0.182   1.218
 8342SOL    HW125925   4.908   0.218   1.311
 8342SOL    HW225926   4.985   0.182   1.171
 8343SOL     OW25927   1.381   5.206   5.990
 8343SOL    HW125928   1.374   5.282   6.054
 8343SOL    HW225929   1.448   5.140   6.024
 8344SOL     OW25930   3.706   0.235   5.359
 8344SOL    HW125931   3.695   0.137   5.375
 8344SOL    HW225932   3.742   0.250   5.267
 8345SOL     OW25933   5.980   1.697   2.847
 8345SOL    HW125934   5.977   1.598   2.850
 8345SOL    HW225935   6.075   1.728   2.839
 8346SOL     OW25936   3.297   5.403   1.515
 8346SOL    HW125937   3.346   5.355   1.588
 8346SOL    HW225938   3.295   5.501   1.534
 8347SOL     OW25939   3.313   5.227   3.969
 8347SOL    HW125940   3.301   5.129   3.984
 8347SOL    HW225941   3.239   5.260   3.910
 8348SOL     OW25942   1.660   0.589   0.670
 8348SOL    HW125943   1.700   0.681   0.664
 8348SOL    HW225944   1.566   0.596   0.703
 8349SOL     OW25945   5.860   5.356   1.347
 8349SOL    HW125946   5.866   5.455   1.358
 8349SOL    HW225947   5.894   5.312   1.430
 8350SOL     OW25948   6.534   0.266   4.814
 8350SOL    HW125949   6.451   0.211   4.809
 8350SOL    HW225950   6.569   0.283   4.721
 8351SOL     OW25951   2.863   6.553   2.270
 8351SOL    HW125952   2.829   6.564   2.177
 8351SOL    HW225953   2.882   6.457   2.288
 8352SOL     OW25954   6.669   6.140   1.410
 8352SOL    HW125955   6.661   6.050   1.453
 8352SOL    HW225956   6.707   6.128   1.318
 8353SOL     OW25957   0.617   3.980   2.422
 8353SOL    HW125958   0.560   4.050   2.378
 8353SOL    HW225959   0.656   3.920   2.353
 8354SOL     OW25960   2.493   0.534   0.489
 8354SOL    HW125961   2.495   0.457   0.553
 8354SOL    HW225962   2.586   0.566   0.472
 8355SOL     OW25963   3.433   1.419   0.407
 8355SOL    HW125964   3.346   1.466   0.419
 8355SOL    HW225965   3.507   1.486   0.400
 8356SOL     OW25966   2.532   5.705   0.571
 8356SOL    HW125967   2.583   5.785   0.602
 8356SOL    HW225968   2.499   5.653   0.650
 8357SOL     OW25969   5.206   6.226   3.688
 8357SOL    HW125970   5.233   6.271   3.773
 8357SOL    HW225971   5.121   6.175   3.702
 8358SOL     OW25972   2.909   2.154   4.860
 8358SOL    HW125973   2.878   2.188   4.949
 8358SOL    HW225974   2.849   2.082   4.829
 8359SOL     OW25975   4.466   5.176   3.876
 8359SOL    HW125976   4.507   5.091   3.842
 8359SOL    HW225977   4.376   5.189   3.834
 8360SOL     OW25978   4.680   0.549   3.068
 8360SOL    HW125979   4.706   0.510   3.156
 8360SOL    HW225980   4.746   0.619   3.042
 8361SOL     OW25981   1.468   0.709   2.758
 8361SOL    HW125982   1.388   0.729   2.701
 8361SOL    HW225983   1.507   0.621   2.732
 8362SOL     OW25984   2.182   3.131   0.484
 8362SOL    HW125985   2.123   3.134   0.402
 8362SOL    HW225986   2.189   3.037   0.517
 8363SOL     OW25987   6.891   3.272   0.908
 8363SOL    HW125988   6.938   3.221   0.979
 8363SOL    HW225989   6.899   3.224   0.821
 8364SOL     OW25990   6.955   4.710   4.505
 8364SOL    HW125991   7.018   4.758   4.444
 8364SOL    HW225992   6.921   4.773   4.574
 8365SOL     OW25993   0.956   3.832   5.821
 8365SOL    HW125994   0.970   3.819   5.919
 8365SOL    HW225995   0.998   3.756   5.771
 8366SOL     OW25996   2.646   0.080   3.395
 8366SOL    HW125997   2.728   0.117   3.439
 8366SOL    HW225998   2.568   0.086   3.457
 8367SOL     OW25999   5.065   5.899   3.881
 8367SOL    HW126000   5.156   5.898   3.924
 8367SOL    HW226001   5.044   5.808   3.846
 8368SOL     OW26002   3.000   5.725   6.423
 8368SOL    HW126003   2.926   5.680   6.474
 8368SOL    HW226004   3.072   5.753   6.487
 8369SOL     OW26005   2.861   1.601   1.370
 8369SOL    HW126006   2.908   1.567   1.289
 8369SOL    HW226007   2.819   1.689   1.350
 8370SOL     OW26008   1.592   1.654   0.103
 8370SOL    HW126009   1.636   1.665   0.193
 8370SOL    HW226010   1.641   1.709   0.036
 8371SOL     OW26011   2.153   2.380   0.063
 8371SOL    HW126012   2.082   2.421   0.006
 8371SOL    HW226013   2.241   2.425   0.046
 8372SOL     OW26014   6.920   0.621   1.119
 8372SOL    HW126015   6.990   0.575   1.173
 8372SOL    HW226016   6.837   0.565   1.116
 8373SOL     OW26017   1.436   6.475   4.821
 8373SOL    HW126018   1.351   6.527   4.812
 8373SOL    HW226019   1.469   6.481   4.915
 8374SOL     OW26020   6.739   0.770   6.207
 8374SOL    HW126021   6.759   0.788   6.110
 8374SOL    HW226022   6.646   0.798   6.228
 8375SOL     OW26023   4.007   0.674   6.089
 8375SOL    HW126024   4.089   0.685   6.034
 8375SOL    HW226025   3.973   0.764   6.117
 8376SOL     OW26026   4.520   0.517   4.629
 8376SOL    HW126027   4.504   0.453   4.704
 8376SOL    HW226028   4.603   0.492   4.580
 8377SOL     OW26029   5.562   4.762   1.073
 8377SOL    HW126030   5.645   4.809   1.043
 8377SOL    HW226031   5.483   4.797   1.022
 8378SOL     OW26032   5.216   3.192   3.673
 8378SOL    HW126033   5.202   3.291   3.683
 8378SOL    HW226034   5.270   3.158   3.750
 8379SOL     OW26035   4.893   2.473   2.177
 8379SOL    HW126036   4.801   2.509   2.159
 8379SOL    HW226037   4.911   2.475   2.276
 8380SOL     OW26038   5.805   1.770   3.717
 8380SOL    HW126039   5.773   1.814   3.801
 8380SOL    HW226040   5.830   1.675   3.736
 8381SOL     OW26041   2.615   5.334   4.193
 8381SOL    HW126042   2.553   5.296   4.262
 8381SOL    HW226043   2.626   5.432   4.210
 8382SOL     OW26044   0.824   4.337   2.620
 8382SOL    HW126045   0.779   4.311   2.535
 8382SOL    HW226046   0.857   4.432   2.612
 8383SOL     OW26047   3.193   0.980   5.703
 8383SOL    HW126048   3.106   0.932   5.709
 8383SOL    HW226049   3.181   1.074   5.734
 8384SOL     OW26050   0.756   6.676   2.136
 8384SOL    HW126051   0.695   6.756   2.140
 8384SOL    HW226052   0.743   6.629   2.049
 8385SOL     OW26053   4.869   2.427   1.032
 8385SOL    HW126054   4.861   2.482   0.949
 8385SOL    HW226055   4.811   2.466   1.104
 8386SOL     OW26056   0.724   4.008   3.058
 8386SOL    HW126057   0.739   3.918   3.100
 8386SOL    HW226058   0.666   3.997   2.977
 8387SOL     OW26059   1.079   1.987   0.858
 8387SOL    HW126060   1.123   2.029   0.938
 8387SOL    HW226061   0.989   2.028   0.845
 8388SOL     OW26062   1.136   6.541   3.525
 8388SOL    HW126063   1.146   6.615   3.459
 8388SOL    HW226064   1.226   6.517   3.561
 8389SOL     OW26065   5.821   2.628   3.619
 8389SOL    HW126066   5.801   2.576   3.536
 8389SOL    HW226067   5.764   2.710   3.622
 8390SOL     OW26068   5.754   1.438   6.219
 8390SOL    HW126069   5.709   1.503   6.158
 8390SOL    HW226070   5.853   1.448   6.211
 8391SOL     OW26071   6.635   6.855   1.441
 8391SOL    HW126072   6.588   6.853   1.529
 8391SOL    HW226073   6.576   6.897   1.373
 8392SOL     OW26074   3.945   3.088   5.702
 8392SOL    HW126075   4.022   3.045   5.749
 8392SOL    HW226076   3.862   3.035   5.720
 8393SOL     OW26077   5.658   0.094   1.177
 8393SOL    HW126078   5.629   0.064   1.086
 8393SOL    HW226079   5.582   0.082   1.241
 8394SOL     OW26080   5.731   2.710   2.565
 8394SOL    HW126081   5.712   2.612   2.566
 8394SOL    HW226082   5.780   2.733   2.481
 8395SOL     OW26083   2.275   1.240   5.240
 8395SOL    HW126084   2.204   1.252   5.171
 8395SOL    HW226085   2.262   1.306   5.313
 8396SOL     OW26086   5.198   5.273   4.578
 8396SOL    HW126087   5.295   5.270   4.599
 8396SOL    HW226088   5.146   5.237   4.655
 8397SOL     OW26089   6.408   0.387   3.236
 8397SOL    HW126090   6.357   0.348   3.159
 8397SOL    HW226091   6.414   0.487   3.225
 8398SOL     OW26092   5.698   1.872   6.030
 8398SOL    HW126093   5.691   1.971   6.044
 8398SOL    HW226094   5.659   1.848   5.941
 8399SOL     OW26095   0.174   4.452   1.433
 8399SOL    HW126096   0.216   4.437   1.344
 8399SOL    HW226097   0.076   4.468   1.421
 8400SOL     OW26098   1.463   1.486   4.578
 8400SOL    HW126099   1.423   1.397   4.556
 8400SOL    HW226100   1.560   1.486   4.555
 8401SOL     OW26101   1.967   0.575   5.606
 8401SOL    HW126102   1.986   0.632   5.687
 8401SOL    HW226103   1.908   0.626   5.543
 8402SOL     OW26104   3.457   0.418   6.977
 8402SOL    HW126105   3.496   0.457   6.894
 8402SOL    HW226106   3.361   0.443   6.985
 8403SOL     OW26107   5.528   4.870   5.327
 8403SOL    HW126108   5.546   4.806   5.252
 8403SOL    HW226109   5.605   4.869   5.390
 8404SOL     OW26110   0.945   1.375   6.591
 8404SOL    HW126111   0.876   1.446   6.579
 8404SOL    HW226112   1.025   1.397   6.535
 8405SOL     OW26113   4.230   0.012   5.427
 8405SOL    HW126114   4.298   0.002   5.500
 8405SOL    HW226115   4.158   6.963   5.440
 8406SOL     OW26116   5.908   0.423   5.972
 8406SOL    HW126117   5.927   0.519   5.952
 8406SOL    HW226118   5.821   0.417   6.021
 8407SOL     OW26119   3.977   0.181   4.279
 8407SOL    HW126120   3.931   0.266   4.251
 8407SOL    HW226121   3.981   0.177   4.378
 8408SOL     OW26122   4.015   1.660   1.194
 8408SOL    HW126123   4.023   1.582   1.256
 8408SOL    HW226124   4.101   1.674   1.146
 8409SOL     OW26125   4.113   2.036   2.177
 8409SOL    HW126126   4.111   2.091   2.261
 8409SOL    HW226127   4.021   2.035   2.136
 8410SOL     OW26128   0.139   1.729   1.645
 8410SOL    HW126129   0.211   1.663   1.622
 8410SOL    HW226130   0.096   1.762   1.561
 8411SOL     OW26131   0.826   6.538   1.277
 8411SOL    HW126132   0.848   6.601   1.352
 8411SOL    HW226133   0.909   6.520   1.224
 8412SOL     OW26134   2.796   2.331   0.059
 8412SOL    HW126135   2.829   2.240   0.034
 8412SOL    HW226136   2.761   2.329   0.153
 8413SOL     OW26137   3.786   5.257   4.435
 8413SOL    HW126138   3.767   5.333   4.496
 8413SOL    HW226139   3.700   5.218   4.402
 8414SOL     OW26140   1.351   0.364   1.242
 8414SOL    HW126141   1.433   0.341   1.191
 8414SOL    HW226142   1.377   0.406   1.329
 8415SOL     OW26143   3.095   1.533   6.320
 8415SOL    HW126144   3.102   1.518   6.418
 8415SOL    HW226145   3.057   1.452   6.276
 8416SOL     OW26146   6.904   2.427   5.328
 8416SOL    HW126147   6.867   2.507   5.375
 8416SOL    HW226148   6.840   2.396   5.258
 8417SOL     OW26149   2.254   3.661   6.016
 8417SOL    HW126150   2.321   3.592   5.991
 8417SOL    HW226151   2.296   3.752   6.015
 8418SOL     OW26152   0.453   5.780   2.057
 8418SOL    HW126153   0.497   5.838   2.125
 8418SOL    HW226154   0.493   5.798   1.967
 8419SOL     OW26155   4.109   1.542   4.320
 8419SOL    HW126156   4.154   1.523   4.232
 8419SOL    HW226157   4.079   1.637   4.322
 8420SOL     OW26158   3.692   0.848   1.827
 8420SOL    HW126159   3.710   0.824   1.923
 8420SOL    HW226160   3.709   0.945   1.814
 8421SOL     OW26161   4.505   6.820   6.333
 8421SOL    HW126162   4.592   6.821   6.283
 8421SOL    HW226163   4.464   6.912   6.331
 8422SOL     OW26164   5.423   2.873   3.972
 8422SOL    HW126165   5.379   2.814   4.041
 8422SOL    HW226166   5.446   2.818   3.891
 8423SOL     OW26167   6.425   5.295   0.334
 8423SOL    HW126168   6.506   5.319   0.282
 8423SOL    HW226169   6.439   5.317   0.430
 8424SOL     OW26170   3.352   0.290   4.878
 8424SOL    HW126171   3.372   0.373   4.930
 8424SOL    HW226172   3.278   0.308   4.813
 8425SOL     OW26173   3.521   4.122   2.453
 8425SOL    HW126174   3.534   4.198   2.516
 8425SOL    HW226175   3.594   4.055   2.464
 8426SOL     OW26176   3.870   3.043   1.855
 8426SOL    HW126177   3.854   2.981   1.778
 8426SOL    HW226178   3.964   3.076   1.851
 8427SOL     OW26179   3.947   3.508   3.296
 8427SOL    HW126180   3.957   3.467   3.387
 8427SOL    HW226181   4.020   3.474   3.236
 8428SOL     OW26182   5.858   0.018   2.096
 8428SOL    HW126183   5.878   0.027   2.194
 8428SOL    HW226184   5.927   0.069   2.044
 8429SOL     OW26185   2.744   5.945   5.254
 8429SOL    HW126186   2.825   5.894   5.284
 8429SOL    HW226187   2.738   5.943   5.155
 8430SOL     OW26188   4.967   6.945   5.232
 8430SOL    HW126189   5.029   6.953   5.154
 8430SOL    HW226190   4.873   6.941   5.199
 8431SOL     OW26191   1.926   3.706   5.515
 8431SOL    HW126192   1.904   3.719   5.611
 8431SOL    HW226193   1.900   3.613   5.487
 8432SOL     OW26194   6.160   4.977   5.993
 8432SOL    HW126195   6.183   5.067   6.029
 8432SOL    HW226196   6.243   4.923   5.983
 8433SOL     OW26197   5.747   1.907   1.211
 8433SOL    HW126198   5.707   1.921   1.120
 8433SOL    HW226199   5.835   1.860   1.201
 8434SOL     OW26200   2.433   6.202   4.929
 8434SOL    HW126201   2.500   6.128   4.920
 8434SOL    HW226202   2.343   6.168   4.900
 8435SOL     OW26203   5.555   1.890   3.602
 8435SOL    HW126204   5.638   1.854   3.644
 8435SOL    HW226205   5.577   1.943   3.521
 8436SOL     OW26206   2.150   5.906   2.167
 8436SOL    HW126207   2.171   5.842   2.094
 8436SOL    HW226208   2.071   5.962   2.141
 8437SOL     OW26209   0.628   5.435   1.290
 8437SOL    HW126210   0.585   5.512   1.337
 8437SOL    HW226211   0.594   5.349   1.330
 8438SOL     OW26212   0.553   3.998   2.035
 8438SOL    HW126213   0.633   3.948   2.066
 8438SOL    HW226214   0.475   3.977   2.095
 8439SOL     OW26215   6.324   4.491   2.644
 8439SOL    HW126216   6.268   4.428   2.699
 8439SOL    HW226217   6.264   4.553   2.593
 8440SOL     OW26218   1.580   1.887   2.713
 8440SOL    HW126219   1.628   1.831   2.646
 8440SOL    HW226220   1.482   1.885   2.695
 8441SOL     OW26221   0.071   2.182   5.509
 8441SOL    HW126222   0.095   2.104   5.566
 8441SOL    HW226223   6.994   2.176   5.482
 8442SOL     OW26224   3.983   2.299   0.031
 8442SOL    HW126225   4.015   2.370   6.987
 8442SOL    HW226226   3.996   2.330   0.125
 8443SOL     OW26227   1.811   4.428   2.635
 8443SOL    HW126228   1.738   4.496   2.628
 8443SOL    HW226229   1.830   4.409   2.731
 8444SOL     OW26230   5.644   5.409   4.957
 8444SOL    HW126231   5.690   5.382   5.041
 8444SOL    HW226232   5.586   5.334   4.924
 8445SOL     OW26233   4.526   6.677   6.586
 8445SOL    HW126234   4.507   6.740   6.510
 8445SOL    HW226235   4.596   6.612   6.559
 8446SOL     OW26236   6.543   5.220   5.049
 8446SOL    HW126237   6.539   5.310   5.007
 8446SOL    HW226238   6.451   5.178   5.047
 8447SOL     OW26239   3.890   1.047   3.971
 8447SOL    HW126240   3.923   1.085   3.885
 8447SOL    HW226241   3.807   1.096   3.999
 8448SOL     OW26242   3.266   5.827   3.046
 8448SOL    HW126243   3.186   5.783   3.005
 8448SOL    HW226244   3.270   5.923   3.016
 8449SOL     OW26245   1.682   1.991   3.754
 8449SOL    HW126246   1.587   2.007   3.781
 8449SOL    HW226247   1.712   1.903   3.789
 8450SOL     OW26248   6.783   0.545   0.110
 8450SOL    HW126249   6.838   0.506   0.037
 8450SOL    HW226250   6.735   0.626   0.076
 8451SOL     OW26251   3.852   2.394   1.202
 8451SOL    HW126252   3.786   2.325   1.232
 8451SOL    HW226253   3.857   2.394   1.102
 8452SOL     OW26254   4.949   1.224   6.008
 8452SOL    HW126255   4.892   1.167   6.067
 8452SOL    HW226256   4.915   1.221   5.914
 8453SOL     OW26257   6.795   6.807   0.153
 8453SOL    HW126258   6.702   6.843   0.158
 8453SOL    HW226259   6.860   6.879   0.177
 8454SOL     OW26260   6.080   4.729   6.284
 8454SOL    HW126261   5.987   4.751   6.255
 8454SOL    HW226262   6.078   4.648   6.343
 8455SOL     OW26263   6.328   1.183   2.409
 8455SOL    HW126264   6.363   1.210   2.499
 8455SOL    HW226265   6.245   1.128   2.420
 8456SOL     OW26266   0.003   0.360   2.610
 8456SOL    HW126267   6.986   0.291   2.673
 8456SOL    HW226268   0.060   0.315   2.541
 8457SOL     OW26269   6.783   6.677   4.923
 8457SOL    HW126270   6.765   6.738   5.000
 8457SOL    HW226271   6.797   6.731   4.840
 8458SOL     OW26272   1.077   6.532   6.645
 8458SOL    HW126273   1.012   6.602   6.617
 8458SOL    HW226274   1.087   6.465   6.571
 8459SOL     OW26275   1.284   5.908   3.628
 8459SOL    HW126276   1.222   5.845   3.581
 8459SOL    HW226277   1.240   5.997   3.636
 8460SOL     OW26278   4.095   3.743   3.029
 8460SOL    HW126279   4.005   3.782   3.009
 8460SOL    HW226280   4.115   3.756   3.126
 8461SOL     OW26281   6.159   3.373   3.717
 8461SOL    HW126282   6.227   3.334   3.656
 8461SOL    HW226283   6.108   3.300   3.762
 8462SOL     OW26284   2.580   2.662   1.813
 8462SOL    HW126285   2.668   2.615   1.810
 8462SOL    HW226286   2.591   2.756   1.780
 8463SOL     OW26287   5.734   0.498   2.121
 8463SOL    HW126288   5.657   0.557   2.146
 8463SOL    HW226289   5.804   0.553   2.074
 8464SOL     OW26290   6.749   1.704   4.715
 8464SOL    HW126291   6.810   1.726   4.792
 8464SOL    HW226292   6.669   1.654   4.750
 8465SOL     OW26293   1.321   1.684   0.145
 8465SOL    HW126294   1.420   1.678   0.131
 8465SOL    HW226295   1.301   1.757   0.211
 8466SOL     OW26296   0.461   0.070   4.301
 8466SOL    HW126297   0.420   0.133   4.367
 8466SOL    HW226298   0.452   0.107   4.209
 8467SOL     OW26299   3.794   5.244   1.060
 8467SOL    HW126300   3.696   5.245   1.079
 8467SOL    HW226301   3.810   5.273   0.965
 8468SOL     OW26302   3.829   2.291   0.319
 8468SOL    HW126303   3.912   2.346   0.307
 8468SOL    HW226304   3.852   2.204   0.361
 8469SOL     OW26305   3.737   1.978   6.054
 8469SOL    HW126306   3.810   1.910   6.049
 8469SOL    HW226307   3.718   2.000   6.149
 8470SOL     OW26308   1.491   2.861   6.973
 8470SOL    HW126309   1.589   2.871   6.985
 8470SOL    HW226310   1.473   2.796   6.899
 8471SOL     OW26311   4.121   1.956   3.860
 8471SOL    HW126312   4.176   2.004   3.928
 8471SOL    HW226313   4.028   1.994   3.858
 8472SOL     OW26314   1.307   6.637   2.935
 8472SOL    HW126315   1.383   6.686   2.978
 8472SOL    HW226316   1.340   6.585   2.857
 8473SOL     OW26317   6.469   5.667   6.176
 8473SOL    HW126318   6.421   5.657   6.089
 8473SOL    HW226319   6.412   5.629   6.250
 8474SOL     OW26320   3.621   5.307   0.301
 8474SOL    HW126321   3.636   5.390   0.355
 8474SOL    HW226322   3.586   5.235   0.360
 8475SOL     OW26323   4.727   1.953   3.247
 8475SOL    HW126324   4.728   1.945   3.347
 8475SOL    HW226325   4.633   1.963   3.215
 8476SOL     OW26326   4.417   0.493   2.194
 8476SOL    HW126327   4.370   0.483   2.281
 8476SOL    HW226328   4.351   0.519   2.123
 8477SOL     OW26329   2.296   6.991   2.333
 8477SOL    HW126330   2.232   0.049   2.323
 8477SOL    HW226331   2.246   6.910   2.363
 8478SOL     OW26332   1.759   0.538   5.824
 8478SOL    HW126333   1.845   0.588   5.834
 8478SOL    HW226334   1.766   0.474   5.747
 8479SOL     OW26335   5.113   1.122   2.491
 8479SOL    HW126336   5.047   1.048   2.503
 8479SOL    HW226337   5.201   1.084   2.464
 8480SOL     OW26338   1.896   1.673   1.446
 8480SOL    HW126339   1.907   1.690   1.348
 8480SOL    HW226340   1.841   1.591   1.459
 8481SOL     OW26341   4.305   0.131   5.761
 8481SOL    HW126342   4.360   0.167   5.836
 8481SOL    HW226343   4.356   0.060   5.712
 8482SOL     OW26344   0.740   0.487   2.042
 8482SOL    HW126345   0.685   0.570   2.052
 8482SOL    HW226346   0.718   0.424   2.116
 8483SOL     OW26347   5.453   6.790   1.879
 8483SOL    HW126348   5.391   6.828   1.948
 8483SOL    HW226349   5.419   6.700   1.850
 8484SOL     OW26350   0.140   4.361   4.886
 8484SOL    HW126351   0.222   4.411   4.857
 8484SOL    HW226352   0.063   4.425   4.892
 8485SOL     OW26353   2.320   3.224   5.792
 8485SOL    HW126354   2.326   3.324   5.785
 8485SOL    HW226355   2.347   3.183   5.705
 8486SOL     OW26356   4.439   0.780   2.673
 8486SOL    HW126357   4.447   0.873   2.635
 8486SOL    HW226358   4.481   0.715   2.609
 8487SOL     OW26359   4.284   1.388   0.978
 8487SOL    HW126360   4.371   1.357   0.939
 8487SOL    HW226361   4.211   1.376   0.911
 8488SOL     OW26362   5.566   3.544   4.695
 8488SOL    HW126363   5.597   3.482   4.622
 8488SOL    HW226364   5.645   3.575   4.748
 8489SOL     OW26365   3.492   6.048   2.725
 8489SOL    HW126366   3.570   6.008   2.676
 8489SOL    HW226367   3.482   6.144   2.699
 8490SOL     OW26368   3.775   5.484   2.584
 8490SOL    HW126369   3.823   5.571   2.576
 8490SOL    HW226370   3.720   5.469   2.502
 8491SOL     OW26371   0.931   1.039   1.784
 8491SOL    HW126372   0.930   1.118   1.723
 8491SOL    HW226373   0.944   0.955   1.731
 8492SOL     OW26374   5.659   4.266   4.693
 8492SOL    HW126375   5.694   4.260   4.599
 8492SOL    HW226376   5.689   4.351   4.735
 8493SOL     OW26377   3.424   2.573   0.922
 8493SOL    HW126378   3.512   2.605   0.957
 8493SOL    HW226379   3.379   2.516   0.991
 8494SOL     OW26380   3.891   6.019   6.641
 8494SOL    HW126381   3.960   5.950   6.665
 8494SOL    HW226382   3.832   6.037   6.720
 8495SOL     OW26383   0.804   2.376   0.132
 8495SOL    HW126384   0.721   2.429   0.113
 8495SOL    HW226385   0.791   2.324   0.216
 8496SOL     OW26386   0.189   2.118   3.068
 8496SOL    HW126387   0.106   2.129   3.123
 8496SOL    HW226388   0.198   2.195   3.005
 8497SOL     OW26389   5.699   4.484   3.313
 8497SOL    HW126390   5.718   4.518   3.405
 8497SOL    HW226391   5.785   4.474   3.263
 8498SOL     OW26392   6.274   0.917   1.366
 8498SOL    HW126393   6.337   0.848   1.402
 8498SOL    HW226394   6.206   0.939   1.436
 8499SOL     OW26395   1.015   4.000   6.717
 8499SOL    HW126396   1.025   3.902   6.705
 8499SOL    HW226397   0.943   4.019   6.784
 8500SOL     OW26398   3.223   0.370   5.757
 8500SOL    HW126399   3.307   0.322   5.783
 8500SOL    HW226400   3.235   0.411   5.667
 8501SOL     OW26401   3.001   4.432   6.044
 8501SOL    HW126402   3.056   4.463   5.966
 8501SOL    HW226403   2.962   4.511   6.091
 8502SOL     OW26404   1.130   6.678   1.818
 8502SOL    HW126405   1.194   6.723   1.755
 8502SOL    HW226406   1.040   6.672   1.775
 8503SOL     OW26407   3.293   5.738   3.322
 8503SOL    HW126408   3.294   5.730   3.223
 8503SOL    HW226409   3.344   5.662   3.363
 8504SOL     OW26410   1.397   5.453   3.524
 8504SOL    HW126411   1.496   5.452   3.532
 8504SOL    HW226412   1.360   5.531   3.574
 8505SOL     OW26413   4.570   2.452   4.036
 8505SOL    HW126414   4.609   2.527   3.983
 8505SOL    HW226415   4.597   2.462   4.132
 8506SOL     OW26416   1.062   6.437   0.061
 8506SOL    HW126417   1.014   6.525   0.060
 8506SOL    HW226418   1.141   6.442   7.018
 8507SOL     OW26419   1.704   6.993   5.302
 8507SOL    HW126420   1.789   6.943   5.316
 8507SOL    HW226421   1.697   0.003   5.207
 8508SOL     OW26422   0.596   2.972   5.196
 8508SOL    HW126423   0.531   2.920   5.251
 8508SOL    HW226424   0.559   3.063   5.178
 8509SOL     OW26425   5.935   1.665   4.880
 8509SOL    HW126426   5.853   1.660   4.824
 8509SOL    HW226427   5.910   1.662   4.977
 8510SOL     OW26428   5.072   6.921   2.202
 8510SOL    HW126429   5.042   7.013   2.228
 8510SOL    HW226430   4.991   6.866   2.179
 8511SOL     OW26431   6.435   5.476   1.589
 8511SOL    HW126432   6.530   5.447   1.578
 8511SOL    HW226433   6.406   5.525   1.507
 8512SOL     OW26434   3.139   3.184   0.608
 8512SOL    HW126435   3.167   3.089   0.618
 8512SOL    HW226436   3.178   3.238   0.682
 8513SOL     OW26437   1.036   3.387   0.914
 8513SOL    HW126438   0.940   3.410   0.932
 8513SOL    HW226439   1.056   3.399   0.817
 8514SOL     OW26440   2.426   2.378   5.137
 8514SOL    HW126441   2.490   2.435   5.189
 8514SOL    HW226442   2.473   2.338   5.059
 8515SOL     OW26443   2.337   0.307   1.035
 8515SOL    HW126444   2.323   0.294   0.937
 8515SOL    HW226445   2.316   0.402   1.059
 8516SOL     OW26446   5.865   3.118   4.180
 8516SOL    HW126447   5.827   3.060   4.109
 8516SOL    HW226448   5.795   3.182   4.213
 8517SOL     OW26449   2.258   1.824   6.318
 8517SOL    HW126450   2.189   1.835   6.390
 8517SOL    HW226451   2.301   1.913   6.300
 8518SOL     OW26452   5.446   5.241   6.437
 8518SOL    HW126453   5.521   5.282   6.488
 8518SOL    HW226454   5.478   5.157   6.392
 8519SOL     OW26455   0.471   3.373   0.262
 8519SOL    HW126456   0.470   3.470   0.286
 8519SOL    HW226457   0.509   3.320   0.338
 8520SOL     OW26458   3.449   4.169   5.963
 8520SOL    HW126459   3.471   4.100   6.032
 8520SOL    HW226460   3.350   4.166   5.944
 8521SOL     OW26461   1.884   6.590   5.308
 8521SOL    HW126462   1.948   6.531   5.259
 8521SOL    HW226463   1.808   6.535   5.343
 8522SOL     OW26464   1.043   6.841   0.132
 8522SOL    HW126465   1.018   6.837   0.229
 8522SOL    HW226466   1.057   6.937   0.106
 8523SOL     OW26467   3.611   1.834   0.733
 8523SOL    HW126468   3.531   1.838   0.793
 8523SOL    HW226469   3.617   1.919   0.681
 8524SOL     OW26470   2.235   5.536   5.507
 8524SOL    HW126471   2.164   5.505   5.445
 8524SOL    HW226472   2.229   5.485   5.593
 8525SOL     OW26473   6.349   3.458   1.994
 8525SOL    HW126474   6.410   3.522   1.947
 8525SOL    HW226475   6.305   3.504   2.071
 8526SOL     OW26476   0.106   4.345   6.969
 8526SOL    HW126477   0.082   4.304   6.882
 8526SOL    HW226478   0.027   4.342   0.012
 8527SOL     OW26479   2.587   1.158   5.939
 8527SOL    HW126480   2.567   1.255   5.948
 8527SOL    HW226481   2.622   1.122   6.026
 8528SOL     OW26482   5.767   0.754   0.728
 8528SOL    HW126483   5.818   0.794   0.804
 8528SOL    HW226484   5.675   0.793   0.724
 8529SOL     OW26485   0.902   6.388   6.799
 8529SOL    HW126486   0.980   6.426   6.749
 8529SOL    HW226487   0.860   6.460   6.855
 8530SOL     OW26488   3.831   3.844   3.005
 8530SOL    HW126489   3.785   3.771   2.953
 8530SOL    HW226490   3.836   3.927   2.949
 8531SOL     OW26491   6.421   5.161   3.659
 8531SOL    HW126492   6.328   5.139   3.631
 8531SOL    HW226493   6.423   5.253   3.698
 8532SOL     OW26494   3.212   5.805   6.593
 8532SOL    HW126495   3.168   5.768   6.674
 8532SOL    HW226496   3.190   5.902   6.585
 8533SOL     OW26497   2.194   6.706   4.769
 8533SOL    HW126498   2.218   6.793   4.725
 8533SOL    HW226499   2.278   6.659   4.798
 8534SOL     OW26500   1.858   2.247   2.767
 8534SOL    HW126501   1.945   2.249   2.817
 8534SOL    HW226502   1.787   2.206   2.824
 8535SOL     OW26503   5.534   0.619   2.262
 8535SOL    HW126504   5.516   0.555   2.336
 8535SOL    HW226505   5.593   0.693   2.295
 8536SOL     OW26506   1.646   1.090   3.939
 8536SOL    HW126507   1.570   1.107   4.002
 8536SOL    HW226508   1.729   1.132   3.975
 8537SOL     OW26509   6.104   1.492   3.343
 8537SOL    HW126510   6.204   1.486   3.350
 8537SOL    HW226511   6.077   1.585   3.322
 8538SOL     OW26512   1.127   2.367   0.366
 8538SOL    HW126513   1.100   2.355   0.271
 8538SOL    HW226514   1.227   2.363   0.373
 8539SOL     OW26515   5.360   2.950   1.866
 8539SOL    HW126516   5.369   2.872   1.804
 8539SOL    HW226517   5.408   2.931   1.952
 8540SOL     OW26518   4.105   0.750   1.312
 8540SOL    HW126519   4.106   0.663   1.262
 8540SOL    HW226520   4.017   0.795   1.298
 8541SOL     OW26521   2.129   2.605   3.843
 8541SOL    HW126522   2.156   2.511   3.861
 8541SOL    HW226523   2.071   2.638   3.918
 8542SOL     OW26524   3.430   4.708   0.439
 8542SOL    HW126525   3.529   4.721   0.429
 8542SOL    HW226526   3.384   4.796   0.435
 8543SOL     OW26527   3.006   1.974   6.436
 8543SOL    HW126528   2.984   1.922   6.353
 8543SOL    HW226529   2.978   2.069   6.424
 8544SOL     OW26530   6.035   1.841   4.575
 8544SOL    HW126531   6.106   1.910   4.592
 8544SOL    HW226532   5.967   1.845   4.648
 8545SOL     OW26533   4.293   6.720   4.941
 8545SOL    HW126534   4.373   6.721   5.001
 8545SOL    HW226535   4.321   6.697   4.848
 8546SOL     OW26536   4.556   2.696   0.087
 8546SOL    HW126537   4.474   2.644   0.063
 8546SOL    HW226538   4.531   2.791   0.104
 8547SOL     OW26539   1.423   4.519   1.932
 8547SOL    HW126540   1.341   4.569   1.959
 8547SOL    HW226541   1.457   4.467   2.009
 8548SOL     OW26542   6.393   2.201   5.396
 8548SOL    HW126543   6.345   2.150   5.324
 8548SOL    HW226544   6.394   2.146   5.480
 8549SOL     OW26545   5.349   3.340   5.590
 8549SOL    HW126546   5.375   3.332   5.493
 8549SOL    HW226547   5.283   3.414   5.601
 8550SOL     OW26548   1.070   4.572   6.051
 8550SOL    HW126549   1.014   4.609   5.976
 8550SOL    HW226550   1.052   4.474   6.060
 8551SOL     OW26551   2.383   4.405   0.929
 8551SOL    HW126552   2.414   4.501   0.931
 8551SOL    HW226553   2.333   4.388   0.844
 8552SOL     OW26554   3.171   6.567   4.824
 8552SOL    HW126555   3.215   6.632   4.886
 8552SOL    HW226556   3.240   6.505   4.787
 8553SOL     OW26557   5.980   5.110   6.959
 8553SOL    HW126558   5.934   5.136   0.025
 8553SOL    HW226559   6.074   5.145   6.960
 8554SOL     OW26560   5.828   3.678   6.778
 8554SOL    HW126561   5.883   3.618   6.836
 8554SOL    HW226562   5.786   3.625   6.704
 8555SOL     OW26563   1.894   6.764   4.338
 8555SOL    HW126564   1.906   6.718   4.250
 8555SOL    HW226565   1.815   6.726   4.385
 8556SOL     OW26566   6.128   6.896   4.093
 8556SOL    HW126567   6.034   6.869   4.072
 8556SOL    HW226568   6.187   6.816   4.091
 8557SOL     OW26569   0.129   1.048   0.403
 8557SOL    HW126570   0.054   1.101   0.444
 8557SOL    HW226571   0.155   0.974   0.464
 8558SOL     OW26572   0.939   4.857   2.254
 8558SOL    HW126573   0.886   4.898   2.328
 8558SOL    HW226574   0.969   4.928   2.190
 8559SOL     OW26575   0.637   1.648   5.561
 8559SOL    HW126576   0.563   1.610   5.617
 8559SOL    HW226577   0.672   1.731   5.604
 8560SOL     OW26578   6.584   2.362   6.770
 8560SOL    HW126579   6.495   2.321   6.788
 8560SOL    HW226580   6.582   2.459   6.796
 8561SOL     OW26581   4.376   6.200   5.673
 8561SOL    HW126582   4.471   6.193   5.702
 8561SOL    HW226583   4.327   6.116   5.698
 8562SOL     OW26584   3.649   0.407   4.881
 8562SOL    HW126585   3.588   0.387   4.804
 8562SOL    HW226586   3.595   0.434   4.961
 8563SOL     OW26587   2.864   2.910   6.383
 8563SOL    HW126588   2.951   2.864   6.398
 8563SOL    HW226589   2.812   2.915   6.468
 8564SOL     OW26590   0.405   6.113   3.143
 8564SOL    HW126591   0.443   6.063   3.221
 8564SOL    HW226592   0.306   6.101   3.141
 8565SOL     OW26593   3.740   0.698   1.392
 8565SOL    HW126594   3.738   0.642   1.309
 8565SOL    HW226595   3.778   0.788   1.370
 8566SOL     OW26596   1.622   3.880   3.675
 8566SOL    HW126597   1.653   3.927   3.757
 8566SOL    HW226598   1.702   3.851   3.621
 8567SOL     OW26599   5.066   5.870   6.531
 8567SOL    HW126600   5.100   5.957   6.495
 8567SOL    HW226601   4.989   5.839   6.475
 8568SOL     OW26602   5.100   0.548   6.983
 8568SOL    HW126603   5.039   0.610   6.934
 8568SOL    HW226604   5.118   0.584   0.055
 8569SOL     OW26605   4.160   1.111   5.301
 8569SOL    HW126606   4.101   1.040   5.263
 8569SOL    HW226607   4.235   1.130   5.238
 8570SOL     OW26608   0.134   3.099   6.262
 8570SOL    HW126609   0.088   3.011   6.259
 8570SOL    HW226610   0.231   3.086   6.240
 8571SOL     OW26611   0.152   4.712   5.043
 8571SOL    HW126612   0.180   4.618   5.065
 8571SOL    HW226613   0.053   4.720   5.054
 8572SOL     OW26614   2.979   4.906   5.473
 8572SOL    HW126615   2.983   4.864   5.563
 8572SOL    HW226616   3.071   4.925   5.440
 8573SOL     OW26617   3.507   6.006   4.227
 8573SOL    HW126618   3.444   5.959   4.290
 8573SOL    HW226619   3.597   6.014   4.270
 8574SOL     OW26620   0.395   4.350   4.167
 8574SOL    HW126621   0.479   4.376   4.119
 8574SOL    HW226622   0.415   4.336   4.264
 8575SOL     OW26623   3.128   3.625   6.738
 8575SOL    HW126624   3.152   3.622   6.640
 8575SOL    HW226625   3.087   3.538   6.765
 8576SOL     OW26626   1.948   0.262   0.858
 8576SOL    HW126627   1.957   0.355   0.823
 8576SOL    HW226628   1.890   0.209   0.796
 8577SOL     OW26629   6.250   5.717   4.325
 8577SOL    HW126630   6.304   5.741   4.244
 8577SOL    HW226631   6.311   5.710   4.404
 8578SOL     OW26632   5.126   0.631   3.121
 8578SOL    HW126633   5.034   0.646   3.158
 8578SOL    HW226634   5.130   0.542   3.075
 8579SOL     OW26635   0.343   4.878   2.705
 8579SOL    HW126636   0.311   4.787   2.680
 8579SOL    HW226637   0.443   4.880   2.699
 8580SOL     OW26638   2.660   4.856   6.100
 8580SOL    HW126639   2.673   4.922   6.174
 8580SOL    HW226640   2.563   4.837   6.089
 8581SOL     OW26641   3.077   2.994   0.256
 8581SOL    HW126642   3.040   2.929   0.323
 8581SOL    HW226643   3.024   2.989   0.172
 8582SOL     OW26644   4.116   4.628   0.866
 8582SOL    HW126645   4.185   4.567   0.828
 8582SOL    HW226646   4.161   4.702   0.917
 8583SOL     OW26647   5.596   6.590   5.276
 8583SOL    HW126648   5.685   6.633   5.293
 8583SOL    HW226649   5.545   6.645   5.210
 8584SOL     OW26650   0.615   5.480   6.682
 8584SOL    HW126651   0.630   5.401   6.743
 8584SOL    HW226652   0.664   5.559   6.718
 8585SOL     OW26653   1.120   1.570   0.774
 8585SOL    HW126654   1.158   1.659   0.750
 8585SOL    HW226655   1.040   1.582   0.832
 8586SOL     OW26656   4.078   5.248   4.434
 8586SOL    HW126657   3.984   5.214   4.443
 8586SOL    HW226658   4.134   5.212   4.508
 8587SOL     OW26659   6.737   1.612   1.804
 8587SOL    HW126660   6.654   1.643   1.851
 8587SOL    HW226661   6.718   1.526   1.757
 8588SOL     OW26662   3.777   2.237   6.530
 8588SOL    HW126663   3.796   2.251   6.627
 8588SOL    HW226664   3.732   2.319   6.493
 8589SOL     OW26665   2.794   1.626   5.032
 8589SOL    HW126666   2.855   1.626   4.952
 8589SOL    HW226667   2.838   1.576   5.107
 8590SOL     OW26668   6.052   5.460   5.151
 8590SOL    HW126669   6.101   5.515   5.084
 8590SOL    HW226670   6.113   5.441   5.229
 8591SOL     OW26671   0.527   2.529   0.752
 8591SOL    HW126672   0.485   2.612   0.791
 8591SOL    HW226673   0.485   2.448   0.794
 8592SOL     OW26674   6.452   5.803   6.481
 8592SOL    HW126675   6.389   5.737   6.441
 8592SOL    HW226676   6.498   5.854   6.408
 8593SOL     OW26677   0.247   5.758   2.988
 8593SOL    HW126678   0.212   5.827   3.051
 8593SOL    HW226679   0.298   5.689   3.038
 8594SOL     OW26680   3.589   4.056   3.239
 8594SOL    HW126681   3.683   4.072   3.269
 8594SOL    HW226682   3.577   3.959   3.216
 8595SOL     OW26683   1.508   3.168   1.782
 8595SOL    HW126684   1.523   3.188   1.878
 8595SOL    HW226685   1.595   3.176   1.732
 8596SOL     OW26686   6.543   4.123   2.215
 8596SOL    HW126687   6.450   4.098   2.242
 8596SOL    HW226688   6.550   4.223   2.207
 8597SOL     OW26689   2.518   2.012   0.436
 8597SOL    HW126690   2.591   2.015   0.367
 8597SOL    HW226691   2.556   2.032   0.526
 8598SOL     OW26692   5.667   3.560   1.861
 8598SOL    HW126693   5.728   3.491   1.900
 8598SOL    HW226694   5.575   3.522   1.854
 8599SOL     OW26695   0.557   3.122   0.609
 8599SOL    HW126696   0.497   3.199   0.586
 8599SOL    HW226697   0.652   3.153   0.610
 8600SOL     OW26698   6.365   2.722   6.413
 8600SOL    HW126699   6.442   2.662   6.435
 8600SOL    HW226700   6.339   2.708   6.317
 8601SOL     OW26701   0.528   0.311   5.380
 8601SOL    HW126702   0.587   0.247   5.429
 8601SOL    HW226703   0.486   0.265   5.302
 8602SOL     OW26704   1.711   6.492   1.589
 8602SOL    HW126705   1.618   6.513   1.619
 8602SOL    HW226706   1.740   6.405   1.628
 8603SOL     OW26707   4.935   3.220   1.319
 8603SOL    HW126708   4.989   3.178   1.391
 8603SOL    HW226709   4.838   3.197   1.331
 8604SOL     OW26710   5.991   2.432   3.176
 8604SOL    HW126711   5.920   2.499   3.198
 8604SOL    HW226712   6.050   2.418   3.256
 8605SOL     OW26713   3.132   5.681   1.775
 8605SOL    HW126714   3.189   5.713   1.700
 8605SOL    HW226715   3.130   5.581   1.776
 8606SOL     OW26716   3.550   5.483   5.174
 8606SOL    HW126717   3.621   5.417   5.198
 8606SOL    HW226718   3.576   5.573   5.208
 8607SOL     OW26719   3.144   6.375   1.122
 8607SOL    HW126720   3.128   6.328   1.209
 8607SOL    HW226721   3.242   6.394   1.113
 8608SOL     OW26722   5.914   6.769   1.797
 8608SOL    HW126723   5.942   6.714   1.718
 8608SOL    HW226724   5.987   6.769   1.865
 8609SOL     OW26725   4.615   0.641   6.220
 8609SOL    HW126726   4.585   0.730   6.253
 8609SOL    HW226727   4.714   0.643   6.203
 8610SOL     OW26728   0.265   6.397   5.862
 8610SOL    HW126729   0.258   6.458   5.783
 8610SOL    HW226730   0.361   6.384   5.886
 8611SOL     OW26731   1.651   1.818   2.994
 8611SOL    HW126732   1.746   1.787   2.987
 8611SOL    HW226733   1.616   1.839   2.903
 8612SOL     OW26734   5.187   3.250   4.543
 8612SOL    HW126735   5.218   3.196   4.621
 8612SOL    HW226736   5.121   3.319   4.574
 8613SOL     OW26737   1.323   0.814   0.520
 8613SOL    HW126738   1.404   0.870   0.506
 8613SOL    HW226739   1.249   0.847   0.461
 8614SOL     OW26740   1.706   1.856   3.276
 8614SOL    HW126741   1.637   1.864   3.347
 8614SOL    HW226742   1.662   1.857   3.186
 8615SOL     OW26743   4.487   1.973   5.470
 8615SOL    HW126744   4.455   2.067   5.470
 8615SOL    HW226745   4.555   1.961   5.398
 8616SOL     OW26746   1.078   3.174   0.362
 8616SOL    HW126747   1.093   3.242   0.290
 8616SOL    HW226748   0.985   3.137   0.355
 8617SOL     OW26749   5.590   2.353   0.745
 8617SOL    HW126750   5.551   2.419   0.810
 8617SOL    HW226751   5.655   2.294   0.792
 8618SOL     OW26752   4.148   1.247   2.877
 8618SOL    HW126753   4.216   1.228   2.948
 8618SOL    HW226754   4.057   1.254   2.918
 8619SOL     OW26755   3.901   6.408   0.964
 8619SOL    HW126756   3.859   6.321   0.938
 8619SOL    HW226757   3.978   6.390   1.025
 8620SOL     OW26758   6.421   5.907   3.407
 8620SOL    HW126759   6.356   5.872   3.339
 8620SOL    HW226760   6.389   5.996   3.441
 8621SOL     OW26761   5.112   0.745   3.876
 8621SOL    HW126762   5.073   0.801   3.802
 8621SOL    HW226763   5.212   0.748   3.871
 8622SOL     OW26764   4.893   5.261   6.599
 8622SOL    HW126765   4.968   5.298   6.655
 8622SOL    HW226766   4.919   5.170   6.566
 8623SOL     OW26767   6.604   2.360   4.062
 8623SOL    HW126768   6.558   2.279   4.096
 8623SOL    HW226769   6.702   2.354   4.082
 8624SOL     OW26770   6.705   3.532   3.590
 8624SOL    HW126771   6.646   3.610   3.610
 8624SOL    HW226772   6.704   3.512   3.492
 8625SOL     OW26773   3.578   1.332   6.570
 8625SOL    HW126774   3.588   1.234   6.590
 8625SOL    HW226775   3.525   1.344   6.486
 8626SOL     OW26776   3.019   3.336   2.469
 8626SOL    HW126777   2.965   3.329   2.385
 8626SOL    HW226778   3.011   3.251   2.522
 8627SOL     OW26779   2.435   0.662   0.001
 8627SOL    HW126780   2.440   0.706   6.931
 8627SOL    HW226781   2.364   0.706   0.057
 8628SOL     OW26782   6.292   1.418   0.904
 8628SOL    HW126783   6.305   1.325   0.938
 8628SOL    HW226784   6.329   1.483   0.970
 8629SOL     OW26785   1.335   5.314   3.775
 8629SOL    HW126786   1.355   5.222   3.808
 8629SOL    HW226787   1.396   5.337   3.699
 8630SOL     OW26788   5.447   4.953   3.907
 8630SOL    HW126789   5.459   5.052   3.907
 8630SOL    HW226790   5.530   4.910   3.943
 8631SOL     OW26791   4.459   6.250   3.928
 8631SOL    HW126792   4.466   6.286   4.021
 8631SOL    HW226793   4.389   6.180   3.924
 8632SOL     OW26794   3.482   0.063   3.167
 8632SOL    HW126795   3.454   0.156   3.190
 8632SOL    HW226796   3.520   0.019   3.248
 8633SOL     OW26797   6.524   6.554   2.794
 8633SOL    HW126798   6.581   6.483   2.835
 8633SOL    HW226799   6.550   6.644   2.830
 8634SOL     OW26800   6.422   6.199   1.579
 8634SOL    HW126801   6.505   6.171   1.530
 8634SOL    HW226802   6.417   6.149   1.666
 8635SOL     OW26803   6.474   3.474   5.538
 8635SOL    HW126804   6.490   3.477   5.440
 8635SOL    HW226805   6.560   3.494   5.586
 8636SOL     OW26806   5.380   5.176   0.565
 8636SOL    HW126807   5.374   5.270   0.600
 8636SOL    HW226808   5.377   5.178   0.465
 8637SOL     OW26809   1.544   1.246   1.474
 8637SOL    HW126810   1.589   1.158   1.492
 8637SOL    HW226811   1.487   1.238   1.392
 8638SOL     OW26812   5.385   4.777   1.330
 8638SOL    HW126813   5.371   4.867   1.290
 8638SOL    HW226814   5.477   4.772   1.369
 8639SOL     OW26815   6.301   2.445   1.832
 8639SOL    HW126816   6.330   2.493   1.749
 8639SOL    HW226817   6.333   2.350   1.829
 8640SOL     OW26818   4.814   6.223   1.504
 8640SOL    HW126819   4.887   6.257   1.562
 8640SOL    HW226820   4.756   6.161   1.557
 8641SOL     OW26821   5.046   4.839   3.397
 8641SOL    HW126822   5.091   4.903   3.460
 8641SOL    HW226823   5.072   4.862   3.303
 8642SOL     OW26824   4.194   1.655   1.904
 8642SOL    HW126825   4.211   1.603   1.820
 8642SOL    HW226826   4.179   1.592   1.980
 8643SOL     OW26827   4.490   0.484   0.051
 8643SOL    HW126828   4.435   0.416   0.003
 8643SOL    HW226829   4.587   0.465   0.037
 8644SOL     OW26830   6.884   3.369   5.177
 8644SOL    HW126831   6.885   3.456   5.129
 8644SOL    HW226832   6.978   3.342   5.199
 8645SOL     OW26833   6.305   3.921   1.661
 8645SOL    HW126834   6.383   3.953   1.608
 8645SOL    HW226835   6.249   3.999   1.690
 8646SOL     OW26836   5.264   6.230   0.905
 8646SOL    HW126837   5.176   6.267   0.933
 8646SOL    HW226838   5.276   6.244   0.806
 8647SOL     OW26839   4.290   4.619   2.100
 8647SOL    HW126840   4.346   4.541   2.128
 8647SOL    HW226841   4.233   4.594   2.023
 8648SOL     OW26842   5.910   1.274   4.212
 8648SOL    HW126843   5.836   1.338   4.236
 8648SOL    HW226844   5.959   1.310   4.132
 8649SOL     OW26845   6.635   4.766   5.763
 8649SOL    HW126846   6.700   4.692   5.782
 8649SOL    HW226847   6.674   4.852   5.795
 8650SOL     OW26848   0.311   5.142   1.855
 8650SOL    HW126849   0.369   5.218   1.883
 8650SOL    HW226850   0.351   5.096   1.776
 8651SOL     OW26851   4.090   3.072   1.102
 8651SOL    HW126852   4.066   3.148   1.162
 8651SOL    HW226853   4.159   3.015   1.146
 8652SOL     OW26854   1.143   3.483   3.568
 8652SOL    HW126855   1.091   3.401   3.544
 8652SOL    HW226856   1.213   3.500   3.498
 8653SOL     OW26857   5.096   3.000   6.348
 8653SOL    HW126858   5.191   3.031   6.338
 8653SOL    HW226859   5.090   2.904   6.321
 8654SOL     OW26860   0.988   5.419   1.536
 8654SOL    HW126861   1.020   5.489   1.472
 8654SOL    HW226862   0.903   5.448   1.578
 8655SOL     OW26863   6.411   6.832   2.451
 8655SOL    HW126864   6.425   6.737   2.477
 8655SOL    HW226865   6.394   6.887   2.533
 8656SOL     OW26866   6.645   1.873   1.326
 8656SOL    HW126867   6.552   1.877   1.363
 8656SOL    HW226868   6.642   1.889   1.227
 8657SOL     OW26869   2.722   4.726   0.816
 8657SOL    HW126870   2.801   4.698   0.870
 8657SOL    HW226871   2.753   4.775   0.734
 8658SOL     OW26872   0.983   5.646   6.109
 8658SOL    HW126873   1.035   5.564   6.087
 8658SOL    HW226874   0.968   5.699   6.026
 8659SOL     OW26875   3.992   0.023   3.848
 8659SOL    HW126876   4.032   0.084   3.916
 8659SOL    HW226877   3.956   6.960   3.894
 8660SOL     OW26878   5.570   4.801   0.244
 8660SOL    HW126879   5.547   4.735   0.173
 8660SOL    HW226880   5.665   4.830   0.235
 8661SOL     OW26881   6.655   3.282   1.772
 8661SOL    HW126882   6.586   3.355   1.774
 8661SOL    HW226883   6.714   3.294   1.692
 8662SOL     OW26884   0.872   0.218   0.315
 8662SOL    HW126885   0.802   0.154   0.347
 8662SOL    HW226886   0.954   0.208   0.371
 8663SOL     OW26887   2.323   5.838   1.083
 8663SOL    HW126888   2.324   5.814   1.180
 8663SOL    HW226889   2.407   5.888   1.060
 8664SOL     OW26890   4.422   5.199   1.995
 8664SOL    HW126891   4.358   5.262   2.040
 8664SOL    HW226892   4.446   5.235   1.905
 8665SOL     OW26893   5.063   5.557   4.625
 8665SOL    HW126894   5.109   5.549   4.713
 8665SOL    HW226895   5.089   5.480   4.567
 8666SOL     OW26896   6.346   4.367   4.031
 8666SOL    HW126897   6.380   4.459   4.051
 8666SOL    HW226898   6.369   4.306   4.107
 8667SOL     OW26899   5.735   2.469   3.380
 8667SOL    HW126900   5.802   2.395   3.389
 8667SOL    HW226901   5.731   2.500   3.285
 8668SOL     OW26902   3.455   0.978   4.657
 8668SOL    HW126903   3.369   0.926   4.658
 8668SOL    HW226904   3.434   1.076   4.647
 8669SOL     OW26905   4.039   6.842   5.518
 8669SOL    HW126906   4.022   6.911   5.588
 8669SOL    HW226907   4.048   6.752   5.560
 8670SOL     OW26908   4.282   4.645   2.672
 8670SOL    HW126909   4.304   4.639   2.574
 8670SOL    HW226910   4.334   4.719   2.714
 8671SOL     OW26911   6.012   6.132   2.664
 8671SOL    HW126912   5.958   6.086   2.594
 8671SOL    HW226913   6.024   6.229   2.639
 8672SOL     OW26914   3.610   5.048   5.559
 8672SOL    HW126915   3.607   5.014   5.653
 8672SOL    HW226916   3.613   4.971   5.496
 8673SOL     OW26917   4.939   2.244   0.089
 8673SOL    HW126918   4.959   2.334   0.125
 8673SOL    HW226919   4.857   2.208   0.134
 8674SOL     OW26920   0.779   0.013   2.935
 8674SOL    HW126921   0.865   6.984   2.915
 8674SOL    HW226922   0.702   6.978   2.901
 8675SOL     OW26923   2.008   2.380   2.457
 8675SOL    HW126924   2.098   2.419   2.478
 8675SOL    HW226925   1.937   2.443   2.485
 8676SOL     OW26926   4.398   0.815   4.286
 8676SOL    HW126927   4.465   0.817   4.361
 8676SOL    HW226928   4.306   0.803   4.323
 8677SOL     OW26929   1.822   3.897   5.368
 8677SOL    HW126930   1.723   3.902   5.374
 8677SOL    HW226931   1.854   3.816   5.417
 8678SOL     OW26932   1.708   1.029   6.343
 8678SOL    HW126933   1.735   1.111   6.293
 8678SOL    HW226934   1.623   0.993   6.305
 8679SOL     OW26935   6.226   1.471   4.535
 8679SOL    HW126936   6.230   1.513   4.626
 8679SOL    HW226937   6.256   1.537   4.466
 8680SOL     OW26938   0.882   3.537   0.633
 8680SOL    HW126939   0.790   3.520   0.670
 8680SOL    HW226940   0.911   3.629   0.658
 8681SOL     OW26941   4.161   3.693   1.418
 8681SOL    HW126942   4.181   3.636   1.498
 8681SOL    HW226943   4.202   3.652   1.337
 8682SOL     OW26944   1.266   5.472   2.896
 8682SOL    HW126945   1.199   5.457   2.969
 8682SOL    HW226946   1.232   5.540   2.832
 8683SOL     OW26947   5.133   2.758   6.239
 8683SOL    HW126948   5.214   2.719   6.283
 8683SOL    HW226949   5.062   2.688   6.232
 8684SOL     OW26950   6.946   2.583   4.321
 8684SOL    HW126951   6.879   2.635   4.374
 8684SOL    HW226952   6.967   2.631   4.236
 8685SOL     OW26953   0.401   1.370   5.506
 8685SOL    HW126954   0.449   1.372   5.418
 8685SOL    HW226955   0.308   1.336   5.492
 8686SOL     OW26956   6.643   1.705   3.795
 8686SOL    HW126957   6.718   1.717   3.729
 8686SOL    HW226958   6.567   1.765   3.770
 8687SOL     OW26959   3.933   0.882   2.621
 8687SOL    HW126960   3.992   0.837   2.688
 8687SOL    HW226961   3.845   0.835   2.617
 8688SOL     OW26962   1.255   0.303   2.226
 8688SOL    HW126963   1.259   0.207   2.197
 8688SOL    HW226964   1.197   0.310   2.307
 8689SOL     OW26965   4.599   5.157   0.806
 8689SOL    HW126966   4.586   5.256   0.799
 8689SOL    HW226967   4.651   5.125   0.726
 8690SOL     OW26968   1.315   0.982   3.222
 8690SOL    HW126969   1.364   0.997   3.308
 8690SOL    HW226970   1.376   1.002   3.146
 8691SOL     OW26971   5.582   1.578   0.747
 8691SOL    HW126972   5.567   1.545   0.840
 8691SOL    HW226973   5.621   1.670   0.750
 8692SOL     OW26974   1.644   1.574   3.618
 8692SOL    HW126975   1.650   1.534   3.527
 8692SOL    HW226976   1.736   1.599   3.649
 8693SOL     OW26977   5.554   2.353   6.952
 8693SOL    HW126978   5.556   2.335   6.854
 8693SOL    HW226979   5.461   2.377   6.980
 8694SOL     OW26980   3.777   6.699   6.982
 8694SOL    HW126981   3.721   6.766   6.932
 8694SOL    HW226982   3.772   6.717   0.061
 8695SOL     OW26983   4.601   4.247   5.138
 8695SOL    HW126984   4.604   4.158   5.182
 8695SOL    HW226985   4.582   4.318   5.206
 8696SOL     OW26986   1.862   5.168   1.107
 8696SOL    HW126987   1.785   5.225   1.137
 8696SOL    HW226988   1.911   5.133   1.186
 8697SOL     OW26989   4.999   5.040   6.440
 8697SOL    HW126990   5.078   5.028   6.500
 8697SOL    HW226991   5.027   5.025   6.345
 8698SOL     OW26992   5.919   6.113   4.399
 8698SOL    HW126993   5.983   6.045   4.434
 8698SOL    HW226994   5.965   6.201   4.391
 8699SOL     OW26995   1.233   1.677   5.122
 8699SOL    HW126996   1.235   1.759   5.065
 8699SOL    HW226997   1.317   1.625   5.109
 8700SOL     OW26998   2.889   2.248   5.868
 8700SOL    HW126999   2.820   2.282   5.803
 8700SOL    HW227000   2.936   2.326   5.910
 8701SOL     OW27001   1.252   1.788   3.574
 8701SOL    HW127002   1.174   1.845   3.551
 8701SOL    HW227003   1.226   1.724   3.647
 8702SOL     OW27004   5.210   5.831   7.012
 8702SOL    HW127005   5.305   5.830   0.023
 8702SOL    HW227006   5.187   5.920   6.973
 8703SOL     OW27007   1.197   5.741   1.167
 8703SOL    HW127008   1.282   5.718   1.119
 8703SOL    HW227009   1.123   5.750   1.101
 8704SOL     OW27010   0.230   4.208   2.178
 8704SOL    HW127011   0.300   4.271   2.145
 8704SOL    HW227012   0.266   4.114   2.176
 8705SOL     OW27013   5.033   6.711   4.360
 8705SOL    HW127014   5.108   6.721   4.425
 8705SOL    HW227015   4.946   6.717   4.408
 8706SOL     OW27016   5.142   1.592   5.996
 8706SOL    HW127017   5.048   1.606   6.028
 8706SOL    HW227018   5.191   1.679   5.996
 8707SOL     OW27019   4.952   1.962   6.043
 8707SOL    HW127020   4.950   2.033   6.113
 8707SOL    HW227021   4.859   1.946   6.010
 8708SOL     OW27022   4.013   1.749   0.780
 8708SOL    HW127023   4.078   1.751   0.704
 8708SOL    HW227024   4.054   1.796   0.859
 8709SOL     OW27025   6.014   3.364   0.530
 8709SOL    HW127026   6.025   3.373   0.431
 8709SOL    HW227027   6.099   3.388   0.575
 8710SOL     OW27028   6.418   3.365   3.984
 8710SOL    HW127029   6.396   3.419   3.903
 8710SOL    HW227030   6.337   3.359   4.043
 8711SOL     OW27031   0.713   1.944   4.011
 8711SOL    HW127032   0.642   1.956   3.942
 8711SOL    HW227033   0.678   1.888   4.086
 8712SOL     OW27034   3.893   1.263   6.421
 8712SOL    HW127035   3.821   1.283   6.355
 8712SOL    HW227036   3.870   1.179   6.471
 8713SOL     OW27037   5.700   4.702   2.889
 8713SOL    HW127038   5.766   4.732   2.959
 8713SOL    HW227039   5.613   4.681   2.933
 8714SOL     OW27040   1.859   1.706   4.370
 8714SOL    HW127041   1.949   1.750   4.363
 8714SOL    HW227042   1.853   1.659   4.458
 8715SOL     OW27043   5.905   1.179   2.456
 8715SOL    HW127044   5.904   1.270   2.415
 8715SOL    HW227045   5.841   1.176   2.533
 8716SOL     OW27046   0.612   1.079   1.840
 8716SOL    HW127047   0.594   1.131   1.923
 8716SOL    HW227048   0.711   1.070   1.828
 8717SOL     OW27049   4.212   3.503   0.463
 8717SOL    HW127050   4.189   3.468   0.554
 8717SOL    HW227051   4.164   3.590   0.447
 8718SOL     OW27052   0.340   2.744   5.664
 8718SOL    HW127053   0.244   2.751   5.693
 8718SOL    HW227054   0.380   2.661   5.701
 8719SOL     OW27055   6.202   0.911   5.770
 8719SOL    HW127056   6.158   0.822   5.765
 8719SOL    HW227057   6.135   0.979   5.800
 8720SOL     OW27058   4.674   3.472   5.947
 8720SOL    HW127059   4.737   3.542   5.915
 8720SOL    HW227060   4.589   3.514   5.977
 8721SOL     OW27061   7.009   0.621   4.797
 8721SOL    HW127062   7.013   0.618   4.697
 8721SOL    HW227063   6.933   0.680   4.825
 8722SOL     OW27064   2.813   3.110   0.929
 8722SOL    HW127065   2.724   3.123   0.971
 8722SOL    HW227066   2.842   3.015   0.938
 8723SOL     OW27067   0.341   5.154   0.245
 8723SOL    HW127068   0.276   5.230   0.239
 8723SOL    HW227069   0.299   5.071   0.209
 8724SOL     OW27070   5.605   6.019   6.324
 8724SOL    HW127071   5.584   5.922   6.336
 8724SOL    HW227072   5.654   6.053   6.405
 8725SOL     OW27073   1.979   6.236   1.515
 8725SOL    HW127074   1.975   6.192   1.425
 8725SOL    HW227075   2.037   6.317   1.511
 8726SOL     OW27076   6.738   0.091   1.053
 8726SOL    HW127077   6.653   0.037   1.052
 8726SOL    HW227078   6.779   0.086   1.144
 8727SOL     OW27079   6.230   6.366   1.246
 8727SOL    HW127080   6.245   6.459   1.214
 8727SOL    HW227081   6.194   6.368   1.339
 8728SOL     OW27082   2.339   6.497   5.415
 8728SOL    HW127083   2.436   6.495   5.391
 8728SOL    HW227084   2.315   6.586   5.454
 8729SOL     OW27085   5.407   6.217   4.617
 8729SOL    HW127086   5.332   6.215   4.551
 8729SOL    HW227087   5.417   6.127   4.660
 8730SOL     OW27088   6.869   6.501   1.060
 8730SOL    HW127089   6.838   6.594   1.080
 8730SOL    HW227090   6.801   6.435   1.092
 8731SOL     OW27091   0.526   1.669   2.322
 8731SOL    HW127092   0.457   1.701   2.257
 8731SOL    HW227093   0.542   1.740   2.391
 8732SOL     OW27094   6.166   5.939   1.768
 8732SOL    HW127095   6.106   6.018   1.766
 8732SOL    HW227096   6.195   5.916   1.675
 8733SOL     OW27097   6.914   6.850   1.450
 8733SOL    HW127098   6.945   6.783   1.518
 8733SOL    HW227099   6.814   6.853   1.451
 8734SOL     OW27100   7.019   5.658   0.165
 8734SOL    HW127101   0.049   5.618   0.242
 8734SOL    HW227102   0.066   5.695   0.099
 8735SOL     OW27103   6.809   2.744   6.291
 8735SOL    HW127104   6.737   2.808   6.317
 8735SOL    HW227105   6.891   2.796   6.264
 8736SOL     OW27106   0.071   4.687   6.052
 8736SOL    HW127107   0.150   4.626   6.051
 8736SOL    HW227108   0.084   4.760   5.985
 8737SOL     OW27109   3.799   6.425   6.601
 8737SOL    HW127110   3.802   6.340   6.549
 8737SOL    HW227111   3.819   6.502   6.541
 8738SOL     OW27112   0.804   3.802   5.357
 8738SOL    HW127113   0.832   3.717   5.403
 8738SOL    HW227114   0.756   3.861   5.422
 8739SOL     OW27115   1.090   3.453   5.716
 8739SOL    HW127116   1.180   3.496   5.717
 8739SOL    HW227117   1.074   3.411   5.626
 8740SOL     OW27118   1.245   6.522   1.492
 8740SOL    HW127119   1.234   6.621   1.479
 8740SOL    HW227120   1.297   6.484   1.417
 8741SOL     OW27121   1.808   3.987   1.959
 8741SOL    HW127122   1.747   3.952   1.888
 8741SOL    HW227123   1.887   4.031   1.917
 8742SOL     OW27124   4.826   6.408   2.045
 8742SOL    HW127125   4.897   6.463   2.089
 8742SOL    HW227126   4.776   6.355   2.114
 8743SOL     OW27127   2.286   4.799   3.581
 8743SOL    HW127128   2.379   4.807   3.544
 8743SOL    HW227129   2.227   4.755   3.514
 8744SOL     OW27130   3.525   3.525   5.477
 8744SOL    HW127131   3.467   3.603   5.499
 8744SOL    HW227132   3.480   3.468   5.409
 8745SOL     OW27133   6.324   1.430   6.874
 8745SOL    HW127134   6.407   1.377   6.896
 8745SOL    HW227135   6.263   1.430   6.953
 8746SOL     OW27136   5.245   4.229   5.079
 8746SOL    HW127137   5.230   4.159   5.010
 8746SOL    HW227138   5.168   4.293   5.079
 8747SOL     OW27139   0.744   2.523   4.174
 8747SOL    HW127140   0.698   2.525   4.264
 8747SOL    HW227141   0.698   2.586   4.112
 8748SOL     OW27142   2.879   0.146   0.378
 8748SOL    HW127143   2.940   0.096   0.316
 8748SOL    HW227144   2.876   0.099   0.466
 8749SOL     OW27145   3.914   1.611   3.815
 8749SOL    HW127146   3.886   1.521   3.848
 8749SOL    HW227147   4.005   1.632   3.851
 8750SOL     OW27148   1.766   0.719   5.466
 8750SOL    HW127149   1.742   0.796   5.525
 8750SOL    HW227150   1.688   0.658   5.458
 8751SOL     OW27151   1.865   0.005   3.420
 8751SOL    HW127152   1.954   0.025   3.380
 8751SOL    HW227153   1.802   6.995   3.348
 8752SOL     OW27154   2.587   1.851   5.789
 8752SOL    HW127155   2.658   1.783   5.773
 8752SOL    HW227156   2.575   1.864   5.887
 8753SOL     OW27157   6.094   1.293   4.893
 8753SOL    HW127158   6.059   1.208   4.854
 8753SOL    HW227159   6.152   1.272   4.971
 8754SOL     OW27160   1.860   0.830   5.220
 8754SOL    HW127161   1.839   0.787   5.307
 8754SOL    HW227162   1.939   0.891   5.231
 8755SOL     OW27163   2.163   2.394   1.095
 8755SOL    HW127164   2.161   2.343   1.181
 8755SOL    HW227165   2.113   2.480   1.107
 8756SOL     OW27166   1.961   3.919   4.330
 8756SOL    HW127167   2.042   3.911   4.389
 8756SOL    HW227168   1.972   3.998   4.270
 8757SOL     OW27169   3.990   6.002   4.194
 8757SOL    HW127170   3.907   6.002   4.250
 8757SOL    HW227171   3.971   5.962   4.105
 8758SOL     OW27172   4.991   6.506   2.272
 8758SOL    HW127173   4.915   6.570   2.286
 8758SOL    HW227174   5.026   6.476   2.361
 8759SOL     OW27175   5.265   1.119   5.911
 8759SOL    HW127176   5.225   1.141   5.822
 8759SOL    HW227177   5.214   1.166   5.983
 8760SOL     OW27178   1.732   3.140   3.580
 8760SOL    HW127179   1.762   3.115   3.672
 8760SOL    HW227180   1.768   3.231   3.557
 8761SOL     OW27181   5.233   6.145   1.559
 8761SOL    HW127182   5.223   6.069   1.623
 8761SOL    HW227183   5.280   6.113   1.477
 8762SOL     OW27184   0.798   3.805   0.418
 8762SOL    HW127185   0.829   3.724   0.467
 8762SOL    HW227186   0.700   3.817   0.430
 8763SOL     OW27187   6.885   5.980   6.374
 8763SOL    HW127188   6.795   5.987   6.333
 8763SOL    HW227189   6.897   6.055   6.440
 8764SOL     OW27190   3.924   1.921   5.477
 8764SOL    HW127191   3.850   1.922   5.409
 8764SOL    HW227192   3.892   1.962   5.562
 8765SOL     OW27193   6.766   0.245   4.988
 8765SOL    HW127194   6.767   0.292   5.076
 8765SOL    HW227195   6.674   0.249   4.949
 8766SOL     OW27196   2.169   4.535   2.260
 8766SOL    HW127197   2.119   4.611   2.301
 8766SOL    HW227198   2.176   4.460   2.326
 8767SOL     OW27199   5.057   1.381   5.509
 8767SOL    HW127200   4.988   1.313   5.532
 8767SOL    HW227201   5.063   1.449   5.581
 8768SOL     OW27202   0.920   3.970   0.092
 8768SOL    HW127203   1.015   3.946   0.114
 8768SOL    HW227204   0.911   4.070   0.092
 8769SOL     OW27205   1.725   1.060   5.737
 8769SOL    HW127206   1.696   0.965   5.744
 8769SOL    HW227207   1.677   1.115   5.805
 8770SOL     OW27208   5.483   1.317   3.289
 8770SOL    HW127209   5.543   1.247   3.249
 8770SOL    HW227210   5.538   1.398   3.311
 8771SOL     OW27211   2.604   2.559   5.255
 8771SOL    HW127212   2.573   2.654   5.261
 8771SOL    HW227213   2.700   2.553   5.281
 8772SOL     OW27214   5.817   6.384   6.929
 8772SOL    HW127215   5.725   6.361   6.899
 8772SOL    HW227216   5.865   6.302   6.960
 8773SOL     OW27217   3.065   1.734   2.870
 8773SOL    HW127218   3.057   1.639   2.901
 8773SOL    HW227219   3.041   1.740   2.773
 8774SOL     OW27220   1.604   0.710   0.420
 8774SOL    HW127221   1.630   0.633   0.477
 8774SOL    HW227222   1.512   0.695   0.383
 8775SOL     OW27223   6.512   6.498   3.875
 8775SOL    HW127224   6.428   6.548   3.854
 8775SOL    HW227225   6.589   6.542   3.828
 8776SOL     OW27226   3.408   3.626   4.605
 8776SOL    HW127227   3.508   3.631   4.602
 8776SOL    HW227228   3.371   3.715   4.629
 8777SOL     OW27229   6.559   5.801   2.428
 8777SOL    HW127230   6.541   5.816   2.331
 8777SOL    HW227231   6.653   5.770   2.440
 8778SOL     OW27232   1.241   2.462   2.913
 8778SOL    HW127233   1.310   2.391   2.927
 8778SOL    HW227234   1.189   2.476   2.997
 8779SOL     OW27235   1.493   4.635   0.817
 8779SOL    HW127236   1.538   4.718   0.784
 8779SOL    HW227237   1.491   4.636   0.917
 8780SOL     OW27238   2.048   5.981   4.536
 8780SOL    HW127239   1.989   6.025   4.468
 8780SOL    HW227240   2.001   5.979   4.624
 8781SOL     OW27241   0.815   2.228   2.658
 8781SOL    HW127242   0.913   2.245   2.662
 8781SOL    HW227243   0.797   2.144   2.607
 8782SOL     OW27244   5.061   1.536   3.423
 8782SOL    HW127245   5.029   1.631   3.427
 8782SOL    HW227246   5.093   1.515   3.331
 8783SOL     OW27247   6.059   2.732   6.062
 8783SOL    HW127248   6.026   2.779   5.980
 8783SOL    HW227249   6.025   2.638   6.061
 8784SOL     OW27250   5.521   4.353   5.821
 8784SOL    HW127251   5.589   4.425   5.836
 8784SOL    HW227252   5.517   4.332   5.723
 8785SOL     OW27253   5.220   4.160   6.288
 8785SOL    HW127254   5.273   4.118   6.361
 8785SOL    HW227255   5.280   4.183   6.212
 8786SOL     OW27256   1.310   6.511   0.623
 8786SOL    HW127257   1.310   6.489   0.526
 8786SOL    HW227258   1.314   6.426   0.676
 8787SOL     OW27259   1.225   2.546   0.063
 8787SOL    HW127260   1.162   2.473   0.090
 8787SOL    HW227261   1.208   2.571   6.986
 8788SOL     OW27262   1.388   2.045   5.350
 8788SOL    HW127263   1.299   2.084   5.326
 8788SOL    HW227264   1.457   2.081   5.287
 8789SOL     OW27265   0.724   0.649   0.212
 8789SOL    HW127266   0.722   0.631   0.310
 8789SOL    HW227267   0.747   0.745   0.196
 8790SOL     OW27268   4.270   1.967   6.788
 8790SOL    HW127269   4.175   1.979   6.815
 8790SOL    HW227270   4.330   2.000   6.861
 8791SOL     OW27271   4.862   6.090   5.537
 8791SOL    HW127272   4.937   6.072   5.473
 8791SOL    HW227273   4.776   6.099   5.486
 8792SOL     OW27274   5.595   6.768   2.715
 8792SOL    HW127275   5.641   6.854   2.736
 8792SOL    HW227276   5.663   6.695   2.710
 8793SOL     OW27277   1.299   4.613   3.271
 8793SOL    HW127278   1.397   4.608   3.251
 8793SOL    HW227279   1.251   4.651   3.192
 8794SOL     OW27280   2.564   5.809   2.808
 8794SOL    HW127281   2.521   5.722   2.830
 8794SOL    HW227282   2.627   5.797   2.731
 8795SOL     OW27283   2.288   5.790   5.131
 8795SOL    HW127284   2.371   5.736   5.146
 8795SOL    HW227285   2.276   5.854   5.207
 8796SOL     OW27286   5.913   2.620   5.546
 8796SOL    HW127287   5.889   2.613   5.643
 8796SOL    HW227288   5.910   2.716   5.518
 8797SOL     OW27289   1.078   6.047   6.697
 8797SOL    HW127290   1.130   6.114   6.750
 8797SOL    HW227291   1.101   5.955   6.729
 8798SOL     OW27292   3.384   3.235   5.815
 8798SOL    HW127293   3.404   3.141   5.842
 8798SOL    HW227294   3.459   3.271   5.760
 8799SOL     OW27295   3.317   0.347   3.203
 8799SOL    HW127296   3.318   0.446   3.214
 8799SOL    HW227297   3.296   0.324   3.108
 8800SOL     OW27298   4.565   4.776   0.644
 8800SOL    HW127299   4.578   4.785   0.545
 8800SOL    HW227300   4.508   4.851   0.678
 8801SOL     OW27301   3.293   6.319   5.957
 8801SOL    HW127302   3.206   6.289   5.995
 8801SOL    HW227303   3.290   6.314   5.857
 8802SOL     OW27304   2.308   6.172   1.831
 8802SOL    HW127305   2.350   6.131   1.912
 8802SOL    HW227306   2.229   6.117   1.803
 8803SOL     OW27307   4.238   6.074   1.187
 8803SOL    HW127308   4.222   5.981   1.155
 8803SOL    HW227309   4.277   6.072   1.278
 8804SOL     OW27310   2.733   1.141   1.194
 8804SOL    HW127311   2.818   1.194   1.192
 8804SOL    HW227312   2.658   1.198   1.162
 8805SOL     OW27313   0.367   0.457   3.267
 8805SOL    HW127314   0.454   0.497   3.297
 8805SOL    HW227315   0.370   0.438   3.169
 8806SOL     OW27316   1.610   5.062   0.473
 8806SOL    HW127317   1.700   5.094   0.443
 8806SOL    HW227318   1.569   5.005   0.401
 8807SOL     OW27319   2.096   5.995   6.725
 8807SOL    HW127320   2.126   5.936   6.650
 8807SOL    HW227321   2.166   5.996   6.796
 8808SOL     OW27322   5.698   1.955   0.936
 8808SOL    HW127323   5.608   1.928   0.903
 8808SOL    HW227324   5.708   2.055   0.928
 8809SOL     OW27325   6.205   4.308   0.549
 8809SOL    HW127326   6.125   4.367   0.547
 8809SOL    HW227327   6.263   4.327   0.470
 8810SOL     OW27328   5.152   1.737   4.178
 8810SOL    HW127329   5.250   1.723   4.162
 8810SOL    HW227330   5.131   1.716   4.273
 8811SOL     OW27331   1.539   1.312   3.287
 8811SOL    HW127332   1.585   1.389   3.331
 8811SOL    HW227333   1.449   1.298   3.329
 8812SOL     OW27334   2.453   1.206   0.239
 8812SOL    HW127335   2.413   1.291   0.273
 8812SOL    HW227336   2.386   1.156   0.185
 8813SOL     OW27337   1.249   6.056   1.010
 8813SOL    HW127338   1.213   6.146   1.034
 8813SOL    HW227339   1.310   6.024   1.082
 8814SOL     OW27340   5.162   6.590   6.255
 8814SOL    HW127341   5.184   6.534   6.335
 8814SOL    HW227342   5.199   6.682   6.268
 8815SOL     OW27343   6.190   5.810   3.186
 8815SOL    HW127344   6.163   5.775   3.276
 8815SOL    HW227345   6.195   5.910   3.190
 8816SOL     OW27346   1.073   5.604   1.849
 8816SOL    HW127347   1.107   5.698   1.858
 8816SOL    HW227348   0.979   5.606   1.813
 8817SOL     OW27349   2.249   4.311   5.574
 8817SOL    HW127350   2.184   4.384   5.549
 8817SOL    HW227351   2.342   4.346   5.568
 8818SOL     OW27352   6.921   4.521   4.925
 8818SOL    HW127353   6.862   4.596   4.892
 8818SOL    HW227354   6.939   4.534   5.022
 8819SOL     OW27355   6.314   0.068   3.996
 8819SOL    HW127356   6.353   7.009   3.947
 8819SOL    HW227357   6.228   0.040   4.039
 8820SOL     OW27358   0.790   2.906   3.333
 8820SOL    HW127359   0.736   2.987   3.311
 8820SOL    HW227360   0.784   2.841   3.257
 8821SOL     OW27361   1.703   6.877   6.224
 8821SOL    HW127362   1.758   6.818   6.164
 8821SOL    HW227363   1.658   6.821   6.293
 8822SOL     OW27364   0.817   2.174   3.361
 8822SOL    HW127365   0.834   2.077   3.350
 8822SOL    HW227366   0.899   2.219   3.397
 8823SOL     OW27367   2.302   4.862   1.754
 8823SOL    HW127368   2.216   4.830   1.714
 8823SOL    HW227369   2.373   4.792   1.740
 8824SOL     OW27370   4.412   4.245   0.888
 8824SOL    HW127371   4.320   4.230   0.921
 8824SOL    HW227372   4.477   4.190   0.940
 8825SOL     OW27373   1.818   2.759   0.806
 8825SOL    HW127374   1.746   2.778   0.739
 8825SOL    HW227375   1.824   2.834   0.871
 8826SOL     OW27376   5.754   0.502   0.663
 8826SOL    HW127377   5.770   0.593   0.703
 8826SOL    HW227378   5.790   0.432   0.725
 8827SOL     OW27379   6.840   1.601   3.038
 8827SOL    HW127380   6.929   1.645   3.029
 8827SOL    HW227381   6.772   1.669   3.067
 8828SOL     OW27382   1.365   6.275   3.413
 8828SOL    HW127383   1.362   6.186   3.366
 8828SOL    HW227384   1.326   6.345   3.353
 8829SOL     OW27385   1.812   1.055   0.954
 8829SOL    HW127386   1.721   1.029   0.923
 8829SOL    HW227387   1.805   1.096   1.045
 8830SOL     OW27388   1.524   1.392   0.078
 8830SOL    HW127389   1.551   1.485   0.102
 8830SOL    HW227390   1.604   1.332   0.080
 8831SOL     OW27391   0.233   1.211   1.866
 8831SOL    HW127392   0.143   1.254   1.870
 8831SOL    HW227393   0.283   1.230   1.951
 8832SOL     OW27394   6.562   0.800   2.081
 8832SOL    HW127395   6.556   0.789   2.180
 8832SOL    HW227396   6.561   0.710   2.038
 8833SOL     OW27397   1.103   4.839   2.659
 8833SOL    HW127398   1.048   4.783   2.723
 8833SOL    HW227399   1.117   4.930   2.698
 8834SOL     OW27400   6.277   4.032   3.623
 8834SOL    HW127401   6.277   4.112   3.682
 8834SOL    HW227402   6.371   4.000   3.610
 8835SOL     OW27403   0.541   0.719   6.999
 8835SOL    HW127404   0.553   0.626   6.964
 8835SOL    HW227405   0.595   0.731   0.063
 8836SOL     OW27406   4.627   1.812   2.123
 8836SOL    HW127407   4.711   1.847   2.163
 8836SOL    HW227408   4.549   1.846   2.176
 8837SOL     OW27409   0.255   2.469   2.081
 8837SOL    HW127410   0.276   2.566   2.071
 8837SOL    HW227411   0.340   2.417   2.094
 8838SOL     OW27412   1.892   6.009   3.850
 8838SOL    HW127413   1.939   6.048   3.930
 8838SOL    HW227414   1.908   6.068   3.771
 8839SOL     OW27415   5.278   5.962   4.016
 8839SOL    HW127416   5.253   6.059   4.024
 8839SOL    HW227417   5.347   5.940   4.085
 8840SOL     OW27418   4.243   0.492   1.982
 8840SOL    HW127419   4.218   0.402   1.946
 8840SOL    HW227420   4.180   0.561   1.946
 8841SOL     OW27421   2.974   6.907   4.356
 8841SOL    HW127422   2.939   6.970   4.285
 8841SOL    HW227423   2.912   6.829   4.364
 8842SOL     OW27424   1.573   2.307   1.886
 8842SOL    HW127425   1.498   2.346   1.939
 8842SOL    HW227426   1.659   2.322   1.935
 8843SOL     OW27427   0.340   3.215   4.081
 8843SOL    HW127428   0.404   3.265   4.139
 8843SOL    HW227429   0.391   3.148   4.026
 8844SOL     OW27430   6.032   1.492   6.190
 8844SOL    HW127431   6.068   1.409   6.234
 8844SOL    HW227432   6.096   1.567   6.203
 8845SOL     OW27433   5.141   3.132   6.720
 8845SOL    HW127434   5.047   3.110   6.692
 8845SOL    HW227435   5.146   3.133   6.820
 8846SOL     OW27436   3.221   5.015   3.535
 8846SOL    HW127437   3.170   4.965   3.605
 8846SOL    HW227438   3.217   4.964   3.448
 8847SOL     OW27439   0.963   1.157   2.959
 8847SOL    HW127440   0.952   1.118   2.867
 8847SOL    HW227441   0.872   1.169   3.000
 8848SOL     OW27442   0.923   1.040   3.423
 8848SOL    HW127443   0.959   1.015   3.333
 8848SOL    HW227444   0.858   0.970   3.453
 8849SOL     OW27445   2.768   6.706   1.708
 8849SOL    HW127446   2.707   6.774   1.667
 8849SOL    HW227447   2.863   6.738   1.701
 8850SOL     OW27448   2.816   2.598   6.968
 8850SOL    HW127449   2.852   2.597   6.875
 8850SOL    HW227450   2.826   2.507   7.008
 8851SOL     OW27451   1.900   3.774   2.085
 8851SOL    HW127452   1.985   3.784   2.137
 8851SOL    HW227453   1.867   3.865   2.057
 8852SOL     OW27454   0.450   2.003   4.598
 8852SOL    HW127455   0.494   2.089   4.622
 8852SOL    HW227456   0.351   2.016   4.593
 8853SOL     OW27457   4.748   0.509   1.740
 8853SOL    HW127458   4.836   0.553   1.759
 8853SOL    HW227459   4.698   0.496   1.825
 8854SOL     OW27460   0.522   3.043   4.810
 8854SOL    HW127461   0.551   3.125   4.859
 8854SOL    HW227462   0.595   2.975   4.815
 8855SOL     OW27463   5.253   4.655   1.552
 8855SOL    HW127464   5.316   4.689   1.482
 8855SOL    HW227465   5.222   4.563   1.527
 8856SOL     OW27466   6.360   0.508   5.979
 8856SOL    HW127467   6.437   0.549   5.929
 8856SOL    HW227468   6.386   0.417   6.011
 8857SOL     OW27469   6.954   1.663   6.401
 8857SOL    HW127470   6.906   1.577   6.417
 8857SOL    HW227471   7.000   1.692   6.485
 8858SOL     OW27472   6.626   5.990   4.975
 8858SOL    HW127473   6.712   6.014   4.930
 8858SOL    HW227474   6.558   6.060   4.956
 8859SOL     OW27475   0.709   5.860   3.178
 8859SOL    HW127476   0.802   5.897   3.171
 8859SOL    HW227477   0.708   5.767   3.140
 8860SOL     OW27478   6.838   3.054   2.371
 8860SOL    HW127479   6.929   3.036   2.333
 8860SOL    HW227480   6.839   3.036   2.470
 8861SOL     OW27481   3.690   2.748   1.628
 8861SOL    HW127482   3.697   2.818   1.556
 8861SOL    HW227483   3.635   2.784   1.704
 8862SOL     OW27484   4.302   4.725   4.801
 8862SOL    HW127485   4.318   4.649   4.863
 8862SOL    HW227486   4.342   4.704   4.712
 8863SOL     OW27487   0.932   4.131   2.318
 8863SOL    HW127488   0.997   4.152   2.391
 8863SOL    HW227489   0.982   4.120   2.232
 8864SOL     OW27490   6.401   1.807   5.089
 8864SOL    HW127491   6.403   1.825   4.991
 8864SOL    HW227492   6.332   1.864   5.133
 8865SOL     OW27493   2.997   2.068   0.524
 8865SOL    HW127494   2.901   2.052   0.544
 8865SOL    HW227495   3.017   2.166   0.534
 8866SOL     OW27496   5.678   6.849   2.128
 8866SOL    HW127497   5.736   6.930   2.123
 8866SOL    HW227498   5.605   6.856   2.060
 8867SOL     OW27499   6.173   2.993   2.895
 8867SOL    HW127500   6.156   3.074   2.950
 8867SOL    HW227501   6.161   3.014   2.798
 8868SOL     OW27502   0.070   3.064   3.961
 8868SOL    HW127503   0.130   3.010   3.902
 8868SOL    HW227504   0.126   3.117   4.026
 8869SOL     OW27505   4.838   0.399   3.687
 8869SOL    HW127506   4.745   0.405   3.652
 8869SOL    HW227507   4.844   0.447   3.774
 8870SOL     OW27508   1.094   0.773   1.715
 8870SOL    HW127509   1.161   0.845   1.698
 8870SOL    HW227510   1.095   0.707   1.640
 8871SOL     OW27511   0.145   0.021   1.167
 8871SOL    HW127512   0.054   7.018   1.203
 8871SOL    HW227513   0.135   0.063   1.077
 8872SOL     OW27514   6.967   4.279   3.664
 8872SOL    HW127515   6.965   4.198   3.604
 8872SOL    HW227516   0.015   4.345   3.629
 8873SOL     OW27517   2.279   1.182   2.932
 8873SOL    HW127518   2.201   1.243   2.948
 8873SOL    HW227519   2.344   1.189   3.007
 8874SOL     OW27520   2.868   6.134   0.708
 8874SOL    HW127521   2.928   6.110   0.631
 8874SOL    HW227522   2.912   6.206   0.762
 8875SOL     OW27523   6.300   3.299   4.849
 8875SOL    HW127524   6.334   3.328   4.760
 8875SOL    HW227525   6.313   3.200   4.859
 8876SOL     OW27526   4.245   0.988   0.696
 8876SOL    HW127527   4.179   0.994   0.771
 8876SOL    HW227528   4.331   0.950   0.730
 8877SOL     OW27529   0.687   5.035   1.183
 8877SOL    HW127530   0.767   5.005   1.235
 8877SOL    HW227531   0.604   5.003   1.228
 8878SOL     OW27532   5.299   3.214   1.745
 8878SOL    HW127533   5.286   3.140   1.811
 8878SOL    HW227534   5.211   3.243   1.708
 8879SOL     OW27535   6.773   4.463   3.491
 8879SOL    HW127536   6.711   4.423   3.559
 8879SOL    HW227537   6.857   4.409   3.488
 8880SOL     OW27538   4.132   2.284   3.090
 8880SOL    HW127539   4.217   2.291   3.038
 8880SOL    HW227540   4.153   2.266   3.187
 8881SOL     OW27541   3.477   4.943   2.570
 8881SOL    HW127542   3.431   4.882   2.634
 8881SOL    HW227543   3.409   4.991   2.514
 8882SOL     OW27544   4.139   0.860   0.256
 8882SOL    HW127545   4.115   0.922   0.182
 8882SOL    HW227546   4.221   0.807   0.230
 8883SOL     OW27547   6.892   6.311   2.951
 8883SOL    HW127548   6.985   6.331   2.922
 8883SOL    HW227549   6.887   6.217   2.984
 8884SOL     OW27550   3.934   2.743   5.617
 8884SOL    HW127551   3.947   2.754   5.519
 8884SOL    HW227552   4.021   2.757   5.664
 8885SOL     OW27553   5.612   5.523   0.946
 8885SOL    HW127554   5.612   5.466   0.864
 8885SOL    HW227555   5.681   5.594   0.938
 8886SOL     OW27556   4.696   6.764   6.956
 8886SOL    HW127557   4.700   6.835   0.008
 8886SOL    HW227558   4.673   6.676   6.998
 8887SOL     OW27559   3.581   0.217   1.440
 8887SOL    HW127560   3.497   0.243   1.392
 8887SOL    HW227561   3.593   0.276   1.521
 8888SOL     OW27562   3.415   2.026   2.403
 8888SOL    HW127563   3.367   1.939   2.391
 8888SOL    HW227564   3.383   2.092   2.335
 8889SOL     OW27565   1.530   4.940   0.249
 8889SOL    HW127566   1.571   4.851   0.232
 8889SOL    HW227567   1.437   4.929   0.284
 8890SOL     OW27568   1.223   5.861   6.983
 8890SOL    HW127569   1.236   5.960   6.991
 8890SOL    HW227570   1.290   5.824   6.918
 8891SOL     OW27571   6.776   3.754   5.230
 8891SOL    HW127572   6.703   3.811   5.192
 8891SOL    HW227573   6.779   3.765   5.329
 8892SOL     OW27574   2.362   4.998   4.682
 8892SOL    HW127575   2.339   4.979   4.777
 8892SOL    HW227576   2.350   5.095   4.663
 8893SOL     OW27577   0.676   4.543   5.487
 8893SOL    HW127578   0.708   4.630   5.449
 8893SOL    HW227579   0.724   4.467   5.443
 8894SOL     OW27580   5.286   1.957   1.932
 8894SOL    HW127581   5.320   2.028   1.994
 8894SOL    HW227582   5.221   1.997   1.869
 8895SOL     OW27583   6.639   3.730   0.986
 8895SOL    HW127584   6.556   3.677   1.005
 8895SOL    HW227585   6.618   3.804   0.923
 8896SOL     OW27586   1.075   1.483   3.502
 8896SOL    HW127587   1.147   1.464   3.435
 8896SOL    HW227588   1.090   1.428   3.584
 8897SOL     OW27589   1.659   5.277   4.290
 8897SOL    HW127590   1.680   5.261   4.386
 8897SOL    HW227591   1.699   5.204   4.235
 8898SOL     OW27592   5.516   3.924   2.358
 8898SOL    HW127593   5.426   3.907   2.397
 8898SOL    HW227594   5.529   4.023   2.344
 8899SOL     OW27595   2.029   3.822   2.454
 8899SOL    HW127596   1.996   3.901   2.507
 8899SOL    HW227597   2.084   3.854   2.377
 8900SOL     OW27598   4.264   1.562   4.542
 8900SOL    HW127599   4.213   1.544   4.458
 8900SOL    HW227600   4.346   1.615   4.520
 8901SOL     OW27601   1.743   5.585   4.887
 8901SOL    HW127602   1.702   5.643   4.957
 8901SOL    HW227603   1.675   5.565   4.816
 8902SOL     OW27604   0.467   4.938   0.002
 8902SOL    HW127605   0.490   4.887   6.937
 8902SOL    HW227606   0.384   4.991   7.006
 8903SOL     OW27607   1.249   0.496   5.108
 8903SOL    HW127608   1.299   0.448   5.036
 8903SOL    HW227609   1.248   0.440   5.191
 8904SOL     OW27610   0.496   0.795   3.453
 8904SOL    HW127611   0.500   0.760   3.360
 8904SOL    HW227612   0.431   0.742   3.506
 8905SOL     OW27613   1.782   4.500   1.833
 8905SOL    HW127614   1.683   4.489   1.837
 8905SOL    HW227615   1.810   4.580   1.887
 8906SOL     OW27616   6.121   0.282   6.505
 8906SOL    HW127617   6.168   0.197   6.527
 8906SOL    HW227618   6.160   0.322   6.422
 8907SOL     OW27619   3.026   3.106   5.274
 8907SOL    HW127620   3.037   3.079   5.178
 8907SOL    HW227621   2.936   3.077   5.306
 8908SOL     OW27622   1.651   4.784   6.250
 8908SOL    HW127623   1.597   4.721   6.306
 8908SOL    HW227624   1.749   4.763   6.261
 8909SOL     OW27625   2.166   5.610   1.643
 8909SOL    HW127626   2.106   5.562   1.707
 8909SOL    HW227627   2.255   5.624   1.685
 8910SOL     OW27628   1.103   1.411   3.796
 8910SOL    HW127629   1.164   1.487   3.775
 8910SOL    HW227630   1.154   1.325   3.789
 8911SOL     OW27631   5.514   2.735   4.669
 8911SOL    HW127632   5.607   2.728   4.633
 8911SOL    HW227633   5.453   2.769   4.597
 8912SOL     OW27634   3.698   2.926   3.609
 8912SOL    HW127635   3.653   2.882   3.686
 8912SOL    HW227636   3.670   3.022   3.604
 8913SOL     OW27637   5.187   5.742   1.240
 8913SOL    HW127638   5.173   5.692   1.326
 8913SOL    HW227639   5.269   5.706   1.194
 8914SOL     OW27640   5.005   5.608   5.318
 8914SOL    HW127641   5.020   5.597   5.416
 8914SOL    HW227642   4.965   5.698   5.300
 8915SOL     OW27643   2.058   0.972   3.787
 8915SOL    HW127644   2.040   1.038   3.715
 8915SOL    HW227645   2.050   0.879   3.751
 8916SOL     OW27646   5.332   1.186   2.120
 8916SOL    HW127647   5.236   1.186   2.148
 8916SOL    HW227648   5.382   1.254   2.174
 8917SOL     OW27649   5.509   1.936   0.528
 8917SOL    HW127650   5.411   1.917   0.517
 8917SOL    HW227651   5.561   1.877   0.466
 8918SOL     OW27652   0.863   3.424   2.201
 8918SOL    HW127653   0.927   3.500   2.188
 8918SOL    HW227654   0.810   3.439   2.285
 8919SOL     OW27655   6.448   2.965   2.435
 8919SOL    HW127656   6.528   2.934   2.487
 8919SOL    HW227657   6.474   2.982   2.340
 8920SOL     OW27658   1.094   1.561   0.141
 8920SOL    HW127659   1.171   1.622   0.122
 8920SOL    HW227660   1.031   1.605   0.205
 8921SOL     OW27661   0.793   3.165   1.563
 8921SOL    HW127662   0.875   3.215   1.535
 8921SOL    HW227663   0.786   3.165   1.663
 8922SOL     OW27664   3.222   4.920   3.270
 8922SOL    HW127665   3.307   4.936   3.219
 8922SOL    HW227666   3.148   4.899   3.207
 8923SOL     OW27667   2.490   1.089   3.669
 8923SOL    HW127668   2.553   1.143   3.726
 8923SOL    HW227669   2.532   1.001   3.648
 8924SOL     OW27670   6.165   5.165   4.466
 8924SOL    HW127671   6.250   5.128   4.505
 8924SOL    HW227672   6.097   5.174   4.538
 8925SOL     OW27673   0.732   0.189   3.686
 8925SOL    HW127674   0.820   0.183   3.639
 8925SOL    HW227675   0.710   0.100   3.726
 8926SOL     OW27676   5.834   1.302   0.061
 8926SOL    HW127677   5.798   1.272   6.992
 8926SOL    HW227678   5.824   1.229   0.128
 8927SOL     OW27679   1.601   0.777   6.640
 8927SOL    HW127680   1.530   0.748   6.575
 8927SOL    HW227681   1.689   0.782   6.593
 8928SOL     OW27682   1.648   6.850   5.756
 8928SOL    HW127683   1.709   6.783   5.798
 8928SOL    HW227684   1.634   6.927   5.818
 8929SOL     OW27685   0.183   1.876   3.719
 8929SOL    HW127686   0.207   1.782   3.741
 8929SOL    HW227687   0.084   1.890   3.731
 8930SOL     OW27688   2.075   4.927   3.899
 8930SOL    HW127689   1.977   4.913   3.906
 8930SOL    HW227690   2.112   4.954   3.988
 8931SOL     OW27691   4.297   3.488   0.173
 8931SOL    HW127692   4.271   3.484   0.269
 8931SOL    HW227693   4.221   3.523   0.118
 8932SOL     OW27694   0.963   3.869   3.222
 8932SOL    HW127695   0.971   3.912   3.132
 8932SOL    HW227696   0.953   3.770   3.211
 8933SOL     OW27697   4.559   1.842   6.419
 8933SOL    HW127698   4.557   1.757   6.367
 8933SOL    HW227699   4.503   1.833   6.501
 8934SOL     OW27700   2.152   5.683   2.899
 8934SOL    HW127701   2.214   5.753   2.935
 8934SOL    HW227702   2.073   5.673   2.960
 8935SOL     OW27703   6.728   5.075   0.036
 8935SOL    HW127704   6.817   5.121   0.039
 8935SOL    HW227705   6.734   4.987   0.083
 8936SOL     OW27706   3.701   2.855   0.812
 8936SOL    HW127707   3.782   2.865   0.870
 8936SOL    HW227708   3.697   2.761   0.777
 8937SOL     OW27709   0.960   0.483   6.100
 8937SOL    HW127710   0.990   0.553   6.164
 8937SOL    HW227711   0.885   0.518   6.044
 8938SOL     OW27712   4.519   6.063   2.001
 8938SOL    HW127713   4.427   6.096   2.025
 8938SOL    HW227714   4.567   6.038   2.085
 8939SOL     OW27715   5.479   2.069   4.957
 8939SOL    HW127716   5.555   2.121   4.918
 8939SOL    HW227717   5.514   1.988   5.004
 8940SOL     OW27718   6.062   6.927   2.598
 8940SOL    HW127719   5.983   6.968   2.643
 8940SOL    HW227720   6.091   6.984   2.521
 8941SOL     OW27721   4.051   1.499   6.411
 8941SOL    HW127722   4.072   1.536   6.502
 8941SOL    HW227723   4.001   1.413   6.421
 8942SOL     OW27724   1.164   2.219   5.159
 8942SOL    HW127725   1.222   2.196   5.081
 8942SOL    HW227726   1.089   2.278   5.128
 8943SOL     OW27727   5.149   3.702   0.986
 8943SOL    HW127728   5.214   3.669   0.917
 8943SOL    HW227729   5.185   3.785   1.028
 8944SOL     OW27730   4.195   5.635   1.374
 8944SOL    HW127731   4.229   5.580   1.297
 8944SOL    HW227732   4.146   5.575   1.438
 8945SOL     OW27733   2.158   1.379   3.860
 8945SOL    HW127734   2.118   1.455   3.910
 8945SOL    HW227735   2.140   1.293   3.909
 8946SOL     OW27736   4.237   0.356   4.511
 8946SOL    HW127737   4.157   0.415   4.499
 8946SOL    HW227738   4.210   0.272   4.558
 8947SOL     OW27739   3.755   3.903   5.343
 8947SOL    HW127740   3.809   3.983   5.318
 8947SOL    HW227741   3.665   3.907   5.300
 8948SOL     OW27742   5.931   5.196   3.247
 8948SOL    HW127743   5.915   5.294   3.257
 8948SOL    HW227744   5.935   5.172   3.150
 8949SOL     OW27745   1.780   5.216   6.155
 8949SOL    HW127746   1.800   5.263   6.241
 8949SOL    HW227747   1.773   5.282   6.081
 8950SOL     OW27748   5.024   2.430   4.913
 8950SOL    HW127749   4.960   2.487   4.965
 8950SOL    HW227750   4.975   2.356   4.870
 8951SOL     OW27751   2.695   2.012   5.409
 8951SOL    HW127752   2.632   1.949   5.452
 8951SOL    HW227753   2.683   2.104   5.448
 8952SOL     OW27754   6.370   6.759   3.332
 8952SOL    HW127755   6.345   6.854   3.353
 8952SOL    HW227756   6.324   6.730   3.248
 8953SOL     OW27757   2.068   5.045   6.178
 8953SOL    HW127758   2.080   4.968   6.240
 8953SOL    HW227759   1.986   5.096   6.203
 8954SOL     OW27760   2.603   6.480   5.341
 8954SOL    HW127761   2.650   6.549   5.287
 8954SOL    HW227762   2.667   6.437   5.404
 8955SOL     OW27763   6.326   3.913   4.436
 8955SOL    HW127764   6.390   3.954   4.371
 8955SOL    HW227765   6.335   3.957   4.525
 8956SOL     OW27766   1.406   0.728   4.821
 8956SOL    HW127767   1.342   0.796   4.856
 8956SOL    HW227768   1.357   0.643   4.802
 8957SOL     OW27769   2.775   6.287   1.987
 8957SOL    HW127770   2.786   6.263   1.891
 8957SOL    HW227771   2.750   6.384   1.995
 8958SOL     OW27772   2.745   0.082   4.343
 8958SOL    HW127773   2.721   0.171   4.304
 8958SOL    HW227774   2.730   0.011   4.274
 8959SOL     OW27775   3.407   5.536   0.540
 8959SOL    HW127776   3.386   5.451   0.492
 8959SOL    HW227777   3.365   5.613   0.491
 8960SOL     OW27778   3.433   5.849   0.755
 8960SOL    HW127779   3.429   5.841   0.854
 8960SOL    HW227780   3.383   5.773   0.713
 8961SOL     OW27781   1.275   2.937   3.784
 8961SOL    HW127782   1.279   2.995   3.866
 8961SOL    HW227783   1.364   2.894   3.770
 8962SOL     OW27784   5.148   0.643   3.574
 8962SOL    HW127785   5.092   0.718   3.609
 8962SOL    HW227786   5.203   0.675   3.497
 8963SOL     OW27787   0.270   1.146   3.557
 8963SOL    HW127788   0.275   1.209   3.635
 8963SOL    HW227789   0.241   1.055   3.589
 8964SOL     OW27790   6.888   3.126   3.014
 8964SOL    HW127791   6.956   3.063   2.977
 8964SOL    HW227792   6.826   3.076   3.075
 8965SOL     OW27793   1.826   5.153   1.557
 8965SOL    HW127794   1.827   5.110   1.647
 8965SOL    HW227795   1.875   5.096   1.492
 8966SOL     OW27796   3.741   2.009   4.955
 8966SOL    HW127797   3.803   2.033   4.880
 8966SOL    HW227798   3.660   2.068   4.952
 8967SOL     OW27799   5.004   6.617   0.883
 8967SOL    HW127800   4.916   6.654   0.851
 8967SOL    HW227801   5.008   6.624   0.983
 8968SOL     OW27802   5.226   4.264   2.934
 8968SOL    HW127803   5.315   4.270   2.890
 8968SOL    HW227804   5.167   4.204   2.881
 8969SOL     OW27805   6.404   0.285   4.403
 8969SOL    HW127806   6.333   0.283   4.473
 8969SOL    HW227807   6.487   0.324   4.441
 8970SOL     OW27808   3.222   2.103   1.384
 8970SOL    HW127809   3.264   2.191   1.362
 8970SOL    HW227810   3.293   2.039   1.415
 8971SOL     OW27811   4.431   6.317   2.701
 8971SOL    HW127812   4.397   6.388   2.763
 8971SOL    HW227813   4.433   6.229   2.749
 8972SOL     OW27814   4.969   0.298   4.829
 8972SOL    HW127815   4.927   0.208   4.835
 8972SOL    HW227816   5.068   0.289   4.840
 8973SOL     OW27817   1.976   4.926   6.678
 8973SOL    HW127818   2.072   4.953   6.669
 8973SOL    HW227819   1.918   4.996   6.638
 8974SOL     OW27820   0.782   2.836   3.642
 8974SOL    HW127821   0.812   2.740   3.649
 8974SOL    HW227822   0.781   2.863   3.546
 8975SOL     OW27823   3.592   0.494   6.381
 8975SOL    HW127824   3.660   0.518   6.311
 8975SOL    HW227825   3.515   0.557   6.375
 8976SOL     OW27826   1.468   5.187   4.097
 8976SOL    HW127827   1.531   5.204   4.172
 8976SOL    HW227828   1.520   5.181   4.011
 8977SOL     OW27829   5.490   1.454   6.515
 8977SOL    HW127830   5.549   1.385   6.558
 8977SOL    HW227831   5.541   1.503   6.445
 8978SOL     OW27832   5.642   4.751   1.450
 8978SOL    HW127833   5.740   4.765   1.440
 8978SOL    HW227834   5.624   4.657   1.479
 8979SOL     OW27835   1.158   4.380   4.778
 8979SOL    HW127836   1.251   4.348   4.759
 8979SOL    HW227837   1.107   4.308   4.824
 8980SOL     OW27838   3.823   3.015   4.632
 8980SOL    HW127839   3.877   2.962   4.567
 8980SOL    HW227840   3.815   3.110   4.600
 8981SOL     OW27841   2.800   1.704   5.440
 8981SOL    HW127842   2.824   1.745   5.352
 8981SOL    HW227843   2.880   1.706   5.500
 8982SOL     OW27844   3.497   4.325   0.693
 8982SOL    HW127845   3.403   4.293   0.686
 8982SOL    HW227846   3.519   4.344   0.789
 8983SOL     OW27847   5.000   4.842   1.091
 8983SOL    HW127848   5.087   4.855   1.043
 8983SOL    HW227849   4.962   4.753   1.067
 8984SOL     OW27850   1.518   6.780   3.761
 8984SOL    HW127851   1.591   6.828   3.809
 8984SOL    HW227852   1.435   6.836   3.763
 8985SOL     OW27853   3.070   3.369   6.210
 8985SOL    HW127854   3.151   3.376   6.152
 8985SOL    HW227855   3.008   3.446   6.191
 8986SOL     OW27856   3.574   6.355   2.689
 8986SOL    HW127857   3.595   6.300   2.608
 8986SOL    HW227858   3.642   6.428   2.700
 8987SOL     OW27859   5.267   6.380   1.942
 8987SOL    HW127860   5.352   6.389   1.994
 8987SOL    HW227861   5.204   6.453   1.968
 8988SOL     OW27862   0.724   4.896   4.877
 8988SOL    HW127863   0.658   4.965   4.907
 8988SOL    HW227864   0.811   4.941   4.854
 8989SOL     OW27865   2.659   2.604   6.714
 8989SOL    HW127866   2.702   2.524   6.673
 8989SOL    HW227867   2.575   2.625   6.664
 8990SOL     OW27868   7.019   5.208   3.157
 8990SOL    HW127869   6.938   5.258   3.190
 8990SOL    HW227870   0.054   5.267   3.098
 8991SOL     OW27871   1.549   2.127   5.126
 8991SOL    HW127872   1.639   2.094   5.156
 8991SOL    HW227873   1.561   2.210   5.072
 8992SOL     OW27874   6.918   2.397   1.558
 8992SOL    HW127875   6.924   2.380   1.656
 8992SOL    HW227876   6.948   2.316   1.507
 8993SOL     OW27877   4.238   2.201   0.804
 8993SOL    HW127878   4.142   2.201   0.777
 8993SOL    HW227879   4.259   2.116   0.852
 8994SOL     OW27880   1.701   5.560   2.822
 8994SOL    HW127881   1.617   5.509   2.840
 8994SOL    HW227882   1.737   5.535   2.732
 8995SOL     OW27883   0.610   0.247   1.469
 8995SOL    HW127884   0.616   0.196   1.555
 8995SOL    HW227885   0.528   0.219   1.419
 8996SOL     OW27886   4.085   6.326   5.732
 8996SOL    HW127887   4.124   6.248   5.682
 8996SOL    HW227888   4.012   6.293   5.793
 8997SOL     OW27889   6.092   0.300   4.873
 8997SOL    HW127890   6.134   0.213   4.848
 8997SOL    HW227891   5.994   0.286   4.888
 8998SOL     OW27892   0.004   3.552   4.161
 8998SOL    HW127893   0.040   3.590   4.076
 8998SOL    HW227894   0.079   3.520   4.219
 8999SOL     OW27895   4.287   6.833   5.930
 8999SOL    HW127896   4.332   6.799   5.847
 8999SOL    HW227897   4.188   6.830   5.918
 9000SOL     OW27898   1.679   4.094   1.154
 9000SOL    HW127899   1.723   4.168   1.204
 9000SOL    HW227900   1.582   4.091   1.177
 9001SOL     OW27901   1.046   5.597   1.336
 9001SOL    HW127902   1.130   5.644   1.307
 9001SOL    HW227903   0.980   5.599   1.261
 9002SOL     OW27904   0.402   4.665   5.931
 9002SOL    HW127905   0.371   4.611   6.010
 9002SOL    HW227906   0.498   4.646   5.914
 9003SOL     OW27907   5.576   0.227   0.841
 9003SOL    HW127908   5.557   0.267   0.752
 9003SOL    HW227909   5.575   0.127   0.834
 9004SOL     OW27910   5.548   5.009   1.610
 9004SOL    HW127911   5.466   4.969   1.568
 9004SOL    HW227912   5.615   5.029   1.540
 9005SOL     OW27913   5.496   0.698   5.476
 9005SOL    HW127914   5.589   0.675   5.503
 9005SOL    HW227915   5.463   0.632   5.409
 9006SOL     OW27916   3.975   5.528   0.373
 9006SOL    HW127917   4.049   5.566   0.429
 9006SOL    HW227918   3.920   5.602   0.336
 9007SOL     OW27919   1.407   0.988   2.940
 9007SOL    HW127920   1.494   0.940   2.933
 9007SOL    HW227921   1.405   1.064   2.874
 9008SOL     OW27922   0.205   5.715   2.090
 9008SOL    HW127923   0.303   5.720   2.071
 9008SOL    HW227924   0.187   5.746   2.184
 9009SOL     OW27925   3.726   6.480   1.782
 9009SOL    HW127926   3.767   6.523   1.702
 9009SOL    HW227927   3.629   6.464   1.765
 9010SOL     OW27928   1.686   5.872   4.606
 9010SOL    HW127929   1.617   5.929   4.651
 9010SOL    HW227930   1.751   5.839   4.674
 9011SOL     OW27931   2.217   2.270   2.106
 9011SOL    HW127932   2.227   2.368   2.088
 9011SOL    HW227933   2.191   2.223   2.022
 9012SOL     OW27934   2.353   6.084   6.523
 9012SOL    HW127935   2.396   6.050   6.439
 9012SOL    HW227936   2.385   6.029   6.601
 9013SOL     OW27937   2.044   0.325   4.671
 9013SOL    HW127938   1.964   0.265   4.676
 9013SOL    HW227939   2.095   0.306   4.587
 9014SOL     OW27940   5.631   3.153   3.744
 9014SOL    HW127941   5.617   3.153   3.645
 9014SOL    HW227942   5.545   3.132   3.790
 9015SOL     OW27943   4.505   0.408   6.348
 9015SOL    HW127944   4.525   0.500   6.314
 9015SOL    HW227945   4.478   0.349   6.271
 9016SOL     OW27946   4.830   5.385   5.647
 9016SOL    HW127947   4.886   5.314   5.690
 9016SOL    HW227948   4.737   5.351   5.633
 9017SOL     OW27949   3.716   6.953   5.313
 9017SOL    HW127950   3.813   6.937   5.292
 9017SOL    HW227951   3.683   6.880   5.372
 9018SOL     OW27952   3.450   4.488   0.207
 9018SOL    HW127953   3.473   4.457   0.299
 9018SOL    HW227954   3.456   4.411   0.143
 9019SOL     OW27955   0.591   3.265   3.829
 9019SOL    HW127956   0.679   3.254   3.782
 9019SOL    HW227957   0.594   3.348   3.884
 9020SOL     OW27958   5.040   4.471   2.833
 9020SOL    HW127959   4.945   4.478   2.864
 9020SOL    HW227960   5.075   4.380   2.853
 9021SOL     OW27961   0.312   1.158   4.207
 9021SOL    HW127962   0.251   1.137   4.284
 9021SOL    HW227963   0.314   1.257   4.192
 9022SOL     OW27964   4.225   4.002   6.354
 9022SOL    HW127965   4.254   4.097   6.348
 9022SOL    HW227966   4.236   3.957   6.265
 9023SOL     OW27967   6.737   4.590   0.271
 9023SOL    HW127968   6.803   4.535   0.323
 9023SOL    HW227969   6.659   4.613   0.330
 9024SOL     OW27970   2.228   5.577   6.665
 9024SOL    HW127971   2.191   5.566   6.757
 9024SOL    HW227972   2.324   5.548   6.665
 9025SOL     OW27973   1.103   5.978   1.306
 9025SOL    HW127974   1.172   6.047   1.326
 9025SOL    HW227975   1.146   5.896   1.268
 9026SOL     OW27976   5.228   1.223   0.888
 9026SOL    HW127977   5.202   1.283   0.964
 9026SOL    HW227978   5.308   1.169   0.915
 9027SOL     OW27979   0.837   4.168   3.277
 9027SOL    HW127980   0.863   4.085   3.327
 9027SOL    HW227981   0.800   4.142   3.187
 9028SOL     OW27982   3.338   4.850   6.459
 9028SOL    HW127983   3.430   4.838   6.422
 9028SOL    HW227984   3.345   4.875   6.556
 9029SOL     OW27985   4.360   6.874   3.986
 9029SOL    HW127986   4.390   6.954   4.037
 9029SOL    HW227987   4.382   6.887   3.889
 9030SOL     OW27988   3.159   2.003   2.134
 9030SOL    HW127989   3.250   2.013   2.093
 9030SOL    HW227990   3.091   2.039   2.070
 9031SOL     OW27991   4.784   6.749   4.485
 9031SOL    HW127992   4.733   6.669   4.518
 9031SOL    HW227993   4.724   6.829   4.487
 9032SOL     OW27994   5.496   2.331   1.838
 9032SOL    HW127995   5.577   2.388   1.843
 9032SOL    HW227996   5.521   2.236   1.857
 9033SOL     OW27997   0.532   6.636   3.135
 9033SOL    HW127998   0.630   6.632   3.151
 9033SOL    HW227999   0.490   6.548   3.155
 9034SOL     OW28000   4.770   0.042   4.233
 9034SOL    HW128001   4.702   0.038   4.160
 9034SOL    HW228002   4.725   0.032   4.322
 9035SOL     OW28003   2.777   5.634   6.594
 9035SOL    HW128004   2.773   5.544   6.638
 9035SOL    HW228005   2.687   5.675   6.593
 9036SOL     OW28006   0.977   4.204   4.876
 9036SOL    HW128007   0.998   4.108   4.859
 9036SOL    HW228008   0.891   4.212   4.924
 9037SOL     OW28009   6.793   0.779   2.312
 9037SOL    HW128010   6.784   0.796   2.213
 9037SOL    HW228011   6.703   0.759   2.350
 9038SOL     OW28012   4.210   3.457   5.540
 9038SOL    HW128013   4.189   3.405   5.457
 9038SOL    HW228014   4.146   3.534   5.548
 9039SOL     OW28015   4.387   6.537   6.316
 9039SOL    HW128016   4.349   6.486   6.392
 9039SOL    HW228017   4.429   6.622   6.350
 9040SOL     OW28018   1.820   2.385   1.696
 9040SOL    HW128019   1.915   2.390   1.665
 9040SOL    HW228020   1.816   2.385   1.795
 9041SOL     OW28021   6.368   2.073   2.995
 9041SOL    HW128022   6.274   2.088   3.028
 9041SOL    HW228023   6.396   2.151   2.939
 9042SOL     OW28024   4.223   5.609   0.481
 9042SOL    HW128025   4.289   5.618   0.556
 9042SOL    HW228026   4.235   5.686   0.418
 9043SOL     OW28027   2.612   2.486   1.193
 9043SOL    HW128028   2.549   2.559   1.221
 9043SOL    HW228029   2.661   2.452   1.273
 9044SOL     OW28030   1.033   0.687   0.711
 9044SOL    HW128031   0.976   0.681   0.793
 9044SOL    HW228032   1.037   0.782   0.681
 9045SOL     OW28033   4.359   1.135   3.453
 9045SOL    HW128034   4.366   1.147   3.552
 9045SOL    HW228035   4.352   1.224   3.409
 9046SOL     OW28036   3.581   2.826   1.869
 9046SOL    HW128037   3.566   2.923   1.853
 9046SOL    HW228038   3.597   2.810   1.967
 9047SOL     OW28039   1.388   4.597   6.370
 9047SOL    HW128040   1.296   4.620   6.339
 9047SOL    HW228041   1.436   4.549   6.296
 9048SOL     OW28042   6.967   1.440   5.760
 9048SOL    HW128043   6.906   1.515   5.735
 9048SOL    HW228044   6.921   1.352   5.744
 9049SOL     OW28045   2.209   6.741   5.512
 9049SOL    HW128046   2.234   6.766   5.419
 9049SOL    HW228047   2.239   6.812   5.575
 9050SOL     OW28048   0.983   4.635   0.634
 9050SOL    HW128049   1.040   4.564   0.675
 9050SOL    HW228050   0.889   4.601   0.628
 9051SOL     OW28051   2.343   1.213   1.837
 9051SOL    HW128052   2.335   1.130   1.891
 9051SOL    HW228053   2.269   1.216   1.769
 9052SOL     OW28054   1.989   3.228   6.229
 9052SOL    HW128055   2.033   3.302   6.177
 9052SOL    HW228056   1.976   3.258   6.324
 9053SOL     OW28057   1.220   0.652   6.665
 9053SOL    HW128058   1.215   0.574   6.727
 9053SOL    HW228059   1.154   0.721   6.694
 9054SOL     OW28060   1.756   5.834   2.771
 9054SOL    HW128061   1.736   5.740   2.796
 9054SOL    HW228062   1.814   5.835   2.689
 9055SOL     OW28063   0.431   2.827   5.405
 9055SOL    HW128064   0.388   2.808   5.493
 9055SOL    HW228065   0.489   2.750   5.379
 9056SOL     OW28066   6.396   2.627   4.026
 9056SOL    HW128067   6.305   2.611   4.064
 9056SOL    HW228068   6.447   2.541   4.025
 9057SOL     OW28069   4.613   1.978   4.115
 9057SOL    HW128070   4.534   2.036   4.093
 9057SOL    HW228071   4.619   1.967   4.214
 9058SOL     OW28072   2.510   0.491   5.570
 9058SOL    HW128073   2.471   0.538   5.649
 9058SOL    HW228074   2.539   0.399   5.597
 9059SOL     OW28075   1.331   2.054   3.361
 9059SOL    HW128076   1.276   2.070   3.443
 9059SOL    HW228077   1.426   2.080   3.379
 9060SOL     OW28078   4.811   3.209   5.200
 9060SOL    HW128079   4.864   3.230   5.117
 9060SOL    HW228080   4.813   3.288   5.261
 9061SOL     OW28081   2.009   4.906   2.726
 9061SOL    HW128082   2.047   4.987   2.771
 9061SOL    HW228083   1.911   4.920   2.709
 9062SOL     OW28084   1.735   6.232   1.695
 9062SOL    HW128085   1.708   6.140   1.723
 9062SOL    HW228086   1.810   6.227   1.629
 9063SOL     OW28087   2.788   1.890   2.231
 9063SOL    HW128088   2.842   1.974   2.219
 9063SOL    HW228089   2.793   1.836   2.147
 9064SOL     OW28090   5.420   3.958   6.900
 9064SOL    HW128091   5.456   3.871   6.869
 9064SOL    HW228092   5.489   4.006   6.954
 9065SOL     OW28093   3.106   0.958   0.960
 9065SOL    HW128094   3.091   0.864   0.930
 9065SOL    HW228095   3.116   0.961   1.059
 9066SOL     OW28096   5.294   6.771   6.927
 9066SOL    HW128097   5.387   6.759   6.960
 9066SOL    HW228098   5.263   6.864   6.948
 9067SOL     OW28099   1.402   0.485   1.881
 9067SOL    HW128100   1.308   0.477   1.915
 9067SOL    HW228101   1.417   0.416   1.810
 9068SOL     OW28102   1.508   6.180   6.706
 9068SOL    HW128103   1.607   6.169   6.701
 9068SOL    HW228104   1.468   6.159   6.617
 9069SOL     OW28105   1.370   2.123   6.168
 9069SOL    HW128106   1.302   2.158   6.232
 9069SOL    HW228107   1.325   2.091   6.085
 9070SOL     OW28108   1.409   4.626   3.815
 9070SOL    HW128109   1.443   4.671   3.732
 9070SOL    HW228110   1.394   4.695   3.886
 9071SOL     OW28111   4.948   6.234   0.422
 9071SOL    HW128112   4.975   6.315   0.474
 9071SOL    HW228113   4.996   6.234   0.334
 9072SOL     OW28114   5.026   4.717   0.403
 9072SOL    HW128115   4.982   4.791   0.453
 9072SOL    HW228116   5.041   4.640   0.464
 9073SOL     OW28117   2.357   0.706   0.786
 9073SOL    HW128118   2.287   0.655   0.835
 9073SOL    HW228119   2.358   0.801   0.817
 9074SOL     OW28120   0.353   0.426   2.368
 9074SOL    HW128121   0.311   0.510   2.403
 9074SOL    HW228122   0.342   0.352   2.434
 9075SOL     OW28123   0.231   0.355   1.524
 9075SOL    HW128124   0.222   0.259   1.498
 9075SOL    HW228125   0.254   0.409   1.444
 9076SOL     OW28126   1.191   1.879   4.932
 9076SOL    HW128127   1.285   1.912   4.920
 9076SOL    HW228128   1.152   1.856   4.843
 9077SOL     OW28129   5.819   6.390   1.733
 9077SOL    HW128130   5.722   6.366   1.742
 9077SOL    HW228131   5.875   6.316   1.769
 9078SOL     OW28132   4.560   2.839   5.403
 9078SOL    HW128133   4.553   2.920   5.345
 9078SOL    HW228134   4.508   2.764   5.363
 9079SOL     OW28135   3.687   0.509   5.355
 9079SOL    HW128136   3.735   0.424   5.331
 9079SOL    HW228137   3.592   0.503   5.327
 9080SOL     OW28138   4.697   1.341   6.655
 9080SOL    HW128139   4.796   1.342   6.667
 9080SOL    HW228140   4.659   1.431   6.680
 9081SOL     OW28141   5.420   6.783   3.349
 9081SOL    HW128142   5.417   6.757   3.253
 9081SOL    HW228143   5.460   6.874   3.359
 9082SOL     OW28144   2.495   0.521   2.394
 9082SOL    HW128145   2.509   0.422   2.392
 9082SOL    HW228146   2.479   0.555   2.301
 9083SOL     OW28147   4.670   4.447   4.056
 9083SOL    HW128148   4.727   4.524   4.029
 9083SOL    HW228149   4.639   4.397   3.975
 9084SOL     OW28150   4.024   3.870   2.621
 9084SOL    HW128151   3.984   3.816   2.547
 9084SOL    HW228152   4.075   3.810   2.682
 9085SOL     OW28153   0.923   2.961   0.716
 9085SOL    HW128154   0.873   2.878   0.689
 9085SOL    HW228155   1.006   2.935   0.765
 9086SOL     OW28156   6.892   3.668   6.902
 9086SOL    HW128157   6.988   3.679   6.878
 9086SOL    HW228158   6.878   3.700   6.996
 9087SOL     OW28159   5.282   3.327   2.568
 9087SOL    HW128160   5.269   3.324   2.667
 9087SOL    HW228161   5.207   3.278   2.523
 9088SOL     OW28162   5.585   5.750   1.515
 9088SOL    HW128163   5.502   5.721   1.562
 9088SOL    HW228164   5.574   5.736   1.417
 9089SOL     OW28165   4.196   0.949   5.530
 9089SOL    HW128166   4.141   0.982   5.607
 9089SOL    HW228167   4.206   1.021   5.462
 9090SOL     OW28168   6.119   1.759   3.327
 9090SOL    HW128169   6.104   1.742   3.425
 9090SOL    HW228170   6.137   1.856   3.313
 9091SOL     OW28171   3.761   2.898   5.781
 9091SOL    HW128172   3.819   2.850   5.715
 9091SOL    HW228173   3.674   2.923   5.737
 9092SOL     OW28174   6.798   3.448   6.245
 9092SOL    HW128175   6.816   3.523   6.309
 9092SOL    HW228176   6.857   3.370   6.267
 9093SOL     OW28177   1.937   6.711   4.714
 9093SOL    HW128178   2.025   6.718   4.760
 9093SOL    HW228179   1.879   6.646   4.763
 9094SOL     OW28180   1.548   3.715   1.044
 9094SOL    HW128181   1.450   3.726   1.062
 9094SOL    HW228182   1.585   3.800   1.006
 9095SOL     OW28183   7.006   6.805   6.282
 9095SOL    HW128184   0.022   6.832   6.193
 9095SOL    HW228185   6.981   6.886   6.334
 9096SOL     OW28186   5.923   5.066   4.035
 9096SOL    HW128187   5.905   5.164   4.041
 9096SOL    HW228188   6.013   5.047   4.076
 9097SOL     OW28189   1.167   2.443   5.911
 9097SOL    HW128190   1.172   2.495   5.997
 9097SOL    HW228191   1.260   2.426   5.877
 9098SOL     OW28192   2.671   4.641   3.918
 9098SOL    HW128193   2.743   4.577   3.890
 9098SOL    HW228194   2.587   4.591   3.936
 9099SOL     OW28195   2.527   1.554   6.930
 9099SOL    HW128196   2.427   1.557   6.931
 9099SOL    HW228197   2.560   1.530   0.003
 9100SOL     OW28198   1.876   4.723   4.149
 9100SOL    HW128199   1.907   4.793   4.214
 9100SOL    HW228200   1.932   4.641   4.159
 9101SOL     OW28201   0.297   2.249   0.331
 9101SOL    HW128202   0.252   2.262   0.242
 9101SOL    HW228203   0.319   2.338   0.371
 9102SOL     OW28204   3.918   1.429   3.157
 9102SOL    HW128205   3.976   1.404   3.235
 9102SOL    HW228206   3.827   1.391   3.170
 9103SOL     OW28207   6.453   0.686   1.463
 9103SOL    HW128208   6.440   0.697   1.561
 9103SOL    HW228209   6.534   0.630   1.446
 9104SOL     OW28210   6.137   2.069   6.327
 9104SOL    HW128211   6.090   2.145   6.371
 9104SOL    HW228212   6.069   2.004   6.292
 9105SOL     OW28213   2.985   0.471   6.535
 9105SOL    HW128214   3.013   0.542   6.471
 9105SOL    HW228215   3.066   0.427   6.574
 9106SOL     OW28216   2.518   3.042   6.220
 9106SOL    HW128217   2.495   3.006   6.129
 9106SOL    HW228218   2.480   3.133   6.230
 9107SOL     OW28219   3.491   1.088   0.847
 9107SOL    HW128220   3.458   0.996   0.825
 9107SOL    HW228221   3.502   1.141   0.763
 9108SOL     OW28222   6.650   5.849   5.849
 9108SOL    HW128223   6.660   5.947   5.838
 9108SOL    HW228224   6.650   5.826   5.947
 9109SOL     OW28225   5.951   4.280   2.462
 9109SOL    HW128226   5.916   4.189   2.484
 9109SOL    HW228227   6.045   4.289   2.496
 9110SOL     OW28228   0.964   6.620   2.852
 9110SOL    HW128229   1.025   6.544   2.871
 9110SOL    HW228230   0.980   6.655   2.760
 9111SOL     OW28231   3.762   2.535   5.321
 9111SOL    HW128232   3.815   2.620   5.309
 9111SOL    HW228233   3.666   2.552   5.300
 9112SOL     OW28234   0.543   5.190   2.642
 9112SOL    HW128235   0.577   5.273   2.598
 9112SOL    HW228236   0.498   5.132   2.574
 9113SOL     OW28237   6.256   0.322   4.620
 9113SOL    HW128238   6.247   0.420   4.636
 9113SOL    HW228239   6.234   0.272   4.704
 9114SOL     OW28240   1.262   0.727   6.155
 9114SOL    HW128241   1.180   0.727   6.212
 9114SOL    HW228242   1.266   0.812   6.102
 9115SOL     OW28243   5.128   4.097   5.295
 9115SOL    HW128244   5.035   4.121   5.267
 9115SOL    HW228245   5.193   4.142   5.234
 9116SOL     OW28246   1.105   6.908   4.016
 9116SOL    HW128247   1.194   6.912   4.061
 9116SOL    HW228248   1.037   6.956   4.073
 9117SOL     OW28249   1.599   6.719   0.149
 9117SOL    HW128250   1.696   6.727   0.170
 9117SOL    HW228251   1.584   6.732   0.051
 9118SOL     OW28252   6.695   4.376   1.603
 9118SOL    HW128253   6.681   4.467   1.564
 9118SOL    HW228254   6.619   4.317   1.578
 9119SOL     OW28255   3.475   1.091   1.228
 9119SOL    HW128256   3.547   1.060   1.165
 9119SOL    HW228257   3.513   1.097   1.320
 9120SOL     OW28258   6.619   4.011   4.650
 9120SOL    HW128259   6.520   4.014   4.639
 9120SOL    HW228260   6.644   3.940   4.715
 9121SOL     OW28261   4.134   0.864   4.368
 9121SOL    HW128262   4.052   0.914   4.339
 9121SOL    HW228263   4.138   0.862   4.468
 9122SOL     OW28264   0.177   2.109   2.284
 9122SOL    HW128265   0.148   2.018   2.254
 9122SOL    HW228266   0.116   2.178   2.247
 9123SOL     OW28267   0.660   6.449   4.671
 9123SOL    HW128268   0.570   6.423   4.706
 9123SOL    HW228269   0.664   6.429   4.573
 9124SOL     OW28270   4.157   5.848   0.692
 9124SOL    HW128271   4.241   5.899   0.708
 9124SOL    HW228272   4.157   5.765   0.747
 9125SOL     OW28273   5.415   6.818   1.539
 9125SOL    HW128274   5.471   6.808   1.621
 9125SOL    HW228275   5.319   6.820   1.564
 9126SOL     OW28276   4.259   4.816   1.017
 9126SOL    HW128277   4.264   4.912   0.990
 9126SOL    HW228278   4.345   4.788   1.061
 9127SOL     OW28279   6.079   4.398   5.228
 9127SOL    HW128280   6.040   4.305   5.226
 9127SOL    HW228281   6.033   4.451   5.299
 9128SOL     OW28282   5.845   3.878   6.217
 9128SOL    HW128283   5.806   3.851   6.305
 9128SOL    HW228284   5.786   3.846   6.143
 9129SOL     OW28285   0.006   2.742   0.695
 9129SOL    HW128286   6.945   2.774   0.646
 9129SOL    HW228287   0.081   2.807   0.682
 9130SOL     OW28288   3.268   3.443   5.690
 9130SOL    HW128289   3.283   3.360   5.743
 9130SOL    HW228290   3.341   3.453   5.622
 9131SOL     OW28291   5.788   2.692   0.643
 9131SOL    HW128292   5.794   2.683   0.544
 9131SOL    HW228293   5.740   2.777   0.665
 9132SOL     OW28294   1.159   4.117   3.577
 9132SOL    HW128295   1.077   4.137   3.630
 9132SOL    HW228296   1.198   4.030   3.609
 9133SOL     OW28297   5.220   0.145   1.073
 9133SOL    HW128298   5.257   0.236   1.090
 9133SOL    HW228299   5.237   0.118   0.978
 9134SOL     OW28300   4.757   4.551   6.955
 9134SOL    HW128301   4.850   4.586   6.956
 9134SOL    HW228302   4.694   4.623   6.924
 9135SOL     OW28303   6.390   5.556   2.234
 9135SOL    HW128304   6.334   5.544   2.152
 9135SOL    HW228305   6.448   5.637   2.223
 9136SOL     OW28306   0.912   5.348   0.043
 9136SOL    HW128307   0.861   5.333   0.127
 9136SOL    HW228308   0.914   5.446   0.022
 9137SOL     OW28309   5.429   5.443   5.918
 9137SOL    HW128310   5.415   5.445   6.018
 9137SOL    HW228311   5.388   5.525   5.878
 9138SOL     OW28312   1.807   4.379   6.597
 9138SOL    HW128313   1.775   4.473   6.585
 9138SOL    HW228314   1.731   4.321   6.626
 9139SOL     OW28315   0.380   0.162   1.292
 9139SOL    HW128316   0.309   0.111   1.244
 9139SOL    HW228317   0.416   0.234   1.232
 9140SOL     OW28318   1.704   4.399   2.223
 9140SOL    HW128319   1.651   4.375   2.304
 9140SOL    HW228320   1.688   4.331   2.152
 9141SOL     OW28321   0.421   5.850   4.592
 9141SOL    HW128322   0.490   5.922   4.588
 9141SOL    HW228323   0.391   5.828   4.499
 9142SOL     OW28324   1.502   4.718   3.580
 9142SOL    HW128325   1.579   4.709   3.517
 9142SOL    HW228326   1.446   4.796   3.554
 9143SOL     OW28327   6.194   3.321   2.758
 9143SOL    HW128328   6.222   3.236   2.713
 9143SOL    HW228329   6.161   3.386   2.690
 9144SOL     OW28330   2.778   4.360   5.627
 9144SOL    HW128331   2.745   4.386   5.718
 9144SOL    HW228332   2.798   4.442   5.574
 9145SOL     OW28333   2.409   6.380   6.370
 9145SOL    HW128334   2.417   6.293   6.323
 9145SOL    HW228335   2.434   6.455   6.308
 9146SOL     OW28336   6.436   2.132   4.448
 9146SOL    HW128337   6.347   2.177   4.463
 9146SOL    HW228338   6.509   2.200   4.455
 9147SOL     OW28339   4.189   0.440   6.007
 9147SOL    HW128340   4.117   0.507   6.025
 9147SOL    HW228341   4.278   0.481   6.026
 9148SOL     OW28342   4.075   5.578   2.395
 9148SOL    HW128343   4.109   5.631   2.317
 9148SOL    HW228344   4.019   5.636   2.453
 9149SOL     OW28345   0.513   4.422   1.449
 9149SOL    HW128346   0.448   4.348   1.435
 9149SOL    HW228347   0.594   4.388   1.495
 9150SOL     OW28348   3.104   4.041   0.046
 9150SOL    HW128349   3.079   3.979   0.121
 9150SOL    HW228350   3.034   4.038   6.994
 9151SOL     OW28351   2.246   3.034   3.491
 9151SOL    HW128352   2.203   3.103   3.433
 9151SOL    HW228353   2.306   2.976   3.436
 9152SOL     OW28354   1.990   4.956   2.091
 9152SOL    HW128355   2.065   5.014   2.061
 9152SOL    HW228356   1.952   4.992   2.177
 9153SOL     OW28357   0.305   3.585   0.468
 9153SOL    HW128358   0.237   3.546   0.406
 9153SOL    HW228359   0.261   3.609   0.555
 9154SOL     OW28360   4.358   5.307   3.248
 9154SOL    HW128361   4.361   5.343   3.155
 9154SOL    HW228362   4.300   5.365   3.305
 9155SOL     OW28363   1.191   6.121   2.517
 9155SOL    HW128364   1.168   6.042   2.460
 9155SOL    HW228365   1.114   6.185   2.516
 9156SOL     OW28366   0.157   4.105   5.446
 9156SOL    HW128367   0.082   4.060   5.494
 9156SOL    HW228368   0.136   4.108   5.348
 9157SOL     OW28369   1.872   4.371   5.268
 9157SOL    HW128370   1.898   4.277   5.249
 9157SOL    HW228371   1.854   4.419   5.182
 9158SOL     OW28372   0.110   3.217   4.732
 9158SOL    HW128373   0.152   3.128   4.749
 9158SOL    HW228374   0.038   3.208   4.664
 9159SOL     OW28375   2.069   1.163   3.978
 9159SOL    HW128376   2.048   1.086   3.918
 9159SOL    HW228377   1.986   1.195   4.022
 9160SOL     OW28378   0.602   3.500   6.202
 9160SOL    HW128379   0.503   3.515   6.212
 9160SOL    HW228380   0.625   3.498   6.105
 9161SOL     OW28381   5.516   2.834   2.947
 9161SOL    HW128382   5.429   2.865   2.986
 9161SOL    HW228383   5.507   2.740   2.916
 9162SOL     OW28384   4.259   1.929   1.951
 9162SOL    HW128385   4.198   1.974   2.016
 9162SOL    HW228386   4.225   1.837   1.932
 9163SOL     OW28387   1.849   3.366   3.487
 9163SOL    HW128388   1.790   3.379   3.407
 9163SOL    HW228389   1.916   3.440   3.492
 9164SOL     OW28390   3.245   7.016   0.720
 9164SOL    HW128391   3.238   0.085   0.767
 9164SOL    HW228392   3.159   6.967   0.728
 9165SOL     OW28393   5.895   0.923   6.427
 9165SOL    HW128394   5.826   0.861   6.388
 9165SOL    HW228395   5.856   1.014   6.439
 9166SOL     OW28396   4.149   6.216   1.721
 9166SOL    HW128397   4.240   6.176   1.709
 9166SOL    HW228398   4.139   6.294   1.659
 9167SOL     OW28399   1.406   1.839   4.526
 9167SOL    HW128400   1.341   1.914   4.514
 9167SOL    HW228401   1.434   1.834   4.622
 9168SOL     OW28402   6.359   6.112   5.035
 9168SOL    HW128403   6.321   6.132   5.125
 9168SOL    HW228404   6.345   6.191   4.975
 9169SOL     OW28405   6.365   5.782   0.038
 9169SOL    HW128406   6.307   5.841   7.001
 9169SOL    HW228407   6.344   5.687   0.019
 9170SOL     OW28408   2.085   1.168   6.034
 9170SOL    HW128409   2.177   1.171   5.993
 9170SOL    HW228410   2.021   1.216   5.975
 9171SOL     OW28411   4.351   5.404   0.360
 9171SOL    HW128412   4.279   5.348   0.319
 9171SOL    HW228413   4.315   5.495   0.379
 9172SOL     OW28414   4.747   1.534   5.580
 9172SOL    HW128415   4.744   1.439   5.548
 9172SOL    HW228416   4.817   1.584   5.529
 9173SOL     OW28417   5.982   4.154   5.264
 9173SOL    HW128418   5.885   4.136   5.283
 9173SOL    HW228419   6.033   4.069   5.269
 9174SOL     OW28420   5.938   4.382   0.083
 9174SOL    HW128421   5.912   4.468   0.039
 9174SOL    HW228422   5.872   4.311   0.060
 9175SOL     OW28423   2.169   1.358   1.597
 9175SOL    HW128424   2.226   1.298   1.541
 9175SOL    HW228425   2.161   1.448   1.553
 9176SOL     OW28426   1.684   0.768   2.372
 9176SOL    HW128427   1.777   0.739   2.397
 9176SOL    HW228428   1.652   0.715   2.294
 9177SOL     OW28429   0.731   5.844   3.535
 9177SOL    HW128430   0.714   5.784   3.614
 9177SOL    HW228431   0.788   5.795   3.469
 9178SOL     OW28432   1.308   3.496   0.980
 9178SOL    HW128433   1.209   3.483   0.975
 9178SOL    HW228434   1.338   3.557   0.907
 9179SOL     OW28435   4.009   5.041   3.190
 9179SOL    HW128436   3.975   5.090   3.110
 9179SOL    HW228437   3.997   4.942   3.176
 9180SOL     OW28438   0.421   0.951   4.795
 9180SOL    HW128439   0.362   0.882   4.754
 9180SOL    HW228440   0.380   1.041   4.784
 9181SOL     OW28441   2.491   2.100   3.373
 9181SOL    HW128442   2.581   2.137   3.396
 9181SOL    HW228443   2.493   2.058   3.283
 9182SOL     OW28444   6.652   1.892   2.800
 9182SOL    HW128445   6.743   1.907   2.839
 9182SOL    HW228446   6.633   1.964   2.733
 9183SOL     OW28447   2.306   1.611   5.536
 9183SOL    HW128448   2.286   1.690   5.595
 9183SOL    HW228449   2.340   1.644   5.448
 9184SOL     OW28450   2.972   5.269   1.547
 9184SOL    HW128451   2.955   5.300   1.454
 9184SOL    HW228452   3.050   5.207   1.549
 9185SOL     OW28453   1.000   1.136   5.203
 9185SOL    HW128454   0.993   1.180   5.114
 9185SOL    HW228455   1.004   1.205   5.275
 9186SOL     OW28456   5.478   6.706   6.316
 9186SOL    HW128457   5.560   6.747   6.276
 9186SOL    HW228458   5.472   6.611   6.287
 9187SOL     OW28459   5.217   2.988   1.172
 9187SOL    HW128460   5.281   3.012   1.099
 9187SOL    HW228461   5.126   3.023   1.149
 9188SOL     OW28462   1.191   0.643   2.399
 9188SOL    HW128463   1.109   0.593   2.371
 9188SOL    HW228464   1.224   0.698   2.322
 9189SOL     OW28465   2.885   0.980   6.108
 9189SOL    HW128466   2.967   0.977   6.165
 9189SOL    HW228467   2.855   0.887   6.089
 9190SOL     OW28468   3.805   0.833   5.561
 9190SOL    HW128469   3.887   0.888   5.548
 9190SOL    HW228470   3.751   0.831   5.477
 9191SOL     OW28471   5.914   0.048   1.224
 9191SOL    HW128472   5.820   0.078   1.211
 9191SOL    HW228473   5.936   0.049   1.321
 9192SOL     OW28474   5.215   4.253   4.760
 9192SOL    HW128475   5.230   4.161   4.796
 9192SOL    HW228476   5.185   4.246   4.664
 9193SOL     OW28477   4.121   3.600   2.596
 9193SOL    HW128478   4.041   3.557   2.638
 9193SOL    HW228479   4.144   3.552   2.512
 9194SOL     OW28480   3.458   4.938   3.087
 9194SOL    HW128481   3.552   4.910   3.070
 9194SOL    HW228482   3.412   4.952   2.999
 9195SOL     OW28483   0.846   3.219   3.698
 9195SOL    HW128484   0.892   3.131   3.682
 9195SOL    HW228485   0.911   3.283   3.738
 9196SOL     OW28486   5.469   5.519   3.129
 9196SOL    HW128487   5.404   5.459   3.083
 9196SOL    HW228488   5.489   5.483   3.220
 9197SOL     OW28489   4.669   2.161   0.179
 9197SOL    HW128490   4.692   2.153   0.276
 9197SOL    HW228491   4.581   2.208   0.170
 9198SOL     OW28492   6.286   3.087   5.178
 9198SOL    HW128493   6.278   3.183   5.207
 9198SOL    HW228494   6.364   3.045   5.224
 9199SOL     OW28495   0.801   4.051   6.876
 9199SOL    HW128496   0.714   4.013   6.845
 9199SOL    HW228497   0.826   4.010   6.964
 9200SOL     OW28498   4.679   6.198   1.823
 9200SOL    HW128499   4.612   6.159   1.887
 9200SOL    HW228500   4.727   6.274   1.867
 9201SOL     OW28501   0.209   3.066   2.404
 9201SOL    HW128502   0.139   3.038   2.338
 9201SOL    HW228503   0.300   3.044   2.367
 9202SOL     OW28504   1.811   6.312   4.001
 9202SOL    HW128505   1.713   6.297   3.986
 9202SOL    HW228506   1.851   6.355   3.920
 9203SOL     OW28507   5.078   1.808   1.195
 9203SOL    HW128508   5.102   1.839   1.286
 9203SOL    HW228509   5.152   1.753   1.157
 9204SOL     OW28510   4.975   4.375   2.472
 9204SOL    HW128511   5.074   4.380   2.464
 9204SOL    HW228512   4.948   4.284   2.502
 9205SOL     OW28513   4.280   2.063   1.474
 9205SOL    HW128514   4.255   2.051   1.570
 9205SOL    HW228515   4.221   2.132   1.432
 9206SOL     OW28516   6.936   6.228   5.308
 9206SOL    HW128517   6.978   6.266   5.226
 9206SOL    HW228518   6.978   6.269   5.389
 9207SOL     OW28519   5.150   6.065   0.274
 9207SOL    HW128520   5.228   6.101   0.325
 9207SOL    HW228521   5.111   5.987   0.322
 9208SOL     OW28522   5.287   4.660   1.902
 9208SOL    HW128523   5.374   4.707   1.883
 9208SOL    HW228524   5.212   4.726   1.900
 9209SOL     OW28525   4.696   0.490   4.389
 9209SOL    HW128526   4.678   0.586   4.367
 9209SOL    HW228527   4.749   0.448   4.315
 9210SOL     OW28528   1.100   6.980   6.790
 9210SOL    HW128529   1.176   6.919   6.768
 9210SOL    HW228530   1.106   7.008   6.885
 9211SOL     OW28531   4.949   1.791   6.285
 9211SOL    HW128532   4.891   1.872   6.280
 9211SOL    HW228533   5.033   1.807   6.233
 9212SOL     OW28534   6.166   3.551   6.350
 9212SOL    HW128535   6.173   3.471   6.290
 9212SOL    HW228536   6.079   3.548   6.400
 9213SOL     OW28537   6.825   5.954   2.364
 9213SOL    HW128538   6.829   6.013   2.446
 9213SOL    HW228539   6.838   5.859   2.391
 9214SOL     OW28540   2.103   1.370   6.411
 9214SOL    HW128541   2.117   1.314   6.330
 9214SOL    HW228542   2.133   1.464   6.392
 9215SOL     OW28543   0.216   4.101   3.668
 9215SOL    HW128544   0.263   4.149   3.742
 9215SOL    HW228545   0.262   4.119   3.581
 9216SOL     OW28546   2.369   7.001   3.849
 9216SOL    HW128547   2.445   0.048   3.840
 9216SOL    HW228548   2.312   7.005   3.767
 9217SOL     OW28549   3.314   2.398   6.897
 9217SOL    HW128550   3.297   2.488   6.857
 9217SOL    HW228551   3.234   2.368   6.949
 9218SOL     OW28552   4.508   5.915   5.493
 9218SOL    HW128553   4.540   5.999   5.449
 9218SOL    HW228554   4.459   5.938   5.577
 9219SOL     OW28555   3.471   2.681   6.121
 9219SOL    HW128556   3.491   2.758   6.181
 9219SOL    HW228557   3.380   2.645   6.141
 9220SOL     OW28558   1.006   6.931   3.670
 9220SOL    HW128559   0.924   6.922   3.726
 9220SOL    HW228560   0.987   6.902   3.576
 9221SOL     OW28561   2.642   1.582   1.805
 9221SOL    HW128562   2.635   1.491   1.843
 9221SOL    HW228563   2.721   1.587   1.743
 9222SOL     OW28564   2.067   5.934   3.331
 9222SOL    HW128565   2.149   5.992   3.330
 9222SOL    HW228566   2.093   5.839   3.347
 9223SOL     OW28567   6.224   2.326   4.491
 9223SOL    HW128568   6.152   2.374   4.441
 9223SOL    HW228569   6.191   2.301   4.582
 9224SOL     OW28570   1.755   5.205   2.520
 9224SOL    HW128571   1.722   5.235   2.431
 9224SOL    HW228572   1.802   5.282   2.565
 9225SOL     OW28573   0.471   5.205   6.037
 9225SOL    HW128574   0.569   5.209   6.019
 9225SOL    HW228575   0.442   5.109   6.041
 9226SOL     OW28576   0.918   0.447   4.640
 9226SOL    HW128577   0.913   0.508   4.719
 9226SOL    HW228578   0.893   0.354   4.669
 9227SOL     OW28579   3.811   3.711   0.028
 9227SOL    HW128580   3.731   3.771   0.025
 9227SOL    HW228581   3.782   3.616   0.022
 9228SOL     OW28582   3.784   3.477   5.044
 9228SOL    HW128583   3.743   3.553   5.095
 9228SOL    HW228584   3.762   3.486   4.947
 9229SOL     OW28585   0.156   5.189   0.618
 9229SOL    HW128586   0.215   5.263   0.652
 9229SOL    HW228587   0.154   5.115   0.686
 9230SOL     OW28588   3.850   0.102   6.268
 9230SOL    HW128589   3.831   0.066   6.360
 9230SOL    HW228590   3.780   0.069   6.205
 9231SOL     OW28591   5.903   6.675   1.412
 9231SOL    HW128592   5.952   6.625   1.484
 9231SOL    HW228593   5.805   6.677   1.435
 9232SOL     OW28594   1.080   5.042   2.093
 9232SOL    HW128595   1.078   4.986   2.010
 9232SOL    HW228596   1.159   5.103   2.090
 9233SOL     OW28597   1.191   0.264   5.707
 9233SOL    HW128598   1.174   0.305   5.797
 9233SOL    HW228599   1.125   0.300   5.641
 9234SOL     OW28600   3.599   4.527   6.257
 9234SOL    HW128601   3.686   4.574   6.274
 9234SOL    HW228602   3.562   4.492   6.344
 9235SOL     OW28603   2.445   2.513   3.016
 9235SOL    HW128604   2.356   2.556   3.031
 9235SOL    HW228605   2.504   2.530   3.096
 9236SOL     OW28606   2.086   3.750   6.474
 9236SOL    HW128607   2.076   3.848   6.458
 9236SOL    HW228608   2.034   3.699   6.405
 9237SOL     OW28609   6.435   5.402   3.780
 9237SOL    HW128610   6.526   5.442   3.782
 9237SOL    HW228611   6.370   5.461   3.827
 9238SOL     OW28612   1.392   2.486   5.211
 9238SOL    HW128613   1.465   2.423   5.236
 9238SOL    HW228614   1.373   2.478   5.113
 9239SOL     OW28615   1.626   5.591   6.162
 9239SOL    HW128616   1.554   5.581   6.231
 9239SOL    HW228617   1.589   5.569   6.072
 9240SOL     OW28618   3.721   1.404   4.891
 9240SOL    HW128619   3.627   1.434   4.876
 9240SOL    HW228620   3.724   1.339   4.968
 9241SOL     OW28621   5.502   6.114   0.127
 9241SOL    HW128622   5.450   6.192   0.093
 9241SOL    HW228623   5.586   6.145   0.171
 9242SOL     OW28624   2.359   2.597   0.416
 9242SOL    HW128625   2.446   2.550   0.400
 9242SOL    HW228626   2.294   2.533   0.457
 9243SOL     OW28627   2.241   0.543   0.345
 9243SOL    HW128628   2.333   0.556   0.380
 9243SOL    HW228629   2.235   0.455   0.296
 9244SOL     OW28630   2.969   6.396   6.992
 9244SOL    HW128631   2.930   6.442   6.912
 9244SOL    HW228632   3.044   6.450   0.010
 9245SOL     OW28633   0.453   4.617   2.949
 9245SOL    HW128634   0.402   4.616   2.863
 9245SOL    HW228635   0.435   4.532   2.999
 9246SOL     OW28636   5.067   0.158   0.160
 9246SOL    HW128637   5.043   0.253   0.180
 9246SOL    HW228638   5.139   0.128   0.223
 9247SOL     OW28639   3.461   6.697   2.961
 9247SOL    HW128640   3.366   6.719   2.940
 9247SOL    HW228641   3.467   6.603   2.994
 9248SOL     OW28642   2.626   0.188   0.079
 9248SOL    HW128643   2.649   0.109   0.136
 9248SOL    HW228644   2.625   0.271   0.135
 9249SOL     OW28645   3.865   0.654   0.631
 9249SOL    HW128646   3.773   0.635   0.596
 9249SOL    HW228647   3.915   0.709   0.564
 9250SOL     OW28648   0.494   3.737   2.812
 9250SOL    HW128649   0.511   3.694   2.723
 9250SOL    HW228650   0.521   3.833   2.809
 9251SOL     OW28651   4.255   1.791   1.433
 9251SOL    HW128652   4.274   1.889   1.432
 9251SOL    HW228653   4.263   1.755   1.340
 9252SOL     OW28654   5.630   1.603   4.759
 9252SOL    HW128655   5.697   1.586   4.687
 9252SOL    HW228656   5.579   1.520   4.777
 9253SOL     OW28657   2.621   4.613   3.587
 9253SOL    HW128658   2.608   4.674   3.509
 9253SOL    HW228659   2.567   4.529   3.574
 9254SOL     OW28660   0.133   6.116   2.370
 9254SOL    HW128661   0.053   6.129   2.312
 9254SOL    HW228662   0.126   6.028   2.417
 9255SOL     OW28663   6.695   3.366   1.084
 9255SOL    HW128664   6.777   3.340   1.033
 9255SOL    HW228665   6.642   3.432   1.031
 9256SOL     OW28666   2.735   6.459   0.953
 9256SOL    HW128667   2.817   6.419   0.913
 9256SOL    HW228668   2.654   6.419   0.910
 9257SOL     OW28669   6.393   6.318   4.834
 9257SOL    HW128670   6.451   6.399   4.832
 9257SOL    HW228671   6.407   6.265   4.750
 9258SOL     OW28672   5.409   4.817   2.790
 9258SOL    HW128673   5.413   4.887   2.861
 9258SOL    HW228674   5.324   4.765   2.798
 9259SOL     OW28675   0.974   2.700   6.777
 9259SOL    HW128676   0.931   2.610   6.787
 9259SOL    HW228677   0.973   2.727   6.681
 9260SOL     OW28678   5.255   4.515   4.901
 9260SOL    HW128679   5.246   4.419   4.873
 9260SOL    HW228680   5.349   4.546   4.884
 9261SOL     OW28681   1.491   3.565   1.484
 9261SOL    HW128682   1.578   3.520   1.462
 9261SOL    HW228683   1.446   3.515   1.558
 9262SOL     OW28684   0.641   6.693   6.266
 9262SOL    HW128685   0.651   6.780   6.314
 9262SOL    HW228686   0.708   6.687   6.193
 9263SOL     OW28687   2.457   4.534   2.845
 9263SOL    HW128688   2.404   4.449   2.843
 9263SOL    HW228689   2.526   4.531   2.773
 9264SOL     OW28690   5.115   3.420   5.864
 9264SOL    HW128691   5.145   3.426   5.769
 9264SOL    HW228692   5.107   3.324   5.891
 9265SOL     OW28693   4.774   7.006   2.330
 9265SOL    HW128694   4.764   6.925   2.388
 9265SOL    HW228695   4.725   6.992   2.245
 9266SOL     OW28696   0.479   4.684   1.350
 9266SOL    HW128697   0.405   4.750   1.347
 9266SOL    HW228698   0.458   4.613   1.417
 9267SOL     OW28699   0.016   1.429   3.740
 9267SOL    HW128700   7.008   1.448   3.834
 9267SOL    HW228701   6.987   1.347   3.708
 9268SOL     OW28702   0.414   1.247   1.035
 9268SOL    HW128703   0.433   1.157   0.997
 9268SOL    HW228704   0.330   1.284   0.994
 9269SOL     OW28705   3.487   6.865   0.886
 9269SOL    HW128706   3.550   6.942   0.873
 9269SOL    HW228707   3.399   6.887   0.844
 9270SOL     OW28708   2.376   0.996   5.208
 9270SOL    HW128709   2.317   0.944   5.270
 9270SOL    HW228710   2.357   1.094   5.219
 9271SOL     OW28711   1.888   4.566   5.818
 9271SOL    HW128712   1.915   4.475   5.850
 9271SOL    HW228713   1.789   4.569   5.805
 9272SOL     OW28714   6.911   6.536   5.461
 9272SOL    HW128715   6.846   6.503   5.392
 9272SOL    HW228716   6.965   6.460   5.495
 9273SOL     OW28717   6.302   3.538   3.496
 9273SOL    HW128718   6.347   3.449   3.494
 9273SOL    HW228719   6.286   3.566   3.591
 9274SOL     OW28720   6.813   3.353   0.193
 9274SOL    HW128721   6.900   3.327   0.151
 9274SOL    HW228722   6.739   3.298   0.155
 9275SOL     OW28723   5.088   2.164   0.407
 9275SOL    HW128724   5.152   2.100   0.364
 9275SOL    HW228725   5.137   2.246   0.436
 9276SOL     OW28726   1.710   3.636   6.994
 9276SOL    HW128727   1.746   3.704   6.931
 9276SOL    HW228728   1.716   3.670   0.069
 9277SOL     OW28729   3.905   5.717   2.546
 9277SOL    HW128730   3.889   5.787   2.616
 9277SOL    HW228731   3.864   5.747   2.460
 9278SOL     OW28732   1.036   0.410   5.497
 9278SOL    HW128733   1.050   0.358   5.413
 9278SOL    HW228734   0.940   0.438   5.503
 9279SOL     OW28735   3.546   5.936   1.592
 9279SOL    HW128736   3.509   5.979   1.674
 9279SOL    HW228737   3.509   5.980   1.511
 9280SOL     OW28738   1.177   4.990   1.238
 9280SOL    HW128739   1.167   4.996   1.337
 9280SOL    HW228740   1.087   4.971   1.197
 9281SOL     OW28741   1.394   5.676   0.963
 9281SOL    HW128742   1.471   5.613   0.952
 9281SOL    HW228743   1.408   5.757   0.906
 9282SOL     OW28744   2.057   0.452   4.966
 9282SOL    HW128745   2.052   0.424   4.870
 9282SOL    HW228746   1.969   0.433   5.010
 9283SOL     OW28747   4.834   5.515   6.788
 9283SOL    HW128748   4.770   5.550   6.719
 9283SOL    HW228749   4.908   5.465   6.743
 9284SOL     OW28750   4.718   6.514   1.160
 9284SOL    HW128751   4.715   6.414   1.154
 9284SOL    HW228752   4.663   6.554   1.087
 9285SOL     OW28753   6.706   5.915   3.411
 9285SOL    HW128754   6.610   5.886   3.401
 9285SOL    HW228755   6.765   5.835   3.418
 9286SOL     OW28756   5.053   6.610   1.433
 9286SOL    HW128757   4.980   6.630   1.498
 9286SOL    HW228758   5.123   6.554   1.477
 9287SOL     OW28759   4.742   4.481   0.673
 9287SOL    HW128760   4.671   4.414   0.653
 9287SOL    HW228761   4.703   4.573   0.674
 9288SOL     OW28762   3.943   1.493   2.629
 9288SOL    HW128763   3.921   1.456   2.719
 9288SOL    HW228764   3.873   1.464   2.563
 9289SOL     OW28765   4.381   5.797   2.606
 9289SOL    HW128766   4.413   5.769   2.515
 9289SOL    HW228767   4.343   5.718   2.654
 9290SOL     OW28768   5.130   1.638   3.803
 9290SOL    HW128769   5.153   1.593   3.890
 9290SOL    HW228770   5.178   1.593   3.728
 9291SOL     OW28771   0.786   4.176   5.475
 9291SOL    HW128772   0.836   4.259   5.453
 9291SOL    HW228773   0.802   4.150   5.570
 9292SOL     OW28774   1.380   2.067   6.648
 9292SOL    HW128775   1.350   2.007   6.722
 9292SOL    HW228776   1.419   2.151   6.686
 9293SOL     OW28777   4.945   1.171   5.237
 9293SOL    HW128778   4.957   1.270   5.232
 9293SOL    HW228779   4.864   1.150   5.292
 9294SOL     OW28780   5.282   6.135   6.022
 9294SOL    HW128781   5.216   6.061   6.040
 9294SOL    HW228782   5.291   6.191   6.104
 9295SOL     OW28783   6.615   0.738   3.070
 9295SOL    HW128784   6.542   0.687   3.115
 9295SOL    HW228785   6.577   0.817   3.023
 9296SOL     OW28786   1.555   3.951   5.347
 9296SOL    HW128787   1.515   3.916   5.263
 9296SOL    HW228788   1.571   4.049   5.339
 9297SOL     OW28789   6.892   5.573   2.126
 9297SOL    HW128790   6.964   5.507   2.102
 9297SOL    HW228791   6.812   5.556   2.068
 9298SOL     OW28792   0.234   4.448   6.017
 9298SOL    HW128793   0.193   4.442   5.926
 9298SOL    HW228794   0.245   4.356   6.055
 9299SOL     OW28795   2.962   1.985   3.814
 9299SOL    HW128796   2.862   1.988   3.809
 9299SOL    HW228797   2.990   1.907   3.869
 9300SOL     OW28798   2.221   5.404   5.781
 9300SOL    HW128799   2.170   5.349   5.847
 9300SOL    HW228800   2.319   5.393   5.796
 9301SOL     OW28801   0.552   3.698   4.255
 9301SOL    HW128802   0.533   3.795   4.270
 9301SOL    HW228803   0.622   3.667   4.319
 9302SOL     OW28804   3.137   5.313   3.797
 9302SOL    HW128805   3.043   5.340   3.815
 9302SOL    HW228806   3.179   5.376   3.731
 9303SOL     OW28807   2.399   4.663   0.218
 9303SOL    HW128808   2.319   4.684   0.161
 9303SOL    HW228809   2.451   4.589   0.176
 9304SOL     OW28810   5.847   5.787   6.071
 9304SOL    HW128811   5.822   5.884   6.079
 9304SOL    HW228812   5.918   5.777   6.001
 9305SOL     OW28813   1.723   1.711   0.966
 9305SOL    HW128814   1.715   1.798   0.918
 9305SOL    HW228815   1.793   1.654   0.922
 9306SOL     OW28816   6.883   6.114   4.432
 9306SOL    HW128817   6.880   6.089   4.335
 9306SOL    HW228818   6.929   6.202   4.443
 9307SOL     OW28819   2.170   4.095   1.001
 9307SOL    HW128820   2.255   4.099   1.054
 9307SOL    HW228821   2.097   4.143   1.051
 9308SOL     OW28822   2.442   3.726   1.324
 9308SOL    HW128823   2.353   3.770   1.333
 9308SOL    HW228824   2.438   3.658   1.250
 9309SOL     OW28825   4.195   5.219   5.688
 9309SOL    HW128826   4.098   5.201   5.668
 9309SOL    HW228827   4.252   5.167   5.625
 9310SOL     OW28828   6.954   6.289   6.088
 9310SOL    HW128829   6.861   6.323   6.101
 9310SOL    HW228830   7.007   6.355   6.035
 9311SOL     OW28831   5.960   4.423   0.490
 9311SOL    HW128832   5.895   4.351   0.467
 9311SOL    HW228833   5.960   4.492   0.418
 9312SOL     OW28834   5.960   3.314   3.991
 9312SOL    HW128835   5.907   3.241   4.035
 9312SOL    HW228836   5.906   3.398   3.988
 9313SOL     OW28837   0.390   0.523   2.113
 9313SOL    HW128838   0.387   0.494   2.209
 9313SOL    HW228839   0.456   0.597   2.104
 9314SOL     OW28840   5.042   4.910   1.373
 9314SOL    HW128841   4.973   4.983   1.377
 9314SOL    HW228842   5.033   4.862   1.286
 9315SOL     OW28843   6.184   5.427   5.706
 9315SOL    HW128844   6.217   5.334   5.721
 9315SOL    HW228845   6.240   5.471   5.636
 9316SOL     OW28846   5.546   6.372   0.704
 9316SOL    HW128847   5.472   6.320   0.661
 9316SOL    HW228848   5.583   6.437   0.638
 9317SOL     OW28849   2.439   6.204   3.019
 9317SOL    HW128850   2.532   6.237   2.999
 9317SOL    HW228851   2.373   6.277   3.001
 9318SOL     OW28852   3.350   6.894   3.615
 9318SOL    HW128853   3.345   6.830   3.691
 9318SOL    HW228854   3.321   6.848   3.531
 9319SOL     OW28855   3.690   2.034   0.338
 9319SOL    HW128856   3.721   2.124   0.307
 9319SOL    HW228857   3.699   1.968   0.263
 9320SOL     OW28858   6.677   6.471   0.251
 9320SOL    HW128859   6.749   6.521   0.299
 9320SOL    HW228860   6.636   6.531   0.182
 9321SOL     OW28861   0.859   2.596   3.769
 9321SOL    HW128862   0.864   2.516   3.829
 9321SOL    HW228863   0.929   2.662   3.795
 9322SOL     OW28864   5.145   3.083   6.996
 9322SOL    HW128865   5.199   3.001   7.016
 9322SOL    HW228866   5.049   3.066   7.018
 9323SOL     OW28867   0.719   2.064   5.176
 9323SOL    HW128868   0.642   2.001   5.168
 9323SOL    HW228869   0.797   2.027   5.125
 9324SOL     OW28870   0.541   4.487   0.668
 9324SOL    HW128871   0.562   4.584   0.663
 9324SOL    HW228872   0.474   4.470   0.739
 9325SOL     OW28873   1.170   4.702   3.075
 9325SOL    HW128874   1.225   4.782   3.051
 9325SOL    HW228875   1.089   4.698   3.016
 9326SOL     OW28876   4.568   4.973   1.719
 9326SOL    HW128877   4.511   4.891   1.723
 9326SOL    HW228878   4.661   4.949   1.690
 9327SOL     OW28879   2.327   1.388   3.305
 9327SOL    HW128880   2.410   1.386   3.249
 9327SOL    HW228881   2.247   1.395   3.246
 9328SOL     OW28882   1.222   6.696   3.225
 9328SOL    HW128883   1.265   6.653   3.146
 9328SOL    HW228884   1.270   6.781   3.247
 9329SOL     OW28885   2.077   4.833   6.344
 9329SOL    HW128886   2.030   4.761   6.294
 9329SOL    HW228887   2.140   4.792   6.410
 9330SOL     OW28888   0.361   6.633   0.796
 9330SOL    HW128889   0.352   6.614   0.893
 9330SOL    HW228890   0.271   6.657   0.758
 9331SOL     OW28891   2.067   4.899   4.688
 9331SOL    HW128892   2.159   4.896   4.648
 9331SOL    HW228893   2.026   4.988   4.671
 9332SOL     OW28894   6.219   5.037   0.252
 9332SOL    HW128895   6.203   5.136   0.256
 9332SOL    HW228896   6.191   4.995   0.339
 9333SOL     OW28897   1.651   4.894   0.720
 9333SOL    HW128898   1.645   4.962   0.793
 9333SOL    HW228899   1.636   4.940   0.632
 9334SOL     OW28900   7.006   5.156   0.019
 9334SOL    HW128901   7.019   5.113   0.108
 9334SOL    HW228902   0.075   5.161   6.990
 9335SOL     OW28903   0.203   3.441   0.882
 9335SOL    HW128904   0.160   3.362   0.839
 9335SOL    HW228905   0.189   3.437   0.981
 9336SOL     OW28906   4.046   5.914   5.262
 9336SOL    HW128907   4.081   5.940   5.172
 9336SOL    HW228908   4.075   5.821   5.283
 9337SOL     OW28909   3.322   1.431   4.559
 9337SOL    HW128910   3.322   1.521   4.601
 9337SOL    HW228911   3.251   1.427   4.488
 9338SOL     OW28912   5.017   6.351   0.786
 9338SOL    HW128913   5.016   6.443   0.824
 9338SOL    HW228914   4.923   6.315   0.783
 9339SOL     OW28915   6.888   3.590   5.032
 9339SOL    HW128916   6.855   3.640   5.111
 9339SOL    HW228917   6.929   3.654   4.967
 9340SOL     OW28918   2.453   4.673   2.175
 9340SOL    HW128919   2.533   4.648   2.121
 9340SOL    HW228920   2.384   4.601   2.167
 9341SOL     OW28921   5.892   5.499   0.331
 9341SOL    HW128922   5.821   5.429   0.335
 9341SOL    HW228923   5.950   5.482   0.251
 9342SOL     OW28924   2.799   0.335   5.137
 9342SOL    HW128925   2.893   0.325   5.167
 9342SOL    HW228926   2.747   0.253   5.160
 9343SOL     OW28927   5.330   3.586   1.484
 9343SOL    HW128928   5.412   3.615   1.533
 9343SOL    HW228929   5.255   3.575   1.549
 9344SOL     OW28930   5.843   0.179   4.911
 9344SOL    HW128931   5.767   0.179   4.847
 9344SOL    HW228932   5.814   0.218   4.998
 9345SOL     OW28933   0.019   4.434   6.341
 9345SOL    HW128934   0.105   4.467   6.380
 9345SOL    HW228935   0.019   4.449   6.242
 9346SOL     OW28936   5.002   0.421   2.080
 9346SOL    HW128937   5.059   0.476   2.141
 9346SOL    HW228938   4.912   0.409   2.121
 9347SOL     OW28939   4.669   6.805   1.965
 9347SOL    HW128940   4.579   6.787   2.006
 9347SOL    HW228941   4.657   6.861   1.883
 9348SOL     OW28942   2.393   5.214   1.958
 9348SOL    HW128943   2.490   5.239   1.968
 9348SOL    HW228944   2.374   5.133   2.014
 9349SOL     OW28945   6.597   5.833   0.895
 9349SOL    HW128946   6.686   5.873   0.875
 9349SOL    HW228947   6.563   5.784   0.815
 9350SOL     OW28948   6.436   0.151   0.009
 9350SOL    HW128949   6.360   0.160   0.074
 9350SOL    HW228950   6.400   0.154   6.935
 9351SOL     OW28951   4.924   3.829   6.368
 9351SOL    HW128952   4.908   3.908   6.308
 9351SOL    HW228953   4.839   3.807   6.417
 9352SOL     OW28954   1.939   2.248   0.318
 9352SOL    HW128955   1.878   2.306   0.264
 9352SOL    HW228956   2.026   2.238   0.271
 9353SOL     OW28957   1.171   3.186   2.074
 9353SOL    HW128958   1.210   3.180   1.982
 9353SOL    HW228959   1.210   3.115   2.132
 9354SOL     OW28960   5.451   2.319   2.398
 9354SOL    HW128961   5.390   2.396   2.417
 9354SOL    HW228962   5.478   2.320   2.302
 9355SOL     OW28963   0.151   1.524   2.332
 9355SOL    HW128964   0.083   1.567   2.272
 9355SOL    HW228965   0.203   1.456   2.280
 9356SOL     OW28966   4.733   2.685   2.488
 9356SOL    HW128967   4.812   2.679   2.426
 9356SOL    HW228968   4.766   2.691   2.582
 9357SOL     OW28969   2.478   5.110   0.114
 9357SOL    HW128970   2.514   5.038   0.174
 9357SOL    HW228971   2.378   5.110   0.119
 9358SOL     OW28972   5.210   3.441   2.173
 9358SOL    HW128973   5.232   3.345   2.188
 9358SOL    HW228974   5.121   3.462   2.214
 9359SOL     OW28975   4.786   5.564   5.922
 9359SOL    HW128976   4.880   5.540   5.898
 9359SOL    HW228977   4.785   5.611   6.010
 9360SOL     OW28978   1.479   1.282   4.939
 9360SOL    HW128979   1.511   1.274   5.034
 9360SOL    HW228980   1.427   1.200   4.915
 9361SOL     OW28981   2.131   1.251   2.512
 9361SOL    HW128982   2.137   1.281   2.417
 9361SOL    HW228983   2.113   1.330   2.571
 9362SOL     OW28984   2.021   1.557   2.933
 9362SOL    HW128985   2.099   1.522   2.881
 9362SOL    HW228986   2.013   1.656   2.919
 9363SOL     OW28987   1.051   6.406   1.814
 9363SOL    HW128988   0.968   6.384   1.867
 9363SOL    HW228989   1.063   6.505   1.812
 9364SOL     OW28990   5.387   4.212   1.100
 9364SOL    HW128991   5.308   4.268   1.074
 9364SOL    HW228992   5.444   4.196   1.019
 9365SOL     OW28993   1.834   1.207   3.530
 9365SOL    HW128994   1.802   1.281   3.471
 9365SOL    HW228995   1.932   1.217   3.547
 9366SOL     OW28996   3.061   1.764   2.019
 9366SOL    HW128997   3.116   1.840   2.054
 9366SOL    HW228998   2.972   1.798   1.988
 9367SOL     OW28999   5.707   6.628   3.767
 9367SOL    HW129000   5.690   6.727   3.772
 9367SOL    HW229001   5.650   6.588   3.695
 9368SOL     OW29002   5.354   3.023   0.931
 9368SOL    HW129003   5.439   2.992   0.889
 9368SOL    HW229004   5.300   3.075   0.865
 9369SOL     OW29005   0.224   1.523   5.054
 9369SOL    HW129006   0.265   1.567   5.134
 9369SOL    HW229007   0.288   1.526   4.977
 9370SOL     OW29008   5.721   5.618   3.048
 9370SOL    HW129009   5.759   5.530   3.019
 9370SOL    HW229010   5.626   5.605   3.075
 9371SOL     OW29011   1.296   6.868   0.412
 9371SOL    HW129012   1.292   6.921   0.496
 9371SOL    HW229013   1.206   6.866   0.369
 9372SOL     OW29014   5.461   5.583   6.972
 9372SOL    HW129015   5.468   5.679   7.000
 9372SOL    HW229016   5.394   5.537   0.010
 9373SOL     OW29017   5.457   2.648   4.243
 9373SOL    HW129018   5.381   2.689   4.192
 9373SOL    HW229019   5.495   2.715   4.306
 9374SOL     OW29020   5.250   4.184   6.907
 9374SOL    HW129021   5.204   4.160   6.822
 9374SOL    HW229022   5.325   4.120   6.925
 9375SOL     OW29023   6.488   0.838   4.583
 9375SOL    HW129024   6.450   0.925   4.612
 9375SOL    HW229025   6.469   0.768   4.652
 9376SOL     OW29026   2.201   3.297   1.734
 9376SOL    HW129027   2.274   3.248   1.686
 9376SOL    HW229028   2.242   3.361   1.799
 9377SOL     OW29029   6.234   5.159   3.223
 9377SOL    HW129030   6.159   5.224   3.235
 9377SOL    HW229031   6.202   5.079   3.173
 9378SOL     OW29032   3.613   6.289   0.942
 9378SOL    HW129033   3.675   6.221   0.981
 9378SOL    HW229034   3.586   6.259   0.850
 9379SOL     OW29035   5.373   5.239   5.284
 9379SOL    HW129036   5.444   5.307   5.302
 9379SOL    HW229037   5.365   5.225   5.185
 9380SOL     OW29038   6.075   5.843   5.905
 9380SOL    HW129039   6.044   5.937   5.894
 9380SOL    HW229040   6.018   5.782   5.850
 9381SOL     OW29041   1.490   0.721   0.039
 9381SOL    HW129042   1.486   0.808   0.088
 9381SOL    HW229043   1.553   0.728   6.981
 9382SOL     OW29044   5.570   1.705   2.915
 9382SOL    HW129045   5.558   1.746   2.825
 9382SOL    HW229046   5.561   1.606   2.908
 9383SOL     OW29047   6.621   5.214   5.958
 9383SOL    HW129048   6.527   5.247   5.959
 9383SOL    HW229049   6.677   5.276   5.902
 9384SOL     OW29050   4.022   6.603   3.324
 9384SOL    HW129051   4.060   6.694   3.342
 9384SOL    HW229052   4.034   6.545   3.404
 9385SOL     OW29053   3.692   0.810   4.255
 9385SOL    HW129054   3.732   0.826   4.164
 9385SOL    HW229055   3.691   0.896   4.306
 9386SOL     OW29056   4.037   0.275   5.419
 9386SOL    HW129057   4.064   0.231   5.334
 9386SOL    HW229058   4.031   0.207   5.492
 9387SOL     OW29059   4.448   5.656   0.635
 9387SOL    HW129060   4.517   5.695   0.574
 9387SOL    HW229061   4.466   5.686   0.729
 9388SOL     OW29062   6.779   0.134   2.154
 9388SOL    HW129063   6.709   0.202   2.130
 9388SOL    HW229064   6.742   0.042   2.142
 9389SOL     OW29065   3.118   1.546   6.873
 9389SOL    HW129066   3.088   1.539   6.778
 9389SOL    HW229067   3.206   1.501   6.884
 9390SOL     OW29068   3.131   5.527   1.092
 9390SOL    HW129069   3.217   5.492   1.130
 9390SOL    HW229070   3.113   5.483   1.004
 9391SOL     OW29071   6.503   1.425   4.592
 9391SOL    HW129072   6.557   1.390   4.516
 9391SOL    HW229073   6.408   1.394   4.582
 9392SOL     OW29074   0.876   6.868   4.499
 9392SOL    HW129075   0.920   6.818   4.574
 9392SOL    HW229076   0.880   6.812   4.415
 9393SOL     OW29077   4.108   1.927   4.952
 9393SOL    HW129078   4.034   1.865   4.928
 9393SOL    HW229079   4.082   1.981   5.032
 9394SOL     OW29080   6.292   2.081   2.042
 9394SOL    HW129081   6.366   2.111   2.102
 9394SOL    HW229082   6.204   2.094   2.088
 9395SOL     OW29083   2.151   3.018   6.270
 9395SOL    HW129084   2.088   3.094   6.251
 9395SOL    HW229085   2.245   3.051   6.260
 9396SOL     OW29086   6.956   1.111   6.063
 9396SOL    HW129087   6.865   1.109   6.021
 9396SOL    HW229088   0.005   1.135   5.993
 9397SOL     OW29089   2.016   2.317   0.869
 9397SOL    HW129090   1.995   2.415   0.868
 9397SOL    HW229091   2.097   2.301   0.925
 9398SOL     OW29092   2.683   1.473   1.126
 9398SOL    HW129093   2.692   1.393   1.067
 9398SOL    HW229094   2.626   1.542   1.081
 9399SOL     OW29095   0.576   0.338   5.797
 9399SOL    HW129096   0.610   0.256   5.844
 9399SOL    HW229097   0.481   0.355   5.824
 9400SOL     OW29098   4.072   1.852   3.122
 9400SOL    HW129099   4.037   1.759   3.110
 9400SOL    HW229100   4.000   1.911   3.158
 9401SOL     OW29101   4.789   6.844   3.976
 9401SOL    HW129102   4.794   6.932   3.929
 9401SOL    HW229103   4.858   6.841   4.048
 9402SOL     OW29104   2.547   5.434   6.826
 9402SOL    HW129105   2.534   5.335   6.828
 9402SOL    HW229106   2.616   5.457   6.757
 9403SOL     OW29107   5.813   0.239   4.251
 9403SOL    HW129108   5.761   0.168   4.203
 9403SOL    HW229109   5.849   0.305   4.184
 9404SOL     OW29110   1.450   3.819   5.817
 9404SOL    HW129111   1.461   3.821   5.718
 9404SOL    HW229112   1.438   3.912   5.851
 9405SOL     OW29113   0.949   0.434   1.232
 9405SOL    HW129114   0.940   0.472   1.324
 9405SOL    HW229115   0.999   0.498   1.174
 9406SOL     OW29116   6.501   1.116   5.180
 9406SOL    HW129117   6.517   1.040   5.242
 9406SOL    HW229118   6.459   1.083   5.096
 9407SOL     OW29119   3.815   5.569   3.158
 9407SOL    HW129120   3.909   5.576   3.125
 9407SOL    HW229121   3.813   5.515   3.243
 9408SOL     OW29122   4.006   2.023   6.874
 9408SOL    HW129123   3.999   2.108   6.925
 9408SOL    HW229124   3.923   1.968   6.888
 9409SOL     OW29125   6.049   3.501   3.325
 9409SOL    HW129126   6.013   3.409   3.342
 9409SOL    HW229127   6.014   3.564   3.394
 9410SOL     OW29128   4.447   6.713   1.544
 9410SOL    HW129129   4.408   6.740   1.632
 9410SOL    HW229130   4.482   6.794   1.496
 9411SOL     OW29131   4.782   5.572   1.783
 9411SOL    HW129132   4.743   5.541   1.869
 9411SOL    HW229133   4.814   5.666   1.792
 9412SOL     OW29134   6.335   2.966   3.425
 9412SOL    HW129135   6.320   2.957   3.524
 9412SOL    HW229136   6.256   2.928   3.376
 9413SOL     OW29137   3.646   5.009   3.694
 9413SOL    HW129138   3.591   5.092   3.680
 9413SOL    HW229139   3.617   4.964   3.778
 9414SOL     OW29140   2.212   0.365   2.232
 9414SOL    HW129141   2.190   0.279   2.278
 9414SOL    HW229142   2.133   0.396   2.179
 9415SOL     OW29143   2.139   1.446   2.217
 9415SOL    HW129144   2.136   1.545   2.207
 9415SOL    HW229145   2.233   1.414   2.207
 9416SOL     OW29146   1.437   2.717   1.573
 9416SOL    HW129147   1.480   2.633   1.605
 9416SOL    HW229148   1.506   2.788   1.560
 9417SOL     OW29149   1.712   0.152   4.923
 9417SOL    HW129150   1.655   0.071   4.907
 9417SOL    HW229151   1.761   0.175   4.839
 9418SOL     OW29152   4.868   4.025   1.080
 9418SOL    HW129153   4.824   3.965   1.014
 9418SOL    HW229154   4.819   4.021   1.167
 9419SOL     OW29155   2.805   5.129   4.347
 9419SOL    HW129156   2.706   5.144   4.340
 9419SOL    HW229157   2.848   5.158   4.261
 9420SOL     OW29158   1.653   0.805   3.770
 9420SOL    HW129159   1.643   0.889   3.823
 9420SOL    HW229160   1.584   0.802   3.698
 9421SOL     OW29161   1.996   5.136   4.554
 9421SOL    HW129162   1.908   5.182   4.543
 9421SOL    HW229163   2.065   5.201   4.584
 9422SOL     OW29164   4.073   1.146   2.625
 9422SOL    HW129165   4.055   1.050   2.646
 9422SOL    HW229166   4.111   1.192   2.706
 9423SOL     OW29167   4.818   0.472   4.696
 9423SOL    HW129168   4.857   0.441   4.783
 9423SOL    HW229169   4.821   0.397   4.630
 9424SOL     OW29170   3.393   6.028   3.991
 9424SOL    HW129171   3.337   6.111   3.997
 9424SOL    HW229172   3.439   6.013   4.079
 9425SOL     OW29173   1.083   5.062   3.390
 9425SOL    HW129174   1.176   5.095   3.405
 9425SOL    HW229175   1.018   5.125   3.433
 9426SOL     OW29176   3.293   5.582   0.809
 9426SOL    HW129177   3.207   5.539   0.783
 9426SOL    HW229178   3.369   5.535   0.764
 9427SOL     OW29179   2.997   5.036   3.960
 9427SOL    HW129180   2.980   4.957   4.019
 9427SOL    HW229181   2.964   5.119   4.005
 9428SOL     OW29182   4.736   6.358   2.519
 9428SOL    HW129183   4.665   6.429   2.516
 9428SOL    HW229184   4.825   6.401   2.533
 9429SOL     OW29185   0.552   3.438   3.074
 9429SOL    HW129186   0.497   3.365   3.033
 9429SOL    HW229187   0.636   3.398   3.112
 9430SOL     OW29188   5.807   0.240   1.893
 9430SOL    HW129189   5.814   0.313   1.961
 9430SOL    HW229190   5.890   0.183   1.897
 9431SOL     OW29191   6.328   4.165   6.827
 9431SOL    HW129192   6.379   4.123   6.902
 9431SOL    HW229193   6.268   4.237   6.864
 9432SOL     OW29194   6.777   7.000   3.994
 9432SOL    HW129195   6.747   6.987   3.900
 9432SOL    HW229196   6.874   6.975   4.002
 9433SOL     OW29197   2.622   5.601   4.254
 9433SOL    HW129198   2.622   5.643   4.344
 9433SOL    HW229199   2.611   5.672   4.184
 9434SOL     OW29200   5.644   4.209   3.024
 9434SOL    HW129201   5.581   4.235   3.098
 9434SOL    HW229202   5.668   4.290   2.971
 9435SOL     OW29203   2.038   2.220   4.977
 9435SOL    HW129204   2.100   2.229   5.055
 9435SOL    HW229205   1.962   2.159   5.001
 9436SOL     OW29206   3.107   1.750   5.363
 9436SOL    HW129207   3.127   1.826   5.425
 9436SOL    HW229208   3.038   1.780   5.296
 9437SOL     OW29209   0.260   5.495   4.208
 9437SOL    HW129210   0.283   5.399   4.190
 9437SOL    HW229211   0.345   5.546   4.224
 9438SOL     OW29212   0.682   6.470   2.355
 9438SOL    HW129213   0.754   6.530   2.321
 9438SOL    HW229214   0.713   6.424   2.439
 9439SOL     OW29215   1.255   3.811   1.161
 9439SOL    HW129216   1.243   3.720   1.201
 9439SOL    HW229217   1.171   3.838   1.114
 9440SOL     OW29218   3.840   5.667   4.956
 9440SOL    HW129219   3.925   5.667   5.009
 9440SOL    HW229220   3.861   5.653   4.859
 9441SOL     OW29221   1.629   5.784   5.084
 9441SOL    HW129222   1.558   5.842   5.123
 9441SOL    HW229223   1.718   5.810   5.120
 9442SOL     OW29224   0.767   3.768   1.175
 9442SOL    HW129225   0.822   3.730   1.101
 9442SOL    HW229226   0.703   3.834   1.138
 9443SOL     OW29227   1.291   3.258   1.416
 9443SOL    HW129228   1.324   3.296   1.503
 9443SOL    HW229229   1.347   3.294   1.342
 9444SOL     OW29230   1.593   4.506   5.817
 9444SOL    HW129231   1.605   4.406   5.820
 9444SOL    HW229232   1.519   4.532   5.879
 9445SOL     OW29233   6.311   3.201   1.569
 9445SOL    HW129234   6.351   3.167   1.654
 9445SOL    HW229235   6.285   3.124   1.511
 9446SOL     OW29236   5.591   4.351   0.137
 9446SOL    HW129237   5.647   4.349   0.219
 9446SOL    HW229238   5.583   4.259   0.100
 9447SOL     OW29239   5.751   1.793   2.098
 9447SOL    HW129240   5.665   1.758   2.135
 9447SOL    HW229241   5.755   1.892   2.109
 9448SOL     OW29242   6.018   5.933   0.419
 9448SOL    HW129243   6.023   6.017   0.473
 9448SOL    HW229244   6.015   5.854   0.481
 9449SOL     OW29245   6.205   5.332   5.339
 9449SOL    HW129246   6.296   5.368   5.322
 9449SOL    HW229247   6.211   5.250   5.396
 9450SOL     OW29248   2.710   6.102   3.991
 9450SOL    HW129249   2.712   6.005   3.967
 9450SOL    HW229250   2.781   6.121   4.059
 9451SOL     OW29251   4.446   3.592   5.568
 9451SOL    HW129252   4.421   3.687   5.585
 9451SOL    HW229253   4.363   3.537   5.558
 9452SOL     OW29254   3.159   3.843   1.089
 9452SOL    HW129255   3.180   3.882   0.999
 9452SOL    HW229256   3.176   3.912   1.159
 9453SOL     OW29257   2.990   5.287   1.244
 9453SOL    HW129258   2.892   5.268   1.256
 9453SOL    HW229259   3.038   5.202   1.225
 9454SOL     OW29260   2.369   1.942   5.271
 9454SOL    HW129261   2.308   1.874   5.230
 9454SOL    HW229262   2.417   1.902   5.349
 9455SOL     OW29263   2.147   1.954   2.660
 9455SOL    HW129264   2.093   1.886   2.612
 9455SOL    HW229265   2.179   2.023   2.595
 9456SOL     OW29266   0.915   3.114   1.106
 9456SOL    HW129267   0.915   3.126   1.006
 9456SOL    HW229268   0.992   3.163   1.145
 9457SOL     OW29269   6.389   3.359   6.993
 9457SOL    HW129270   6.362   3.292   6.925
 9457SOL    HW229271   6.450   3.427   6.951
 9458SOL     OW29272   0.928   6.256   4.496
 9458SOL    HW129273   0.901   6.282   4.589
 9458SOL    HW229274   0.902   6.161   4.479
 9459SOL     OW29275   4.233   5.857   1.826
 9459SOL    HW129276   4.203   5.763   1.841
 9459SOL    HW229277   4.280   5.863   1.738
 9460SOL     OW29278   1.285   3.193   5.770
 9460SOL    HW129279   1.240   3.279   5.795
 9460SOL    HW229280   1.318   3.200   5.676
 9461SOL     OW29281   1.590   0.446   2.690
 9461SOL    HW129282   1.596   0.414   2.784
 9461SOL    HW229283   1.680   0.476   2.659
 9462SOL     OW29284   0.465   2.749   3.007
 9462SOL    HW129285   0.397   2.783   2.942
 9462SOL    HW229286   0.551   2.797   2.994
 9463SOL     OW29287   6.073   1.811   6.755
 9463SOL    HW129288   5.990   1.865   6.742
 9463SOL    HW229289   6.054   1.734   6.817
 9464SOL     OW29290   4.333   6.701   5.689
 9464SOL    HW129291   4.249   6.669   5.645
 9464SOL    HW229292   4.410   6.643   5.662
 9465SOL     OW29293   5.228   6.197   4.158
 9465SOL    HW129294   5.255   6.135   4.231
 9465SOL    HW229295   5.172   6.270   4.196
 9466SOL     OW29296   3.215   1.552   0.111
 9466SOL    HW129297   3.266   1.467   0.124
 9466SOL    HW229298   3.176   1.553   0.019
 9467SOL     OW29299   1.767   3.255   2.326
 9467SOL    HW129300   1.668   3.242   2.323
 9467SOL    HW229301   1.789   3.352   2.312
 9468SOL     OW29302   0.677   2.648   6.224
 9468SOL    HW129303   0.638   2.631   6.314
 9468SOL    HW229304   0.633   2.727   6.182
 9469SOL     OW29305   0.012   4.550   2.674
 9469SOL    HW129306   6.979   4.569   2.758
 9469SOL    HW229307   6.978   4.489   2.615
 9470SOL     OW29308   6.277   3.417   1.386
 9470SOL    HW129309   6.373   3.429   1.362
 9470SOL    HW229310   6.269   3.354   1.463
 9471SOL     OW29311   0.446   2.698   6.066
 9471SOL    HW129312   0.402   2.763   6.004
 9471SOL    HW229313   0.376   2.646   6.115
 9472SOL     OW29314   6.621   2.244   4.748
 9472SOL    HW129315   6.691   2.315   4.734
 9472SOL    HW229316   6.554   2.250   4.674
 9473SOL     OW29317   3.075   5.613   5.273
 9473SOL    HW129318   3.070   5.624   5.173
 9473SOL    HW229319   3.164   5.644   5.305
 9474SOL     OW29320   3.005   5.176   3.473
 9474SOL    HW129321   2.947   5.229   3.534
 9474SOL    HW229322   3.079   5.134   3.525
 9475SOL     OW29323   1.787   3.145   1.638
 9475SOL    HW129324   1.863   3.172   1.579
 9475SOL    HW229325   1.820   3.134   1.732
 9476SOL     OW29326   3.040   3.671   5.517
 9476SOL    HW129327   3.120   3.728   5.497
 9476SOL    HW229328   3.068   3.575   5.520
 9477SOL     OW29329   0.498   2.162   1.091
 9477SOL    HW129330   0.447   2.212   1.021
 9477SOL    HW229331   0.560   2.225   1.138
 9478SOL     OW29332   5.473   4.080   5.495
 9478SOL    HW129333   5.442   4.039   5.409
 9478SOL    HW229334   5.452   4.019   5.571
 9479SOL     OW29335   5.739   5.667   4.939
 9479SOL    HW129336   5.791   5.701   4.861
 9479SOL    HW229337   5.708   5.574   4.921
 9480SOL     OW29338   6.030   3.924   6.488
 9480SOL    HW129339   6.000   3.918   6.393
 9480SOL    HW229340   5.953   3.952   6.545
 9481SOL     OW29341   6.454   3.341   2.880
 9481SOL    HW129342   6.416   3.292   2.801
 9481SOL    HW229343   6.494   3.427   2.849
 9482SOL     OW29344   4.437   0.237   2.401
 9482SOL    HW129345   4.384   0.319   2.422
 9482SOL    HW229346   4.523   0.239   2.452
 9483SOL     OW29347   1.859   1.650   0.637
 9483SOL    HW129348   1.890   1.636   0.731
 9483SOL    HW229349   1.889   1.740   0.606
 9484SOL     OW29350   5.890   0.919   2.991
 9484SOL    HW129351   5.897   0.857   3.069
 9484SOL    HW229352   5.831   0.879   2.921
 9485SOL     OW29353   1.060   0.187   2.552
 9485SOL    HW129354   1.108   0.273   2.532
 9485SOL    HW229355   1.099   0.145   2.634
 9486SOL     OW29356   2.787   6.222   2.325
 9486SOL    HW129357   2.691   6.249   2.329
 9486SOL    HW229358   2.798   6.149   2.258
 9487SOL     OW29359   2.911   3.726   4.185
 9487SOL    HW129360   2.819   3.761   4.166
 9487SOL    HW229361   2.978   3.779   4.132
 9488SOL     OW29362   1.162   1.485   1.337
 9488SOL    HW129363   1.248   1.535   1.335
 9488SOL    HW229364   1.116   1.496   1.249
 9489SOL     OW29365   2.715   4.121   0.704
 9489SOL    HW129366   2.702   4.219   0.696
 9489SOL    HW229367   2.800   4.094   0.659
 9490SOL     OW29368   4.875   1.412   0.011
 9490SOL    HW129369   4.877   1.512   0.018
 9490SOL    HW229370   4.824   1.374   0.087
 9491SOL     OW29371   6.541   5.278   5.624
 9491SOL    HW129372   6.620   5.293   5.684
 9491SOL    HW229373   6.518   5.364   5.577
 9492SOL     OW29374   2.543   4.422   1.329
 9492SOL    HW129375   2.622   4.436   1.270
 9492SOL    HW229376   2.571   4.430   1.425
 9493SOL     OW29377   5.452   6.353   2.587
 9493SOL    HW129378   5.443   6.442   2.541
 9493SOL    HW229379   5.440   6.279   2.521
 9494SOL     OW29380   3.204   3.053   6.179
 9494SOL    HW129381   3.244   3.090   6.094
 9494SOL    HW229382   3.149   3.124   6.222
 9495SOL     OW29383   5.580   2.231   4.346
 9495SOL    HW129384   5.518   2.240   4.424
 9495SOL    HW229385   5.527   2.228   4.262
 9496SOL     OW29386   6.196   3.899   0.279
 9496SOL    HW129387   6.162   3.990   0.300
 9496SOL    HW229388   6.133   3.853   0.216
 9497SOL     OW29389   0.710   5.862   6.180
 9497SOL    HW129390   0.640   5.791   6.166
 9497SOL    HW229391   0.720   5.915   6.097
 9498SOL     OW29392   3.785   0.017   6.944
 9498SOL    HW129393   3.866   0.005   6.887
 9498SOL    HW229394   3.809   7.017   0.020
 9499SOL     OW29395   4.128   4.181   6.105
 9499SOL    HW129396   4.104   4.101   6.050
 9499SOL    HW229397   4.108   4.264   6.052
 9500SOL     OW29398   5.187   5.892   1.706
 9500SOL    HW129399   5.238   5.806   1.698
 9500SOL    HW229400   5.161   5.906   1.802
 9501SOL     OW29401   3.314   1.884   4.820
 9501SOL    HW129402   3.243   1.856   4.885
 9501SOL    HW229403   3.287   1.970   4.776
 9502SOL     OW29404   3.884   2.957   6.048
 9502SOL    HW129405   3.904   3.055   6.043
 9502SOL    HW229406   3.799   2.938   5.999
 9503SOL     OW29407   1.344   6.805   1.695
 9503SOL    HW129408   1.399   6.721   1.692
 9503SOL    HW229409   1.383   6.867   1.764
 9504SOL     OW29410   0.857   3.072   0.248
 9504SOL    HW129411   0.890   2.980   0.226
 9504SOL    HW229412   0.810   3.110   0.168
 9505SOL     OW29413   4.832   3.065   3.304
 9505SOL    HW129414   4.930   3.050   3.311
 9505SOL    HW229415   4.805   3.140   3.364
 9506SOL     OW29416   0.205   1.985   1.021
 9506SOL    HW129417   0.197   2.000   0.922
 9506SOL    HW229418   0.264   1.907   1.039
 9507SOL     OW29419   1.394   2.184   4.694
 9507SOL    HW129420   1.454   2.190   4.615
 9507SOL    HW229421   1.415   2.100   4.746
 9508SOL     OW29422   4.596   1.633   6.248
 9508SOL    HW129423   4.632   1.598   6.161
 9508SOL    HW229424   4.603   1.563   6.318
 9509SOL     OW29425   3.442   6.983   6.028
 9509SOL    HW129426   3.371   7.014   6.091
 9509SOL    HW229427   3.416   7.007   5.934
 9510SOL     OW29428   6.526   4.487   2.842
 9510SOL    HW129429   6.565   4.396   2.859
 9510SOL    HW229430   6.457   4.480   2.770
 9511SOL     OW29431   2.301   1.183   1.440
 9511SOL    HW129432   2.247   1.100   1.426
 9511SOL    HW229433   2.394   1.159   1.469
 9512SOL     OW29434   1.322   3.309   4.755
 9512SOL    HW129435   1.368   3.336   4.839
 9512SOL    HW229436   1.254   3.238   4.776
 9513SOL     OW29437   2.226   4.139   4.368
 9513SOL    HW129438   2.226   4.111   4.273
 9513SOL    HW229439   2.233   4.059   4.427
 9514SOL     OW29440   2.918   3.090   5.944
 9514SOL    HW129441   2.987   3.023   5.918
 9514SOL    HW229442   2.857   3.050   6.013
 9515SOL     OW29443   2.355   4.887   5.675
 9515SOL    HW129444   2.453   4.906   5.682
 9515SOL    HW229445   2.319   4.863   5.765
 9516SOL     OW29446   5.496   4.338   5.541
 9516SOL    HW129447   5.486   4.238   5.537
 9516SOL    HW229448   5.407   4.380   5.555
 9517SOL     OW29449   1.000   5.171   2.323
 9517SOL    HW129450   1.041   5.129   2.242
 9517SOL    HW229451   1.072   5.205   2.384
 9518SOL     OW29452   0.745   2.975   5.438
 9518SOL    HW129453   0.671   2.983   5.371
 9518SOL    HW229454   0.756   2.879   5.464
 9519SOL     OW29455   3.714   2.882   3.047
 9519SOL    HW129456   3.691   2.845   3.137
 9519SOL    HW229457   3.765   2.968   3.059
 9520SOL     OW29458   5.149   0.791   6.534
 9520SOL    HW129459   5.114   0.884   6.546
 9520SOL    HW229460   5.131   0.738   6.617
 9521SOL     OW29461   3.774   1.373   1.355
 9521SOL    HW129462   3.704   1.369   1.284
 9521SOL    HW229463   3.779   1.466   1.391
 9522SOL     OW29464   3.685   6.416   1.504
 9522SOL    HW129465   3.740   6.333   1.507
 9522SOL    HW229466   3.717   6.475   1.430
 9523SOL     OW29467   2.777   4.836   4.476
 9523SOL    HW129468   2.779   4.928   4.515
 9523SOL    HW229469   2.781   4.841   4.376
 9524SOL     OW29470   2.161   4.325   0.293
 9524SOL    HW129471   2.133   4.281   0.379
 9524SOL    HW229472   2.243   4.280   0.259
 9525SOL     OW29473   2.341   3.244   6.365
 9525SOL    HW129474   2.346   3.286   6.455
 9525SOL    HW229475   2.272   3.291   6.310
 9526SOL     OW29476   5.350   5.408   6.776
 9526SOL    HW129477   5.401   5.389   6.692
 9526SOL    HW229478   5.409   5.459   6.840
 9527SOL     OW29479   4.018   6.811   4.864
 9527SOL    HW129480   4.106   6.783   4.901
 9527SOL    HW229481   3.981   6.738   4.807
 9528SOL     OW29482   4.893   2.598   0.537
 9528SOL    HW129483   4.990   2.573   0.531
 9528SOL    HW229484   4.846   2.570   0.453
 9529SOL     OW29485   5.458   1.067   1.896
 9529SOL    HW129486   5.447   1.138   1.827
 9529SOL    HW229487   5.390   1.081   1.969
 9530SOL     OW29488   1.058   5.383   3.781
 9530SOL    HW129489   1.145   5.334   3.768
 9530SOL    HW229490   1.003   5.376   3.698
 9531SOL     OW29491   3.336   5.311   2.204
 9531SOL    HW129492   3.236   5.317   2.213
 9531SOL    HW229493   3.377   5.398   2.231
 9532SOL     OW29494   6.483   4.896   3.772
 9532SOL    HW129495   6.444   4.811   3.736
 9532SOL    HW229496   6.458   4.972   3.713
 9533SOL     OW29497   1.589   4.047   2.907
 9533SOL    HW129498   1.580   4.144   2.886
 9533SOL    HW229499   1.525   4.022   2.979
 9534SOL     OW29500   4.823   5.518   4.325
 9534SOL    HW129501   4.912   5.539   4.284
 9534SOL    HW229502   4.775   5.603   4.347
 9535SOL     OW29503   0.154   1.388   4.636
 9535SOL    HW129504   0.065   1.428   4.615
 9535SOL    HW229505   0.159   1.296   4.599
 9536SOL     OW29506   3.076   4.066   5.124
 9536SOL    HW129507   3.022   4.122   5.187
 9536SOL    HW229508   3.019   4.039   5.046
 9537SOL     OW29509   6.601   1.012   3.991
 9537SOL    HW129510   6.637   1.027   3.899
 9537SOL    HW229511   6.557   0.923   3.995
 9538SOL     OW29512   5.619   0.262   4.750
 9538SOL    HW129513   5.647   0.277   4.655
 9538SOL    HW229514   5.528   0.221   4.752
 9539SOL     OW29515   3.438   4.165   3.040
 9539SOL    HW129516   3.482   4.121   3.118
 9539SOL    HW229517   3.506   4.181   2.968
 9540SOL     OW29518   4.339   4.650   3.572
 9540SOL    HW129519   4.432   4.628   3.601
 9540SOL    HW229520   4.305   4.726   3.627
 9541SOL     OW29521   1.714   5.867   5.389
 9541SOL    HW129522   1.629   5.857   5.336
 9541SOL    HW229523   1.780   5.799   5.359
 9542SOL     OW29524   6.343   4.374   3.065
 9542SOL    HW129525   6.436   4.397   3.037
 9542SOL    HW229526   6.299   4.455   3.104
 9543SOL     OW29527   2.062   0.726   5.809
 9543SOL    HW129528   2.066   0.819   5.774
 9543SOL    HW229529   2.155   0.693   5.827
 9544SOL     OW29530   6.124   3.797   4.702
 9544SOL    HW129531   6.176   3.729   4.651
 9544SOL    HW229532   6.101   3.874   4.643
 9545SOL     OW29533   6.716   4.547   1.973
 9545SOL    HW129534   6.722   4.624   1.910
 9545SOL    HW229535   6.690   4.464   1.924
 9546SOL     OW29536   2.753   2.812   1.412
 9546SOL    HW129537   2.840   2.771   1.439
 9546SOL    HW229538   2.767   2.872   1.333
 9547SOL     OW29539   4.542   0.355   3.519
 9547SOL    HW129540   4.514   0.261   3.500
 9547SOL    HW229541   4.486   0.393   3.592
 9548SOL     OW29542   0.858   4.936   6.550
 9548SOL    HW129543   0.820   4.947   6.641
 9548SOL    HW229544   0.789   4.957   6.481
 9549SOL     OW29545   3.990   1.783   1.595
 9549SOL    HW129546   4.089   1.794   1.591
 9549SOL    HW229547   3.952   1.789   1.502
 9550SOL     OW29548   6.293   3.142   1.901
 9550SOL    HW129549   6.330   3.082   1.830
 9550SOL    HW229550   6.363   3.207   1.929
 9551SOL     OW29551   5.913   2.691   6.429
 9551SOL    HW129552   5.887   2.779   6.471
 9551SOL    HW229553   5.840   2.624   6.445
 9552SOL     OW29554   2.636   2.065   0.688
 9552SOL    HW129555   2.555   2.050   0.746
 9552SOL    HW229556   2.697   2.129   0.733
 9553SOL     OW29557   5.521   1.398   6.807
 9553SOL    HW129558   5.424   1.378   6.798
 9553SOL    HW229559   5.572   1.350   6.735
 9554SOL     OW29560   2.972   0.873   3.575
 9554SOL    HW129561   2.977   0.900   3.671
 9554SOL    HW229562   2.986   0.953   3.517
 9555SOL     OW29563   0.195   6.628   3.411
 9555SOL    HW129564   0.242   6.645   3.498
 9555SOL    HW229565   0.146   6.711   3.384
 9556SOL     OW29566   2.421   4.716   6.832
 9556SOL    HW129567   2.438   4.783   6.760
 9556SOL    HW229568   2.358   4.755   6.900
 9557SOL     OW29569   5.638   0.736   1.040
 9557SOL    HW129570   5.612   0.770   1.131
 9557SOL    HW229571   5.693   0.653   1.050
 9558SOL     OW29572   4.923   6.388   6.229
 9558SOL    HW129573   5.009   6.439   6.231
 9558SOL    HW229574   4.921   6.330   6.147
 9559SOL     OW29575   1.948   4.513   6.921
 9559SOL    HW129576   1.988   4.421   6.922
 9559SOL    HW229577   1.853   4.508   6.890
 9560SOL     OW29578   2.622   0.247   2.470
 9560SOL    HW129579   2.692   0.271   2.537
 9560SOL    HW229580   2.646   0.160   2.426
 9561SOL     OW29581   0.828   0.552   0.454
 9561SOL    HW129582   0.927   0.552   0.439
 9561SOL    HW229583   0.805   0.615   0.528
 9562SOL     OW29584   2.196   6.217   2.637
 9562SOL    HW129585   2.296   6.215   2.637
 9562SOL    HW229586   2.162   6.148   2.701
 9563SOL     OW29587   0.951   5.807   6.332
 9563SOL    HW129588   0.876   5.869   6.309
 9563SOL    HW229589   0.984   5.762   6.249
 9564SOL     OW29590   1.923   1.259   0.821
 9564SOL    HW129591   1.930   1.254   0.722
 9564SOL    HW229592   1.850   1.198   0.853
 9565SOL     OW29593   2.752   1.522   4.463
 9565SOL    HW129594   2.813   1.586   4.511
 9565SOL    HW229595   2.792   1.430   4.465
 9566SOL     OW29596   2.908   0.443   0.319
 9566SOL    HW129597   2.838   0.463   0.250
 9566SOL    HW229598   2.913   0.344   0.334
 9567SOL     OW29599   6.974   4.254   0.892
 9567SOL    HW129600   6.988   4.176   0.953
 9567SOL    HW229601   6.997   4.338   0.941
 9568SOL     OW29602   4.434   1.795   6.672
 9568SOL    HW129603   4.361   1.846   6.718
 9568SOL    HW229604   4.522   1.818   6.715
 9569SOL     OW29605   5.601   0.233   2.081
 9569SOL    HW129606   5.649   0.313   2.117
 9569SOL    HW229607   5.666   0.177   2.030
 9570SOL     OW29608   0.396   3.726   1.695
 9570SOL    HW129609   0.417   3.662   1.621
 9570SOL    HW229610   0.320   3.691   1.749
 9571SOL     OW29611   1.889   1.331   6.910
 9571SOL    HW129612   1.970   1.326   6.851
 9571SOL    HW229613   1.813   1.284   6.865
 9572SOL     OW29614   2.370   4.485   4.569
 9572SOL    HW129615   2.433   4.536   4.627
 9572SOL    HW229616   2.354   4.395   4.608
 9573SOL     OW29617   6.492   0.167   4.184
 9573SOL    HW129618   6.422   0.145   4.116
 9573SOL    HW229619   6.454   0.226   4.255
 9574SOL     OW29620   4.131   3.196   0.857
 9574SOL    HW129621   4.071   3.182   0.936
 9574SOL    HW229622   4.149   3.109   0.812
 9575SOL     OW29623   5.290   6.943   2.030
 9575SOL    HW129624   5.206   6.916   2.077
 9575SOL    HW229625   5.287   0.022   2.010
 9576SOL     OW29626   0.764   0.473   6.756
 9576SOL    HW129627   0.783   0.444   6.662
 9576SOL    HW229628   0.841   0.527   6.790
 9577SOL     OW29629   6.170   5.317   2.739
 9577SOL    HW129630   6.121   5.402   2.754
 9577SOL    HW229631   6.219   5.321   2.652
 9578SOL     OW29632   1.811   3.540   2.224
 9578SOL    HW129633   1.861   3.547   2.311
 9578SOL    HW229634   1.841   3.613   2.163
 9579SOL     OW29635   5.895   5.879   2.337
 9579SOL    HW129636   5.819   5.931   2.377
 9579SOL    HW229637   5.861   5.792   2.302
 9580SOL     OW29638   4.817   4.251   3.254
 9580SOL    HW129639   4.867   4.174   3.294
 9580SOL    HW229640   4.870   4.335   3.268
 9581SOL     OW29641   5.796   1.757   0.113
 9581SOL    HW129642   5.706   1.729   0.080
 9581SOL    HW229643   5.829   1.690   0.179
 9582SOL     OW29644   5.477   6.381   4.841
 9582SOL    HW129645   5.572   6.404   4.862
 9582SOL    HW229646   5.475   6.318   4.764
 9583SOL     OW29647   3.686   5.011   1.850
 9583SOL    HW129648   3.680   4.924   1.900
 9583SOL    HW229649   3.620   5.010   1.774
 9584SOL     OW29650   2.715   5.329   3.922
 9584SOL    HW129651   2.690   5.356   4.015
 9584SOL    HW229652   2.638   5.282   3.879
 9585SOL     OW29653   4.702   6.131   1.007
 9585SOL    HW129654   4.608   6.139   1.040
 9585SOL    HW229655   4.746   6.052   1.050
 9586SOL     OW29656   3.654   5.424   2.830
 9586SOL    HW129657   3.737   5.417   2.885
 9586SOL    HW229658   3.677   5.450   2.737
 9587SOL     OW29659   3.461   6.142   0.742
 9587SOL    HW129660   3.398   6.168   0.816
 9587SOL    HW229661   3.456   6.043   0.728
 9588SOL     OW29662   6.538   5.679   0.341
 9588SOL    HW129663   6.582   5.737   0.272
 9588SOL    HW229664   6.598   5.601   0.360
 9589SOL     OW29665   2.051   2.924   6.587
 9589SOL    HW129666   1.955   2.941   6.608
 9589SOL    HW229667   2.075   2.966   6.499
 9590SOL     OW29668   6.237   0.396   0.723
 9590SOL    HW129669   6.311   0.332   0.701
 9590SOL    HW229670   6.186   0.362   0.802
 9591SOL     OW29671   4.684   0.934   0.618
 9591SOL    HW129672   4.773   0.959   0.656
 9591SOL    HW229673   4.678   0.968   0.524
 9592SOL     OW29674   2.247   6.597   5.964
 9592SOL    HW129675   2.237   6.660   6.041
 9592SOL    HW229676   2.307   6.638   5.895
 9593SOL     OW29677   1.957   2.254   3.617
 9593SOL    HW129678   2.056   2.266   3.628
 9593SOL    HW229679   1.916   2.339   3.584
 9594SOL     OW29680   6.942   6.477   3.554
 9594SOL    HW129681   6.892   6.420   3.489
 9594SOL    HW229682   0.017   6.443   3.563
 9595SOL     OW29683   0.634   3.143   3.291
 9595SOL    HW129684   0.673   3.235   3.283
 9595SOL    HW229685   0.596   3.130   3.383
 9596SOL     OW29686   0.894   6.605   0.873
 9596SOL    HW129687   0.832   6.546   0.821
 9596SOL    HW229688   0.966   6.639   0.812
 9597SOL     OW29689   1.155   3.615   1.983
 9597SOL    HW129690   1.218   3.538   1.993
 9597SOL    HW229691   1.150   3.642   1.887
 9598SOL     OW29692   2.193   4.086   4.081
 9598SOL    HW129693   2.123   4.015   4.081
 9598SOL    HW229694   2.185   4.141   3.998
 9599SOL     OW29695   4.175   6.558   4.560
 9599SOL    HW129696   4.141   6.650   4.541
 9599SOL    HW229697   4.183   6.546   4.659
 9600SOL     OW29698   3.784   1.651   1.426
 9600SOL    HW129699   3.764   1.717   1.355
 9600SOL    HW229700   3.735   1.675   1.510
 9601SOL     OW29701   1.298   3.580   0.571
 9601SOL    HW129702   1.334   3.487   0.560
 9601SOL    HW229703   1.366   3.636   0.618
 9602SOL     OW29704   4.022   5.068   5.177
 9602SOL    HW129705   3.982   5.144   5.228
 9602SOL    HW229706   3.949   5.010   5.141
 9603SOL     OW29707   4.669   6.715   5.608
 9603SOL    HW129708   4.748   6.663   5.576
 9603SOL    HW229709   4.684   6.743   5.703
 9604SOL     OW29710   5.535   6.689   0.313
 9604SOL    HW129711   5.450   6.738   0.332
 9604SOL    HW229712   5.603   6.710   0.383
 9605SOL     OW29713   5.830   5.702   1.732
 9605SOL    HW129714   5.737   5.695   1.696
 9605SOL    HW229715   5.832   5.772   1.804
 9606SOL     OW29716   1.641   1.057   6.969
 9606SOL    HW129717   1.551   1.046   7.011
 9606SOL    HW229718   1.680   0.967   6.949
 9607SOL     OW29719   2.247   2.192   5.902
 9607SOL    HW129720   2.160   2.150   5.876
 9607SOL    HW229721   2.245   2.290   5.879
 9608SOL     OW29722   6.073   2.986   4.347
 9608SOL    HW129723   6.148   3.052   4.357
 9608SOL    HW229724   5.990   3.035   4.320
 9609SOL     OW29725   4.432   2.796   6.546
 9609SOL    HW129726   4.461   2.833   6.457
 9609SOL    HW229727   4.332   2.800   6.552
 9610SOL     OW29728   0.524   4.907   3.095
 9610SOL    HW129729   0.543   4.952   3.182
 9610SOL    HW229730   0.498   4.975   3.027
 9611SOL     OW29731   2.210   0.505   0.638
 9611SOL    HW129732   2.193   0.515   0.540
 9611SOL    HW229733   2.279   0.571   0.667
 9612SOL     OW29734   6.994   2.709   4.095
 9612SOL    HW129735   6.927   2.768   4.050
 9612SOL    HW229736   0.067   2.742   4.074
 9613SOL     OW29737   5.956   5.480   3.226
 9613SOL    HW129738   5.875   5.526   3.262
 9613SOL    HW229739   5.977   5.516   3.135
 9614SOL     OW29740   4.878   2.376   3.651
 9614SOL    HW129741   4.811   2.311   3.613
 9614SOL    HW229742   4.879   2.367   3.750
 9615SOL     OW29743   1.953   4.512   1.102
 9615SOL    HW129744   1.994   4.550   1.184
 9615SOL    HW229745   1.961   4.412   1.104
 9616SOL     OW29746   4.015   3.346   6.829
 9616SOL    HW129747   3.936   3.383   6.779
 9616SOL    HW229748   3.988   3.327   6.924
 9617SOL     OW29749   1.986   2.554   2.762
 9617SOL    HW129750   1.977   2.654   2.768
 9617SOL    HW229751   1.919   2.518   2.698
 9618SOL     OW29752   2.373   1.808   1.212
 9618SOL    HW129753   2.317   1.891   1.217
 9618SOL    HW229754   2.411   1.789   1.303
 9619SOL     OW29755   2.549   0.512   5.970
 9619SOL    HW129756   2.626   0.560   5.929
 9619SOL    HW229757   2.582   0.439   6.029
 9620SOL     OW29758   5.752   1.441   5.400
 9620SOL    HW129759   5.762   1.493   5.485
 9620SOL    HW229760   5.707   1.498   5.331
 9621SOL     OW29761   1.764   3.543   3.214
 9621SOL    HW129762   1.684   3.574   3.162
 9621SOL    HW229763   1.843   3.538   3.153
 9622SOL     OW29764   5.571   6.910   0.985
 9622SOL    HW129765   5.595   6.822   0.943
 9622SOL    HW229766   5.473   6.927   0.972
 9623SOL     OW29767   2.513   3.593   6.311
 9623SOL    HW129768   2.586   3.661   6.322
 9623SOL    HW229769   2.495   3.579   6.214
 9624SOL     OW29770   6.723   3.141   4.347
 9624SOL    HW129771   6.695   3.230   4.381
 9624SOL    HW229772   6.666   3.070   4.387
 9625SOL     OW29773   5.865   5.735   1.252
 9625SOL    HW129774   5.772   5.710   1.278
 9625SOL    HW229775   5.912   5.656   1.214
 9626SOL     OW29776   3.673   6.741   0.221
 9626SOL    HW129777   3.655   6.808   0.293
 9626SOL    HW229778   3.706   6.656   0.263
 9627SOL     OW29779   1.627   6.529   6.672
 9627SOL    HW129780   1.617   6.626   6.695
 9627SOL    HW229781   1.556   6.503   6.606
 9628SOL     OW29782   3.110   6.659   2.600
 9628SOL    HW129783   3.107   6.726   2.525
 9628SOL    HW229784   3.168   6.582   2.573
 9629SOL     OW29785   2.162   0.121   1.251
 9629SOL    HW129786   2.126   0.185   1.182
 9629SOL    HW229787   2.259   0.103   1.232
 9630SOL     OW29788   6.686   1.966   6.458
 9630SOL    HW129789   6.675   1.957   6.557
 9630SOL    HW229790   6.646   1.886   6.413
 9631SOL     OW29791   5.964   6.174   0.005
 9631SOL    HW129792   5.879   6.172   0.057
 9631SOL    HW229793   6.041   6.164   0.068
 9632SOL     OW29794   0.782   5.891   2.007
 9632SOL    HW129795   0.876   5.919   2.025
 9632SOL    HW229796   0.724   5.914   2.085
 9633SOL     OW29797   6.925   4.929   6.030
 9633SOL    HW129798   7.004   4.961   5.979
 9633SOL    HW229799   6.954   4.861   6.097
 9634SOL     OW29800   1.317   6.209   6.010
 9634SOL    HW129801   1.264   6.240   5.931
 9634SOL    HW229802   1.279   6.247   6.094
 9635SOL     OW29803   1.045   5.669   5.621
 9635SOL    HW129804   1.007   5.710   5.704
 9635SOL    HW229805   1.088   5.740   5.566
 9636SOL     OW29806   4.304   1.457   6.946
 9636SOL    HW129807   4.220   1.414   6.913
 9636SOL    HW229808   4.370   1.463   6.871
 9637SOL     OW29809   2.160   1.141   0.044
 9637SOL    HW129810   2.191   1.196   6.985
 9637SOL    HW229811   2.102   1.197   0.103
 9638SOL     OW29812   6.748   2.394   6.563
 9638SOL    HW129813   6.689   2.375   6.642
 9638SOL    HW229814   6.699   2.454   6.499
 9639SOL     OW29815   3.927   0.844   2.350
 9639SOL    HW129816   3.930   0.869   2.447
 9639SOL    HW229817   3.869   0.763   2.339
 9640SOL     OW29818   1.665   1.843   2.335
 9640SOL    HW129819   1.607   1.924   2.347
 9640SOL    HW229820   1.644   1.799   2.248
 9641SOL     OW29821   5.748   5.715   6.945
 9641SOL    HW129822   5.761   5.749   0.020
 9641SOL    HW229823   5.674   5.647   6.945
 9642SOL     OW29824   3.615   0.546   3.516
 9642SOL    HW129825   3.657   0.498   3.592
 9642SOL    HW229826   3.608   0.644   3.537
 9643SOL     OW29827   4.062   4.771   2.769
 9643SOL    HW129828   4.097   4.701   2.707
 9643SOL    HW229829   4.124   4.780   2.847
 9644SOL     OW29830   2.963   1.965   0.163
 9644SOL    HW129831   3.039   1.966   0.227
 9644SOL    HW229832   2.973   2.039   0.097
 9645SOL     OW29833   3.259   5.260   5.352
 9645SOL    HW129834   3.255   5.331   5.281
 9645SOL    HW229835   3.224   5.174   5.315
 9646SOL     OW29836   4.102   5.114   4.171
 9646SOL    HW129837   4.068   5.021   4.174
 9646SOL    HW229838   4.086   5.159   4.259
 9647SOL     OW29839   6.486   3.047   6.156
 9647SOL    HW129840   6.533   2.975   6.206
 9647SOL    HW229841   6.513   3.136   6.192
 9648SOL     OW29842   3.995   3.934   0.799
 9648SOL    HW129843   3.920   3.965   0.857
 9648SOL    HW229844   4.008   3.836   0.810
 9649SOL     OW29845   2.280   5.473   1.956
 9649SOL    HW129846   2.292   5.392   1.899
 9649SOL    HW229847   2.261   5.445   2.050
 9650SOL     OW29848   0.560   6.776   0.677
 9650SOL    HW129849   0.498   6.736   0.745
 9650SOL    HW229850   0.599   6.860   0.714
 9651SOL     OW29851   0.730   1.812   6.448
 9651SOL    HW129852   0.684   1.768   6.371
 9651SOL    HW229853   0.668   1.879   6.489
 9652SOL     OW29854   0.466   5.110   2.394
 9652SOL    HW129855   0.413   5.175   2.339
 9652SOL    HW229856   0.429   5.018   2.383
 9653SOL     OW29857   6.441   6.242   4.394
 9653SOL    HW129858   6.536   6.265   4.375
 9653SOL    HW229859   6.382   6.315   4.359
 9654SOL     OW29860   2.257   3.011   2.864
 9654SOL    HW129861   2.226   3.089   2.808
 9654SOL    HW229862   2.274   2.933   2.804
 9655SOL     OW29863   6.351   1.490   6.605
 9655SOL    HW129864   6.340   1.452   6.697
 9655SOL    HW229865   6.263   1.520   6.570
 9656SOL     OW29866   2.902   1.366   3.266
 9656SOL    HW129867   2.804   1.381   3.252
 9656SOL    HW229868   2.941   1.320   3.186
 9657SOL     OW29869   0.219   7.007   5.104
 9657SOL    HW129870   0.219   0.054   5.029
 9657SOL    HW229871   0.165   0.023   5.180
 9658SOL     OW29872   5.458   2.069   3.088
 9658SOL    HW129873   5.413   2.134   3.027
 9658SOL    HW229874   5.404   1.985   3.094
 9659SOL     OW29875   1.368   4.855   7.013
 9659SOL    HW129876   1.376   4.883   0.090
 9659SOL    HW229877   1.452   4.809   6.985
 9660SOL     OW29878   0.961   5.253   0.628
 9660SOL    HW129879   0.877   5.306   0.622
 9660SOL    HW229880   0.965   5.205   0.715
 9661SOL     OW29881   4.434   6.852   0.936
 9661SOL    HW129882   4.339   6.832   0.957
 9661SOL    HW229883   4.489   6.770   0.950
 9662SOL     OW29884   5.011   1.211   4.549
 9662SOL    HW129885   4.926   1.178   4.592
 9662SOL    HW229886   5.090   1.176   4.599
 9663SOL     OW29887   2.164   6.350   3.107
 9663SOL    HW129888   2.097   6.296   3.158
 9663SOL    HW229889   2.242   6.371   3.165
 9664SOL     OW29890   2.416   5.613   1.763
 9664SOL    HW129891   2.513   5.602   1.742
 9664SOL    HW229892   2.398   5.578   1.855
 9665SOL     OW29893   5.185   4.220   3.981
 9665SOL    HW129894   5.283   4.201   3.994
 9665SOL    HW229895   5.139   4.137   3.948
 9666SOL     OW29896   5.064   4.717   4.948
 9666SOL    HW129897   4.984   4.672   4.910
 9666SOL    HW229898   5.142   4.654   4.946
 9667SOL     OW29899   3.409   2.952   3.381
 9667SOL    HW129900   3.504   2.921   3.390
 9667SOL    HW229901   3.375   2.983   3.469
 9668SOL     OW29902   0.683   1.213   5.371
 9668SOL    HW129903   0.683   1.187   5.274
 9668SOL    HW229904   0.716   1.307   5.380
 9669SOL     OW29905   1.573   6.443   6.910
 9669SOL    HW129906   1.590   6.457   6.812
 9669SOL    HW229907   1.632   6.504   6.963
 9670SOL     OW29908   5.788   4.779   6.137
 9670SOL    HW129909   5.850   4.857   6.142
 9670SOL    HW229910   5.705   4.806   6.089
 9671SOL     OW29911   0.151   0.339   6.843
 9671SOL    HW129912   0.064   0.312   6.803
 9671SOL    HW229913   0.210   0.258   6.853
 9672SOL     OW29914   1.584   6.482   5.066
 9672SOL    HW129915   1.547   6.525   5.148
 9672SOL    HW229916   1.587   6.382   5.079
 9673SOL     OW29917   2.040   2.796   5.947
 9673SOL    HW129918   2.119   2.792   5.886
 9673SOL    HW229919   1.981   2.872   5.921
 9674SOL     OW29920   2.807   6.817   2.336
 9674SOL    HW129921   2.809   6.718   2.341
 9674SOL    HW229922   2.798   6.845   2.240
 9675SOL     OW29923   0.397   2.043   2.626
 9675SOL    HW129924   0.335   1.965   2.630
 9675SOL    HW229925   0.443   2.054   2.715
 9676SOL     OW29926   0.217   2.735   4.701
 9676SOL    HW129927   0.314   2.709   4.711
 9676SOL    HW229928   0.189   2.719   4.606
 9677SOL     OW29929   1.535   3.349   5.625
 9677SOL    HW129930   1.630   3.318   5.630
 9677SOL    HW229931   1.485   3.291   5.560
 9678SOL     OW29932   3.657   3.280   3.179
 9678SOL    HW129933   3.610   3.288   3.266
 9678SOL    HW229934   3.596   3.238   3.112
 9679SOL     OW29935   0.575   3.566   1.281
 9679SOL    HW129936   0.603   3.637   1.216
 9679SOL    HW229937   0.576   3.477   1.235
 9680SOL     OW29938   4.754   4.876   3.170
 9680SOL    HW129939   4.849   4.899   3.147
 9680SOL    HW229940   4.753   4.820   3.253
 9681SOL     OW29941   0.884   0.496   4.345
 9681SOL    HW129942   0.868   0.485   4.443
 9681SOL    HW229943   0.798   0.481   4.295
 9682SOL     OW29944   0.418   5.086   2.925
 9682SOL    HW129945   0.358   5.163   2.944
 9682SOL    HW229946   0.379   5.030   2.851
 9683SOL     OW29947   5.173   6.563   5.946
 9683SOL    HW129948   5.142   6.571   6.041
 9683SOL    HW229949   5.260   6.612   5.936
 9684SOL     OW29950   0.976   4.566   3.412
 9684SOL    HW129951   1.038   4.495   3.378
 9684SOL    HW229952   1.029   4.641   3.451
 9685SOL     OW29953   2.097   2.182   6.672
 9685SOL    HW129954   2.027   2.192   6.601
 9685SOL    HW229955   2.055   2.192   6.762
 9686SOL     OW29956   5.443   1.783   1.789
 9686SOL    HW129957   5.537   1.791   1.820
 9686SOL    HW229958   5.387   1.855   1.831
 9687SOL     OW29959   3.812   1.469   4.649
 9687SOL    HW129960   3.911   1.483   4.657
 9687SOL    HW229961   3.777   1.429   4.734
 9688SOL     OW29962   6.599   1.825   4.084
 9688SOL    HW129963   6.664   1.894   4.053
 9688SOL    HW229964   6.538   1.865   4.152
 9689SOL     OW29965   1.915   5.747   5.893
 9689SOL    HW129966   1.817   5.754   5.875
 9689SOL    HW229967   1.956   5.838   5.888
 9690SOL     OW29968   6.021   3.649   0.458
 9690SOL    HW129969   6.054   3.611   0.372
 9690SOL    HW229970   5.925   3.626   0.470
 9691SOL     OW29971   1.423   4.357   0.824
 9691SOL    HW129972   1.504   4.304   0.848
 9691SOL    HW229973   1.445   4.454   0.824
 9692SOL     OW29974   3.060   5.815   0.732
 9692SOL    HW129975   3.024   5.728   0.697
 9692SOL    HW229976   3.102   5.799   0.822
 9693SOL     OW29977   5.996   5.792   1.489
 9693SOL    HW129978   5.960   5.732   1.560
 9693SOL    HW229979   5.941   5.782   1.405
 9694SOL     OW29980   1.101   2.333   0.854
 9694SOL    HW129981   1.183   2.276   0.856
 9694SOL    HW229982   1.051   2.318   0.769
 9695SOL     OW29983   6.857   4.436   0.462
 9695SOL    HW129984   6.846   4.340   0.440
 9695SOL    HW229985   6.954   4.456   0.477
 9696SOL     OW29986   3.659   4.502   0.569
 9696SOL    HW129987   3.606   4.431   0.614
 9696SOL    HW229988   3.745   4.515   0.618
 9697SOL     OW29989   0.700   5.921   5.906
 9697SOL    HW129990   0.714   6.007   5.858
 9697SOL    HW229991   0.604   5.895   5.903
 9698SOL     OW29992   4.676   1.155   5.322
 9698SOL    HW129993   4.623   1.239   5.334
 9698SOL    HW229994   4.614   1.077   5.310
 9699SOL     OW29995   2.243   2.585   6.821
 9699SOL    HW129996   2.212   2.625   6.908
 9699SOL    HW229997   2.168   2.587   6.755
 9700SOL     OW29998   3.823   3.820   3.444
 9700SOL    HW129999   3.783   3.737   3.406
 9700SOL    HW230000   3.863   3.875   3.371
 9701SOL     OW30001   4.738   4.461   4.561
 9701SOL    HW130002   4.674   4.428   4.631
 9701SOL    HW230003   4.701   4.441   4.471
 9702SOL     OW30004   5.054   0.249   0.625
 9702SOL    HW130005   5.143   0.231   0.583
 9702SOL    HW230006   4.998   0.166   0.620
 9703SOL     OW30007   2.795   5.875   3.864
 9703SOL    HW130008   2.872   5.912   3.812
 9703SOL    HW230009   2.769   5.786   3.827
 9704SOL     OW30010   2.700   1.453   3.628
 9704SOL    HW130011   2.779   1.424   3.572
 9704SOL    HW230012   2.654   1.372   3.664
 9705SOL     OW30013   3.726   3.978   0.853
 9705SOL    HW130014   3.701   3.882   0.859
 9705SOL    HW230015   3.647   4.032   0.822
 9706SOL     OW30016   6.802   2.845   3.979
 9706SOL    HW130017   6.864   2.919   3.955
 9706SOL    HW230018   6.748   2.820   3.899
 9707SOL     OW30019   2.466   4.855   2.884
 9707SOL    HW130020   2.405   4.777   2.884
 9707SOL    HW230021   2.503   4.869   2.976
 9708SOL     OW30022   1.393   1.704   2.347
 9708SOL    HW130023   1.307   1.700   2.397
 9708SOL    HW230024   1.470   1.699   2.410
 9709SOL     OW30025   1.786   5.444   3.081
 9709SOL    HW130026   1.871   5.495   3.094
 9709SOL    HW230027   1.717   5.503   3.040
 9710SOL     OW30028   0.502   0.288   4.117
 9710SOL    HW130029   0.557   0.300   4.200
 9710SOL    HW230030   0.423   0.350   4.122
 9711SOL     OW30031   1.663   3.138   6.470
 9711SOL    HW130032   1.640   3.113   6.376
 9711SOL    HW230033   1.749   3.190   6.471
 9712SOL     OW30034   4.952   3.480   4.496
 9712SOL    HW130035   4.944   3.529   4.409
 9712SOL    HW230036   4.925   3.385   4.482
 9713SOL     OW30037   6.955   5.541   2.580
 9713SOL    HW130038   6.898   5.549   2.661
 9713SOL    HW230039   6.994   5.449   2.575
 9714SOL     OW30040   1.947   2.114   2.503
 9714SOL    HW130041   1.889   2.125   2.584
 9714SOL    HW230042   1.978   2.203   2.471
 9715SOL     OW30043   6.447   5.525   5.522
 9715SOL    HW130044   6.446   5.497   5.426
 9715SOL    HW230045   6.372   5.590   5.538
 9716SOL     OW30046   3.703   1.333   5.649
 9716SOL    HW130047   3.698   1.375   5.740
 9716SOL    HW230048   3.777   1.266   5.648
 9717SOL     OW30049   5.547   5.707   3.453
 9717SOL    HW130050   5.540   5.807   3.450
 9717SOL    HW230051   5.479   5.667   3.392
 9718SOL     OW30052   4.751   3.239   1.662
 9718SOL    HW130053   4.708   3.207   1.746
 9718SOL    HW230054   4.687   3.232   1.586
 9719SOL     OW30055   0.208   1.552   0.557
 9719SOL    HW130056   0.160   1.571   0.471
 9719SOL    HW230057   0.166   1.606   0.630
 9720SOL     OW30058   1.089   0.224   0.488
 9720SOL    HW130059   1.175   0.269   0.512
 9720SOL    HW230060   1.017   0.258   0.548
 9721SOL     OW30061   0.018   2.867   3.579
 9721SOL    HW130062   6.951   2.817   3.574
 9721SOL    HW230063   0.042   2.903   3.489
 9722SOL     OW30064   6.900   0.281   4.700
 9722SOL    HW130065   6.808   0.251   4.726
 9722SOL    HW230066   6.942   0.330   4.776
 9723SOL     OW30067   6.875   1.221   3.664
 9723SOL    HW130068   6.938   1.152   3.700
 9723SOL    HW230069   6.792   1.222   3.720
 9724SOL     OW30070   3.659   2.654   1.044
 9724SOL    HW130071   3.739   2.629   1.099
 9724SOL    HW230072   3.678   2.737   0.992
 9725SOL     OW30073   3.912   3.576   5.760
 9725SOL    HW130074   4.000   3.579   5.807
 9725SOL    HW230075   3.893   3.483   5.729
 9726SOL     OW30076   5.566   5.681   4.128
 9726SOL    HW130077   5.644   5.658   4.187
 9726SOL    HW230078   5.586   5.764   4.077
 9727SOL     OW30079   1.886   0.769   0.112
 9727SOL    HW130080   1.809   0.761   0.049
 9727SOL    HW230081   1.915   0.678   0.140
 9728SOL     OW30082   3.096   6.048   6.642
 9728SOL    HW130083   3.112   6.067   6.739
 9728SOL    HW230084   2.998   6.032   6.627
 9729SOL     OW30085   3.008   5.022   2.466
 9729SOL    HW130086   2.964   5.015   2.376
 9729SOL    HW230087   3.107   5.022   2.455
 9730SOL     OW30088   5.817   3.281   2.989
 9730SOL    HW130089   5.784   3.188   3.009
 9730SOL    HW230090   5.760   3.321   2.917
 9731SOL     OW30091   5.201   5.204   1.042
 9731SOL    HW130092   5.239   5.297   1.043
 9731SOL    HW230093   5.107   5.205   1.075
 9732SOL     OW30094   5.818   5.948   4.065
 9732SOL    HW130095   5.831   5.888   3.986
 9732SOL    HW230096   5.892   6.014   4.070
 9733SOL     OW30097   5.367   4.696   5.965
 9733SOL    HW130098   5.275   4.669   5.991
 9733SOL    HW230099   5.387   4.664   5.873
 9734SOL     OW30100   5.811   2.073   5.748
 9734SOL    HW130101   5.865   2.122   5.816
 9734SOL    HW230102   5.716   2.104   5.753
 9735SOL     OW30103   3.225   4.513   0.509
 9735SOL    HW130104   3.231   4.436   0.572
 9735SOL    HW230105   3.312   4.563   0.508
 9736SOL     OW30106   3.261   1.882   1.706
 9736SOL    HW130107   3.304   1.910   1.620
 9736SOL    HW230108   3.263   1.957   1.771
 9737SOL     OW30109   4.246   2.272   4.641
 9737SOL    HW130110   4.208   2.211   4.572
 9737SOL    HW230111   4.185   2.274   4.720
 9738SOL     OW30112   2.862   0.630   2.229
 9738SOL    HW130113   2.888   0.588   2.142
 9738SOL    HW230114   2.797   0.704   2.212
 9739SOL     OW30115   5.683   4.552   1.812
 9739SOL    HW130116   5.665   4.510   1.722
 9739SOL    HW230117   5.596   4.568   1.859
 9740SOL     OW30118   6.687   3.936   2.880
 9740SOL    HW130119   6.768   3.972   2.834
 9740SOL    HW230120   6.609   3.935   2.817
 9741SOL     OW30121   3.941   1.201   1.969
 9741SOL    HW130122   3.870   1.259   2.008
 9741SOL    HW230123   4.000   1.167   2.042
 9742SOL     OW30124   4.465   1.787   3.930
 9742SOL    HW130125   4.447   1.876   3.972
 9742SOL    HW230126   4.554   1.753   3.961
 9743SOL     OW30127   1.161   1.727   5.660
 9743SOL    HW130128   1.131   1.813   5.618
 9743SOL    HW230129   1.215   1.675   5.593
 9744SOL     OW30130   2.387   0.437   1.742
 9744SOL    HW130131   2.464   0.402   1.796
 9744SOL    HW230132   2.374   0.534   1.763
 9745SOL     OW30133   0.679   1.000   4.769
 9745SOL    HW130134   0.583   0.974   4.773
 9745SOL    HW230135   0.727   0.962   4.849
 9746SOL     OW30136   6.663   0.762   3.798
 9746SOL    HW130137   6.578   0.710   3.803
 9746SOL    HW230138   6.666   0.814   3.712
 9747SOL     OW30139   0.277   0.496   6.465
 9747SOL    HW130140   0.226   0.411   6.452
 9747SOL    HW230141   0.263   0.529   6.559
 9748SOL     OW30142   1.093   4.547   4.129
 9748SOL    HW130143   1.053   4.516   4.043
 9748SOL    HW230144   1.021   4.579   4.190
 9749SOL     OW30145   0.387   4.912   4.095
 9749SOL    HW130146   0.480   4.949   4.103
 9749SOL    HW230147   0.347   4.942   4.008
 9750SOL     OW30148   3.058   5.126   2.754
 9750SOL    HW130149   3.067   5.074   2.669
 9750SOL    HW230150   3.149   5.142   2.793
 9751SOL     OW30151   1.407   2.845   0.750
 9751SOL    HW130152   1.333   2.797   0.704
 9751SOL    HW230153   1.489   2.843   0.692
 9752SOL     OW30154   4.192   0.746   5.900
 9752SOL    HW130155   4.176   0.831   5.950
 9752SOL    HW230156   4.222   0.768   5.807
 9753SOL     OW30157   0.223   6.586   6.683
 9753SOL    HW130158   0.312   6.626   6.703
 9753SOL    HW230159   0.234   6.490   6.658
 9754SOL     OW30160   0.098   2.817   6.272
 9754SOL    HW130161   0.166   2.792   6.341
 9754SOL    HW230162   0.130   2.787   6.182
 9755SOL     OW30163   3.527   5.475   5.748
 9755SOL    HW130164   3.449   5.499   5.807
 9755SOL    HW230165   3.505   5.394   5.694
 9756SOL     OW30166   5.298   2.518   5.394
 9756SOL    HW130167   5.258   2.445   5.337
 9756SOL    HW230168   5.226   2.579   5.425
 9757SOL     OW30169   6.642   1.054   3.717
 9757SOL    HW130170   6.581   1.133   3.712
 9757SOL    HW230171   6.679   1.035   3.626
 9758SOL     OW30172   3.393   0.696   0.081
 9758SOL    HW130173   3.462   0.650   0.137
 9758SOL    HW230174   3.303   0.656   0.100
 9759SOL     OW30175   3.209   5.888   1.427
 9759SOL    HW130176   3.218   5.902   1.328
 9759SOL    HW230177   3.113   5.874   1.450
 9760SOL     OW30178   5.580   4.860   5.976
 9760SOL    HW130179   5.560   4.951   5.941
 9760SOL    HW230180   5.501   4.800   5.960
 9761SOL     OW30181   5.390   5.282   2.959
 9761SOL    HW130182   5.470   5.295   3.018
 9761SOL    HW230183   5.307   5.310   3.008
 9762SOL     OW30184   3.476   0.798   2.997
 9762SOL    HW130185   3.429   0.885   2.984
 9762SOL    HW230186   3.554   0.793   2.935
 9763SOL     OW30187   1.934   1.912   2.330
 9763SOL    HW130188   1.935   1.982   2.401
 9763SOL    HW230189   1.840   1.895   2.301
 9764SOL     OW30190   1.078   2.668   2.652
 9764SOL    HW130191   1.116   2.659   2.744
 9764SOL    HW230192   1.100   2.586   2.599
 9765SOL     OW30193   0.163   0.817   5.523
 9765SOL    HW130194   0.119   0.847   5.439
 9765SOL    HW230195   0.263   0.818   5.511
 9766SOL     OW30196   2.153   0.684   2.972
 9766SOL    HW130197   2.204   0.601   2.949
 9766SOL    HW230198   2.194   0.762   2.925
 9767SOL     OW30199   5.020   0.296   5.551
 9767SOL    HW130200   4.987   0.311   5.644
 9767SOL    HW230201   5.006   0.200   5.525
 9768SOL     OW30202   5.132   2.688   4.382
 9768SOL    HW130203   5.035   2.668   4.395
 9768SOL    HW230204   5.163   2.750   4.453
 9769SOL     OW30205   0.396   1.780   1.079
 9769SOL    HW130206   0.422   1.685   1.096
 9769SOL    HW230207   0.424   1.837   1.156
 9770SOL     OW30208   0.316   3.066   5.508
 9770SOL    HW130209   0.245   3.099   5.446
 9770SOL    HW230210   0.379   3.007   5.457
 9771SOL     OW30211   2.940   5.520   3.571
 9771SOL    HW130212   3.026   5.539   3.617
 9771SOL    HW230213   2.865   5.568   3.617
 9772SOL     OW30214   6.058   6.568   0.679
 9772SOL    HW130215   6.061   6.542   0.775
 9772SOL    HW230216   6.138   6.530   0.632
 9773SOL     OW30217   4.731   5.230   3.847
 9773SOL    HW130218   4.632   5.233   3.838
 9773SOL    HW230219   4.756   5.164   3.918
 9774SOL     OW30220   0.074   5.080   4.573
 9774SOL    HW130221   7.017   5.137   4.543
 9774SOL    HW230222   0.101   5.018   4.499
 9775SOL     OW30223   3.119   2.097   4.532
 9775SOL    HW130224   3.135   2.147   4.617
 9775SOL    HW230225   3.046   2.030   4.546
 9776SOL     OW30226   0.409   4.636   3.847
 9776SOL    HW130227   0.329   4.670   3.896
 9776SOL    HW230228   0.458   4.570   3.903
 9777SOL     OW30229   5.059   5.477   6.260
 9777SOL    HW130230   5.121   5.545   6.221
 9777SOL    HW230231   5.101   5.437   6.342
 9778SOL     OW30232   3.834   0.476   4.541
 9778SOL    HW130233   3.825   0.575   4.526
 9778SOL    HW230234   3.849   0.431   4.453
 9779SOL     OW30235   3.147   2.047   6.687
 9779SOL    HW130236   3.100   2.027   6.601
 9779SOL    HW230237   3.214   2.120   6.672
 9780SOL     OW30238   2.662   4.407   0.645
 9780SOL    HW130239   2.760   4.414   0.626
 9780SOL    HW230240   2.619   4.496   0.630
 9781SOL     OW30241   1.241   6.678   4.489
 9781SOL    HW130242   1.337   6.653   4.504
 9781SOL    HW230243   1.194   6.602   4.445
 9782SOL     OW30244   5.971   0.138   0.342
 9782SOL    HW130245   5.882   0.154   0.298
 9782SOL    HW230246   5.962   0.151   0.441
 9783SOL     OW30247   6.380   0.408   3.538
 9783SOL    HW130248   6.394   0.360   3.625
 9783SOL    HW230249   6.334   0.347   3.473
 9784SOL     OW30250   5.596   0.622   4.390
 9784SOL    HW130251   5.609   0.560   4.313
 9784SOL    HW230252   5.510   0.599   4.437
 9785SOL     OW30253   0.642   2.925   1.527
 9785SOL    HW130254   0.688   3.010   1.501
 9785SOL    HW230255   0.603   2.934   1.618
 9786SOL     OW30256   2.507   6.918   4.740
 9786SOL    HW130257   2.571   6.984   4.699
 9786SOL    HW230258   2.414   6.943   4.713
 9787SOL     OW30259   6.164   4.532   1.089
 9787SOL    HW130260   6.190   4.437   1.073
 9787SOL    HW230261   6.140   4.544   1.185
 9788SOL     OW30262   6.630   0.812   5.592
 9788SOL    HW130263   6.551   0.751   5.595
 9788SOL    HW230264   6.626   0.877   5.668
 9789SOL     OW30265   1.762   5.169   4.840
 9789SOL    HW130266   1.859   5.159   4.859
 9789SOL    HW230267   1.750   5.203   4.746
 9790SOL     OW30268   6.821   1.261   3.400
 9790SOL    HW130269   6.878   1.223   3.327
 9790SOL    HW230270   6.850   1.225   3.488
 9791SOL     OW30271   1.269   2.214   1.390
 9791SOL    HW130272   1.305   2.290   1.336
 9791SOL    HW230273   1.341   2.177   1.449
 9792SOL     OW30274   3.436   5.568   2.239
 9792SOL    HW130275   3.457   5.596   2.146
 9792SOL    HW230276   3.351   5.611   2.269
 9793SOL     OW30277   5.327   5.973   2.524
 9793SOL    HW130278   5.263   5.896   2.527
 9793SOL    HW230279   5.366   5.988   2.615
 9794SOL     OW30280   3.482   3.000   6.608
 9794SOL    HW130281   3.507   3.003   6.705
 9794SOL    HW230282   3.551   3.049   6.555
 9795SOL     OW30283   2.098   5.014   3.637
 9795SOL    HW130284   2.100   4.985   3.732
 9795SOL    HW230285   2.187   4.995   3.595
 9796SOL     OW30286   3.705   4.908   0.456
 9796SOL    HW130287   3.684   4.889   0.360
 9796SOL    HW230288   3.801   4.887   0.473
 9797SOL     OW30289   5.472   3.429   5.337
 9797SOL    HW130290   5.471   3.527   5.355
 9797SOL    HW230291   5.521   3.411   5.251
 9798SOL     OW30292   2.523   1.834   1.786
 9798SOL    HW130293   2.587   1.904   1.752
 9798SOL    HW230294   2.568   1.745   1.786
 9799SOL     OW30295   3.418   3.987   2.742
 9799SOL    HW130296   3.334   4.025   2.703
 9799SOL    HW230297   3.412   3.887   2.743
 9800SOL     OW30298   3.907   5.257   0.355
 9800SOL    HW130299   3.808   5.254   0.348
 9800SOL    HW230300   3.938   5.353   0.353
 9801SOL     OW30301   4.949   5.228   1.139
 9801SOL    HW130302   4.879   5.162   1.113
 9801SOL    HW230303   4.921   5.320   1.109
 9802SOL     OW30304   0.598   5.569   1.600
 9802SOL    HW130305   0.632   5.608   1.685
 9802SOL    HW230306   0.656   5.598   1.524
 9803SOL     OW30307   5.137   0.357   6.365
 9803SOL    HW130308   5.180   0.319   6.284
 9803SOL    HW230309   5.179   0.318   6.447
 9804SOL     OW30310   4.674   5.471   4.082
 9804SOL    HW130311   4.738   5.486   4.007
 9804SOL    HW230312   4.723   5.434   4.161
 9805SOL     OW30313   3.548   4.003   1.136
 9805SOL    HW130314   3.529   3.980   1.041
 9805SOL    HW230315   3.632   3.957   1.166
 9806SOL     OW30316   6.938   1.485   2.493
 9806SOL    HW130317   7.016   1.458   2.436
 9806SOL    HW230318   6.971   1.513   2.583
 9807SOL     OW30319   2.017   3.427   1.280
 9807SOL    HW130320   2.066   3.488   1.343
 9807SOL    HW230321   2.032   3.457   1.186
 9808SOL     OW30322   2.006   1.869   4.060
 9808SOL    HW130323   1.943   1.924   4.004
 9808SOL    HW230324   2.067   1.930   4.110
 9809SOL     OW30325   0.636   0.990   4.351
 9809SOL    HW130326   0.729   0.954   4.340
 9809SOL    HW230327   0.617   1.056   4.278
 9810SOL     OW30328   4.137   1.533   2.449
 9810SOL    HW130329   4.147   1.476   2.367
 9810SOL    HW230330   4.065   1.496   2.507
 9811SOL     OW30331   1.149   0.413   2.786
 9811SOL    HW130332   1.096   0.356   2.850
 9811SOL    HW230333   1.194   0.487   2.836
 9812SOL     OW30334   5.995   3.168   5.845
 9812SOL    HW130335   6.015   3.159   5.943
 9812SOL    HW230336   5.925   3.238   5.832
 9813SOL     OW30337   6.420   4.065   0.362
 9813SOL    HW130338   6.376   4.049   0.450
 9813SOL    HW230339   6.416   3.981   0.307
 9814SOL     OW30340   6.480   0.907   5.889
 9814SOL    HW130341   6.470   0.874   5.983
 9814SOL    HW230342   6.393   0.945   5.857
 9815SOL     OW30343   6.700   4.429   2.207
 9815SOL    HW130344   6.791   4.389   2.207
 9815SOL    HW230345   6.684   4.478   2.121
 9816SOL     OW30346   6.173   1.361   5.643
 9816SOL    HW130347   6.254   1.305   5.659
 9816SOL    HW230348   6.115   1.317   5.575
 9817SOL     OW30349   2.582   1.070   0.496
 9817SOL    HW130350   2.603   1.053   0.400
 9817SOL    HW230351   2.663   1.049   0.552
 9818SOL     OW30352   0.272   6.788   2.313
 9818SOL    HW130353   0.335   6.859   2.343
 9818SOL    HW230354   0.322   6.706   2.287
 9819SOL     OW30355   6.377   1.878   4.537
 9819SOL    HW130356   6.460   1.835   4.502
 9819SOL    HW230357   6.370   1.972   4.505
 9820SOL     OW30358   3.905   0.925   6.155
 9820SOL    HW130359   3.840   0.996   6.126
 9820SOL    HW230360   3.887   0.901   6.250
 9821SOL     OW30361   4.435   3.233   0.198
 9821SOL    HW130362   4.464   3.245   0.293
 9821SOL    HW230363   4.376   3.310   0.172
 9822SOL     OW30364   3.400   4.960   4.297
 9822SOL    HW130365   3.436   4.892   4.234
 9822SOL    HW230366   3.457   5.043   4.293
 9823SOL     OW30367   4.100   6.896   3.413
 9823SOL    HW130368   4.138   6.919   3.502
 9823SOL    HW230369   4.013   6.944   3.400
 9824SOL     OW30370   1.190   5.811   5.198
 9824SOL    HW130371   1.125   5.749   5.155
 9824SOL    HW230372   1.171   5.817   5.296
 9825SOL     OW30373   0.785   6.103   5.039
 9825SOL    HW130374   0.838   6.123   5.122
 9825SOL    HW230375   0.784   6.004   5.023
 9826SOL     OW30376   1.598   5.780   6.609
 9826SOL    HW130377   1.680   5.750   6.658
 9826SOL    HW230378   1.626   5.829   6.526
 9827SOL     OW30379   1.829   4.803   1.444
 9827SOL    HW130380   1.843   4.717   1.394
 9827SOL    HW230381   1.891   4.872   1.407
 9828SOL     OW30382   4.850   2.222   4.377
 9828SOL    HW130383   4.826   2.159   4.451
 9828SOL    HW230384   4.932   2.189   4.330
 9829SOL     OW30385   5.324   4.661   5.711
 9829SOL    HW130386   5.413   4.687   5.674
 9829SOL    HW230387   5.305   4.565   5.689
 9830SOL     OW30388   6.308   1.255   3.529
 9830SOL    HW130389   6.284   1.254   3.626
 9830SOL    HW230390   6.408   1.256   3.519
 9831SOL     OW30391   6.872   5.038   1.836
 9831SOL    HW130392   6.948   4.974   1.841
 9831SOL    HW230393   6.906   5.127   1.806
 9832SOL     OW30394   4.806   6.346   4.917
 9832SOL    HW130395   4.769   6.355   4.825
 9832SOL    HW230396   4.905   6.341   4.914
 9833SOL     OW30397   3.886   3.113   4.870
 9833SOL    HW130398   3.876   3.064   4.783
 9833SOL    HW230399   3.795   3.133   4.907
 9834SOL     OW30400   2.874   5.902   6.015
 9834SOL    HW130401   2.806   5.923   5.944
 9834SOL    HW230402   2.952   5.856   5.973
 9835SOL     OW30403   3.793   3.287   3.877
 9835SOL    HW130404   3.777   3.297   3.779
 9835SOL    HW230405   3.757   3.198   3.908
 9836SOL     OW30406   6.637   3.207   5.147
 9836SOL    HW130407   6.727   3.244   5.171
 9836SOL    HW230408   6.600   3.256   5.069
 9837SOL     OW30409   7.003   0.838   3.492
 9837SOL    HW130410   6.913   0.815   3.529
 9837SOL    HW230411   0.035   0.892   3.559
 9838SOL     OW30412   0.284   5.386   0.810
 9838SOL    HW130413   0.198   5.437   0.806
 9838SOL    HW230414   0.313   5.378   0.906
 9839SOL     OW30415   4.309   6.493   3.403
 9839SOL    HW130416   4.360   6.528   3.325
 9839SOL    HW230417   4.296   6.566   3.470
 9840SOL     OW30418   6.360   1.890   6.942
 9840SOL    HW130419   6.300   1.915   6.867
 9840SOL    HW230420   6.321   1.813   6.992
 9841SOL     OW30421   0.369   6.151   2.150
 9841SOL    HW130422   0.381   6.141   2.249
 9841SOL    HW230423   0.277   6.124   2.124
 9842SOL     OW30424   4.206   0.453   0.463
 9842SOL    HW130425   4.218   0.371   0.520
 9842SOL    HW230426   4.259   0.528   0.502
 9843SOL     OW30427   0.386   0.319   0.472
 9843SOL    HW130428   0.485   0.323   0.483
 9843SOL    HW230429   0.357   0.389   0.406
 9844SOL     OW30430   4.998   0.546   4.928
 9844SOL    HW130431   4.992   0.448   4.908
 9844SOL    HW230432   5.090   0.579   4.908
 9845SOL     OW30433   1.006   3.652   2.264
 9845SOL    HW130434   1.044   3.670   2.173
 9845SOL    HW230435   1.080   3.636   2.329
 9846SOL     OW30436   5.380   2.042   2.411
 9846SOL    HW130437   5.465   2.003   2.446
 9846SOL    HW230438   5.385   2.142   2.414
 9847SOL     OW30439   3.939   4.529   6.717
 9847SOL    HW130440   3.857   4.578   6.688
 9847SOL    HW230441   3.940   4.521   6.816
 9848SOL     OW30442   2.892   4.100   5.603
 9848SOL    HW130443   2.842   4.185   5.621
 9848SOL    HW230444   2.893   4.083   5.504
 9849SOL     OW30445   2.095   2.257   2.922
 9849SOL    HW130446   2.117   2.303   3.008
 9849SOL    HW230447   2.137   2.308   2.846
 9850SOL     OW30448   1.130   0.328   4.512
 9850SOL    HW130449   1.185   0.393   4.460
 9850SOL    HW230450   1.049   0.374   4.548
 9851SOL     OW30451   3.427   5.163   3.717
 9851SOL    HW130452   3.371   5.089   3.677
 9851SOL    HW230453   3.394   5.183   3.809
 9852SOL     OW30454   2.244   6.795   0.186
 9852SOL    HW130455   2.233   6.795   0.087
 9852SOL    HW230456   2.182   6.862   0.227
 9853SOL     OW30457   0.325   4.335   3.783
 9853SOL    HW130458   0.326   4.428   3.748
 9853SOL    HW230459   0.251   4.324   3.849
 9854SOL     OW30460   6.320   3.213   6.778
 9854SOL    HW130461   6.234   3.247   6.739
 9854SOL    HW230462   6.375   3.169   6.707
 9855SOL     OW30463   0.983   5.671   6.995
 9855SOL    HW130464   0.964   5.662   0.074
 9855SOL    HW230465   1.068   5.721   6.982
 9856SOL     OW30466   5.320   3.713   3.234
 9856SOL    HW130467   5.308   3.794   3.176
 9856SOL    HW230468   5.414   3.711   3.268
 9857SOL     OW30469   5.071   0.600   6.279
 9857SOL    HW130470   5.090   0.504   6.301
 9857SOL    HW230471   5.084   0.656   6.361
 9858SOL     OW30472   6.809   5.679   2.402
 9858SOL    HW130473   6.868   5.646   2.476
 9858SOL    HW230474   6.822   5.622   2.321
 9859SOL     OW30475   0.777   5.006   2.435
 9859SOL    HW130476   0.854   5.058   2.397
 9859SOL    HW230477   0.692   5.055   2.418
 9860SOL     OW30478   1.748   3.442   3.808
 9860SOL    HW130479   1.731   3.503   3.885
 9860SOL    HW230480   1.686   3.465   3.733
 9861SOL     OW30481   3.353   1.738   3.666
 9861SOL    HW130482   3.450   1.732   3.642
 9861SOL    HW230483   3.308   1.805   3.607
 9862SOL     OW30484   1.782   2.919   6.631
 9862SOL    HW130485   1.728   2.838   6.608
 9862SOL    HW230486   1.749   2.997   6.578
 9863SOL     OW30487   4.082   6.497   1.947
 9863SOL    HW130488   4.085   6.401   1.974
 9863SOL    HW230489   4.108   6.505   1.851
 9864SOL     OW30490   2.885   6.142   5.476
 9864SOL    HW130491   2.951   6.183   5.414
 9864SOL    HW230492   2.822   6.083   5.425
 9865SOL     OW30493   2.271   5.967   5.873
 9865SOL    HW130494   2.245   5.871   5.885
 9865SOL    HW230495   2.228   6.022   5.945
 9866SOL     OW30496   6.820   5.194   6.478
 9866SOL    HW130497   6.767   5.169   6.397
 9866SOL    HW230498   6.834   5.293   6.480
 9867SOL     OW30499   4.674   1.257   2.325
 9867SOL    HW130500   4.645   1.264   2.229
 9867SOL    HW230501   4.597   1.279   2.384
 9868SOL     OW30502   2.241   4.702   2.993
 9868SOL    HW130503   2.275   4.609   3.008
 9868SOL    HW230504   2.282   4.763   3.060
 9869SOL     OW30505   6.240   2.619   3.123
 9869SOL    HW130506   6.158   2.562   3.122
 9869SOL    HW230507   6.319   2.563   3.146
 9870SOL     OW30508   2.160   2.552   2.985
 9870SOL    HW130509   2.101   2.537   2.906
 9870SOL    HW230510   2.127   2.496   3.062
 9871SOL     OW30511   5.806   6.058   3.068
 9871SOL    HW130512   5.770   5.985   3.126
 9871SOL    HW230513   5.856   6.123   3.124
 9872SOL     OW30514   0.979   6.597   5.676
 9872SOL    HW130515   0.995   6.649   5.760
 9872SOL    HW230516   1.066   6.578   5.631
 9873SOL     OW30517   0.353   0.611   5.237
 9873SOL    HW130518   0.339   0.656   5.149
 9873SOL    HW230519   0.433   0.552   5.231
 9874SOL     OW30520   0.233   1.887   3.452
 9874SOL    HW130521   0.206   1.885   3.548
 9874SOL    HW230522   0.152   1.901   3.394
 9875SOL     OW30523   6.289   5.946   0.720
 9875SOL    HW130524   6.361   5.974   0.657
 9875SOL    HW230525   6.314   5.974   0.813
 9876SOL     OW30526   0.322   6.967   3.492
 9876SOL    HW130527   0.359   6.915   3.415
 9876SOL    HW230528   0.387   0.019   3.518
 9877SOL     OW30529   1.340   6.243   5.081
 9877SOL    HW130530   1.437   6.239   5.107
 9877SOL    HW230531   1.330   6.211   4.986
 9878SOL     OW30532   3.995   2.751   6.993
 9878SOL    HW130533   3.944   2.798   0.046
 9878SOL    HW230534   4.057   2.815   6.948
 9879SOL     OW30535   5.561   5.996   4.435
 9879SOL    HW130536   5.647   6.024   4.477
 9879SOL    HW230537   5.558   6.030   4.340
 9880SOL     OW30538   3.742   1.175   1.080
 9880SOL    HW130539   3.671   1.244   1.068
 9880SOL    HW230540   3.832   1.217   1.069
 9881SOL     OW30541   6.539   0.180   3.388
 9881SOL    HW130542   6.615   0.204   3.448
 9881SOL    HW230543   6.512   0.260   3.334
 9882SOL     OW30544   3.474   3.208   4.491
 9882SOL    HW130545   3.497   3.222   4.394
 9882SOL    HW230546   3.394   3.264   4.514
 9883SOL     OW30547   1.723   6.105   2.734
 9883SOL    HW130548   1.734   6.010   2.765
 9883SOL    HW230549   1.803   6.132   2.681
 9884SOL     OW30550   3.308   2.502   5.417
 9884SOL    HW130551   3.255   2.469   5.339
 9884SOL    HW230552   3.261   2.579   5.460
 9885SOL     OW30553   4.755   2.268   5.381
 9885SOL    HW130554   4.664   2.290   5.347
 9885SOL    HW230555   4.756   2.272   5.481
 9886SOL     OW30556   2.549   6.526   1.400
 9886SOL    HW130557   2.554   6.451   1.334
 9886SOL    HW230558   2.586   6.610   1.358
 9887SOL     OW30559   3.882   0.945   6.987
 9887SOL    HW130560   3.792   0.916   6.956
 9887SOL    HW230561   3.946   0.941   6.910
 9888SOL     OW30562   6.524   6.326   3.655
 9888SOL    HW130563   6.504   6.397   3.588
 9888SOL    HW230564   6.535   6.368   3.745
 9889SOL     OW30565   6.109   6.189   2.068
 9889SOL    HW130566   6.064   6.251   2.132
 9889SOL    HW230567   6.140   6.107   2.116
 9890SOL     OW30568   1.915   3.071   2.799
 9890SOL    HW130569   1.836   3.102   2.852
 9890SOL    HW230570   1.976   3.148   2.781
 9891SOL     OW30571   4.190   6.515   1.702
 9891SOL    HW130572   4.278   6.556   1.679
 9891SOL    HW230573   4.124   6.532   1.629
 9892SOL     OW30574   1.729   6.145   3.270
 9892SOL    HW130575   1.694   6.202   3.195
 9892SOL    HW230576   1.754   6.055   3.234
 9893SOL     OW30577   5.719   4.545   5.429
 9893SOL    HW130578   5.702   4.456   5.471
 9893SOL    HW230579   5.752   4.531   5.336
 9894SOL     OW30580   4.150   3.994   5.881
 9894SOL    HW130581   4.058   3.963   5.906
 9894SOL    HW230582   4.144   4.061   5.807
 9895SOL     OW30583   5.354   2.071   6.147
 9895SOL    HW130584   5.373   2.096   6.052
 9895SOL    HW230585   5.421   2.114   6.208
 9896SOL     OW30586   4.039   4.008   0.255
 9896SOL    HW130587   3.990   4.095   0.261
 9896SOL    HW230588   3.996   3.941   0.316
 9897SOL     OW30589   1.089   1.375   2.781
 9897SOL    HW130590   0.996   1.407   2.765
 9897SOL    HW230591   1.088   1.297   2.844
 9898SOL     OW30592   0.548   5.138   0.520
 9898SOL    HW130593   0.518   5.133   0.425
 9898SOL    HW230594   0.633   5.087   0.531
 9899SOL     OW30595   3.989   5.314   2.362
 9899SOL    HW130596   4.035   5.400   2.382
 9899SOL    HW230597   3.913   5.331   2.299
 9900SOL     OW30598   2.252   5.000   4.190
 9900SOL    HW130599   2.345   5.007   4.154
 9900SOL    HW230600   2.248   4.929   4.260
 9901SOL     OW30601   2.707   1.548   5.809
 9901SOL    HW130602   2.768   1.619   5.843
 9901SOL    HW230603   2.732   1.460   5.850
 9902SOL     OW30604   3.962   3.944   6.961
 9902SOL    HW130605   3.909   3.863   6.982
 9902SOL    HW230606   3.980   3.948   6.862
 9903SOL     OW30607   3.004   1.253   1.223
 9903SOL    HW130608   3.025   1.271   1.319
 9903SOL    HW230609   3.084   1.216   1.177
 9904SOL     OW30610   6.816   6.419   2.360
 9904SOL    HW130611   6.780   6.496   2.413
 9904SOL    HW230612   6.760   6.338   2.377
 9905SOL     OW30613   2.397   0.156   6.323
 9905SOL    HW130614   2.424   0.073   6.371
 9905SOL    HW230615   2.471   0.224   6.327
 9906SOL     OW30616   3.220   4.604   6.121
 9906SOL    HW130617   3.160   4.568   6.192
 9906SOL    HW230618   3.283   4.532   6.090
 9907SOL     OW30619   0.791   6.541   3.122
 9907SOL    HW130620   0.821   6.566   3.030
 9907SOL    HW230621   0.777   6.443   3.127
 9908SOL     OW30622   6.706   2.807   5.335
 9908SOL    HW130623   6.749   2.822   5.424
 9908SOL    HW230624   6.764   2.748   5.279
 9909SOL     OW30625   2.570   0.023   2.711
 9909SOL    HW130626   2.474   0.005   2.692
 9909SOL    HW230627   2.580   0.117   2.746
 9910SOL     OW30628   0.743   5.788   0.317
 9910SOL    HW130629   0.679   5.715   0.291
 9910SOL    HW230630   0.700   5.877   0.303
 9911SOL     OW30631   3.723   4.838   2.496
 9911SOL    HW130632   3.720   4.806   2.401
 9911SOL    HW230633   3.639   4.887   2.517
 9912SOL     OW30634   5.930   6.486   0.289
 9912SOL    HW130635   5.967   6.444   0.372
 9912SOL    HW230636   5.895   6.577   0.311
 9913SOL     OW30637   5.189   2.374   3.069
 9913SOL    HW130638   5.161   2.455   3.016
 9913SOL    HW230639   5.154   2.292   3.024
 9914SOL     OW30640   2.328   5.452   4.121
 9914SOL    HW130641   2.410   5.509   4.119
 9914SOL    HW230642   2.307   5.427   4.215
 9915SOL     OW30643   5.950   4.449   4.422
 9915SOL    HW130644   5.929   4.515   4.350
 9915SOL    HW230645   6.048   4.427   4.420
 9916SOL     OW30646   2.120   3.624   0.386
 9916SOL    HW130647   2.064   3.562   0.332
 9916SOL    HW230648   2.122   3.593   0.481
 9917SOL     OW30649   2.225   3.084   4.121
 9917SOL    HW130650   2.256   3.085   4.026
 9917SOL    HW230651   2.262   3.003   4.167
 9918SOL     OW30652   2.221   0.916   4.413
 9918SOL    HW130653   2.159   0.883   4.484
 9918SOL    HW230654   2.170   0.932   4.329
 9919SOL     OW30655   0.866   5.269   1.327
 9919SOL    HW130656   0.948   5.312   1.365
 9919SOL    HW230657   0.793   5.337   1.320
 9920SOL     OW30658   3.791   0.303   3.078
 9920SOL    HW130659   3.744   0.300   3.166
 9920SOL    HW230660   3.737   0.358   3.013
 9921SOL     OW30661   4.556   0.937   2.140
 9921SOL    HW130662   4.482   0.968   2.199
 9921SOL    HW230663   4.615   1.015   2.116
 9922SOL     OW30664   5.296   2.648   2.219
 9922SOL    HW130665   5.356   2.684   2.147
 9922SOL    HW230666   5.201   2.662   2.193
 9923SOL     OW30667   6.406   0.446   6.577
 9923SOL    HW130668   6.343   0.519   6.603
 9923SOL    HW230669   6.424   0.387   6.655
 9924SOL     OW30670   5.237   1.499   4.006
 9924SOL    HW130671   5.336   1.509   4.012
 9924SOL    HW230672   5.205   1.442   4.081
 9925SOL     OW30673   3.961   2.109   5.098
 9925SOL    HW130674   3.936   2.149   5.186
 9925SOL    HW230675   3.878   2.085   5.047
 9926SOL     OW30676   2.225   1.485   5.924
 9926SOL    HW130677   2.228   1.405   5.865
 9926SOL    HW230678   2.149   1.544   5.898
 9927SOL     OW30679   1.149   3.766   3.505
 9927SOL    HW130680   1.177   3.691   3.565
 9927SOL    HW230681   1.227   3.828   3.490
 9928SOL     OW30682   6.932   2.710   2.130
 9928SOL    HW130683   0.002   2.702   2.176
 9928SOL    HW230684   6.941   2.683   2.034
 9929SOL     OW30685   1.482   5.350   5.746
 9929SOL    HW130686   1.414   5.363   5.674
 9929SOL    HW230687   1.457   5.270   5.801
 9930SOL     OW30688   6.456   5.323   6.551
 9930SOL    HW130689   6.542   5.340   6.599
 9930SOL    HW230690   6.387   5.291   6.616
 9931SOL     OW30691   2.341   4.299   0.012
 9931SOL    HW130692   2.401   4.377   7.013
 9931SOL    HW230693   2.365   4.224   6.970
 9932SOL     OW30694   2.035   2.545   1.392
 9932SOL    HW130695   2.013   2.447   1.396
 9932SOL    HW230696   2.004   2.589   1.476
 9933SOL     OW30697   0.837   1.576   3.409
 9933SOL    HW130698   0.926   1.555   3.450
 9933SOL    HW230699   0.849   1.640   3.334
 9934SOL     OW30700   4.950   0.936   6.305
 9934SOL    HW130701   4.914   0.878   6.378
 9934SOL    HW230702   4.880   1.002   6.277
 9935SOL     OW30703   2.560   3.312   0.432
 9935SOL    HW130704   2.581   3.252   0.355
 9935SOL    HW230705   2.525   3.399   0.398
 9936SOL     OW30706   5.272   6.487   6.805
 9936SOL    HW130707   5.329   6.566   6.779
 9936SOL    HW230708   5.209   6.465   6.731
 9937SOL     OW30709   1.565   6.738   4.237
 9937SOL    HW130710   1.554   6.790   4.322
 9937SOL    HW230711   1.588   6.643   4.259
 9938SOL     OW30712   6.837   1.385   2.884
 9938SOL    HW130713   6.832   1.459   2.950
 9938SOL    HW230714   6.747   1.373   2.842
 9939SOL     OW30715   2.964   3.776   1.389
 9939SOL    HW130716   3.031   3.711   1.353
 9939SOL    HW230717   3.011   3.847   1.441
 9940SOL     OW30718   0.435   1.075   3.094
 9940SOL    HW130719   0.492   1.148   3.135
 9940SOL    HW230720   0.465   0.987   3.130
 9941SOL     OW30721   6.020   3.075   0.583
 9941SOL    HW130722   6.039   3.173   0.593
 9941SOL    HW230723   6.066   3.025   0.657
 9942SOL     OW30724   6.118   5.593   2.699
 9942SOL    HW130725   6.201   5.605   2.644
 9942SOL    HW230726   6.044   5.648   2.660
 9943SOL     OW30727   1.187   4.435   5.506
 9943SOL    HW130728   1.214   4.339   5.501
 9943SOL    HW230729   1.268   4.493   5.500
 9944SOL     OW30730   2.448   5.634   6.972
 9944SOL    HW130731   2.484   5.564   6.911
 9944SOL    HW230732   2.523   5.690   7.006
 9945SOL     OW30733   6.475   3.244   5.878
 9945SOL    HW130734   6.413   3.173   5.844
 9945SOL    HW230735   6.428   3.300   5.946
 9946SOL     OW30736   5.665   2.110   1.872
 9946SOL    HW130737   5.736   2.072   1.813
 9946SOL    HW230738   5.611   2.035   1.912
 9947SOL     OW30739   0.924   0.418   3.233
 9947SOL    HW130740   0.943   0.492   3.168
 9947SOL    HW230741   0.831   0.385   3.220
 9948SOL     OW30742   5.918   0.982   5.431
 9948SOL    HW130743   5.932   0.883   5.432
 9948SOL    HW230744   5.903   1.013   5.337
 9949SOL     OW30745   6.710   3.288   2.754
 9949SOL    HW130746   6.626   3.301   2.700
 9949SOL    HW230747   6.685   3.264   2.848
 9950SOL     OW30748   4.628   5.310   6.021
 9950SOL    HW130749   4.727   5.304   6.038
 9950SOL    HW230750   4.603   5.405   6.002
 9951SOL     OW30751   6.905   2.198   2.792
 9951SOL    HW130752   6.929   2.201   2.695
 9951SOL    HW230753   6.936   2.112   2.833
 9952SOL     OW30754   1.355   4.605   1.384
 9952SOL    HW130755   1.336   4.694   1.425
 9952SOL    HW230756   1.422   4.557   1.440
 9953SOL     OW30757   5.977   4.631   4.844
 9953SOL    HW130758   5.971   4.709   4.781
 9953SOL    HW230759   6.029   4.557   4.801
 9954SOL     OW30760   4.566   1.396   1.473
 9954SOL    HW130761   4.621   1.325   1.518
 9954SOL    HW230762   4.522   1.357   1.392
 9955SOL     OW30763   5.994   4.881   0.869
 9955SOL    HW130764   5.963   4.796   0.911
 9955SOL    HW230765   6.026   4.943   0.940
 9956SOL     OW30766   1.369   3.939   3.538
 9956SOL    HW130767   1.371   4.008   3.465
 9956SOL    HW230768   1.461   3.928   3.576
 9957SOL     OW30769   5.826   6.743   0.378
 9957SOL    HW130770   5.751   6.775   0.435
 9957SOL    HW230771   5.833   6.800   0.296
 9958SOL     OW30772   6.038   6.321   5.805
 9958SOL    HW130773   6.134   6.307   5.831
 9958SOL    HW230774   6.029   6.407   5.755
 9959SOL     OW30775   5.763   5.252   6.784
 9959SOL    HW130776   5.757   5.223   6.688
 9959SOL    HW230777   5.856   5.239   6.818
 9960SOL     OW30778   6.981   0.261   6.649
 9960SOL    HW130779   0.040   0.203   6.627
 9960SOL    HW230780   6.958   0.317   6.570
 9961SOL     OW30781   3.436   0.353   0.572
 9961SOL    HW130782   3.408   0.264   0.537
 9961SOL    HW230783   3.360   0.418   0.562
 9962SOL     OW30784   3.366   0.285   1.263
 9962SOL    HW130785   3.315   0.358   1.308
 9962SOL    HW230786   3.304   0.232   1.205
 9963SOL     OW30787   1.453   0.369   6.701
 9963SOL    HW130788   1.377   0.376   6.765
 9963SOL    HW230789   1.539   0.365   6.752
 9964SOL     OW30790   4.631   5.503   5.400
 9964SOL    HW130791   4.547   5.451   5.417
 9964SOL    HW230792   4.638   5.577   5.467
 9965SOL     OW30793   2.221   4.796   4.378
 9965SOL    HW130794   2.312   4.802   4.419
 9965SOL    HW230795   2.201   4.701   4.355
 9966SOL     OW30796   2.620   5.504   2.349
 9966SOL    HW130797   2.634   5.579   2.284
 9966SOL    HW230798   2.525   5.472   2.341
 9967SOL     OW30799   0.184   0.621   2.507
 9967SOL    HW130800   0.148   0.546   2.562
 9967SOL    HW230801   0.113   0.654   2.446
 9968SOL     OW30802   4.618   6.521   0.080
 9968SOL    HW130803   4.705   6.478   0.055
 9968SOL    HW230804   4.588   6.486   0.169
 9969SOL     OW30805   0.235   5.894   2.753
 9969SOL    HW130806   0.254   5.987   2.782
 9969SOL    HW230807   0.266   5.830   2.824
 9970SOL     OW30808   0.043   3.271   1.819
 9970SOL    HW130809   0.141   3.251   1.812
 9970SOL    HW230810   0.012   3.317   1.736
 9971SOL     OW30811   0.052   5.375   5.574
 9971SOL    HW130812   6.990   5.376   5.515
 9971SOL    HW230813   0.104   5.459   5.560
 9972SOL     OW30814   3.082   4.862   6.125
 9972SOL    HW130815   3.022   4.782   6.122
 9972SOL    HW230816   3.174   4.837   6.096
 9973SOL     OW30817   3.021   2.207   3.092
 9973SOL    HW130818   2.928   2.245   3.093
 9973SOL    HW230819   3.068   2.233   3.175
 9974SOL     OW30820   0.974   2.935   2.949
 9974SOL    HW130821   1.018   2.893   3.028
 9974SOL    HW230822   1.042   2.983   2.894
 9975SOL     OW30823   1.805   3.842   6.829
 9975SOL    HW130824   1.777   3.894   6.748
 9975SOL    HW230825   1.760   3.880   6.910
 9976SOL     OW30826   3.827   6.220   5.532
 9976SOL    HW130827   3.856   6.125   5.543
 9976SOL    HW230828   3.773   6.248   5.611
 9977SOL     OW30829   4.319   0.322   5.434
 9977SOL    HW130830   4.367   0.234   5.438
 9977SOL    HW230831   4.223   0.309   5.459
 9978SOL     OW30832   6.677   2.894   0.275
 9978SOL    HW130833   6.642   2.941   0.356
 9978SOL    HW230834   6.621   2.918   0.195
 9979SOL     OW30835   3.846   3.872   3.949
 9979SOL    HW130836   3.838   3.951   4.009
 9979SOL    HW230837   3.800   3.891   3.862
 9980SOL     OW30838   0.328   0.117   0.225
 9980SOL    HW130839   0.354   0.024   0.252
 9980SOL    HW230840   0.335   0.177   0.305
 9981SOL     OW30841   5.814   1.051   0.227
 9981SOL    HW130842   5.905   1.010   0.222
 9981SOL    HW230843   5.766   1.015   0.308
 9982SOL     OW30844   2.864   2.258   4.363
 9982SOL    HW130845   2.914   2.252   4.276
 9982SOL    HW230846   2.833   2.166   4.389
 9983SOL     OW30847   0.167   2.750   2.212
 9983SOL    HW130848   0.194   2.695   2.291
 9983SOL    HW230849   0.238   2.745   2.141
 9984SOL     OW30850   0.989   4.626   1.014
 9984SOL    HW130851   1.087   4.639   0.999
 9984SOL    HW230852   0.966   4.529   1.008
 9985SOL     OW30853   5.148   4.438   0.002
 9985SOL    HW130854   5.199   4.367   6.972
 9985SOL    HW230855   5.051   4.414   0.004
 9986SOL     OW30856   5.340   4.666   6.604
 9986SOL    HW130857   5.249   4.626   6.594
 9986SOL    HW230858   5.400   4.630   6.533
 9987SOL     OW30859   4.596   2.203   0.724
 9987SOL    HW130860   4.606   2.302   0.713
 9987SOL    HW230861   4.662   2.170   0.793
 9988SOL     OW30862   6.012   6.793   3.387
 9988SOL    HW130863   5.915   6.802   3.364
 9988SOL    HW230864   6.048   6.881   3.419
 9989SOL     OW30865   5.684   5.981   1.620
 9989SOL    HW130866   5.697   6.044   1.543
 9989SOL    HW230867   5.603   5.925   1.603
 9990SOL     OW30868   0.594   5.930   2.930
 9990SOL    HW130869   0.618   5.929   3.027
 9990SOL    HW230870   0.585   5.836   2.896
 9991SOL     OW30871   1.776   4.114   1.656
 9991SOL    HW130872   1.701   4.089   1.717
 9991SOL    HW230873   1.828   4.189   1.696
 9992SOL     OW30874   2.435   4.957   6.677
 9992SOL    HW130875   2.506   4.920   6.617
 9992SOL    HW230876   2.353   4.978   6.623
 9993SOL     OW30877   3.959   0.047   4.961
 9993SOL    HW130878   3.983   6.974   4.931
 9993SOL    HW230879   3.860   0.058   4.961
 9994SOL     OW30880   5.956   5.157   4.624
 9994SOL    HW130881   5.894   5.235   4.620
 9994SOL    HW230882   5.955   5.119   4.717
 9995SOL     OW30883   4.337   1.394   6.310
 9995SOL    HW130884   4.284   1.453   6.370
 9995SOL    HW230885   4.423   1.369   6.355
 9996SOL     OW30886   2.564   5.133   0.945
 9996SOL    HW130887   2.536   5.136   1.041
 9996SOL    HW230888   2.484   5.112   0.888
 9997SOL     OW30889   6.292   1.005   2.990
 9997SOL    HW130890   6.278   1.061   3.072
 9997SOL    HW230891   6.389   1.004   2.967
 9998SOL     OW30892   5.511   3.592   2.719
 9998SOL    HW130893   5.432   3.593   2.659
 9998SOL    HW230894   5.486   3.631   2.808
 9999SOL     OW30895   0.684   6.740   4.966
 9999SOL    HW130896   0.754   6.801   4.928
 9999SOL    HW230897   0.597   6.790   4.974
10000SOL     OW30898   4.710   2.529   1.229
10000SOL    HW130899   4.637   2.469   1.197
10000SOL    HW230900   4.682   2.625   1.218
10001SOL     OW30901   3.983   6.608   1.509
10001SOL    HW130902   4.053   6.633   1.443
10001SOL    HW230903   3.909   6.675   1.508
10002SOL     OW30904   2.114   6.448   2.448
10002SOL    HW130905   2.019   6.478   2.458
10002SOL    HW230906   2.140   6.391   2.525
10003SOL     OW30907   1.194   0.743   2.139
10003SOL    HW130908   1.241   0.826   2.110
10003SOL    HW230909   1.118   0.724   2.077
10004SOL     OW30910   6.893   3.422   3.775
10004SOL    HW130911   6.820   3.464   3.829
10004SOL    HW230912   6.905   3.473   3.689
10005SOL     OW30913   2.416   5.333   2.843
10005SOL    HW130914   2.508   5.297   2.825
10005SOL    HW230915   2.373   5.279   2.916
10006SOL     OW30916   5.552   2.162   5.657
10006SOL    HW130917   5.522   2.078   5.612
10006SOL    HW230918   5.583   2.228   5.589
10007SOL     OW30919   1.634   5.121   3.882
10007SOL    HW130920   1.661   5.027   3.899
10007SOL    HW230921   1.623   5.136   3.784
10008SOL     OW30922   4.351   0.774   5.668
10008SOL    HW130923   4.327   0.854   5.614
10008SOL    HW230924   4.382   0.701   5.608
10009SOL     OW30925   0.978   4.940   1.849
10009SOL    HW130926   0.952   4.898   1.763
10009SOL    HW230927   0.898   4.947   1.909
10010SOL     OW30928   2.054   4.631   0.857
10010SOL    HW130929   2.006   4.586   0.933
10010SOL    HW230930   2.022   4.593   0.770
10011SOL     OW30931   3.321   3.453   0.295
10011SOL    HW130932   3.310   3.355   0.314
10011SOL    HW230933   3.392   3.491   0.354
10012SOL     OW30934   5.577   2.268   3.723
10012SOL    HW130935   5.639   2.207   3.674
10012SOL    HW230936   5.506   2.214   3.770
10013SOL     OW30937   0.810   6.385   4.946
10013SOL    HW130938   0.738   6.428   4.892
10013SOL    HW230939   0.806   6.285   4.934
10014SOL     OW30940   1.140   1.143   3.552
10014SOL    HW130941   1.062   1.110   3.499
10014SOL    HW230942   1.118   1.143   3.649
10015SOL     OW30943   4.321   0.047   6.634
10015SOL    HW130944   4.353   7.016   6.714
10015SOL    HW230945   4.351   7.018   6.551
10016SOL     OW30946   3.223   0.811   4.439
10016SOL    HW130947   3.241   0.842   4.532
10016SOL    HW230948   3.142   0.857   4.403
10017SOL     OW30949   3.202   1.477   2.904
10017SOL    HW130950   3.200   1.472   2.804
10017SOL    HW230951   3.292   1.510   2.934
10018SOL     OW30952   6.917   4.704   5.173
10018SOL    HW130953   6.909   4.731   5.269
10018SOL    HW230954   6.835   4.732   5.123
10019SOL     OW30955   6.799   2.024   2.348
10019SOL    HW130956   6.781   1.959   2.274
10019SOL    HW230957   6.893   2.013   2.379
10020SOL     OW30958   6.211   0.757   2.184
10020SOL    HW130959   6.241   0.850   2.161
10020SOL    HW230960   6.160   0.719   2.107
10021SOL     OW30961   1.067   3.718   1.578
10021SOL    HW130962   0.988   3.778   1.588
10021SOL    HW230963   1.058   3.640   1.639
10022SOL     OW30964   1.521   6.364   5.879
10022SOL    HW130965   1.536   6.316   5.792
10022SOL    HW230966   1.465   6.308   5.939
10023SOL     OW30967   0.533   1.688   5.927
10023SOL    HW130968   0.631   1.683   5.908
10023SOL    HW230969   0.482   1.647   5.852
10024SOL     OW30970   2.046   4.447   3.339
10024SOL    HW130971   2.110   4.378   3.306
10024SOL    HW230972   2.070   4.473   3.433
10025SOL     OW30973   0.704   2.612   1.400
10025SOL    HW130974   0.636   2.683   1.379
10025SOL    HW230975   0.668   2.551   1.470
10026SOL     OW30976   6.311   1.069   4.956
10026SOL    HW130977   6.290   1.141   5.024
10026SOL    HW230978   6.285   0.980   4.994
10027SOL     OW30979   3.531   1.230   5.229
10027SOL    HW130980   3.451   1.269   5.184
10027SOL    HW230981   3.518   1.132   5.242
10028SOL     OW30982   3.751   0.122   2.290
10028SOL    HW130983   3.842   0.115   2.249
10028SOL    HW230984   3.737   0.046   2.354
10029SOL     OW30985   6.677   4.273   3.688
10029SOL    HW130986   6.776   4.281   3.693
10029SOL    HW230987   6.640   4.253   3.779
10030SOL     OW30988   2.107   6.984   4.402
10030SOL    HW130989   2.094   0.056   4.364
10030SOL    HW230990   2.038   6.921   4.365
10031SOL     OW30991   1.879   6.185   3.639
10031SOL    HW130992   1.927   6.265   3.603
10031SOL    HW230993   1.785   6.185   3.605
10032SOL     OW30994   3.209   5.708   4.023
10032SOL    HW130995   3.245   5.724   3.931
10032SOL    HW230996   3.161   5.789   4.056
10033SOL     OW30997   2.841   1.237   5.294
10033SOL    HW130998   2.746   1.225   5.265
10033SOL    HW230999   2.847   1.314   5.357
10034SOL     OW31000   2.578   1.137   2.067
10034SOL    HW131001   2.669   1.115   2.101
10034SOL    HW231002   2.516   1.060   2.082
10035SOL     OW31003   6.918   3.074   2.727
10035SOL    HW131004   6.861   3.156   2.742
10035SOL    HW231005   6.861   3.001   2.689
10036SOL     OW31006   0.925   0.662   6.862
10036SOL    HW131007   0.989   0.692   6.932
10036SOL    HW231008   0.865   0.739   6.837
10037SOL     OW31009   5.820   0.052   5.878
10037SOL    HW131010   5.730   0.083   5.908
10037SOL    HW231011   5.891   0.108   5.922
10038SOL     OW31012   5.108   6.469   6.529
10038SOL    HW131013   5.142   6.375   6.516
10038SOL    HW231014   5.012   6.467   6.556
10039SOL     OW31015   0.075   5.719   1.847
10039SOL    HW131016   0.115   5.708   1.938
10039SOL    HW231017   7.013   5.778   1.854
10040SOL     OW31018   2.618   0.262   0.409
10040SOL    HW131019   2.582   0.323   0.338
10040SOL    HW231020   2.717   0.251   0.396
10041SOL     OW31021   5.775   5.360   5.171
10041SOL    HW131022   5.868   5.393   5.191
10041SOL    HW231023   5.765   5.266   5.203
10042SOL     OW31024   6.787   0.607   5.434
10042SOL    HW131025   6.747   0.683   5.485
10042SOL    HW231026   6.872   0.578   5.478
10043SOL     OW31027   0.597   0.547   2.876
10043SOL    HW131028   0.509   0.565   2.918
10043SOL    HW231029   0.606   0.601   2.792
10044SOL     OW31030   2.971   2.108   6.953
10044SOL    HW131031   2.889   2.154   6.918
10044SOL    HW231032   3.028   2.079   6.876
10045SOL     OW31033   3.685   6.543   4.337
10045SOL    HW131034   3.701   6.507   4.428
10045SOL    HW231035   3.589   6.572   4.329
10046SOL     OW31036   6.782   2.068   1.832
10046SOL    HW131037   6.797   2.075   1.734
10046SOL    HW231038   6.800   1.973   1.861
10047SOL     OW31039   1.066   2.294   3.127
10047SOL    HW131040   1.044   2.204   3.091
10047SOL    HW231041   1.126   2.285   3.206
10048SOL     OW31042   3.686   2.470   1.639
10048SOL    HW131043   3.716   2.562   1.664
10048SOL    HW231044   3.679   2.414   1.721
10049SOL     OW31045   1.884   6.443   4.544
10049SOL    HW131046   1.941   6.412   4.468
10049SOL    HW231047   1.841   6.530   4.521
10050SOL     OW31048   5.904   1.302   5.118
10050SOL    HW131049   5.891   1.394   5.155
10050SOL    HW231050   5.987   1.299   5.062
10051SOL     OW31051   6.247   2.596   0.406
10051SOL    HW131052   6.323   2.617   0.468
10051SOL    HW231053   6.261   2.506   0.365
10052SOL     OW31054   1.638   4.857   1.232
10052SOL    HW131055   1.702   4.836   1.159
10052SOL    HW231056   1.688   4.867   1.318
10053SOL     OW31057   3.135   6.574   3.335
10053SOL    HW131058   3.138   6.578   3.434
10053SOL    HW231059   3.192   6.648   3.297
10054SOL     OW31060   4.344   5.497   3.817
10054SOL    HW131061   4.265   5.538   3.862
10054SOL    HW231062   4.325   5.400   3.800
10055SOL     OW31063   5.936   2.884   6.715
10055SOL    HW131064   5.892   2.954   6.772
10055SOL    HW231065   5.924   2.907   6.618
10056SOL     OW31066   5.841   4.427   2.270
10056SOL    HW131067   5.861   4.368   2.348
10056SOL    HW231068   5.789   4.507   2.301
10057SOL     OW31069   2.436   2.079   3.626
10057SOL    HW131070   2.458   2.160   3.681
10057SOL    HW231071   2.460   2.095   3.531
10058SOL     OW31072   1.042   4.886   3.765
10058SOL    HW131073   1.140   4.895   3.785
10058SOL    HW231074   1.030   4.835   3.679
10059SOL     OW31075   5.486   0.558   1.394
10059SOL    HW131076   5.521   0.534   1.485
10059SOL    HW231077   5.547   0.626   1.353
10060SOL     OW31078   2.210   2.556   2.143
10060SOL    HW131079   2.255   2.596   2.223
10060SOL    HW231080   2.242   2.601   2.060
10061SOL     OW31081   6.399   1.896   4.809
10061SOL    HW131082   6.474   1.953   4.842
10061SOL    HW231083   6.402   1.891   4.709
10062SOL     OW31084   5.294   5.798   2.949
10062SOL    HW131085   5.331   5.825   3.038
10062SOL    HW231086   5.254   5.878   2.904
10063SOL     OW31087   0.722   2.715   2.368
10063SOL    HW131088   0.686   2.635   2.319
10063SOL    HW231089   0.660   2.738   2.443
10064SOL     OW31090   5.349   5.726   5.424
10064SOL    HW131091   5.381   5.753   5.333
10064SOL    HW231092   5.412   5.763   5.493
10065SOL     OW31093   0.959   6.691   3.296
10065SOL    HW131094   1.050   6.713   3.261
10065SOL    HW231095   0.913   6.631   3.230
10066SOL     OW31096   0.640   0.559   3.315
10066SOL    HW131097   0.704   0.633   3.335
10066SOL    HW231098   0.623   0.507   3.398
10067SOL     OW31099   4.876   6.680   3.562
10067SOL    HW131100   4.887   6.680   3.462
10067SOL    HW231101   4.943   6.742   3.602
10068SOL     OW31102   4.956   3.650   5.714
10068SOL    HW131103   4.984   3.672   5.808
10068SOL    HW231104   4.867   3.691   5.695
10069SOL     OW31105   4.878   1.135   3.798
10069SOL    HW131106   4.834   1.080   3.869
10069SOL    HW231107   4.897   1.226   3.834
10070SOL     OW31108   1.324   6.930   4.648
10070SOL    HW131109   1.278   6.862   4.590
10070SOL    HW231110   1.259   7.002   4.672
10071SOL     OW31111   4.936   4.897   5.124
10071SOL    HW131112   4.919   4.995   5.135
10071SOL    HW231113   5.010   4.884   5.059
10072SOL     OW31114   1.353   6.971   4.081
10072SOL    HW131115   1.343   0.051   4.076
10072SOL    HW231116   1.430   6.948   4.141
10073SOL     OW31117   6.812   5.478   6.459
10073SOL    HW131118   6.772   5.522   6.539
10073SOL    HW231119   6.748   5.482   6.383
10074SOL     OW31120   2.599   7.006   5.665
10074SOL    HW131121   2.691   6.969   5.657
10074SOL    HW231122   2.534   6.943   5.622
10075SOL     OW31123   1.294   2.319   3.884
10075SOL    HW131124   1.261   2.411   3.862
10075SOL    HW231125   1.346   2.321   3.969
10076SOL     OW31126   5.856   0.282   3.938
10076SOL    HW131127   5.803   0.336   3.873
10076SOL    HW231128   5.895   0.343   4.008
10077SOL     OW31129   2.747   1.269   6.937
10077SOL    HW131130   2.777   1.359   6.904
10077SOL    HW231131   2.817   1.231   6.997
10078SOL     OW31132   5.478   5.865   5.596
10078SOL    HW131133   5.416   5.901   5.667
10078SOL    HW231134   5.560   5.922   5.592
10079SOL     OW31135   6.775   2.601   6.061
10079SOL    HW131136   6.759   2.639   6.152
10079SOL    HW231137   6.777   2.502   6.066
10080SOL     OW31138   1.291   2.593   5.525
10080SOL    HW131139   1.336   2.503   5.527
10080SOL    HW231140   1.261   2.613   5.432
10081SOL     OW31141   0.234   1.323   0.323
10081SOL    HW131142   0.228   1.244   0.384
10081SOL    HW231143   0.272   1.294   0.235
10082SOL     OW31144   0.112   0.297   0.574
10082SOL    HW131145   0.197   0.308   0.523
10082SOL    HW231146   0.034   0.310   0.513
10083SOL     OW31147   5.249   1.233   4.779
10083SOL    HW131148   5.169   1.213   4.836
10083SOL    HW231149   5.270   1.153   4.722
10084SOL     OW31150   2.342   1.280   6.572
10084SOL    HW131151   2.422   1.227   6.542
10084SOL    HW231152   2.290   1.311   6.492
10085SOL     OW31153   0.675   5.378   2.483
10085SOL    HW131154   0.734   5.313   2.435
10085SOL    HW231155   0.689   5.470   2.445
10086SOL     OW31156   6.779   3.511   2.453
10086SOL    HW131157   6.748   3.423   2.415
10086SOL    HW231158   6.879   3.513   2.451
10087SOL     OW31159   1.692   0.061   4.001
10087SOL    HW131160   1.639   0.091   4.081
10087SOL    HW231161   1.767   0.125   3.985
10088SOL     OW31162   6.785   0.705   4.937
10088SOL    HW131163   6.717   0.632   4.933
10088SOL    HW231164   6.784   0.747   5.027
10089SOL     OW31165   1.830   2.700   2.454
10089SOL    HW131166   1.804   2.617   2.505
10089SOL    HW231167   1.862   2.675   2.363
10090SOL     OW31168   7.010   4.619   1.739
10090SOL    HW131169   0.026   4.653   1.826
10090SOL    HW231170   6.965   4.531   1.753
10091SOL     OW31171   0.570   2.261   3.978
10091SOL    HW131172   0.668   2.258   3.956
10091SOL    HW231173   0.520   2.201   3.916
10092SOL     OW31174   1.954   2.950   4.939
10092SOL    HW131175   1.901   2.956   4.854
10092SOL    HW231176   1.962   2.854   4.966
10093SOL     OW31177   0.347   5.777   6.422
10093SOL    HW131178   0.281   5.704   6.411
10093SOL    HW231179   0.302   5.866   6.412
10094SOL     OW31180   1.414   1.299   1.946
10094SOL    HW131181   1.401   1.271   2.041
10094SOL    HW231182   1.482   1.239   1.903
10095SOL     OW31183   0.416   1.551   5.714
10095SOL    HW131184   0.418   1.472   5.652
10095SOL    HW231185   0.322   1.573   5.738
10096SOL     OW31186   0.137   5.451   2.089
10096SOL    HW131187   0.213   5.389   2.110
10096SOL    HW231188   0.168   5.546   2.095
10097SOL     OW31189   1.645   2.589   6.022
10097SOL    HW131190   1.626   2.549   5.932
10097SOL    HW231191   1.618   2.685   6.023
10098SOL     OW31192   3.536   5.402   6.619
10098SOL    HW131193   3.586   5.393   6.532
10098SOL    HW231194   3.495   5.492   6.625
10099SOL     OW31195   6.951   4.892   4.724
10099SOL    HW131196   6.994   4.975   4.689
10099SOL    HW231197   0.001   4.820   4.732
10100SOL     OW31198   5.434   0.990   5.510
10100SOL    HW131199   5.357   1.011   5.570
10100SOL    HW231200   5.452   0.892   5.512
10101SOL     OW31201   6.691   4.966   2.520
10101SOL    HW131202   6.649   5.006   2.439
10101SOL    HW231203   6.734   4.879   2.497
10102SOL     OW31204   3.762   0.406   3.725
10102SOL    HW131205   3.827   0.338   3.693
10102SOL    HW231206   3.757   0.403   3.825
10103SOL     OW31207   1.642   1.898   0.267
10103SOL    HW131208   1.731   1.933   0.293
10103SOL    HW231209   1.621   1.816   0.320
10104SOL     OW31210   1.572   6.096   5.650
10104SOL    HW131211   1.664   6.076   5.615
10104SOL    HW231212   1.528   6.011   5.679
10105SOL     OW31213   2.967   0.399   7.010
10105SOL    HW131214   2.972   0.300   7.002
10105SOL    HW231215   2.879   0.432   6.976
10106SOL     OW31216   5.134   5.588   1.472
10106SOL    HW131217   5.086   5.546   1.548
10106SOL    HW231218   5.213   5.532   1.447
10107SOL     OW31219   5.655   1.009   5.781
10107SOL    HW131220   5.556   1.015   5.769
10107SOL    HW231221   5.681   0.913   5.789
10108SOL     OW31222   5.907   6.533   6.734
10108SOL    HW131223   5.868   6.481   6.810
10108SOL    HW231224   5.903   6.478   6.650
10109SOL     OW31225   4.517   5.784   3.529
10109SOL    HW131226   4.614   5.808   3.535
10109SOL    HW231227   4.489   5.740   3.615
10110SOL     OW31228   3.214   1.263   5.496
10110SOL    HW131229   3.138   1.309   5.452
10110SOL    HW231230   3.199   1.262   5.595
10111SOL     OW31231   0.233   2.635   2.777
10111SOL    HW131232   0.314   2.580   2.800
10111SOL    HW231233   0.258   2.704   2.709
10112SOL     OW31234   4.262   3.850   6.124
10112SOL    HW131235   4.357   3.829   6.143
10112SOL    HW231236   4.257   3.917   6.049
10113SOL     OW31237   4.323   6.629   0.742
10113SOL    HW131238   4.280   6.617   0.653
10113SOL    HW231239   4.422   6.632   0.732
10114SOL     OW31240   3.907   1.514   1.665
10114SOL    HW131241   3.904   1.584   1.736
10114SOL    HW231242   3.908   1.558   1.575
10115SOL     OW31243   0.953   1.878   3.924
10115SOL    HW131244   0.935   1.841   3.834
10115SOL    HW231245   0.867   1.908   3.966
10116SOL     OW31246   0.662   0.648   0.708
10116SOL    HW131247   0.697   0.562   0.745
10116SOL    HW231248   0.673   0.720   0.776
10117SOL     OW31249   4.902   1.024   5.794
10117SOL    HW131250   4.810   1.021   5.833
10117SOL    HW231251   4.966   0.979   5.856
10118SOL     OW31252   5.868   5.122   2.404
10118SOL    HW131253   5.962   5.090   2.415
10118SOL    HW231254   5.856   5.157   2.311
10119SOL     OW31255   2.575   0.248   5.731
10119SOL    HW131256   2.601   0.159   5.694
10119SOL    HW231257   2.478   0.248   5.754
10120SOL     OW31258   5.824   3.383   3.682
10120SOL    HW131259   5.869   3.375   3.593
10120SOL    HW231260   5.771   3.301   3.701
10121SOL     OW31261   5.677   4.892   4.081
10121SOL    HW131262   5.703   4.810   4.132
10121SOL    HW231263   5.757   4.926   4.030
10122SOL     OW31264   5.264   3.297   6.523
10122SOL    HW131265   5.245   3.220   6.584
10122SOL    HW231266   5.180   3.326   6.478
10123SOL     OW31267   6.841   6.664   0.371
10123SOL    HW131268   6.827   6.728   0.296
10123SOL    HW231269   6.939   6.645   0.380
10124SOL     OW31270   2.941   4.694   0.979
10124SOL    HW131271   2.919   4.791   0.990
10124SOL    HW231272   3.039   4.684   0.962
10125SOL     OW31273   1.943   0.614   1.045
10125SOL    HW131274   1.857   0.581   1.083
10125SOL    HW231275   1.954   0.578   0.952
10126SOL     OW31276   5.357   5.095   6.749
10126SOL    HW131277   5.316   5.050   6.669
10126SOL    HW231278   5.382   5.025   6.816
10127SOL     OW31279   3.547   4.808   5.366
10127SOL    HW131280   3.473   4.867   5.333
10127SOL    HW231281   3.530   4.784   5.462
10128SOL     OW31282   7.007   2.093   1.382
10128SOL    HW131283   0.029   2.132   1.299
10128SOL    HW231284   0.032   2.006   1.403
10129SOL     OW31285   5.017   2.872   3.535
10129SOL    HW131286   4.930   2.863   3.486
10129SOL    HW231287   5.013   2.953   3.594
10130SOL     OW31288   6.316   5.923   1.303
10130SOL    HW131289   6.225   5.913   1.263
10130SOL    HW231290   6.342   6.020   1.303
10131SOL     OW31291   6.807   0.138   0.246
10131SOL    HW131292   6.876   0.078   0.206
10131SOL    HW231293   6.748   0.174   0.174
10132SOL     OW31294   2.277   7.012   2.675
10132SOL    HW131295   2.280   7.017   2.775
10132SOL    HW231296   2.231   6.927   2.648
10133SOL     OW31297   5.669   4.963   2.476
10133SOL    HW131298   5.577   4.991   2.450
10133SOL    HW231299   5.736   5.026   2.438
10134SOL     OW31300   0.360   1.286   2.085
10134SOL    HW131301   0.437   1.223   2.083
10134SOL    HW231302   0.311   1.277   2.172
10135SOL     OW31303   2.885   6.114   2.897
10135SOL    HW131304   2.926   6.204   2.916
10135SOL    HW231305   2.957   6.048   2.877
10136SOL     OW31306   6.639   0.191   2.473
10136SOL    HW131307   6.679   0.122   2.413
10136SOL    HW231308   6.711   0.239   2.522
10137SOL     OW31309   5.692   5.096   4.288
10137SOL    HW131310   5.617   5.079   4.351
10137SOL    HW231311   5.673   5.050   4.201
10138SOL     OW31312   5.358   2.448   6.611
10138SOL    HW131313   5.284   2.383   6.589
10138SOL    HW231314   5.443   2.397   6.626
10139SOL     OW31315   3.869   3.114   3.081
10139SOL    HW131316   3.829   3.205   3.093
10139SOL    HW231317   3.933   3.116   3.005
10140SOL     OW31318   0.770   5.224   4.691
10140SOL    HW131319   0.741   5.276   4.610
10140SOL    HW231320   0.741   5.272   4.773
10141SOL     OW31321   2.178   0.583   3.941
10141SOL    HW131322   2.239   0.658   3.915
10141SOL    HW231323   2.090   0.594   3.895
10142SOL     OW31324   4.910   6.078   4.199
10142SOL    HW131325   4.965   6.087   4.116
10142SOL    HW231326   4.864   5.989   4.199
10143SOL     OW31327   4.696   5.955   1.566
10143SOL    HW131328   4.679   5.907   1.652
10143SOL    HW231329   4.794   5.950   1.545
10144SOL     OW31330   2.593   4.923   3.123
10144SOL    HW131331   2.659   4.851   3.145
10144SOL    HW231332   2.595   4.994   3.194
10145SOL     OW31333   3.153   6.621   5.718
10145SOL    HW131334   3.070   6.574   5.748
10145SOL    HW231335   3.215   6.630   5.796
10146SOL     OW31336   5.351   4.894   4.267
10146SOL    HW131337   5.376   4.870   4.173
10146SOL    HW231338   5.305   4.816   4.310
10147SOL     OW31339   4.734   5.773   4.473
10147SOL    HW131340   4.798   5.849   4.469
10147SOL    HW231341   4.727   5.741   4.568
10148SOL     OW31342   5.843   5.182   0.145
10148SOL    HW131343   5.877   5.152   0.234
10148SOL    HW231344   5.788   5.265   0.156
10149SOL     OW31345   4.316   3.706   0.918
10149SOL    HW131346   4.227   3.723   0.959
10149SOL    HW231347   4.387   3.751   0.973
10150SOL     OW31348   5.553   4.182   0.861
10150SOL    HW131349   5.640   4.227   0.877
10150SOL    HW231350   5.558   4.088   0.894
10151SOL     OW31351   1.013   6.142   5.679
10151SOL    HW131352   1.062   6.194   5.608
10151SOL    HW231353   1.002   6.047   5.649
10152SOL     OW31354   0.012   5.497   3.737
10152SOL    HW131355   6.981   5.571   3.691
10152SOL    HW231356   6.967   5.442   3.791
10153SOL     OW31357   5.692   6.202   3.825
10153SOL    HW131358   5.779   6.231   3.786
10153SOL    HW231359   5.665   6.267   3.896
10154SOL     OW31360   6.587   5.902   5.470
10154SOL    HW131361   6.573   5.990   5.516
10154SOL    HW231362   6.661   5.852   5.515
10155SOL     OW31363   3.591   1.346   6.003
10155SOL    HW131364   3.666   1.412   5.995
10155SOL    HW231365   3.521   1.367   5.934
10156SOL     OW31366   5.440   0.129   2.284
10156SOL    HW131367   5.371   0.196   2.313
10156SOL    HW231368   5.491   0.165   2.206
10157SOL     OW31369   4.760   0.890   4.582
10157SOL    HW131370   4.745   0.942   4.498
10157SOL    HW231371   4.779   0.953   4.657
10158SOL     OW31372   4.430   3.597   5.845
10158SOL    HW131373   4.427   3.573   5.748
10158SOL    HW231374   4.427   3.697   5.854
10159SOL     OW31375   1.501   1.261   6.495
10159SOL    HW131376   1.598   1.286   6.492
10159SOL    HW231377   1.445   1.336   6.461
10160SOL     OW31378   1.096   5.671   3.562
10160SOL    HW131379   1.138   5.679   3.472
10160SOL    HW231380   1.019   5.608   3.557
10161SOL     OW31381   2.251   6.162   6.098
10161SOL    HW131382   2.189   6.237   6.076
10161SOL    HW231383   2.204   6.096   6.156
10162SOL     OW31384   3.552   2.473   0.016
10162SOL    HW131385   3.624   2.416   6.995
10162SOL    HW231386   3.463   2.442   7.003
10163SOL     OW31387   0.078   2.822   5.402
10163SOL    HW131388   0.012   2.828   5.477
10163SOL    HW231389   0.103   2.914   5.372
10164SOL     OW31390   0.853   2.430   5.106
10164SOL    HW131391   0.930   2.413   5.044
10164SOL    HW231392   0.771   2.385   5.070
10165SOL     OW31393   6.856   2.111   3.436
10165SOL    HW131394   6.946   2.124   3.396
10165SOL    HW231395   6.835   2.014   3.441
10166SOL     OW31396   0.511   1.089   2.163
10166SOL    HW131397   0.607   1.102   2.184
10166SOL    HW231398   0.481   0.999   2.195
10167SOL     OW31399   4.963   0.571   1.159
10167SOL    HW131400   4.914   0.547   1.242
10167SOL    HW231401   5.050   0.522   1.156
10168SOL     OW31402   6.654   4.184   4.430
10168SOL    HW131403   6.735   4.241   4.444
10168SOL    HW231404   6.631   4.136   4.515
10169SOL     OW31405   6.403   4.197   4.223
10169SOL    HW131406   6.413   4.112   4.170
10169SOL    HW231407   6.486   4.212   4.277
10170SOL     OW31408   1.473   3.841   4.875
10170SOL    HW131409   1.489   3.930   4.833
10170SOL    HW231410   1.519   3.770   4.821
10171SOL     OW31411   6.128   3.116   5.620
10171SOL    HW131412   6.201   3.172   5.581
10171SOL    HW231413   6.105   3.151   5.711
10172SOL     OW31414   4.516   1.035   4.122
10172SOL    HW131415   4.531   0.989   4.209
10172SOL    HW231416   4.418   1.043   4.104
10173SOL     OW31417   2.402   2.166   2.613
10173SOL    HW131418   2.380   2.147   2.517
10173SOL    HW231419   2.475   2.104   2.643
10174SOL     OW31420   6.123   4.632   0.595
10174SOL    HW131421   6.072   4.560   0.548
10174SOL    HW231422   6.063   4.711   0.608
10175SOL     OW31423   6.328   2.287   6.488
10175SOL    HW131424   6.334   2.190   6.513
10175SOL    HW231425   6.286   2.338   6.563
10176SOL     OW31426   2.293   3.648   0.161
10176SOL    HW131427   2.231   3.641   0.082
10176SOL    HW231428   2.240   3.660   0.244
10177SOL     OW31429   2.064   0.409   5.980
10177SOL    HW131430   2.030   0.408   5.886
10177SOL    HW231431   2.164   0.412   5.979
10178SOL     OW31432   5.892   2.978   5.116
10178SOL    HW131433   5.808   2.925   5.116
10178SOL    HW231434   5.906   3.019   5.207
10179SOL     OW31435   0.576   3.207   6.286
10179SOL    HW131436   0.573   3.296   6.242
10179SOL    HW231437   0.652   3.153   6.248
10180SOL     OW31438   2.497   6.632   5.751
10180SOL    HW131439   2.588   6.631   5.792
10180SOL    HW231440   2.502   6.677   5.661
10181SOL     OW31441   5.750   3.443   1.575
10181SOL    HW131442   5.661   3.416   1.613
10181SOL    HW231443   5.822   3.409   1.635
10182SOL     OW31444   4.740   1.761   0.387
10182SOL    HW131445   4.795   1.844   0.400
10182SOL    HW231446   4.776   1.710   0.309
10183SOL     OW31447   1.711   1.698   6.589
10183SOL    HW131448   1.671   1.787   6.571
10183SOL    HW231449   1.797   1.688   6.538
10184SOL     OW31450   4.859   0.256   6.770
10184SOL    HW131451   4.874   0.165   6.808
10184SOL    HW231452   4.762   0.281   6.780
10185SOL     OW31453   4.666   1.212   6.969
10185SOL    HW131454   4.687   1.278   6.897
10185SOL    HW231455   4.696   1.249   0.038
10186SOL     OW31456   4.274   1.962   2.998
10186SOL    HW131457   4.205   1.939   3.067
10186SOL    HW231458   4.229   1.981   2.911
10187SOL     OW31459   0.794   2.278   2.147
10187SOL    HW131460   0.723   2.208   2.161
10187SOL    HW231461   0.860   2.245   2.079
10188SOL     OW31462   3.776   4.676   1.174
10188SOL    HW131463   3.756   4.735   1.252
10188SOL    HW231464   3.859   4.624   1.191
10189SOL     OW31465   1.314   6.553   5.648
10189SOL    HW131466   1.301   6.644   5.687
10189SOL    HW231467   1.404   6.518   5.675
10190SOL     OW31468   4.770   2.548   0.286
10190SOL    HW131469   4.732   2.619   0.227
10190SOL    HW231470   4.847   2.504   0.240
10191SOL     OW31471   6.851   4.684   6.542
10191SOL    HW131472   6.874   4.678   6.445
10191SOL    HW231473   6.810   4.774   6.561
10192SOL     OW31474   3.737   1.441   0.097
10192SOL    HW131475   3.658   1.499   0.112
10192SOL    HW231476   3.725   1.388   0.013
10193SOL     OW31477   3.914   4.285   0.374
10193SOL    HW131478   3.859   4.366   0.352
10193SOL    HW231479   3.970   4.304   0.455
10194SOL     OW31480   5.227   2.996   5.590
10194SOL    HW131481   5.140   2.984   5.637
10194SOL    HW231482   5.280   3.068   5.635
10195SOL     OW31483   6.119   4.112   1.741
10195SOL    HW131484   6.034   4.060   1.753
10195SOL    HW231485   6.112   4.197   1.793
10196SOL     OW31486   0.295   1.617   4.707
10196SOL    HW131487   0.233   1.549   4.669
10196SOL    HW231488   0.355   1.574   4.774
10197SOL     OW31489   5.420   0.595   6.898
10197SOL    HW131490   5.371   0.681   6.886
10197SOL    HW231491   5.451   0.562   6.809
10198SOL     OW31492   4.421   6.840   3.370
10198SOL    HW131493   4.453   6.833   3.464
10198SOL    HW231494   4.322   6.854   3.370
10199SOL     OW31495   0.616   2.109   5.533
10199SOL    HW131496   0.630   2.011   5.551
10199SOL    HW231497   0.527   2.137   5.569
10200SOL     OW31498   5.202   1.776   1.570
10200SOL    HW131499   5.262   1.806   1.644
10200SOL    HW231500   5.119   1.735   1.609
10201SOL     OW31501   1.072   3.737   0.690
10201SOL    HW131502   1.102   3.828   0.718
10201SOL    HW231503   1.151   3.683   0.661
10202SOL     OW31504   4.743   0.745   4.288
10202SOL    HW131505   4.762   0.734   4.190
10202SOL    HW231506   4.738   0.842   4.310
10203SOL     OW31507   6.905   2.738   4.763
10203SOL    HW131508   6.808   2.719   4.779
10203SOL    HW231509   6.961   2.692   4.832
10204SOL     OW31510   5.568   4.968   6.413
10204SOL    HW131511   5.618   4.932   6.492
10204SOL    HW231512   5.633   5.010   6.350
10205SOL     OW31513   1.035   1.021   6.377
10205SOL    HW131514   1.062   1.069   6.293
10205SOL    HW231515   1.089   1.056   6.454
10206SOL     OW31516   1.641   1.015   5.221
10206SOL    HW131517   1.658   1.024   5.319
10206SOL    HW231518   1.692   0.936   5.186
10207SOL     OW31519   2.470   1.782   4.763
10207SOL    HW131520   2.499   1.832   4.844
10207SOL    HW231521   2.490   1.837   4.681
10208SOL     OW31522   6.825   6.109   5.542
10208SOL    HW131523   6.877   6.023   5.541
10208SOL    HW231524   6.873   6.178   5.489
10209SOL     OW31525   0.295   6.879   5.877
10209SOL    HW131526   0.256   6.802   5.826
10209SOL    HW231527   0.394   6.869   5.881
10210SOL     OW31528   3.264   0.261   1.571
10210SOL    HW131529   3.220   0.196   1.509
10210SOL    HW231530   3.269   0.351   1.527
10211SOL     OW31531   5.341   5.678   5.837
10211SOL    HW131532   5.408   5.726   5.894
10211SOL    HW231533   5.315   5.736   5.760
10212SOL     OW31534   0.659   0.559   6.470
10212SOL    HW131535   0.605   0.630   6.514
10212SOL    HW231536   0.605   0.516   6.398
10213SOL     OW31537   6.740   2.223   1.245
10213SOL    HW131538   6.743   2.136   1.293
10213SOL    HW231539   6.732   2.298   1.311
10214SOL     OW31540   1.456   2.314   6.703
10214SOL    HW131541   1.505   2.380   6.761
10214SOL    HW231542   1.366   2.352   6.679
10215SOL     OW31543   2.937   3.563   2.053
10215SOL    HW131544   2.893   3.476   2.074
10215SOL    HW231545   2.970   3.605   2.137
10216SOL     OW31546   0.663   6.210   2.188
10216SOL    HW131547   0.565   6.221   2.170
10216SOL    HW231548   0.695   6.289   2.241
10217SOL     OW31549   3.179   1.503   4.936
10217SOL    HW131550   3.159   1.521   4.840
10217SOL    HW231551   3.278   1.501   4.950
10218SOL     OW31552   1.075   3.228   2.565
10218SOL    HW131553   1.098   3.131   2.560
10218SOL    HW231554   1.112   3.277   2.486
10219SOL     OW31555   6.942   5.772   3.012
10219SOL    HW131556   6.925   5.682   3.051
10219SOL    HW231557   0.005   5.768   2.954
10220SOL     OW31558   3.583   3.241   0.400
10220SOL    HW131559   3.490   3.207   0.414
10220SOL    HW231560   3.587   3.297   0.318
10221SOL     OW31561   0.744   5.499   4.086
10221SOL    HW131562   0.779   5.410   4.116
10221SOL    HW231563   0.749   5.564   4.162
10222SOL     OW31564   3.450   3.715   3.725
10222SOL    HW131565   3.459   3.719   3.625
10222SOL    HW231566   3.475   3.803   3.764
10223SOL     OW31567   2.378   6.678   0.727
10223SOL    HW131568   2.355   6.613   0.799
10223SOL    HW231569   2.447   6.742   0.760
10224SOL     OW31570   6.658   4.238   2.850
10224SOL    HW131571   6.728   4.181   2.893
10224SOL    HW231572   6.584   4.181   2.815
10225SOL     OW31573   1.853   3.985   5.914
10225SOL    HW131574   1.950   3.963   5.926
10225SOL    HW231575   1.818   3.937   5.834
10226SOL     OW31576   5.099   4.088   0.112
10226SOL    HW131577   5.155   4.158   0.066
10226SOL    HW231578   5.027   4.057   0.049
10227SOL     OW31579   5.815   3.576   1.131
10227SOL    HW131580   5.870   3.556   1.050
10227SOL    HW231581   5.718   3.567   1.108
10228SOL     OW31582   5.008   0.467   0.845
10228SOL    HW131583   4.908   0.460   0.842
10228SOL    HW231584   5.048   0.385   0.805
10229SOL     OW31585   0.344   2.527   5.026
10229SOL    HW131586   0.373   2.546   4.932
10229SOL    HW231587   0.419   2.546   5.089
10230SOL     OW31588   6.840   6.227   1.617
10230SOL    HW131589   6.881   6.182   1.696
10230SOL    HW231590   6.789   6.160   1.563
10231SOL     OW31591   0.544   4.487   2.628
10231SOL    HW131592   0.639   4.500   2.655
10231SOL    HW231593   0.519   4.390   2.636
10232SOL     OW31594   4.859   4.633   2.598
10232SOL    HW131595   4.891   4.564   2.663
10232SOL    HW231596   4.846   4.592   2.508
10233SOL     OW31597   2.519   4.370   5.536
10233SOL    HW131598   2.495   4.285   5.491
10233SOL    HW231599   2.616   4.371   5.557
10234SOL     OW31600   0.761   1.151   2.232
10234SOL    HW131601   0.807   1.150   2.143
10234SOL    HW231602   0.812   1.208   2.295
10235SOL     OW31603   1.202   1.249   3.049
10235SOL    HW131604   1.243   1.160   3.027
10235SOL    HW231605   1.105   1.247   3.027
10236SOL     OW31606   1.565   6.605   2.389
10236SOL    HW131607   1.580   6.519   2.339
10236SOL    HW231608   1.483   6.649   2.355
10237SOL     OW31609   0.677   3.546   4.425
10237SOL    HW131610   0.612   3.481   4.464
10237SOL    HW231611   0.761   3.545   4.479
10238SOL     OW31612   2.638   6.903   1.556
10238SOL    HW131613   2.566   6.955   1.511
10238SOL    HW231614   2.727   6.939   1.528
10239SOL     OW31615   0.535   1.753   4.657
10239SOL    HW131616   0.490   1.839   4.632
10239SOL    HW231617   0.467   1.681   4.665
10240SOL     OW31618   2.037   6.377   0.784
10240SOL    HW131619   1.999   6.300   0.732
10240SOL    HW231620   2.003   6.463   0.745
10241SOL     OW31621   4.278   3.604   1.188
10241SOL    HW131622   4.240   3.513   1.170
10241SOL    HW231623   4.371   3.609   1.152
10242SOL     OW31624   6.943   2.894   0.205
10242SOL    HW131625   6.846   2.898   0.227
10242SOL    HW231626   6.969   2.800   0.186
10243SOL     OW31627   3.071   6.141   2.071
10243SOL    HW131628   2.972   6.151   2.061
10243SOL    HW231629   3.113   6.231   2.074
10244SOL     OW31630   3.039   5.394   2.142
10244SOL    HW131631   3.049   5.350   2.053
10244SOL    HW231632   2.950   5.370   2.181
10245SOL     OW31633   5.182   4.385   1.006
10245SOL    HW131634   5.098   4.330   1.012
10245SOL    HW231635   5.183   4.451   1.082
10246SOL     OW31636   3.386   3.043   3.853
10246SOL    HW131637   3.391   3.142   3.868
10246SOL    HW231638   3.299   3.009   3.889
10247SOL     OW31639   1.018   3.129   4.483
10247SOL    HW131640   1.073   3.102   4.562
10247SOL    HW231641   0.925   3.149   4.512
10248SOL     OW31642   0.829   0.930   5.021
10248SOL    HW131643   0.913   0.880   5.041
10248SOL    HW231644   0.750   0.877   5.052
10249SOL     OW31645   2.407   4.982   6.280
10249SOL    HW131646   2.339   5.055   6.280
10249SOL    HW231647   2.498   5.022   6.275
10250SOL     OW31648   3.263   2.061   0.548
10250SOL    HW131649   3.248   2.128   0.621
10250SOL    HW231650   3.175   2.036   0.508
10251SOL     OW31651   1.784   0.726   4.576
10251SOL    HW131652   1.714   0.796   4.558
10251SOL    HW231653   1.755   0.669   4.653
10252SOL     OW31654   4.641   4.812   5.890
10252SOL    HW131655   4.561   4.848   5.938
10252SOL    HW231656   4.635   4.836   5.793
10253SOL     OW31657   4.101   6.195   6.507
10253SOL    HW131658   4.027   6.135   6.539
10253SOL    HW231659   4.164   6.142   6.451
10254SOL     OW31660   6.465   1.561   5.508
10254SOL    HW131661   6.470   1.552   5.608
10254SOL    HW231662   6.417   1.482   5.470
10255SOL     OW31663   4.022   4.448   1.666
10255SOL    HW131664   4.094   4.382   1.642
10255SOL    HW231665   3.938   4.399   1.689
10256SOL     OW31666   3.729   1.123   4.606
10256SOL    HW131667   3.776   1.055   4.662
10256SOL    HW231668   3.721   1.209   4.658
10257SOL     OW31669   3.892   5.869   3.390
10257SOL    HW131670   3.947   5.786   3.395
10257SOL    HW231671   3.798   5.845   3.366
10258SOL     OW31672   2.785   1.597   2.302
10258SOL    HW131673   2.760   1.689   2.270
10258SOL    HW231674   2.723   1.569   2.375
10259SOL     OW31675   1.702   3.949   3.970
10259SOL    HW131676   1.655   4.036   3.982
10259SOL    HW231677   1.724   3.911   4.060
10260SOL     OW31678   0.415   0.004   3.070
10260SOL    HW131679   0.351   0.033   2.999
10260SOL    HW231680   0.470   0.082   3.099
10261SOL     OW31681   0.215   4.072   0.704
10261SOL    HW131682   0.143   4.010   0.734
10261SOL    HW231683   0.193   4.110   0.614
10262SOL     OW31684   3.633   0.818   6.901
10262SOL    HW131685   3.697   0.751   6.864
10262SOL    HW231686   3.561   0.772   6.953
10263SOL     OW31687   5.683   0.591   2.872
10263SOL    HW131688   5.687   0.579   2.971
10263SOL    HW231689   5.609   0.654   2.849
10264SOL     OW31690   6.640   0.535   6.514
10264SOL    HW131691   6.678   0.457   6.464
10264SOL    HW231692   6.545   0.515   6.538
10265SOL     OW31693   1.685   1.899   1.422
10265SOL    HW131694   1.738   1.823   1.459
10265SOL    HW231695   1.596   1.904   1.468
10266SOL     OW31696   2.669   3.452   1.785
10266SOL    HW131697   2.649   3.493   1.696
10266SOL    HW231698   2.585   3.443   1.838
10267SOL     OW31699   6.436   0.183   0.325
10267SOL    HW131700   6.347   0.227   0.335
10267SOL    HW231701   6.506   0.252   0.306
10268SOL     OW31702   3.742   5.970   2.209
10268SOL    HW131703   3.792   5.961   2.122
10268SOL    HW231704   3.806   5.996   2.281
10269SOL     OW31705   2.018   1.813   0.857
10269SOL    HW131706   2.061   1.895   0.818
10269SOL    HW231707   2.064   1.732   0.822
10270SOL     OW31708   2.870   0.403   3.194
10270SOL    HW131709   2.906   0.451   3.274
10270SOL    HW231710   2.824   0.469   3.134
10271SOL     OW31711   1.987   1.308   6.643
10271SOL    HW131712   2.041   1.363   6.580
10271SOL    HW231713   1.896   1.291   6.604
10272SOL     OW31714   6.280   0.011   4.478
10272SOL    HW131715   6.191   0.045   4.450
10272SOL    HW231716   6.352   0.070   4.442
10273SOL     OW31717   2.319   5.339   3.884
10273SOL    HW131718   2.232   5.370   3.845
10273SOL    HW231719   2.310   5.334   3.984
10274SOL     OW31720   0.780   4.450   4.718
10274SOL    HW131721   0.786   4.375   4.652
10274SOL    HW231722   0.788   4.413   4.810
10275SOL     OW31723   6.352   0.840   1.786
10275SOL    HW131724   6.406   0.917   1.751
10275SOL    HW231725   6.406   0.756   1.776
10276SOL     OW31726   2.914   5.418   5.387
10276SOL    HW131727   2.978   5.468   5.329
10276SOL    HW231728   2.835   5.477   5.409
10277SOL     OW31729   1.249   5.819   4.112
10277SOL    HW131730   1.214   5.867   4.192
10277SOL    HW231731   1.194   5.843   4.032
10278SOL     OW31732   6.493   6.974   4.762
10278SOL    HW131733   6.478   6.888   4.714
10278SOL    HW231734   6.566   0.006   4.716
10279SOL     OW31735   1.311   5.404   4.030
10279SOL    HW131736   1.309   5.367   3.937
10279SOL    HW231737   1.353   5.338   4.092
10280SOL     OW31738   6.603   4.805   0.457
10280SOL    HW131739   6.547   4.741   0.405
10280SOL    HW231740   6.574   4.899   0.438
10281SOL     OW31741   6.302   1.142   3.254
10281SOL    HW131742   6.394   1.108   3.237
10281SOL    HW231743   6.289   1.157   3.352
10282SOL     OW31744   4.986   3.234   3.518
10282SOL    HW131745   5.070   3.209   3.567
10282SOL    HW231746   5.010   3.290   3.439
10283SOL     OW31747   0.528   2.589   1.105
10283SOL    HW131748   0.619   2.625   1.126
10283SOL    HW231749   0.484   2.647   1.036
10284SOL     OW31750   0.154   3.977   3.988
10284SOL    HW131751   0.089   4.051   4.002
10284SOL    HW231752   0.128   3.925   3.907
10285SOL     OW31753   6.645   7.011   5.801
10285SOL    HW131754   6.631   7.011   5.900
10285SOL    HW231755   6.625   0.083   5.764
10286SOL     OW31756   2.654   1.486   3.224
10286SOL    HW131757   2.694   1.550   3.159
10286SOL    HW231758   2.636   1.533   3.311
10287SOL     OW31759   1.364   5.505   2.571
10287SOL    HW131760   1.413   5.464   2.648
10287SOL    HW231761   1.379   5.604   2.570
10288SOL     OW31762   3.682   5.923   4.849
10288SOL    HW131763   3.678   5.888   4.756
10288SOL    HW231764   3.705   5.848   4.911
10289SOL     OW31765   4.003   6.234   0.051
10289SOL    HW131766   3.997   6.252   6.972
10289SOL    HW231767   4.087   6.275   0.087
10290SOL     OW31768   3.325   3.259   1.773
10290SOL    HW131769   3.336   3.323   1.696
10290SOL    HW231770   3.299   3.310   1.855
10291SOL     OW31771   2.307   1.840   2.290
10291SOL    HW131772   2.361   1.846   2.206
10291SOL    HW231773   2.224   1.787   2.273
10292SOL     OW31774   0.095   6.897   6.054
10292SOL    HW131775   0.177   6.879   5.999
10292SOL    HW231776   0.019   6.921   5.993
10293SOL     OW31777   1.253   3.823   5.271
10293SOL    HW131778   1.334   3.773   5.243
10293SOL    HW231779   1.198   3.846   5.190
10294SOL     OW31780   3.423   0.796   2.496
10294SOL    HW131781   3.420   0.848   2.411
10294SOL    HW231782   3.462   0.706   2.479
10295SOL     OW31783   1.195   1.299   6.734
10295SOL    HW131784   1.251   1.309   6.816
10295SOL    HW231785   1.166   1.390   6.702
10296SOL     OW31786   6.219   1.642   5.835
10296SOL    HW131787   6.304   1.590   5.828
10296SOL    HW231788   6.203   1.692   5.750
10297SOL     OW31789   3.732   1.326   0.399
10297SOL    HW131790   3.752   1.424   0.390
10297SOL    HW231791   3.648   1.305   0.350
10298SOL     OW31792   0.468   2.408   2.383
10298SOL    HW131793   0.539   2.421   2.453
10298SOL    HW231794   0.468   2.313   2.353
10299SOL     OW31795   4.661   0.286   2.586
10299SOL    HW131796   4.643   0.277   2.683
10299SOL    HW231797   4.701   0.377   2.568
10300SOL     OW31798   1.247   3.891   1.524
10300SOL    HW131799   1.186   3.813   1.536
10300SOL    HW231800   1.195   3.971   1.493
10301SOL     OW31801   3.798   0.629   0.083
10301SOL    HW131802   3.890   0.655   0.112
10301SOL    HW231803   3.744   0.601   0.163
10302SOL     OW31804   2.824   6.405   4.901
10302SOL    HW131805   2.738   6.437   4.860
10302SOL    HW231806   2.805   6.361   4.988
10303SOL     OW31807   0.431   5.044   4.670
10303SOL    HW131808   0.385   5.132   4.683
10303SOL    HW231809   0.442   4.999   4.759
10304SOL     OW31810   5.819   6.294   0.807
10304SOL    HW131811   5.874   6.344   0.875
10304SOL    HW231812   5.733   6.343   0.792
10305SOL     OW31813   3.134   3.885   6.039
10305SOL    HW131814   3.169   3.803   5.993
10305SOL    HW231815   3.083   3.941   5.974
10306SOL     OW31816   4.121   0.350   0.927
10306SOL    HW131817   4.137   0.320   0.833
10306SOL    HW231818   4.055   0.426   0.928
10307SOL     OW31819   1.830   0.228   5.733
10307SOL    HW131820   1.849   0.131   5.725
10307SOL    HW231821   1.739   0.241   5.772
10308SOL     OW31822   3.053   4.580   1.689
10308SOL    HW131823   3.118   4.506   1.671
10308SOL    HW231824   2.991   4.552   1.762
10309SOL     OW31825   0.438   0.740   5.768
10309SOL    HW131826   0.404   0.821   5.720
10309SOL    HW231827   0.538   0.742   5.770
10310SOL     OW31828   2.677   3.943   5.658
10310SOL    HW131829   2.742   4.018   5.657
10310SOL    HW231830   2.726   3.856   5.655
10311SOL     OW31831   5.062   5.610   6.965
10311SOL    HW131832   5.106   5.700   6.966
10311SOL    HW231833   4.978   5.615   6.911
10312SOL     OW31834   3.616   6.816   2.088
10312SOL    HW131835   3.673   6.835   2.008
10312SOL    HW231836   3.531   6.867   2.080
10313SOL     OW31837   5.416   6.732   2.467
10313SOL    HW131838   5.461   6.734   2.556
10313SOL    HW231839   5.388   6.824   2.441
10314SOL     OW31840   0.558   0.368   0.800
10314SOL    HW131841   0.492   0.305   0.840
10314SOL    HW231842   0.573   0.345   0.704
10315SOL     OW31843   5.675   5.380   3.624
10315SOL    HW131844   5.663   5.480   3.622
10315SOL    HW231845   5.597   5.339   3.670
10316SOL     OW31846   0.819   1.520   0.054
10316SOL    HW131847   0.851   1.466   6.996
10316SOL    HW231848   0.835   1.617   0.036
10317SOL     OW31849   3.122   5.909   5.058
10317SOL    HW131850   3.220   5.921   5.077
10317SOL    HW231851   3.107   5.822   5.013
10318SOL     OW31852   6.679   0.244   0.044
10318SOL    HW131853   6.673   0.343   0.057
10318SOL    HW231854   6.587   0.206   0.036
10319SOL     OW31855   0.561   4.186   3.760
10319SOL    HW131856   0.476   4.238   3.752
10319SOL    HW231857   0.545   4.104   3.815
10320SOL     OW31858   0.431   6.847   3.273
10320SOL    HW131859   0.469   6.766   3.229
10320SOL    HW231860   0.432   6.924   3.209
10321SOL     OW31861   5.460   2.998   2.135
10321SOL    HW131862   5.434   2.937   2.210
10321SOL    HW231863   5.558   3.015   2.139
10322SOL     OW31864   4.653   4.360   4.819
10322SOL    HW131865   4.649   4.261   4.831
10322SOL    HW231866   4.582   4.403   4.876
10323SOL     OW31867   1.115   4.279   6.123
10323SOL    HW131868   1.086   4.214   6.053
10323SOL    HW231869   1.214   4.269   6.138
10324SOL     OW31870   3.206   2.907   2.150
10324SOL    HW131871   3.194   2.955   2.063
10324SOL    HW231872   3.214   2.809   2.134
10325SOL     OW31873   5.998   5.678   4.165
10325SOL    HW131874   5.906   5.664   4.203
10325SOL    HW231875   6.062   5.696   4.240
10326SOL     OW31876   5.540   3.357   6.491
10326SOL    HW131877   5.560   3.402   6.405
10326SOL    HW231878   5.446   3.379   6.520
10327SOL     OW31879   2.515   5.378   0.210
10327SOL    HW131880   2.527   5.283   0.182
10327SOL    HW231881   2.423   5.409   0.186
10328SOL     OW31882   5.571   2.355   2.160
10328SOL    HW131883   5.542   2.450   2.168
10328SOL    HW231884   5.664   2.352   2.121
10329SOL     OW31885   3.375   1.837   2.713
10329SOL    HW131886   3.341   1.757   2.664
10329SOL    HW231887   3.307   1.910   2.709
10330SOL     OW31888   5.231   0.565   1.712
10330SOL    HW131889   5.276   0.654   1.718
10330SOL    HW231890   5.290   0.495   1.754
10331SOL     OW31891   5.931   6.089   5.865
10331SOL    HW131892   5.960   6.178   5.831
10331SOL    HW231893   5.894   6.099   5.958
10332SOL     OW31894   1.482   1.641   6.395
10332SOL    HW131895   1.451   1.736   6.401
10332SOL    HW231896   1.570   1.632   6.440
10333SOL     OW31897   1.640   3.734   4.671
10333SOL    HW131898   1.586   3.708   4.591
10333SOL    HW231899   1.721   3.785   4.641
10334SOL     OW31900   3.238   1.610   4.137
10334SOL    HW131901   3.241   1.685   4.071
10334SOL    HW231902   3.331   1.584   4.162
10335SOL     OW31903   1.360   2.437   4.928
10335SOL    HW131904   1.313   2.507   4.874
10335SOL    HW231905   1.378   2.357   4.870
10336SOL     OW31906   5.539   6.942   3.058
10336SOL    HW131907   5.636   6.936   3.035
10336SOL    HW231908   5.489   6.975   2.978
10337SOL     OW31909   6.842   5.365   6.922
10337SOL    HW131910   6.807   5.375   7.015
10337SOL    HW231911   6.894   5.279   6.915
10338SOL     OW31912   0.979   6.529   1.544
10338SOL    HW131913   1.078   6.525   1.559
10338SOL    HW231914   0.943   6.436   1.532
10339SOL     OW31915   5.872   2.549   5.821
10339SOL    HW131916   5.801   2.616   5.845
10339SOL    HW231917   5.850   2.461   5.863
10340SOL     OW31918   2.523   4.074   6.198
10340SOL    HW131919   2.515   4.143   6.270
10340SOL    HW231920   2.433   4.059   6.157
10341SOL     OW31921   2.207   4.222   3.233
10341SOL    HW131922   2.184   4.155   3.162
10341SOL    HW231923   2.284   4.278   3.201
10342SOL     OW31924   0.297   0.897   3.710
10342SOL    HW131925   0.365   0.876   3.779
10342SOL    HW231926   0.284   0.817   3.651
10343SOL     OW31927   3.687   5.422   1.658
10343SOL    HW131928   3.715   5.398   1.565
10343SOL    HW231929   3.654   5.517   1.660
10344SOL     OW31930   4.397   6.906   6.839
10344SOL    HW131931   4.483   6.863   6.812
10344SOL    HW231932   4.357   6.857   6.916
10345SOL     OW31933   1.936   3.473   4.104
10345SOL    HW131934   1.917   3.419   4.022
10345SOL    HW231935   1.996   3.421   4.165
10346SOL     OW31936   0.130   6.042   0.067
10346SOL    HW131937   0.107   5.952   0.030
10346SOL    HW231938   0.108   6.112   7.018
10347SOL     OW31939   5.324   2.150   5.232
10347SOL    HW131940   5.411   2.193   5.255
10347SOL    HW231941   5.283   2.196   5.154
10348SOL     OW31942   6.559   4.931   1.022
10348SOL    HW131943   6.546   4.867   0.947
10348SOL    HW231944   6.634   4.992   1.000
10349SOL     OW31945   0.540   6.979   6.104
10349SOL    HW131946   0.542   6.983   6.004
10349SOL    HW231947   0.467   6.917   6.134
10350SOL     OW31948   3.203   0.835   6.474
10350SOL    HW131949   3.244   0.806   6.561
10350SOL    HW231950   3.120   0.782   6.458
10351SOL     OW31951   3.925   5.526   6.345
10351SOL    HW131952   4.000   5.463   6.325
10351SOL    HW231953   3.844   5.475   6.373
10352SOL     OW31954   3.519   4.095   6.336
10352SOL    HW131955   3.544   4.010   6.384
10352SOL    HW231956   3.464   4.072   6.256
10353SOL     OW31957   0.866   3.018   5.096
10353SOL    HW131958   0.874   2.986   5.001
10353SOL    HW231959   0.788   2.973   5.139
10354SOL     OW31960   5.699   1.584   1.365
10354SOL    HW131961   5.672   1.489   1.376
10354SOL    HW231962   5.635   1.643   1.414
10355SOL     OW31963   0.992   4.684   2.871
10355SOL    HW131964   0.907   4.737   2.877
10355SOL    HW231965   0.972   4.588   2.890
10356SOL     OW31966   0.163   2.057   4.623
10356SOL    HW131967   0.100   2.041   4.699
10356SOL    HW231968   0.111   2.081   4.541
10357SOL     OW31969   3.596   2.649   6.821
10357SOL    HW131970   3.505   2.633   6.781
10357SOL    HW231971   3.611   2.584   6.895
10358SOL     OW31972   6.953   1.163   2.245
10358SOL    HW131973   6.888   1.190   2.174
10358SOL    HW231974   6.905   1.118   2.320
10359SOL     OW31975   1.250   1.464   0.981
10359SOL    HW131976   1.190   1.392   1.016
10359SOL    HW231977   1.213   1.500   0.896
10360SOL     OW31978   6.836   4.782   3.063
10360SOL    HW131979   6.860   4.877   3.042
10360SOL    HW231980   6.867   4.760   3.156
10361SOL     OW31981   1.990   4.997   1.325
10361SOL    HW131982   2.012   4.948   1.241
10361SOL    HW231983   2.072   5.042   1.360
10362SOL     OW31984   1.534   4.822   5.158
10362SOL    HW131985   1.630   4.811   5.182
10362SOL    HW231986   1.526   4.873   5.072
10363SOL     OW31987   5.714   0.006   3.549
10363SOL    HW131988   5.806   0.043   3.562
10363SOL    HW231989   5.713   6.966   3.469
10364SOL     OW31990   1.602   4.089   0.883
10364SOL    HW131991   1.644   4.016   0.828
10364SOL    HW231992   1.649   4.095   0.971
10365SOL     OW31993   4.748   5.579   0.023
10365SOL    HW131994   4.687   5.513   0.067
10365SOL    HW231995   4.768   5.549   6.949
10366SOL     OW31996   3.686   6.321   3.877
10366SOL    HW131997   3.637   6.275   3.803
10366SOL    HW231998   3.697   6.258   3.955
10367SOL     OW31999   6.440   1.463   3.285
10367SOL    HW132000   6.479   1.379   3.325
10367SOL    HW232001   6.458   1.464   3.186
10368SOL     OW32002   2.245   0.587   1.029
10368SOL    HW132003   2.149   0.594   1.057
10368SOL    HW232004   2.300   0.649   1.084
10369SOL     OW32005   4.168   2.684   0.212
10369SOL    HW132006   4.090   2.745   0.196
10369SOL    HW232007   4.229   2.724   0.279
10370SOL     OW32008   3.945   0.948   5.200
10370SOL    HW132009   3.876   0.924   5.131
10370SOL    HW232010   3.976   0.865   5.246
10371SOL     OW32011   5.323   6.373   5.568
10371SOL    HW132012   5.256   6.389   5.495
10371SOL    HW232013   5.275   6.343   5.650
10372SOL     OW32014   1.269   0.679   3.324
10372SOL    HW132015   1.307   0.613   3.259
10372SOL    HW232016   1.289   0.772   3.292
10373SOL     OW32017   1.278   5.336   4.982
10373SOL    HW132018   1.284   5.364   5.078
10373SOL    HW232019   1.365   5.294   4.954
10374SOL     OW32020   2.980   1.764   3.985
10374SOL    HW132021   2.935   1.675   3.985
10374SOL    HW232022   3.074   1.754   3.954
10375SOL     OW32023   0.354   2.113   0.546
10375SOL    HW132024   0.406   2.030   0.527
10375SOL    HW232025   0.342   2.164   0.462
10376SOL     OW32026   6.496   0.645   3.486
10376SOL    HW132027   6.452   0.557   3.506
10376SOL    HW232028   6.574   0.630   3.425
10377SOL     OW32029   0.406   6.612   4.455
10377SOL    HW132030   0.363   6.527   4.484
10377SOL    HW232031   0.436   6.663   4.535
10378SOL     OW32032   6.224   6.851   6.048
10378SOL    HW132033   6.263   6.860   5.956
10378SOL    HW232034   6.295   6.820   6.111
10379SOL     OW32035   4.677   1.918   4.387
10379SOL    HW132036   4.668   1.963   4.476
10379SOL    HW232037   4.774   1.913   4.363
10380SOL     OW32038   4.234   1.091   3.801
10380SOL    HW132039   4.227   1.103   3.900
10380SOL    HW232040   4.326   1.064   3.776
10381SOL     OW32041   4.300   5.413   4.778
10381SOL    HW132042   4.274   5.510   4.777
10381SOL    HW232043   4.389   5.402   4.734
10382SOL     OW32044   1.235   5.841   0.232
10382SOL    HW132045   1.208   5.749   0.258
10382SOL    HW232046   1.232   5.850   0.132
10383SOL     OW32047   5.300   2.500   0.209
10383SOL    HW132048   5.367   2.542   0.148
10383SOL    HW232049   5.332   2.409   0.236
10384SOL     OW32050   6.168   0.854   6.438
10384SOL    HW132051   6.073   0.884   6.439
10384SOL    HW232052   6.211   0.883   6.353
10385SOL     OW32053   6.576   2.635   6.858
10385SOL    HW132054   6.591   2.732   6.839
10385SOL    HW232055   6.478   2.617   6.865
10386SOL     OW32056   6.551   1.759   6.326
10386SOL    HW132057   6.584   1.749   6.232
10386SOL    HW232058   6.452   1.772   6.324
10387SOL     OW32059   1.591   3.833   2.138
10387SOL    HW132060   1.635   3.874   2.057
10387SOL    HW232061   1.661   3.809   2.205
10388SOL     OW32062   1.787   4.754   2.463
10388SOL    HW132063   1.880   4.727   2.440
10388SOL    HW232064   1.779   4.765   2.562
10389SOL     OW32065   0.678   5.676   3.767
10389SOL    HW132066   0.618   5.639   3.837
10389SOL    HW232067   0.773   5.658   3.792
10390SOL     OW32068   2.193   3.921   3.424
10390SOL    HW132069   2.182   3.855   3.497
10390SOL    HW232070   2.224   4.008   3.462
10391SOL     OW32071   3.689   6.180   4.797
10391SOL    HW132072   3.668   6.232   4.880
10391SOL    HW232073   3.667   6.084   4.811
10392SOL     OW32074   6.248   5.237   6.711
10392SOL    HW132075   6.223   5.322   6.758
10392SOL    HW232076   6.249   5.162   6.777
10393SOL     OW32077   0.363   0.948   4.491
10393SOL    HW132078   0.315   1.035   4.484
10393SOL    HW232079   0.461   0.962   4.476
10394SOL     OW32080   3.156   6.905   1.137
10394SOL    HW132081   3.192   6.889   1.229
10394SOL    HW232082   3.120   6.820   1.099
10395SOL     OW32083   1.867   1.243   4.784
10395SOL    HW132084   1.869   1.332   4.830
10395SOL    HW232085   1.835   1.173   4.849
10396SOL     OW32086   0.573   0.056   4.908
10396SOL    HW132087   0.520   6.993   4.930
10396SOL    HW232088   0.513   0.124   4.866
10397SOL     OW32089   4.576   1.909   2.813
10397SOL    HW132090   4.542   2.003   2.821
10397SOL    HW232091   4.597   1.891   2.717
10398SOL     OW32092   6.637   3.273   2.300
10398SOL    HW132093   6.587   3.274   2.213
10398SOL    HW232094   6.701   3.196   2.300
10399SOL     OW32095   6.130   2.839   5.114
10399SOL    HW132096   6.149   2.878   5.204
10399SOL    HW232097   6.056   2.891   5.070
10400SOL     OW32098   1.428   4.909   1.799
10400SOL    HW132099   1.375   4.830   1.829
10400SOL    HW232100   1.496   4.880   1.731
10401SOL     OW32101   1.235   5.271   1.020
10401SOL    HW132102   1.283   5.183   1.028
10401SOL    HW232103   1.138   5.257   1.040
10402SOL     OW32104   1.124   2.183   4.771
10402SOL    HW132105   1.217   2.204   4.741
10402SOL    HW232106   1.098   2.092   4.738
10403SOL     OW32107   5.517   0.882   2.547
10403SOL    HW132108   5.588   0.844   2.487
10403SOL    HW232109   5.444   0.816   2.559
10404SOL     OW32110   0.027   0.358   4.475
10404SOL    HW132111   0.012   0.272   4.427
10404SOL    HW232112   6.981   0.366   4.550
10405SOL     OW32113   2.713   6.717   0.031
10405SOL    HW132114   2.628   6.768   0.015
10405SOL    HW232115   2.708   6.629   7.002
10406SOL     OW32116   1.814   6.143   5.414
10406SOL    HW132117   1.770   6.053   5.411
10406SOL    HW232118   1.913   6.132   5.408
10407SOL     OW32119   1.844   1.547   6.270
10407SOL    HW132120   1.932   1.589   6.247
10407SOL    HW232121   1.774   1.579   6.206
10408SOL     OW32122   4.183   6.911   2.884
10408SOL    HW132123   4.087   6.890   2.867
10408SOL    HW232124   4.231   6.921   2.797
10409SOL     OW32125   6.647   4.891   2.248
10409SOL    HW132126   6.605   4.914   2.161
10409SOL    HW232127   6.585   4.834   2.302
10410SOL     OW32128   5.190   6.029   1.085
10410SOL    HW132129   5.091   6.031   1.098
10410SOL    HW232130   5.219   6.110   1.034
10411SOL     OW32131   1.669   4.674   2.218
10411SOL    HW132132   1.684   4.716   2.307
10411SOL    HW232133   1.687   4.575   2.224
10412SOL     OW32134   0.416   2.131   6.358
10412SOL    HW132135   0.501   2.180   6.340
10412SOL    HW232136   0.413   2.049   6.301
10413SOL     OW32137   6.853   1.586   5.245
10413SOL    HW132138   6.889   1.680   5.242
10413SOL    HW232139   6.758   1.588   5.274
10414SOL     OW32140   5.672   5.927   5.330
10414SOL    HW132141   5.743   5.997   5.337
10414SOL    HW232142   5.659   5.883   5.419
10415SOL     OW32143   6.619   5.504   3.153
10415SOL    HW132144   6.658   5.593   3.129
10415SOL    HW232145   6.520   5.509   3.149
10416SOL     OW32146   4.797   0.320   0.424
10416SOL    HW132147   4.704   0.288   0.442
10416SOL    HW232148   4.858   0.287   0.496
10417SOL     OW32149   4.603   4.293   3.840
10417SOL    HW132150   4.514   4.258   3.809
10417SOL    HW232151   4.676   4.256   3.782
10418SOL     OW32152   6.045   3.495   0.229
10418SOL    HW132153   6.143   3.507   0.218
10418SOL    HW232154   6.013   3.422   0.167
10419SOL     OW32155   1.734   0.595   5.088
10419SOL    HW132156   1.688   0.614   5.001
10419SOL    HW232157   1.813   0.655   5.097
10420SOL     OW32158   6.351   4.048   4.689
10420SOL    HW132159   6.252   4.064   4.688
10420SOL    HW232160   6.391   4.089   4.771
10421SOL     OW32161   0.800   3.932   4.211
10421SOL    HW132162   0.844   3.898   4.294
10421SOL    HW232163   0.728   3.869   4.182
10422SOL     OW32164   5.835   3.278   5.626
10422SOL    HW132165   5.883   3.191   5.633
10422SOL    HW232166   5.900   3.352   5.612
10423SOL     OW32167   2.662   5.219   2.769
10423SOL    HW132168   2.729   5.173   2.827
10423SOL    HW232169   2.687   5.207   2.673
10424SOL     OW32170   4.126   0.934   1.950
10424SOL    HW132171   4.207   0.897   1.905
10424SOL    HW232172   4.079   0.997   1.888
10425SOL     OW32173   1.092   3.901   0.407
10425SOL    HW132174   1.109   3.996   0.380
10425SOL    HW232175   1.010   3.897   0.464
10426SOL     OW32176   6.583   1.978   0.075
10426SOL    HW132177   6.495   1.951   0.038
10426SOL    HW232178   6.639   2.016   0.001
10427SOL     OW32179   5.980   0.738   4.114
10427SOL    HW132180   6.069   0.741   4.069
10427SOL    HW232181   5.977   0.808   4.186
10428SOL     OW32182   1.466   6.528   4.546
10428SOL    HW132183   1.467   6.433   4.516
10428SOL    HW232184   1.447   6.532   4.644
10429SOL     OW32185   2.230   4.128   1.405
10429SOL    HW132186   2.269   4.173   1.324
10429SOL    HW232187   2.302   4.116   1.474
10430SOL     OW32188   3.647   0.107   4.634
10430SOL    HW132189   3.592   0.050   4.695
10430SOL    HW232190   3.728   0.140   4.684
10431SOL     OW32191   4.063   2.174   4.104
10431SOL    HW132192   3.994   2.159   4.175
10431SOL    HW232193   4.019   2.188   4.016
10432SOL     OW32194   0.761   4.925   0.524
10432SOL    HW132195   0.826   4.899   0.595
10432SOL    HW232196   0.774   4.867   0.444
10433SOL     OW32197   3.599   6.207   4.534
10433SOL    HW132198   3.520   6.268   4.524
10433SOL    HW232199   3.649   6.231   4.617
10434SOL     OW32200   4.314   1.352   6.637
10434SOL    HW132201   4.414   1.349   6.644
10434SOL    HW232202   4.282   1.276   6.581
10435SOL     OW32203   2.576   1.544   1.451
10435SOL    HW132204   2.525   1.630   1.454
10435SOL    HW232205   2.666   1.560   1.412
10436SOL     OW32206   0.878   3.595   5.046
10436SOL    HW132207   0.908   3.502   5.024
10436SOL    HW232208   0.805   3.591   5.114
10437SOL     OW32209   6.771   6.434   4.572
10437SOL    HW132210   6.834   6.407   4.499
10437SOL    HW232211   6.702   6.496   4.535
10438SOL     OW32212   6.654   5.626   6.621
10438SOL    HW132213   6.613   5.714   6.599
10438SOL    HW232214   6.589   5.570   6.674
10439SOL     OW32215   6.166   5.440   4.413
10439SOL    HW132216   6.183   5.452   4.315
10439SOL    HW232217   6.202   5.352   4.442
10440SOL     OW32218   5.838   2.376   1.206
10440SOL    HW132219   5.757   2.319   1.215
10440SOL    HW232220   5.885   2.382   1.294
10441SOL     OW32221   4.284   2.088   6.515
10441SOL    HW132222   4.318   2.045   6.598
10441SOL    HW232223   4.185   2.082   6.512
10442SOL     OW32224   2.636   0.905   5.126
10442SOL    HW132225   2.553   0.896   5.181
10442SOL    HW232226   2.619   0.970   5.052
10443SOL     OW32227   1.125   0.576   0.172
10443SOL    HW132228   1.129   0.643   0.098
10443SOL    HW232229   1.045   0.517   0.160
10444SOL     OW32230   4.225   5.219   3.728
10444SOL    HW132231   4.142   5.265   3.694
10444SOL    HW232232   4.273   5.177   3.651
10445SOL     OW32233   1.136   3.604   3.832
10445SOL    HW132234   1.236   3.606   3.822
10445SOL    HW232235   1.094   3.575   3.746
10446SOL     OW32236   2.248   4.913   4.996
10446SOL    HW132237   2.301   4.831   4.971
10446SOL    HW232238   2.311   4.985   5.025
10447SOL     OW32239   1.067   1.999   2.649
10447SOL    HW132240   1.013   1.933   2.700
10447SOL    HW232241   1.061   2.089   2.694
10448SOL     OW32242   0.856   5.687   2.673
10448SOL    HW132243   0.944   5.648   2.700
10448SOL    HW232244   0.834   5.660   2.579
10449SOL     OW32245   3.922   4.897   4.755
10449SOL    HW132246   3.963   4.854   4.674
10449SOL    HW232247   3.829   4.927   4.734
10450SOL     OW32248   0.848   2.167   3.874
10450SOL    HW132249   0.817   2.096   3.937
10450SOL    HW232250   0.798   2.159   3.787
10451SOL     OW32251   3.435   1.837   4.230
10451SOL    HW132252   3.353   1.887   4.204
10451SOL    HW232253   3.500   1.838   4.155
10452SOL     OW32254   6.985   2.928   4.592
10452SOL    HW132255   6.950   2.865   4.661
10452SOL    HW232256   0.027   2.878   4.530
10453SOL     OW32257   3.862   4.901   4.418
10453SOL    HW132258   3.948   4.853   4.434
10453SOL    HW232259   3.830   4.941   4.504
10454SOL     OW32260   6.855   1.141   6.780
10454SOL    HW132261   6.822   1.201   6.707
10454SOL    HW232262   6.908   1.194   6.845
10455SOL     OW32263   0.550   6.066   2.476
10455SOL    HW132264   0.493   5.985   2.489
10455SOL    HW232265   0.615   6.074   2.552
10456SOL     OW32266   1.555   5.429   6.619
10456SOL    HW132267   1.494   5.484   6.676
10456SOL    HW232268   1.643   5.417   6.665
10457SOL     OW32269   4.219   1.454   0.428
10457SOL    HW132270   4.307   1.457   0.477
10457SOL    HW232271   4.202   1.361   0.396
10458SOL     OW32272   1.451   6.310   0.347
10458SOL    HW132273   1.510   6.309   0.267
10458SOL    HW232274   1.455   6.400   0.390
10459SOL     OW32275   5.999   6.058   1.506
10459SOL    HW132276   5.941   6.046   1.587
10459SOL    HW232277   6.024   5.968   1.470
10460SOL     OW32278   5.674   0.769   6.762
10460SOL    HW132279   5.646   0.683   6.719
10460SOL    HW232280   5.624   0.781   6.848
10461SOL     OW32281   0.300   3.973   5.654
10461SOL    HW132282   0.306   3.874   5.660
10461SOL    HW232283   0.279   4.000   5.560
10462SOL     OW32284   3.921   4.103   6.619
10462SOL    HW132285   3.940   4.018   6.571
10462SOL    HW232286   3.855   4.086   6.693
10463SOL     OW32287   4.844   2.579   5.986
10463SOL    HW132288   4.818   2.662   5.935
10463SOL    HW232289   4.894   2.517   5.925
10464SOL     OW32290   6.392   4.357   1.915
10464SOL    HW132291   6.372   4.289   1.846
10464SOL    HW232292   6.425   4.441   1.871
10465SOL     OW32293   5.348   4.202   1.595
10465SOL    HW132294   5.358   4.238   1.688
10465SOL    HW232295   5.274   4.136   1.592
10466SOL     OW32296   5.829   3.851   5.372
10466SOL    HW132297   5.913   3.816   5.413
10466SOL    HW232298   5.821   3.818   5.278
10467SOL     OW32299   0.320   2.569   7.001
10467SOL    HW132300   0.379   2.496   6.966
10467SOL    HW232301   0.226   2.554   6.971
10468SOL     OW32302   1.394   3.666   4.031
10468SOL    HW132303   1.471   3.604   4.050
10468SOL    HW232304   1.406   3.708   3.941
10469SOL     OW32305   1.427   1.661   3.943
10469SOL    HW132306   1.343   1.714   3.957
10469SOL    HW232307   1.502   1.704   3.992
10470SOL     OW32308   2.258   4.021   1.877
10470SOL    HW132309   2.173   4.071   1.866
10470SOL    HW232310   2.302   4.010   1.788
10471SOL     OW32311   2.715   4.769   0.007
10471SOL    HW132312   2.738   4.760   6.929
10471SOL    HW232313   2.622   4.806   0.016
10472SOL     OW32314   4.074   5.657   6.082
10472SOL    HW132315   4.140   5.601   6.033
10472SOL    HW232316   4.044   5.609   6.165
10473SOL     OW32317   6.516   5.261   7.007
10473SOL    HW132318   6.435   5.226   0.036
10473SOL    HW232319   6.593   5.198   0.001
10474SOL     OW32320   6.321   6.367   5.449
10474SOL    HW132321   6.399   6.321   5.491
10474SOL    HW232322   6.308   6.331   5.356
10475SOL     OW32323   0.511   5.306   1.531
10475SOL    HW132324   0.535   5.397   1.564
10475SOL    HW232325   0.569   5.238   1.577
10476SOL     OW32326   5.435   0.044   1.296
10476SOL    HW132327   5.342   0.015   1.273
10476SOL    HW232328   5.438   0.072   1.392
10477SOL     OW32329   6.832   5.702   3.650
10477SOL    HW132330   6.814   5.772   3.719
10477SOL    HW232331   6.753   5.693   3.590
10478SOL     OW32332   0.268   0.808   6.412
10478SOL    HW132333   0.239   0.712   6.407
10478SOL    HW232334   0.366   0.814   6.394
10479SOL     OW32335   0.648   3.634   2.020
10479SOL    HW132336   0.584   3.593   2.085
10479SOL    HW232337   0.696   3.710   2.063
10480SOL     OW32338   2.528   0.703   3.151
10480SOL    HW132339   2.439   0.685   3.110
10480SOL    HW232340   2.530   0.797   3.185
10481SOL     OW32341   6.431   1.126   1.297
10481SOL    HW132342   6.374   1.049   1.325
10481SOL    HW232343   6.519   1.092   1.263
10482SOL     OW32344   5.502   3.806   4.257
10482SOL    HW132345   5.411   3.787   4.295
10482SOL    HW232346   5.520   3.744   4.181
10483SOL     OW32347   5.844   0.480   6.939
10483SOL    HW132348   5.890   0.504   6.854
10483SOL    HW232349   5.823   0.382   6.939
10484SOL     OW32350   6.131   0.926   1.934
10484SOL    HW132351   6.073   0.846   1.919
10484SOL    HW232352   6.210   0.922   1.873
10485SOL     OW32353   5.672   3.181   5.315
10485SOL    HW132354   5.755   3.187   5.371
10485SOL    HW232355   5.645   3.273   5.285
10486SOL     OW32356   5.266   2.505   2.438
10486SOL    HW132357   5.264   2.570   2.514
10486SOL    HW232358   5.266   2.556   2.351
10487SOL     OW32359   4.280   6.967   2.621
10487SOL    HW132360   4.334   6.896   2.576
10487SOL    HW232361   4.342   0.015   2.662
10488SOL     OW32362   3.648   4.285   6.490
10488SOL    HW132363   3.602   4.227   6.423
10488SOL    HW232364   3.745   4.261   6.495
10489SOL     OW32365   1.520   4.990   4.920
10489SOL    HW132366   1.429   5.010   4.884
10489SOL    HW232367   1.589   5.030   4.860
10490SOL     OW32368   6.206   0.385   4.206
10490SOL    HW132369   6.266   0.325   4.260
10490SOL    HW232370   6.255   0.416   4.124
10491SOL     OW32371   6.881   5.364   5.384
10491SOL    HW132372   6.880   5.275   5.339
10491SOL    HW232373   6.872   5.436   5.316
10492SOL     OW32374   4.960   4.229   5.836
10492SOL    HW132375   4.933   4.317   5.797
10492SOL    HW232376   5.018   4.180   5.771
10493SOL     OW32377   3.792   1.692   1.044
10493SOL    HW132378   3.886   1.676   1.072
10493SOL    HW232379   3.766   1.625   0.975
10494SOL     OW32380   5.337   1.733   5.586
10494SOL    HW132381   5.241   1.763   5.579
10494SOL    HW232382   5.339   1.634   5.597
10495SOL     OW32383   1.889   6.757   6.503
10495SOL    HW132384   1.952   6.706   6.443
10495SOL    HW232385   1.894   6.854   6.482
10496SOL     OW32386   6.270   0.046   5.354
10496SOL    HW132387   6.269   6.980   5.300
10496SOL    HW232388   6.345   0.104   5.323
10497SOL     OW32389   1.290   1.457   6.416
10497SOL    HW132390   1.247   1.485   6.502
10497SOL    HW232391   1.354   1.528   6.386
10498SOL     OW32392   3.506   5.091   6.039
10498SOL    HW132393   3.480   5.165   6.101
10498SOL    HW232394   3.455   5.008   6.063
10499SOL     OW32395   2.726   5.884   3.018
10499SOL    HW132396   2.782   5.949   2.967
10499SOL    HW232397   2.668   5.833   2.955
10500SOL     OW32398   2.599   2.141   6.605
10500SOL    HW132399   2.516   2.086   6.598
10500SOL    HW232400   2.596   2.214   6.536
10501SOL     OW32401   1.582   3.712   3.120
10501SOL    HW132402   1.520   3.790   3.125
10501SOL    HW232403   1.547   3.645   3.054
10502SOL     OW32404   3.351   5.522   4.600
10502SOL    HW132405   3.273   5.473   4.560
10502SOL    HW232406   3.327   5.553   4.692
10503SOL     OW32407   2.557   2.993   5.890
10503SOL    HW132408   2.599   3.059   5.828
10503SOL    HW232409   2.600   2.904   5.878
10504SOL     OW32410   2.168   3.867   1.306
10504SOL    HW132411   2.189   3.958   1.342
10504SOL    HW232412   2.121   3.875   1.219
10505SOL     OW32413   0.700   6.582   0.501
10505SOL    HW132414   0.657   6.649   0.562
10505SOL    HW232415   0.738   6.507   0.555
10506SOL     OW32416   0.095   4.114   5.187
10506SOL    HW132417   0.078   4.140   5.093
10506SOL    HW232418   0.041   4.033   5.209
10507SOL     OW32419   1.821   0.275   3.354
10507SOL    HW132420   1.822   0.359   3.407
10507SOL    HW232421   1.825   0.196   3.416
10508SOL     OW32422   6.030   3.829   2.644
10508SOL    HW132423   5.983   3.876   2.570
10508SOL    HW232424   5.991   3.738   2.656
10509SOL     OW32425   2.341   0.711   5.870
10509SOL    HW132426   2.413   0.660   5.918
10509SOL    HW232427   2.290   0.766   5.936
10510SOL     OW32428   5.847   7.008   0.125
10510SOL    HW132429   5.928   7.008   0.182
10510SOL    HW232430   5.848   0.069   0.065
10511SOL     OW32431   7.010   2.626   1.460
10511SOL    HW132432   6.976   2.552   1.519
10511SOL    HW232433   7.004   2.598   1.365
10512SOL     OW32434   2.600   0.581   6.389
10512SOL    HW132435   2.636   0.502   6.339
10512SOL    HW232436   2.552   0.549   6.471
10513SOL     OW32437   0.548   1.824   0.126
10513SOL    HW132438   0.518   1.730   0.107
10513SOL    HW232439   0.487   1.887   0.079
10514SOL     OW32440   0.590   3.008   1.785
10514SOL    HW132441   0.637   3.094   1.802
10514SOL    HW232442   0.583   2.955   1.869
10515SOL     OW32443   6.503   3.015   4.504
10515SOL    HW132444   6.494   2.917   4.525
10515SOL    HW232445   6.568   3.057   4.566
10516SOL     OW32446   2.803   6.713   0.775
10516SOL    HW132447   2.783   6.662   0.690
10516SOL    HW232448   2.751   6.673   0.850
10517SOL     OW32449   0.439   2.392   2.789
10517SOL    HW132450   0.484   2.324   2.848
10517SOL    HW232451   0.476   2.385   2.697
10518SOL     OW32452   0.716   6.034   2.697
10518SOL    HW132453   0.742   6.122   2.737
10518SOL    HW232454   0.645   5.992   2.754
10519SOL     OW32455   4.129   3.594   5.926
10519SOL    HW132456   4.172   3.675   5.967
10519SOL    HW232457   4.199   3.525   5.907
10520SOL     OW32458   3.601   5.086   6.440
10520SOL    HW132459   3.518   5.135   6.414
10520SOL    HW232460   3.622   5.104   6.536
10521SOL     OW32461   6.253   5.810   1.993
10521SOL    HW132462   6.188   5.846   1.926
10521SOL    HW232463   6.243   5.710   1.998
10522SOL     OW32464   7.008   0.083   1.978
10522SOL    HW132465   0.046   0.076   2.060
10522SOL    HW232466   6.917   0.115   2.004
10523SOL     OW32467   6.700   6.115   5.826
10523SOL    HW132468   6.633   6.189   5.820
10523SOL    HW232469   6.754   6.113   5.741
10524SOL     OW32470   4.997   0.704   4.387
10524SOL    HW132471   5.026   0.694   4.292
10524SOL    HW232472   4.898   0.691   4.394
10525SOL     OW32473   3.230   6.388   5.111
10525SOL    HW132474   3.325   6.408   5.135
10525SOL    HW232475   3.229   6.323   5.035
10526SOL     OW32476   5.024   6.723   2.509
10526SOL    HW132477   5.112   6.760   2.481
10526SOL    HW232478   5.036   6.669   2.592
10527SOL     OW32479   1.518   3.041   4.495
10527SOL    HW132480   1.527   3.140   4.503
10527SOL    HW232481   1.492   3.002   4.583
10528SOL     OW32482   6.022   5.021   5.360
10528SOL    HW132483   6.085   4.948   5.385
10528SOL    HW232484   6.019   5.089   5.434
10529SOL     OW32485   0.186   5.933   4.153
10529SOL    HW132486   0.098   5.888   4.132
10529SOL    HW232487   0.226   5.968   4.068
10530SOL     OW32488   1.510   1.805   5.340
10530SOL    HW132489   1.449   1.739   5.384
10530SOL    HW232490   1.467   1.895   5.340
10531SOL     OW32491   1.782   1.840   4.855
10531SOL    HW132492   1.772   1.929   4.811
10531SOL    HW232493   1.752   1.846   4.950
10532SOL     OW32494   3.093   3.129   5.008
10532SOL    HW132495   3.134   3.046   4.971
10532SOL    HW232496   3.042   3.176   4.936
10533SOL     OW32497   3.240   1.146   6.459
10533SOL    HW132498   3.204   1.155   6.367
10533SOL    HW232499   3.171   1.106   6.519
10534SOL     OW32500   5.398   5.066   1.223
10534SOL    HW132501   5.324   5.039   1.163
10534SOL    HW232502   5.392   5.165   1.241
10535SOL     OW32503   7.006   0.848   1.594
10535SOL    HW132504   6.947   0.801   1.659
10535SOL    HW232505   0.036   0.781   1.538
10536SOL     OW32506   5.464   5.943   3.180
10536SOL    HW132507   5.563   5.948   3.198
10536SOL    HW232508   5.420   6.025   3.217
10537SOL     OW32509   6.399   5.516   0.843
10537SOL    HW132510   6.362   5.604   0.874
10537SOL    HW232511   6.346   5.484   0.764
10538SOL     OW32512   4.395   3.867   6.889
10538SOL    HW132513   4.336   3.873   6.969
10538SOL    HW232514   4.346   3.903   6.809
10539SOL     OW32515   0.856   3.198   5.317
10539SOL    HW132516   0.865   3.161   5.224
10539SOL    HW232517   0.827   3.125   5.379
10540SOL     OW32518   3.580   0.587   0.273
10540SOL    HW132519   3.618   0.623   0.358
10540SOL    HW232520   3.510   0.519   0.294
10541SOL     OW32521   3.887   2.441   0.941
10541SOL    HW132522   3.902   2.531   0.901
10541SOL    HW232523   3.959   2.378   0.912
10542SOL     OW32524   1.562   2.017   0.042
10542SOL    HW132525   1.493   2.088   0.048
10542SOL    HW232526   1.581   1.980   0.133
10543SOL     OW32527   2.434   0.223   4.882
10543SOL    HW132528   2.497   0.251   4.954
10543SOL    HW232529   2.418   0.299   4.819
10544SOL     OW32530   6.956   2.349   1.832
10544SOL    HW132531   6.932   2.255   1.854
10544SOL    HW232532   0.011   2.380   1.892
10545SOL     OW32533   4.853   1.482   3.064
10545SOL    HW132534   4.812   1.391   3.070
10545SOL    HW232535   4.819   1.538   3.139
10546SOL     OW32536   4.114   1.370   5.362
10546SOL    HW132537   4.115   1.426   5.280
10546SOL    HW232538   4.114   1.273   5.337
10547SOL     OW32539   4.942   0.003   1.459
10547SOL    HW132540   4.949   0.031   1.554
10547SOL    HW232541   4.883   6.941   1.453
10548SOL     OW32542   4.492   4.467   5.304
10548SOL    HW132543   4.416   4.457   5.240
10548SOL    HW232544   4.457   4.490   5.395
10549SOL     OW32545   0.873   1.466   1.212
10549SOL    HW132546   0.854   1.559   1.243
10549SOL    HW232547   0.847   1.401   1.283
10550SOL     OW32548   5.102   6.329   4.897
10550SOL    HW132549   5.083   6.404   4.835
10550SOL    HW232550   5.189   6.344   4.944
10551SOL     OW32551   1.274   2.749   5.755
10551SOL    HW132552   1.307   2.688   5.682
10551SOL    HW232553   1.174   2.746   5.758
10552SOL     OW32554   3.172   2.170   4.801
10552SOL    HW132555   3.218   2.219   4.876
10552SOL    HW232556   3.075   2.162   4.821
10553SOL     OW32557   3.111   5.092   5.917
10553SOL    HW132558   3.195   5.062   5.870
10553SOL    HW232559   3.098   5.038   6.000
10554SOL     OW32560   6.375   3.989   5.897
10554SOL    HW132561   6.434   3.910   5.879
10554SOL    HW232562   6.287   3.975   5.852
10555SOL     OW32563   3.594   2.946   1.155
10555SOL    HW132564   3.579   2.850   1.132
10555SOL    HW232565   3.507   2.987   1.184
10556SOL     OW32566   1.557   3.517   3.622
10556SOL    HW132567   1.524   3.554   3.535
10556SOL    HW232568   1.530   3.421   3.630
10557SOL     OW32569   5.488   1.317   3.739
10557SOL    HW132570   5.558   1.271   3.684
10557SOL    HW232571   5.406   1.329   3.684
10558SOL     OW32572   5.274   6.066   5.038
10558SOL    HW132573   5.192   6.119   5.059
10558SOL    HW232574   5.247   5.975   5.004
10559SOL     OW32575   4.466   2.578   0.900
10559SOL    HW132576   4.402   2.516   0.946
10559SOL    HW232577   4.508   2.530   0.822
10560SOL     OW32578   7.015   2.334   4.464
10560SOL    HW132579   6.982   2.339   4.558
10560SOL    HW232580   6.973   2.406   4.410
10561SOL     OW32581   2.097   4.010   6.389
10561SOL    HW132582   2.068   4.094   6.434
10561SOL    HW232583   2.194   4.017   6.365
10562SOL     OW32584   3.663   1.603   0.409
10562SOL    HW132585   3.596   1.663   0.453
10562SOL    HW232586   3.715   1.655   0.341
10563SOL     OW32587   1.186   2.463   2.512
10563SOL    HW132588   1.280   2.476   2.546
10563SOL    HW232589   1.189   2.412   2.426
10564SOL     OW32590   0.040   1.891   2.133
10564SOL    HW132591   6.959   1.894   2.130
10564SOL    HW232592   0.076   1.888   2.039
10565SOL     OW32593   5.087   1.566   4.696
10565SOL    HW132594   5.017   1.509   4.738
10565SOL    HW232595   5.165   1.576   4.759
10566SOL     OW32596   4.464   5.344   6.901
10566SOL    HW132597   4.482   5.420   6.839
10566SOL    HW232598   4.380   5.297   6.873
10567SOL     OW32599   2.469   5.226   4.415
10567SOL    HW132600   2.382   5.224   4.366
10567SOL    HW232601   2.453   5.244   4.512
10568SOL     OW32602   3.675   1.304   3.182
10568SOL    HW132603   3.677   1.204   3.189
10568SOL    HW232604   3.648   1.343   3.270
10569SOL     OW32605   6.535   2.781   3.425
10569SOL    HW132606   6.625   2.821   3.441
10569SOL    HW232607   6.468   2.854   3.413
10570SOL     OW32608   1.363   4.057   0.983
10570SOL    HW132609   1.459   4.070   0.962
10570SOL    HW232610   1.339   3.960   0.974
10571SOL     OW32611   6.254   6.746   4.480
10571SOL    HW132612   6.276   6.842   4.460
10571SOL    HW232613   6.165   6.741   4.525
10572SOL     OW32614   6.970   3.405   1.605
10572SOL    HW132615   6.973   3.502   1.580
10572SOL    HW232616   6.906   3.357   1.545
10573SOL     OW32617   5.814   4.792   5.761
10573SOL    HW132618   5.786   4.846   5.682
10573SOL    HW232619   5.745   4.799   5.833
10574SOL     OW32620   0.235   2.447   3.231
10574SOL    HW132621   0.191   2.520   3.283
10574SOL    HW232622   0.326   2.476   3.202
10575SOL     OW32623   1.009   6.921   6.321
10575SOL    HW132624   1.024   6.980   6.400
10575SOL    HW232625   1.017   6.975   6.237
10576SOL     OW32626   1.150   5.708   3.279
10576SOL    HW132627   1.137   5.621   3.232
10576SOL    HW232628   1.089   5.777   3.240
10577SOL     OW32629   0.620   2.643   5.809
10577SOL    HW132630   0.527   2.606   5.805
10577SOL    HW232631   0.618   2.734   5.851
10578SOL     OW32632   5.556   1.252   5.364
10578SOL    HW132633   5.633   1.309   5.392
10578SOL    HW232634   5.552   1.171   5.421
10579SOL     OW32635   5.653   6.845   0.550
10579SOL    HW132636   5.686   6.798   0.631
10579SOL    HW232637   5.563   6.885   0.569
10580SOL     OW32638   0.578   5.998   0.273
10580SOL    HW132639   0.572   6.081   0.329
10580SOL    HW232640   0.591   6.024   0.177
10581SOL     OW32641   4.698   2.642   3.895
10581SOL    HW132642   4.778   2.584   3.883
10581SOL    HW232643   4.676   2.687   3.809
10582SOL     OW32644   3.112   4.687   0.329
10582SOL    HW132645   3.147   4.688   0.235
10582SOL    HW232646   3.172   4.631   0.386
10583SOL     OW32647   4.654   1.048   1.482
10583SOL    HW132648   4.562   1.064   1.516
10583SOL    HW232649   4.653   0.969   1.420
10584SOL     OW32650   6.085   6.461   0.941
10584SOL    HW132651   6.108   6.363   0.944
10584SOL    HW232652   6.052   6.490   1.031
10585SOL     OW32653   2.482   4.409   6.528
10585SOL    HW132654   2.399   4.428   6.476
10585SOL    HW232655   2.469   4.435   6.623
10586SOL     OW32656   4.991   1.836   0.923
10586SOL    HW132657   5.072   1.827   0.865
10586SOL    HW232658   5.014   1.807   1.016
10587SOL     OW32659   5.949   2.976   0.362
10587SOL    HW132660   5.864   2.929   0.384
10587SOL    HW232661   5.994   3.006   0.446
10588SOL     OW32662   1.317   4.930   3.015
10588SOL    HW132663   1.241   4.991   3.037
10588SOL    HW232664   1.390   4.983   2.972
10589SOL     OW32665   5.721   1.886   4.210
10589SOL    HW132666   5.678   1.955   4.268
10589SOL    HW232667   5.792   1.838   4.263
10590SOL     OW32668   1.264   0.117   5.316
10590SOL    HW132669   1.232   0.112   5.410
10590SOL    HW232670   1.318   0.200   5.303
10591SOL     OW32671   1.570   2.487   1.666
10591SOL    HW132672   1.664   2.451   1.667
10591SOL    HW232673   1.518   2.447   1.741
10592SOL     OW32674   5.817   1.212   6.374
10592SOL    HW132675   5.915   1.221   6.392
10592SOL    HW232676   5.783   1.297   6.335
10593SOL     OW32677   1.075   4.586   1.549
10593SOL    HW132678   1.042   4.503   1.592
10593SOL    HW232679   1.084   4.572   1.451
10594SOL     OW32680   1.750   1.328   4.319
10594SOL    HW132681   1.732   1.230   4.328
10594SOL    HW232682   1.836   1.351   4.365
10595SOL     OW32683   2.344   6.182   4.619
10595SOL    HW132684   2.323   6.110   4.553
10595SOL    HW232685   2.259   6.223   4.652
10596SOL     OW32686   3.379   1.056   1.840
10596SOL    HW132687   3.450   1.053   1.910
10596SOL    HW232688   3.411   1.008   1.758
10597SOL     OW32689   1.235   0.758   4.107
10597SOL    HW132690   1.171   0.688   4.138
10597SOL    HW232691   1.288   0.723   4.030
10598SOL     OW32692   2.291   1.012   0.390
10598SOL    HW132693   2.382   1.054   0.384
10598SOL    HW232694   2.237   1.058   0.460
10599SOL     OW32695   4.766   0.644   6.518
10599SOL    HW132696   4.807   0.553   6.508
10599SOL    HW232697   4.687   0.638   6.578
10600SOL     OW32698   1.470   2.944   4.999
10600SOL    HW132699   1.419   3.026   4.972
10600SOL    HW232700   1.442   2.916   5.091
10601SOL     OW32701   3.125   5.980   5.359
10601SOL    HW132702   3.139   5.943   5.267
10601SOL    HW232703   3.047   5.936   5.401
10602SOL     OW32704   4.901   1.173   1.413
10602SOL    HW132705   4.826   1.108   1.426
10602SOL    HW232706   4.886   1.254   1.470
10603SOL     OW32707   0.792   5.387   5.035
10603SOL    HW132708   0.744   5.450   5.095
10603SOL    HW232709   0.727   5.348   4.969
10604SOL     OW32710   0.491   3.970   5.396
10604SOL    HW132711   0.516   4.049   5.453
10604SOL    HW232712   0.473   4.001   5.303
10605SOL     OW32713   1.651   5.036   6.627
10605SOL    HW132714   1.630   5.094   6.706
10605SOL    HW232715   1.620   5.080   6.543
10606SOL     OW32716   0.152   0.947   2.192
10606SOL    HW132717   0.134   0.922   2.097
10606SOL    HW232718   0.096   1.025   2.218
10607SOL     OW32719   5.680   4.530   6.106
10607SOL    HW132720   5.743   4.502   6.033
10607SOL    HW232721   5.717   4.611   6.152
10608SOL     OW32722   5.529   0.088   2.763
10608SOL    HW132723   5.446   0.133   2.730
10608SOL    HW232724   5.574   0.147   2.830
10609SOL     OW32725   4.009   6.920   2.531
10609SOL    HW132726   4.098   6.951   2.565
10609SOL    HW232727   3.937   6.950   2.593
10610SOL     OW32728   1.936   4.394   4.822
10610SOL    HW132729   1.959   4.475   4.767
10610SOL    HW232730   1.968   4.408   4.916
10611SOL     OW32731   4.729   2.174   6.476
10611SOL    HW132732   4.688   2.141   6.561
10611SOL    HW232733   4.687   2.261   6.450
10612SOL     OW32734   1.762   0.485   1.221
10612SOL    HW132735   1.743   0.570   1.270
10612SOL    HW232736   1.676   0.441   1.195
10613SOL     OW32737   0.637   6.493   6.829
10613SOL    HW132738   0.591   6.512   6.916
10613SOL    HW232739   0.624   6.570   6.767
10614SOL     OW32740   0.006   0.859   2.834
10614SOL    HW132741   0.068   0.879   2.909
10614SOL    HW232742   0.016   0.764   2.806
10615SOL     OW32743   0.320   6.397   5.215
10615SOL    HW132744   0.399   6.344   5.183
10615SOL    HW232745   0.311   6.388   5.314
10616SOL     OW32746   2.773   6.034   1.478
10616SOL    HW132747   2.760   6.106   1.410
10616SOL    HW232748   2.690   5.980   1.487
10617SOL     OW32749   0.599   1.525   6.811
10617SOL    HW132750   0.622   1.428   6.805
10617SOL    HW232751   0.570   1.547   6.904
10618SOL     OW32752   6.047   3.887   0.583
10618SOL    HW132753   6.045   3.795   0.544
10618SOL    HW232754   6.142   3.919   0.588
10619SOL     OW32755   0.799   3.681   3.076
10619SOL    HW132756   0.706   3.711   3.096
10619SOL    HW232757   0.804   3.649   2.981
10620SOL     OW32758   1.692   5.166   4.558
10620SOL    HW132759   1.644   5.080   4.541
10620SOL    HW232760   1.631   5.231   4.603
10621SOL     OW32761   3.610   6.257   0.526
10621SOL    HW132762   3.588   6.199   0.448
10621SOL    HW232763   3.554   6.231   0.604
10622SOL     OW32764   4.102   1.930   0.958
10622SOL    HW132765   4.184   1.977   0.992
10622SOL    HW232766   4.026   1.994   0.953
10623SOL     OW32767   7.015   1.132   4.883
10623SOL    HW132768   6.971   1.065   4.823
10623SOL    HW232769   6.946   1.195   4.918
10624SOL     OW32770   2.988   0.881   3.836
10624SOL    HW132771   2.937   0.954   3.881
10624SOL    HW232772   3.061   0.850   3.897
10625SOL     OW32773   0.813   2.729   0.611
10625SOL    HW132774   0.754   2.769   0.541
10625SOL    HW232775   0.881   2.670   0.567
10626SOL     OW32776   6.137   2.526   2.061
10626SOL    HW132777   6.055   2.572   2.028
10626SOL    HW232778   6.185   2.483   1.984
10627SOL     OW32779   5.477   5.972   4.721
10627SOL    HW132780   5.416   5.898   4.750
10627SOL    HW232781   5.549   5.935   4.662
10628SOL     OW32782   0.161   5.696   5.779
10628SOL    HW132783   0.184   5.786   5.742
10628SOL    HW232784   0.079   5.703   5.835
10629SOL     OW32785   2.550   4.470   0.094
10629SOL    HW132786   2.619   4.500   0.028
10629SOL    HW232787   2.564   4.374   0.116
10630SOL     OW32788   6.012   0.665   1.905
10630SOL    HW132789   6.085   0.604   1.875
10630SOL    HW232790   5.940   0.667   1.836
10631SOL     OW32791   1.538   6.975   4.813
10631SOL    HW132792   1.533   6.891   4.868
10631SOL    HW232793   1.478   6.966   4.734
10632SOL     OW32794   6.874   3.182   6.328
10632SOL    HW132795   6.821   3.135   6.257
10632SOL    HW232796   6.972   3.179   6.305
10633SOL     OW32797   1.307   5.248   0.198
10633SOL    HW132798   1.208   5.261   0.205
10633SOL    HW232799   1.350   5.269   0.286
10634SOL     OW32800   3.609   6.189   2.457
10634SOL    HW132801   3.514   6.181   2.426
10634SOL    HW232802   3.663   6.236   2.386
10635SOL     OW32803   1.896   1.389   1.311
10635SOL    HW132804   1.890   1.421   1.405
10635SOL    HW232805   1.832   1.442   1.254
10636SOL     OW32806   5.182   1.411   1.126
10636SOL    HW132807   5.202   1.508   1.117
10636SOL    HW232808   5.084   1.398   1.138
10637SOL     OW32809   2.869   4.269   6.249
10637SOL    HW132810   2.914   4.315   6.173
10637SOL    HW232811   2.903   4.306   6.336
10638SOL     OW32812   6.710   0.066   6.061
10638SOL    HW132813   6.649   0.140   6.089
10638SOL    HW232814   6.798   0.076   6.108
10639SOL     OW32815   3.505   2.139   4.972
10639SOL    HW132816   3.477   2.229   5.006
10639SOL    HW232817   3.443   2.069   5.009
10640SOL     OW32818   4.748   6.268   0.771
10640SOL    HW132819   4.666   6.269   0.714
10640SOL    HW232820   4.730   6.217   0.854
10641SOL     OW32821   3.390   6.891   6.876
10641SOL    HW132822   3.416   6.843   6.960
10641SOL    HW232823   3.471   6.908   6.820
10642SOL     OW32824   0.039   5.074   0.272
10642SOL    HW132825   0.083   5.163   0.287
10642SOL    HW232826   6.991   5.057   0.343
10643SOL     OW32827   4.300   3.091   5.318
10643SOL    HW132828   4.274   3.181   5.282
10643SOL    HW232829   4.400   3.082   5.314
10644SOL     OW32830   3.808   1.126   4.921
10644SOL    HW132831   3.811   1.152   5.018
10644SOL    HW232832   3.894   1.151   4.877
10645SOL     OW32833   2.196   0.129   4.812
10645SOL    HW132834   2.159   0.210   4.766
10645SOL    HW232835   2.274   0.156   4.869
10646SOL     OW32836   0.195   4.892   6.829
10646SOL    HW132837   0.229   4.856   6.742
10646SOL    HW232838   0.133   4.826   6.871
10647SOL     OW32839   0.588   5.882   0.561
10647SOL    HW132840   0.684   5.903   0.575
10647SOL    HW232841   0.561   5.905   0.467
10648SOL     OW32842   4.824   4.678   6.208
10648SOL    HW132843   4.899   4.689   6.144
10648SOL    HW232844   4.850   4.612   6.279
10649SOL     OW32845   0.290   4.219   6.168
10649SOL    HW132846   0.278   4.157   6.090
10649SOL    HW232847   0.333   4.170   6.243
10650SOL     OW32848   2.787   0.439   5.786
10650SOL    HW132849   2.823   0.505   5.720
10650SOL    HW232850   2.703   0.398   5.750
10651SOL     OW32851   2.509   0.799   5.378
10651SOL    HW132852   2.465   0.822   5.464
10651SOL    HW232853   2.608   0.800   5.389
10652SOL     OW32854   3.986   1.610   0.492
10652SOL    HW132855   4.066   1.551   0.501
10652SOL    HW232856   3.985   1.650   0.400
10653SOL     OW32857   6.500   3.874   4.146
10653SOL    HW132858   6.588   3.922   4.156
10653SOL    HW232859   6.450   3.912   4.068
10654SOL     OW32860   4.711   0.786   1.959
10654SOL    HW132861   4.694   0.845   2.037
10654SOL    HW232862   4.623   0.752   1.923
10655SOL     OW32863   2.321   5.466   1.428
10655SOL    HW132864   2.356   5.373   1.432
10655SOL    HW232865   2.231   5.469   1.471
10656SOL     OW32866   6.547   2.956   6.789
10656SOL    HW132867   6.612   3.030   6.775
10656SOL    HW232868   6.480   2.956   6.715
10657SOL     OW32869   6.294   0.110   0.873
10657SOL    HW132870   6.382   0.130   0.917
10657SOL    HW232871   6.224   0.097   0.944
10658SOL     OW32872   0.118   6.271   4.168
10658SOL    HW132873   0.060   6.271   4.087
10658SOL    HW232874   0.098   6.191   4.225
10659SOL     OW32875   4.856   1.124   1.115
10659SOL    HW132876   4.878   1.085   1.204
10659SOL    HW232877   4.761   1.105   1.092
10660SOL     OW32878   5.686   5.640   5.844
10660SOL    HW132879   5.642   5.568   5.898
10660SOL    HW232880   5.635   5.725   5.853
10661SOL     OW32881   0.155   0.621   1.990
10661SOL    HW132882   0.176   0.718   1.981
10661SOL    HW232883   0.232   0.573   2.032
10662SOL     OW32884   6.793   1.934   0.219
10662SOL    HW132885   6.708   1.951   0.168
10662SOL    HW232886   6.784   1.849   0.270
10663SOL     OW32887   1.024   2.308   0.603
10663SOL    HW132888   0.936   2.352   0.585
10663SOL    HW232889   1.081   2.312   0.521
10664SOL     OW32890   2.049   5.245   5.957
10664SOL    HW132891   2.086   5.166   6.007
10664SOL    HW232892   1.950   5.239   5.953
10665SOL     OW32893   5.911   1.622   6.905
10665SOL    HW132894   5.879   1.680   6.980
10665SOL    HW232895   5.944   1.535   6.941
10666SOL     OW32896   0.674   0.044   0.421
10666SOL    HW132897   0.738   0.003   0.486
10666SOL    HW232898   0.582   0.007   0.438
10667SOL     OW32899   2.725   2.612   5.739
10667SOL    HW132900   2.665   2.573   5.810
10667SOL    HW232901   2.791   2.543   5.710
10668SOL     OW32902   2.193   0.909   6.118
10668SOL    HW132903   2.120   0.966   6.080
10668SOL    HW232904   2.248   0.963   6.182
10669SOL     OW32905   1.883   6.163   6.495
10669SOL    HW132906   1.800   6.107   6.497
10669SOL    HW232907   1.877   6.234   6.565
10670SOL     OW32908   6.474   4.164   4.929
10670SOL    HW132909   6.402   4.223   4.966
10670SOL    HW232910   6.557   4.218   4.916
10671SOL     OW32911   2.005   2.836   3.243
10671SOL    HW132912   1.999   2.863   3.340
10671SOL    HW232913   2.097   2.854   3.209
10672SOL     OW32914   6.776   2.396   0.851
10672SOL    HW132915   6.844   2.353   0.791
10672SOL    HW232916   6.726   2.325   0.901
10673SOL     OW32917   3.352   3.949   4.043
10673SOL    HW132918   3.323   3.858   4.015
10673SOL    HW232919   3.391   3.998   3.965
10674SOL     OW32920   4.132   1.297   2.278
10674SOL    HW132921   4.179   1.237   2.342
10674SOL    HW232922   4.034   1.297   2.299
10675SOL     OW32923   1.013   1.350   5.426
10675SOL    HW132924   0.991   1.392   5.338
10675SOL    HW232925   0.929   1.330   5.476
10676SOL     OW32926   6.735   0.416   6.741
10676SOL    HW132927   6.728   0.469   6.656
10676SOL    HW232928   6.773   0.326   6.720
10677SOL     OW32929   5.672   1.115   0.557
10677SOL    HW132930   5.663   1.207   0.519
10677SOL    HW232931   5.734   1.117   0.635
10678SOL     OW32932   1.509   5.179   3.206
10678SOL    HW132933   1.584   5.169   3.272
10678SOL    HW232934   1.544   5.164   3.114
10679SOL     OW32935   5.020   4.831   3.766
10679SOL    HW132936   4.971   4.873   3.843
10679SOL    HW232937   5.113   4.866   3.764
10680SOL     OW32938   0.472   2.642   3.487
10680SOL    HW132939   0.508   2.549   3.483
10680SOL    HW232940   0.424   2.664   3.402
10681SOL     OW32941   0.498   2.909   6.914
10681SOL    HW132942   0.427   2.848   6.879
10681SOL    HW232943   0.524   2.882   7.006
10682SOL     OW32944   6.420   1.974   3.340
10682SOL    HW132945   6.399   1.934   3.250
10682SOL    HW232946   6.481   1.912   3.389
10683SOL     OW32947   1.055   0.580   4.148
10683SOL    HW132948   1.028   0.493   4.106
10683SOL    HW232949   0.989   0.606   4.218
10684SOL     OW32950   5.211   5.797   0.901
10684SOL    HW132951   5.125   5.813   0.853
10684SOL    HW232952   5.225   5.868   0.970
10685SOL     OW32953   6.225   2.811   2.465
10685SOL    HW132954   6.225   2.730   2.406
10685SOL    HW232955   6.309   2.863   2.448
10686SOL     OW32956   4.309   4.456   1.418
10686SOL    HW132957   4.287   4.453   1.321
10686SOL    HW232958   4.316   4.551   1.448
10687SOL     OW32959   6.738   5.209   0.968
10687SOL    HW132960   6.733   5.233   0.871
10687SOL    HW232961   6.681   5.271   1.021
10688SOL     OW32962   1.017   4.924   1.027
10688SOL    HW132963   0.982   4.836   1.058
10688SOL    HW232964   1.110   4.913   0.992
10689SOL     OW32965   1.194   0.478   0.806
10689SOL    HW132966   1.129   0.547   0.773
10689SOL    HW232967   1.145   0.413   0.864
10690SOL     OW32968   4.475   0.044   3.157
10690SOL    HW132969   4.443   0.012   3.247
10690SOL    HW232970   4.399   0.040   3.092
10691SOL     OW32971   5.643   1.092   1.585
10691SOL    HW132972   5.737   1.103   1.618
10691SOL    HW232973   5.604   1.008   1.622
10692SOL     OW32974   6.390   6.856   3.888
10692SOL    HW132975   6.490   6.863   3.889
10692SOL    HW232976   6.362   6.790   3.957
10693SOL     OW32977   4.912   3.206   4.433
10693SOL    HW132978   4.858   3.125   4.452
10693SOL    HW232979   5.008   3.189   4.457
10694SOL     OW32980   2.340   6.149   0.381
10694SOL    HW132981   2.295   6.188   0.462
10694SOL    HW232982   2.437   6.175   0.381
10695SOL     OW32983   5.671   3.492   5.934
10695SOL    HW132984   5.769   3.485   5.954
10695SOL    HW232985   5.656   3.478   5.836
10696SOL     OW32986   6.474   6.845   0.981
10696SOL    HW132987   6.482   6.749   0.952
10696SOL    HW232988   6.512   6.904   0.909
10697SOL     OW32989   1.997   6.206   3.268
10697SOL    HW132990   1.901   6.226   3.247
10697SOL    HW232991   2.005   6.111   3.298
10698SOL     OW32992   3.053   0.434   4.946
10698SOL    HW132993   2.995   0.505   4.906
10698SOL    HW232994   3.079   0.369   4.875
10699SOL     OW32995   1.736   2.684   3.743
10699SOL    HW132996   1.705   2.638   3.826
10699SOL    HW232997   1.662   2.739   3.705
10700SOL     OW32998   1.118   2.938   2.479
10700SOL    HW132999   1.035   2.966   2.431
10700SOL    HW233000   1.105   2.847   2.519
10701SOL     OW33001   2.627   0.004   1.245
10701SOL    HW133002   2.544   0.038   1.202
10701SOL    HW233003   2.698   7.010   1.176
10702SOL     OW33004   4.984   2.290   0.790
10702SOL    HW133005   4.952   2.384   0.789
10702SOL    HW233006   5.042   2.274   0.710
10703SOL     OW33007   3.739   3.432   4.193
10703SOL    HW133008   3.652   3.390   4.222
10703SOL    HW233009   3.730   3.463   4.098
10704SOL     OW33010   5.539   5.396   2.274
10704SOL    HW133011   5.587   5.356   2.351
10704SOL    HW233012   5.441   5.396   2.291
10705SOL     OW33013   1.153   3.153   6.560
10705SOL    HW133014   1.077   3.159   6.625
10705SOL    HW233015   1.176   3.245   6.527
10706SOL     OW33016   3.621   3.328   0.966
10706SOL    HW133017   3.663   3.246   1.004
10706SOL    HW233018   3.691   3.382   0.919
10707SOL     OW33019   5.841   0.117   6.629
10707SOL    HW133020   5.922   0.133   6.573
10707SOL    HW233021   5.775   0.063   6.577
10708SOL     OW33022   4.895   1.927   1.868
10708SOL    HW133023   4.829   1.927   1.793
10708SOL    HW233024   4.875   2.002   1.931
10709SOL     OW33025   0.809   0.248   6.160
10709SOL    HW133026   0.878   0.318   6.143
10709SOL    HW233027   0.754   0.274   6.239
10710SOL     OW33028   0.193   5.971   3.485
10710SOL    HW133029   0.183   5.942   3.390
10710SOL    HW233030   0.263   6.041   3.492
10711SOL     OW33031   1.885   4.241   5.654
10711SOL    HW133032   1.817   4.293   5.602
10711SOL    HW233033   1.956   4.206   5.592
10712SOL     OW33034   3.417   1.863   6.699
10712SOL    HW133035   3.446   1.768   6.686
10712SOL    HW233036   3.318   1.866   6.713
10713SOL     OW33037   2.400   0.025   0.270
10713SOL    HW133038   2.367   0.113   0.238
10713SOL    HW233039   2.491   0.008   0.234
10714SOL     OW33040   5.052   5.274   4.351
10714SOL    HW133041   5.099   5.279   4.439
10714SOL    HW233042   5.021   5.180   4.335
10715SOL     OW33043   6.049   0.524   3.104
10715SOL    HW133044   6.104   0.580   3.041
10715SOL    HW233045   6.039   0.432   3.067
10716SOL     OW33046   6.765   1.021   2.038
10716SOL    HW133047   6.695   0.960   2.002
10716SOL    HW233048   6.743   1.046   2.133
10717SOL     OW33049   0.651   6.592   1.861
10717SOL    HW133050   0.647   6.503   1.814
10717SOL    HW233051   0.563   6.638   1.850
10718SOL     OW33052   0.930   4.495   5.107
10718SOL    HW133053   0.886   4.575   5.066
10718SOL    HW233054   0.898   4.412   5.061
10719SOL     OW33055   3.754   6.414   3.038
10719SOL    HW133056   3.668   6.408   2.988
10719SOL    HW233057   3.738   6.456   3.128
10720SOL     OW33058   0.387   2.918   5.858
10720SOL    HW133059   0.366   2.854   5.784
10720SOL    HW233060   0.376   3.012   5.824
10721SOL     OW33061   5.489   1.535   3.918
10721SOL    HW133062   5.579   1.520   3.960
10721SOL    HW233063   5.481   1.479   3.836
10722SOL     OW33064   0.731   5.389   0.563
10722SOL    HW133065   0.668   5.317   0.533
10722SOL    HW233066   0.680   5.473   0.578
10723SOL     OW33067   6.783   4.012   6.497
10723SOL    HW133068   6.801   3.940   6.563
10723SOL    HW233069   6.852   4.085   6.508
10724SOL     OW33070   3.511   6.717   5.790
10724SOL    HW133071   3.502   6.796   5.729
10724SOL    HW233072   3.424   6.702   5.837
10725SOL     OW33073   0.148   6.640   5.723
10725SOL    HW133074   0.070   6.612   5.779
10725SOL    HW233075   0.123   6.719   5.668
10726SOL     OW33076   0.031   0.226   3.164
10726SOL    HW133077   0.044   0.184   3.254
10726SOL    HW233078   7.004   0.161   3.103
10727SOL     OW33079   4.627   6.333   6.264
10727SOL    HW133080   4.537   6.360   6.229
10727SOL    HW233081   4.697   6.351   6.195
10728SOL     OW33082   5.922   5.811   3.655
10728SOL    HW133083   5.851   5.879   3.640
10728SOL    HW233084   5.916   5.776   3.748
10729SOL     OW33085   0.100   2.942   4.231
10729SOL    HW133086   0.060   2.859   4.269
10729SOL    HW233087   0.186   2.920   4.184
10730SOL     OW33088   1.502   6.238   4.462
10730SOL    HW133089   1.460   6.241   4.371
10730SOL    HW233090   1.555   6.154   4.472
10731SOL     OW33091   4.873   4.357   6.136
10731SOL    HW133092   4.828   4.328   6.051
10731SOL    HW233093   4.804   4.386   6.202
10732SOL     OW33094   6.040   6.202   1.811
10732SOL    HW133095   6.023   6.197   1.909
10732SOL    HW233096   6.123   6.256   1.794
10733SOL     OW33097   0.600   1.265   6.168
10733SOL    HW133098   0.519   1.206   6.170
10733SOL    HW233099   0.574   1.358   6.195
10734SOL     OW33100   0.892   0.823   4.583
10734SOL    HW133101   0.885   0.922   4.566
10734SOL    HW233102   0.806   0.779   4.560
10735SOL     OW33103   6.678   0.521   1.418
10735SOL    HW133104   6.750   0.484   1.477
10735SOL    HW233105   6.691   0.488   1.325
10736SOL     OW33106   5.574   5.854   3.869
10736SOL    HW133107   5.631   5.913   3.812
10736SOL    HW233108   5.500   5.909   3.909
10737SOL     OW33109   0.131   0.616   0.905
10737SOL    HW133110   0.099   0.529   0.870
10737SOL    HW233111   0.053   0.675   0.926
10738SOL     OW33112   1.446   6.471   1.963
10738SOL    HW133113   1.364   6.457   2.019
10738SOL    HW233114   1.489   6.558   1.987
10739SOL     OW33115   4.803   2.973   4.532
10739SOL    HW133116   4.717   2.927   4.511
10739SOL    HW233117   4.862   2.912   4.585
10740SOL     OW33118   2.769   0.752   5.993
10740SOL    HW133119   2.714   0.810   5.932
10740SOL    HW233120   2.849   0.719   5.945
10741SOL     OW33121   1.382   2.665   4.133
10741SOL    HW133122   1.329   2.588   4.168
10741SOL    HW233123   1.445   2.698   4.203
10742SOL     OW33124   0.369   0.208   2.110
10742SOL    HW133125   0.431   0.231   2.035
10742SOL    HW233126   0.333   0.291   2.150
10743SOL     OW33127   3.921   2.603   5.896
10743SOL    HW133128   3.958   2.550   5.821
10743SOL    HW233129   3.968   2.691   5.902
10744SOL     OW33130   1.807   2.418   1.157
10744SOL    HW133131   1.757   2.378   1.234
10744SOL    HW233132   1.902   2.435   1.183
10745SOL     OW33133   2.916   5.688   1.237
10745SOL    HW133134   2.843   5.636   1.281
10745SOL    HW233135   2.980   5.625   1.193
10746SOL     OW33136   2.281   5.277   6.398
10746SOL    HW133137   2.218   5.282   6.321
10746SOL    HW233138   2.359   5.338   6.383
10747SOL     OW33139   6.720   0.087   4.644
10747SOL    HW133140   6.745   0.123   4.554
10747SOL    HW233141   6.795   0.029   4.678
10748SOL     OW33142   2.818   6.567   2.573
10748SOL    HW133143   2.786   6.584   2.666
10748SOL    HW233144   2.912   6.601   2.563
10749SOL     OW33145   5.021   3.495   1.954
10749SOL    HW133146   5.085   3.449   2.015
10749SOL    HW233147   4.948   3.537   2.008
10750SOL     OW33148   3.773   1.750   4.117
10750SOL    HW133149   3.796   1.835   4.068
10750SOL    HW233150   3.837   1.737   4.192
10751SOL     OW33151   6.362   6.113   3.809
10751SOL    HW133152   6.440   6.138   3.751
10751SOL    HW233153   6.295   6.063   3.755
10752SOL     OW33154   0.452   5.798   6.709
10752SOL    HW133155   0.359   5.811   6.674
10752SOL    HW233156   0.510   5.763   6.635
10753SOL     OW33157   5.154   6.660   5.013
10753SOL    HW133158   5.222   6.637   4.943
10753SOL    HW233159   5.168   6.754   5.044
10754SOL     OW33160   0.158   5.685   2.366
10754SOL    HW133161   0.126   5.738   2.444
10754SOL    HW233162   0.202   5.601   2.399
10755SOL     OW33163   0.244   1.867   1.889
10755SOL    HW133164   0.252   1.854   1.790
10755SOL    HW233165   0.336   1.877   1.928
10756SOL     OW33166   1.297   6.982   6.095
10756SOL    HW133167   1.207   0.003   6.113
10756SOL    HW233168   1.294   6.884   6.115
10757SOL     OW33169   0.192   2.976   1.805
10757SOL    HW133170   0.188   2.941   1.711
10757SOL    HW233171   0.101   2.971   1.846
10758SOL     OW33172   0.948   1.561   0.420
10758SOL    HW133173   0.849   1.559   0.414
10758SOL    HW233174   0.983   1.467   0.429
10759SOL     OW33175   3.542   4.011   5.524
10759SOL    HW133176   3.613   3.994   5.455
10759SOL    HW233177   3.475   4.075   5.487
10760SOL     OW33178   0.715   5.167   0.239
10760SOL    HW133179   0.649   5.167   0.164
10760SOL    HW233180   0.734   5.261   0.266
10761SOL     OW33181   1.626   1.271   6.776
10761SOL    HW133182   1.579   1.239   6.694
10761SOL    HW233183   1.641   1.194   6.838
10762SOL     OW33184   1.700   6.473   0.768
10762SOL    HW133185   1.746   6.476   0.857
10762SOL    HW233186   1.633   6.547   0.762
10763SOL     OW33187   4.938   1.328   2.428
10763SOL    HW133188   5.007   1.262   2.457
10763SOL    HW233189   4.861   1.279   2.386
10764SOL     OW33190   5.164   6.298   5.353
10764SOL    HW133191   5.147   6.202   5.374
10764SOL    HW233192   5.207   6.306   5.264
10765SOL     OW33193   0.107   2.740   1.096
10765SOL    HW133194   0.111   2.772   1.191
10765SOL    HW233195   0.012   2.737   1.066
10766SOL     OW33196   2.923   4.819   6.529
10766SOL    HW133197   2.908   4.782   6.621
10766SOL    HW233198   2.980   4.901   6.535
10767SOL     OW33199   2.024   4.661   6.705
10767SOL    HW133200   1.986   4.628   6.791
10767SOL    HW233201   2.001   4.758   6.695
10768SOL     OW33202   5.426   6.277   6.559
10768SOL    HW133203   5.350   6.240   6.612
10768SOL    HW233204   5.439   6.373   6.583
10769SOL     OW33205   2.907   3.802   4.850
10769SOL    HW133206   2.824   3.820   4.797
10769SOL    HW233207   2.979   3.866   4.823
10770SOL     OW33208   4.918   0.119   3.930
10770SOL    HW133209   4.974   0.202   3.943
10770SOL    HW233210   4.839   0.141   3.874
10771SOL     OW33211   4.613   5.987   5.870
10771SOL    HW133212   4.583   5.918   5.936
10771SOL    HW233213   4.608   6.077   5.912
10772SOL     OW33214   4.853   3.975   2.963
10772SOL    HW133215   4.892   3.962   3.054
10772SOL    HW233216   4.790   4.052   2.964
10773SOL     OW33217   0.694   3.928   0.854
10773SOL    HW133218   0.606   3.951   0.813
10773SOL    HW233219   0.706   3.979   0.939
10774SOL     OW33220   0.279   2.896   0.701
10774SOL    HW133221   0.363   2.923   0.747
10774SOL    HW233222   0.276   2.937   0.610
10775SOL     OW33223   2.267   4.853   0.039
10775SOL    HW133224   2.210   4.924   0.081
10775SOL    HW233225   2.216   4.767   0.035
10776SOL     OW33226   0.805   3.403   3.207
10776SOL    HW133227   0.878   3.355   3.255
10776SOL    HW233228   0.823   3.501   3.209
10777SOL     OW33229   1.532   7.005   1.843
10777SOL    HW133230   1.606   6.949   1.880
10777SOL    HW233231   1.570   0.053   1.779
10778SOL     OW33232   4.784   0.433   3.987
10778SOL    HW133233   4.685   0.447   3.987
10778SOL    HW233234   4.809   0.373   4.062
10779SOL     OW33235   5.686   2.762   5.882
10779SOL    HW133236   5.649   2.771   5.790
10779SOL    HW233237   5.611   2.762   5.948
10780SOL     OW33238   1.090   5.095   5.054
10780SOL    HW133239   1.030   5.080   4.976
10780SOL    HW233240   1.141   5.180   5.042
10781SOL     OW33241   6.127   2.440   6.020
10781SOL    HW133242   6.155   2.486   5.936
10781SOL    HW233243   6.197   2.372   6.045
10782SOL     OW33244   1.033   3.332   5.457
10782SOL    HW133245   1.087   3.402   5.412
10782SOL    HW233246   0.975   3.286   5.390
10783SOL     OW33247   1.540   4.180   3.989
10783SOL    HW133248   1.535   4.256   3.926
10783SOL    HW233249   1.448   4.156   4.021
10784SOL     OW33250   4.569   5.488   3.664
10784SOL    HW133251   4.488   5.485   3.722
10784SOL    HW233252   4.561   5.421   3.591
10785SOL     OW33253   1.637   5.380   1.509
10785SOL    HW133254   1.693   5.299   1.526
10785SOL    HW233255   1.684   5.461   1.546
10786SOL     OW33256   5.105   1.549   2.719
10786SOL    HW133257   5.019   1.506   2.746
10786SOL    HW233258   5.179   1.483   2.730
10787SOL     OW33259   3.214   1.267   3.695
10787SOL    HW133260   3.203   1.169   3.679
10787SOL    HW233261   3.312   1.289   3.698
10788SOL     OW33262   1.580   3.179   0.127
10788SOL    HW133263   1.679   3.163   0.120
10788SOL    HW233264   1.542   3.194   0.036
10789SOL     OW33265   6.157   1.982   2.585
10789SOL    HW133266   6.121   1.889   2.571
10789SOL    HW233267   6.253   1.976   2.611
10790SOL     OW33268   0.072   2.019   5.262
10790SOL    HW133269   0.091   2.052   5.354
10790SOL    HW233270   0.158   1.999   5.215
10791SOL     OW33271   1.811   3.662   3.472
10791SOL    HW133272   1.780   3.641   3.379
10791SOL    HW233273   1.766   3.601   3.537
10792SOL     OW33274   4.007   1.038   2.188
10792SOL    HW133275   3.951   0.973   2.239
10792SOL    HW233276   4.059   0.989   2.118
10793SOL     OW33277   3.871   2.045   4.689
10793SOL    HW133278   3.931   1.966   4.673
10793SOL    HW233279   3.787   2.033   4.636
10794SOL     OW33280   4.820   2.703   6.347
10794SOL    HW133281   4.781   2.794   6.362
10794SOL    HW233282   4.792   2.669   6.257
10795SOL     OW33283   6.293   2.997   3.716
10795SOL    HW133284   6.209   3.042   3.747
10795SOL    HW233285   6.361   3.066   3.694
10796SOL     OW33286   0.776   1.599   6.613
10796SOL    HW133287   0.709   1.591   6.688
10796SOL    HW233288   0.767   1.689   6.571
10797SOL     OW33289   5.254   4.947   6.540
10797SOL    HW133290   5.267   4.848   6.548
10797SOL    HW233291   5.310   4.982   6.465
10798SOL     OW33292   1.879   5.871   0.793
10798SOL    HW133293   1.962   5.894   0.843
10798SOL    HW233294   1.902   5.858   0.696
10799SOL     OW33295   1.866   0.591   2.925
10799SOL    HW133296   1.863   0.634   2.835
10799SOL    HW233297   1.961   0.585   2.956
10800SOL     OW33298   2.140   0.576   4.562
10800SOL    HW133299   2.105   0.669   4.573
10800SOL    HW233300   2.074   0.511   4.598
10801SOL     OW33301   2.767   6.454   6.511
10801SOL    HW133302   2.677   6.424   6.543
10801SOL    HW233303   2.816   6.375   6.473
10802SOL     OW33304   0.838   4.782   4.166
10802SOL    HW133305   0.842   4.724   4.247
10802SOL    HW233306   0.911   4.851   4.171
10803SOL     OW33307   6.813   4.539   4.332
10803SOL    HW133308   6.866   4.604   4.386
10803SOL    HW233309   6.866   4.513   4.251
10804SOL     OW33310   4.322   4.791   0.245
10804SOL    HW133311   4.418   4.763   0.239
10804SOL    HW233312   4.306   4.834   0.334
10805SOL     OW33313   4.620   6.211   0.510
10805SOL    HW133314   4.574   6.260   0.437
10805SOL    HW233315   4.714   6.189   0.482
10806SOL     OW33316   4.942   2.951   5.606
10806SOL    HW133317   4.882   2.890   5.657
10806SOL    HW233318   4.890   3.032   5.578
10807SOL     OW33319   4.647   2.595   5.161
10807SOL    HW133320   4.745   2.610   5.177
10807SOL    HW233321   4.614   2.662   5.094
10808SOL     OW33322   0.682   2.613   0.308
10808SOL    HW133323   0.743   2.684   0.273
10808SOL    HW233324   0.590   2.651   0.321
10809SOL     OW33325   0.937   0.702   2.573
10809SOL    HW133326   0.884   0.771   2.524
10809SOL    HW233327   0.958   0.735   2.665
10810SOL     OW33328   1.529   1.331   6.059
10810SOL    HW133329   1.606   1.267   6.054
10810SOL    HW233330   1.457   1.292   6.115
10811SOL     OW33331   4.007   6.399   6.355
10811SOL    HW133332   4.033   6.401   6.259
10811SOL    HW233333   3.995   6.304   6.384
10812SOL     OW33334   6.752   3.168   3.369
10812SOL    HW133335   6.798   3.188   3.455
10812SOL    HW233336   6.656   3.196   3.375
10813SOL     OW33337   3.191   5.731   2.436
10813SOL    HW133338   3.132   5.811   2.423
10813SOL    HW233339   3.138   5.648   2.420
10814SOL     OW33340   2.483   6.415   4.530
10814SOL    HW133341   2.462   6.452   4.439
10814SOL    HW233342   2.440   6.326   4.541
10815SOL     OW33343   5.462   1.959   5.466
10815SOL    HW133344   5.406   1.988   5.389
10815SOL    HW233345   5.429   1.870   5.499
10816SOL     OW33346   2.097   2.268   1.329
10816SOL    HW133347   2.039   2.196   1.367
10816SOL    HW233348   2.172   2.287   1.393
10817SOL     OW33349   3.623   1.726   2.091
10817SOL    HW133350   3.568   1.712   2.009
10817SOL    HW233351   3.612   1.820   2.123
10818SOL     OW33352   4.731   3.355   6.239
10818SOL    HW133353   4.636   3.331   6.219
10818SOL    HW233354   4.792   3.310   6.174
10819SOL     OW33355   2.115   3.922   5.146
10819SOL    HW133356   2.187   3.975   5.099
10819SOL    HW233357   2.157   3.867   5.218
10820SOL     OW33358   0.754   6.140   5.768
10820SOL    HW133359   0.846   6.160   5.733
10820SOL    HW233360   0.687   6.156   5.696
10821SOL     OW33361   0.226   0.594   6.733
10821SOL    HW133362   0.222   0.502   6.772
10821SOL    HW233363   0.216   0.661   6.807
10822SOL     OW33364   0.762   4.652   6.219
10822SOL    HW133365   0.781   4.741   6.177
10822SOL    HW233366   0.750   4.583   6.148
10823SOL     OW33367   1.634   2.218   0.867
10823SOL    HW133368   1.704   2.270   0.915
10823SOL    HW233369   1.675   2.133   0.832
10824SOL     OW33370   5.709   1.193   4.932
10824SOL    HW133371   5.766   1.246   4.995
10824SOL    HW233372   5.763   1.119   4.893
10825SOL     OW33373   3.268   1.146   2.076
10825SOL    HW133374   3.301   1.232   2.039
10825SOL    HW233375   3.235   1.088   2.002
10826SOL     OW33376   6.554   3.357   1.323
10826SOL    HW133377   6.489   3.283   1.303
10826SOL    HW233378   6.614   3.369   1.244
10827SOL     OW33379   0.651   2.567   4.433
10827SOL    HW133380   0.621   2.662   4.444
10827SOL    HW233381   0.581   2.506   4.471
10828SOL     OW33382   2.552   4.887   0.239
10828SOL    HW133383   2.633   4.865   0.295
10828SOL    HW233384   2.497   4.805   0.227
10829SOL     OW33385   2.390   4.057   1.622
10829SOL    HW133386   2.403   4.123   1.696
10829SOL    HW233387   2.466   3.993   1.620
10830SOL     OW33388   6.687   0.859   3.510
10830SOL    HW133389   6.661   0.886   3.418
10830SOL    HW233390   6.670   0.761   3.523
10831SOL     OW33391   5.089   2.306   2.044
10831SOL    HW133392   5.072   2.278   1.949
10831SOL    HW233393   5.014   2.364   2.076
10832SOL     OW33394   1.265   2.985   2.254
10832SOL    HW133395   1.327   2.907   2.261
10832SOL    HW233396   1.208   2.989   2.336
10833SOL     OW33397   3.428   6.870   4.575
10833SOL    HW133398   3.516   6.915   4.586
10833SOL    HW233399   3.439   6.771   4.581
10834SOL     OW33400   0.163   1.587   5.793
10834SOL    HW133401   0.074   1.552   5.766
10834SOL    HW233402   0.155   1.636   5.880
10835SOL     OW33403   0.916   2.053   0.552
10835SOL    HW133404   0.884   2.115   0.481
10835SOL    HW233405   0.995   2.094   0.599
10836SOL     OW33406   0.590   2.340   1.299
10836SOL    HW133407   0.630   2.428   1.274
10836SOL    HW233408   0.493   2.352   1.319
10837SOL     OW33409   1.124   5.481   0.598
10837SOL    HW133410   1.149   5.494   0.694
10837SOL    HW233411   1.069   5.397   0.589
10838SOL     OW33412   6.773   6.042   0.595
10838SOL    HW133413   6.799   6.036   0.691
10838SOL    HW233414   6.833   6.107   0.548
10839SOL     OW33415   2.257   1.928   6.993
10839SOL    HW133416   2.297   1.896   6.907
10839SOL    HW233417   2.179   1.986   6.973
10840SOL     OW33418   1.965   0.312   3.112
10840SOL    HW133419   1.898   0.308   3.187
10840SOL    HW233420   1.917   0.322   3.025
10841SOL     OW33421   4.555   4.296   0.648
10841SOL    HW133422   4.505   4.235   0.586
10841SOL    HW233423   4.525   4.278   0.742
10842SOL     OW33424   6.425   1.804   2.183
10842SOL    HW133425   6.488   1.822   2.258
10842SOL    HW233426   6.331   1.815   2.215
10843SOL     OW33427   1.044   2.399   1.165
10843SOL    HW133428   1.077   2.493   1.157
10843SOL    HW233429   1.040   2.373   1.261
10844SOL     OW33430   5.340   0.279   4.405
10844SOL    HW133431   5.398   0.207   4.442
10844SOL    HW233432   5.348   0.281   4.305
10845SOL     OW33433   2.151   3.617   1.403
10845SOL    HW133434   2.219   3.601   1.473
10845SOL    HW233435   2.149   3.714   1.378
10846SOL     OW33436   3.523   3.083   1.810
10846SOL    HW133437   3.607   3.126   1.841
10846SOL    HW233438   3.459   3.153   1.779
10847SOL     OW33439   4.718   1.899   5.315
10847SOL    HW133440   4.689   1.820   5.261
10847SOL    HW233441   4.742   1.869   5.407
10848SOL     OW33442   1.697   0.725   6.898
10848SOL    HW133443   1.643   0.753   6.819
10848SOL    HW233444   1.791   0.708   6.870
10849SOL     OW33445   1.052   4.502   4.518
10849SOL    HW133446   1.026   4.466   4.607
10849SOL    HW233447   1.151   4.508   4.512
10850SOL     OW33448   5.892   1.119   2.811
10850SOL    HW133449   5.874   1.076   2.899
10850SOL    HW233450   5.817   1.098   2.748
10851SOL     OW33451   4.907   2.570   6.734
10851SOL    HW133452   4.975   2.559   6.661
10851SOL    HW233453   4.824   2.612   6.696
10852SOL     OW33454   5.756   0.941   6.074
10852SOL    HW133455   5.714   0.952   6.164
10852SOL    HW233456   5.698   0.984   6.005
10853SOL     OW33457   2.958   0.515   5.353
10853SOL    HW133458   2.984   0.467   5.269
10853SOL    HW233459   2.858   0.521   5.358
10854SOL     OW33460   6.421   6.839   6.996
10854SOL    HW133461   6.328   6.808   7.014
10854SOL    HW233462   6.449   6.906   0.046
10855SOL     OW33463   0.858   5.569   1.133
10855SOL    HW133464   0.794   5.515   1.188
10855SOL    HW233465   0.818   5.586   1.043
10856SOL     OW33466   5.051   6.634   6.953
10856SOL    HW133467   5.149   6.647   6.937
10856SOL    HW233468   5.000   6.667   6.873
10857SOL     OW33469   6.490   6.709   4.582
10857SOL    HW133470   6.399   6.718   4.542
10857SOL    HW233471   6.559   6.721   4.511
10858SOL     OW33472   1.799   2.448   0.671
10858SOL    HW133473   1.768   2.447   0.766
10858SOL    HW233474   1.858   2.369   0.655
10859SOL     OW33475   2.680   5.711   2.165
10859SOL    HW133476   2.780   5.717   2.166
10859SOL    HW233477   2.644   5.757   2.084
10860SOL     OW33478   6.288   1.480   1.602
10860SOL    HW133479   6.331   1.441   1.683
10860SOL    HW233480   6.189   1.463   1.605
10861SOL     OW33481   1.724   4.325   1.328
10861SOL    HW133482   1.820   4.309   1.348
10861SOL    HW233483   1.667   4.281   1.398
10862SOL     OW33484   3.313   4.156   5.442
10862SOL    HW133485   3.246   4.225   5.469
10862SOL    HW233486   3.305   4.137   5.344
10863SOL     OW33487   1.337   6.938   3.190
10863SOL    HW133488   1.364   7.018   3.244
10863SOL    HW233489   1.239   6.944   3.168
10864SOL     OW33490   3.022   3.906   1.915
10864SOL    HW133491   3.002   3.894   2.012
10864SOL    HW233492   3.035   4.003   1.895
10865SOL     OW33493   2.948   1.708   2.621
10865SOL    HW133494   2.902   1.738   2.537
10865SOL    HW233495   3.025   1.649   2.597
10866SOL     OW33496   0.951   3.418   4.271
10866SOL    HW133497   1.006   3.462   4.200
10866SOL    HW233498   0.880   3.482   4.303
10867SOL     OW33499   4.669   2.943   0.350
10867SOL    HW133500   4.723   2.991   0.420
10867SOL    HW233501   4.608   2.878   0.394
10868SOL     OW33502   1.012   0.023   5.477
10868SOL    HW133503   0.982   0.032   5.382
10868SOL    HW233504   1.072   6.962   5.486
10869NA      NA33505   0.135   0.988   6.426
10870NA      NA33506   4.568   4.822   5.072
10871NA      NA33507   0.650   4.718   3.049
10872NA      NA33508   6.271   3.658   3.300
10873NA      NA33509   4.141   2.327   5.286
10874NA      NA33510   2.431   3.754   0.011
10875NA      NA33511   1.660   5.631   0.486
10876NA      NA33512   4.292   4.763   2.284
10877NA      NA33513   5.276   3.533   1.252
10878NA      NA33514   3.812   1.705   0.641
10879NA      NA33515   5.571   6.811   1.361
10880NA      NA33516   2.944   6.585   4.801
10881NA      NA33517   3.440   5.464   2.908
10882NA      NA33518   4.086   5.072   6.679
   7.01900   7.01900   7.01900
