Generated by trjconv : CNT in water t=  33.00000
33518
    1C        C    1   2.845   2.770   4.749
    1C        C    2   2.901   2.721   4.869
    1C        C    3   2.843   2.775   4.984
    1C        C    4   2.857   2.778   4.262
    1C        C    5   2.904   2.731   4.386
    1C        C    6   2.842   2.772   4.507
    1C        C    7   3.015   2.644   4.623
    1C        C    8   2.898   2.723   4.627
    1C        C    9   3.080   2.609   4.743
    1C        C   10   3.011   2.633   4.864
    1C        C   11   3.181   2.490   4.977
    1C        C   12   3.061   2.562   4.975
    1C        C   13   2.844   2.768   3.773
    1C        C   14   2.897   2.721   3.895
    1C        C   15   2.846   2.773   4.016
    1C        C   16   3.018   2.647   4.138
    1C        C   17   2.901   2.727   4.138
    1C        C   18   3.081   2.614   4.260
    1C        C   19   3.017   2.647   4.382
    1C        C   20   3.209   2.550   4.501
    1C        C   21   3.079   2.606   4.503
    1C        C   22   3.276   2.529   4.624
    1C        C   23   3.209   2.550   4.746
    1C        C   24   3.412   2.483   4.866
    1C        C   25   3.270   2.500   4.865
    1C        C   26   3.490   2.471   4.982
    1C        C   27   2.848   2.764   3.282
    1C        C   28   2.906   2.727   3.405
    1C        C   29   2.853   2.775   3.527
    1C        C   30   3.019   2.647   3.647
    1C        C   31   2.903   2.727   3.650
    1C        C   32   3.077   2.611   3.771
    1C        C   33   3.017   2.646   3.894
    1C        C   34   3.208   2.555   4.017
    1C        C   35   3.077   2.608   4.016
    1C        C   36   3.276   2.531   4.139
    1C        C   37   3.209   2.556   4.261
    1C        C   38   3.418   2.500   4.384
    1C        C   39   3.280   2.533   4.380
    1C        C   40   3.490   2.498   4.505
    1C        C   41   3.415   2.507   4.625
    1C        C   42   3.629   2.488   4.744
    1C        C   43   3.486   2.486   4.745
    1C        C   44   3.705   2.484   4.862
    1C        C   45   3.629   2.474   4.979
    1C        C   46   2.836   2.751   2.793
    1C        C   47   2.890   2.708   2.916
    1C        C   48   2.839   2.759   3.038
    1C        C   49   3.014   2.638   3.161
    1C        C   50   2.897   2.716   3.159
    1C        C   51   3.080   2.601   3.281
    1C        C   52   3.020   2.643   3.402
    1C        C   53   3.209   2.550   3.528
    1C        C   54   3.081   2.610   3.525
    1C        C   55   3.276   2.532   3.651
    1C        C   56   3.207   2.554   3.772
    1C        C   57   3.412   2.504   3.892
    1C        C   58   3.273   2.530   3.894
    1C        C   59   3.484   2.502   4.014
    1C        C   60   3.415   2.506   4.137
    1C        C   61   3.626   2.507   4.258
    1C        C   62   3.485   2.497   4.259
    1C        C   63   3.698   2.508   4.379
    1C        C   64   3.631   2.498   4.503
    1C        C   65   3.840   2.538   4.622
    1C        C   66   3.702   2.505   4.625
    1C        C   67   3.906   2.560   4.745
    1C        C   68   3.842   2.517   4.864
    1C        C   69   4.053   2.585   4.975
    1C        C   70   3.922   2.537   4.977
    1C        C   71   2.827   2.735   2.308
    1C        C   72   2.883   2.691   2.430
    1C        C   73   2.835   2.748   2.550
    1C        C   74   3.008   2.623   2.673
    1C        C   75   2.888   2.698   2.672
    1C        C   76   3.073   2.593   2.795
    1C        C   77   3.007   2.630   2.914
    1C        C   78   3.201   2.546   3.039
    1C        C   79   3.071   2.603   3.037
    1C        C   80   3.275   2.531   3.158
    1C        C   81   3.210   2.546   3.282
    1C        C   82   3.414   2.502   3.399
    1C        C   83   3.275   2.527   3.406
    1C        C   84   3.482   2.501   3.523
    1C        C   85   3.414   2.502   3.647
    1C        C   86   3.623   2.503   3.767
    1C        C   87   3.482   2.493   3.770
    1C        C   88   3.691   2.522   3.889
    1C        C   89   3.625   2.512   4.014
    1C        C   90   3.833   2.555   4.135
    1C        C   91   3.696   2.520   4.136
    1C        C   92   3.901   2.572   4.257
    1C        C   93   3.835   2.543   4.378
    1C        C   94   4.026   2.635   4.498
    1C        C   95   3.905   2.562   4.499
    1C        C   96   4.089   2.671   4.619
    1C        C   97   4.030   2.628   4.740
    1C        C   98   4.192   2.766   4.860
    1C        C   99   4.102   2.654   4.860
    1C        C  100   4.216   2.842   4.975
    1C        C  101   2.828   2.734   2.069
    1C        C  102   2.993   2.593   2.190
    1C        C  103   2.882   2.683   2.188
    1C        C  104   3.062   2.568   2.311
    1C        C  105   3.000   2.612   2.430
    1C        C  106   3.200   2.535   2.550
    1C        C  107   3.068   2.585   2.551
    1C        C  108   3.267   2.511   2.672
    1C        C  109   3.202   2.535   2.795
    1C        C  110   3.410   2.503   2.912
    1C        C  111   3.270   2.523   2.918
    1C        C  112   3.481   2.495   3.034
    1C        C  113   3.413   2.498   3.158
    1C        C  114   3.628   2.500   3.279
    1C        C  115   3.487   2.492   3.278
    1C        C  116   3.696   2.505   3.403
    1C        C  117   3.624   2.499   3.523
    1C        C  118   3.832   2.545   3.646
    1C        C  119   3.694   2.511   3.645
    1C        C  120   3.900   2.569   3.767
    1C        C  121   3.829   2.553   3.888
    1C        C  122   4.025   2.633   4.012
    1C        C  123   3.896   2.576   4.010
    1C        C  124   4.087   2.672   4.133
    1C        C  125   4.029   2.632   4.256
    1C        C  126   4.198   2.762   4.378
    1C        C  127   4.089   2.672   4.377
    1C        C  128   4.249   2.814   4.499
    1C        C  129   4.199   2.760   4.619
    1C        C  130   4.328   2.933   4.742
    1C        C  131   4.246   2.817   4.739
    1C        C  132   4.365   2.999   4.862
    1C        C  133   4.289   2.960   4.973
    1C        C  134   3.174   2.468   2.078
    1C        C  135   3.042   2.514   2.080
    1C        C  136   3.261   2.478   2.187
    1C        C  137   3.194   2.514   2.307
    1C        C  138   3.406   2.489   2.427
    1C        C  139   3.267   2.512   2.428
    1C        C  140   3.480   2.483   2.547
    1C        C  141   3.407   2.493   2.667
    1C        C  142   3.620   2.497   2.791
    1C        C  143   3.479   2.496   2.789
    1C        C  144   3.693   2.508   2.912
    1C        C  145   3.622   2.499   3.034
    1C        C  146   3.831   2.541   3.154
    1C        C  147   3.695   2.504   3.155
    1C        C  148   3.896   2.569   3.277
    1C        C  149   3.832   2.544   3.401
    1C        C  150   4.027   2.627   3.522
    1C        C  151   3.898   2.568   3.523
    1C        C  152   4.087   2.664   3.645
    1C        C  153   4.025   2.634   3.768
    1C        C  154   4.193   2.763   3.888
    1C        C  155   4.084   2.674   3.890
    1C        C  156   4.246   2.807   4.012
    1C        C  157   4.197   2.760   4.136
    1C        C  158   4.337   2.924   4.254
    1C        C  159   4.250   2.813   4.256
    1C        C  160   4.374   2.985   4.376
    1C        C  161   4.330   2.930   4.498
    1C        C  162   4.436   3.116   4.614
    1C        C  163   4.364   2.994   4.620
    1C        C  164   4.463   3.186   4.734
    1C        C  165   4.437   3.121   4.856
    1C        C  166   4.515   3.320   4.971
    1C        C  167   4.480   3.186   4.972
    1C        C  168   3.476   2.440   2.073
    1C        C  169   3.400   2.456   2.189
    1C        C  170   3.619   2.466   2.307
    1C        C  171   3.477   2.464   2.307
    1C        C  172   3.692   2.489   2.426
    1C        C  173   3.621   2.485   2.548
    1C        C  174   3.829   2.533   2.667
    1C        C  175   3.691   2.503   2.669
    1C        C  176   3.896   2.556   2.790
    1C        C  177   3.831   2.535   2.914
    1C        C  178   4.026   2.629   3.033
    1C        C  179   3.900   2.564   3.033
    1C        C  180   4.088   2.664   3.155
    1C        C  181   4.024   2.629   3.276
    1C        C  182   4.197   2.749   3.398
    1C        C  183   4.086   2.661   3.399
    1C        C  184   4.249   2.798   3.520
    1C        C  185   4.199   2.750   3.644
    1C        C  186   4.337   2.914   3.762
    1C        C  187   4.247   2.805   3.765
    1C        C  188   4.373   2.974   3.885
    1C        C  189   4.338   2.914   4.008
    1C        C  190   4.445   3.100   4.128
    1C        C  191   4.376   2.976   4.129
    1C        C  192   4.472   3.170   4.248
    1C        C  193   4.444   3.108   4.371
    1C        C  194   4.505   3.314   4.493
    1C        C  195   4.472   3.176   4.492
    1C        C  196   4.517   3.388   4.612
    1C        C  197   4.508   3.321   4.736
    1C        C  198   4.557   3.536   4.850
    1C        C  199   4.538   3.394   4.854
    1C        C  200   4.585   3.621   4.962
    1C        C  201   3.615   2.420   2.070
    1C        C  202   3.826   2.509   2.183
    1C        C  203   3.691   2.461   2.184
    1C        C  204   3.899   2.536   2.302
    1C        C  205   3.831   2.519   2.424
    1C        C  206   4.024   2.613   2.544
    1C        C  207   3.898   2.547   2.545
    1C        C  208   4.082   2.654   2.666
    1C        C  209   4.018   2.626   2.789
    1C        C  210   4.198   2.747   2.909
    1C        C  211   4.082   2.666   2.909
    1C        C  212   4.258   2.789   3.030
    1C        C  213   4.204   2.744   3.153
    1C        C  214   4.344   2.901   3.273
    1C        C  215   4.254   2.792   3.276
    1C        C  216   4.372   2.967   3.395
    1C        C  217   4.333   2.912   3.519
    1C        C  218   4.441   3.098   3.638
    1C        C  219   4.376   2.972   3.639
    1C        C  220   4.466   3.164   3.760
    1C        C  221   4.436   3.100   3.883
    1C        C  222   4.499   3.302   4.001
    1C        C  223   4.468   3.164   4.005
    1C        C  224   4.509   3.375   4.121
    1C        C  225   4.505   3.308   4.245
    1C        C  226   4.515   3.519   4.364
    1C        C  227   4.517   3.378   4.368
    1C        C  228   4.514   3.594   4.484
    1C        C  229   4.522   3.529   4.609
    1C        C  230   4.502   3.743   4.727
    1C        C  231   4.536   3.605   4.728
    1C        C  232   4.497   3.824   4.843
    1C        C  233   4.547   3.756   4.955
    1C        C  234   4.018   2.605   2.063
    1C        C  235   3.895   2.541   2.066
    1C        C  236   4.084   2.648   2.179
    1C        C  237   4.024   2.605   2.300
    1C        C  238   4.195   2.736   2.419
    1C        C  239   4.083   2.648   2.420
    1C        C  240   4.246   2.786   2.541
    1C        C  241   4.192   2.742   2.664
    1C        C  242   4.334   2.903   2.784
    1C        C  243   4.245   2.793   2.785
    1C        C  244   4.380   2.959   2.906
    1C        C  245   4.343   2.901   3.030
    1C        C  246   4.441   3.090   3.150
    1C        C  247   4.381   2.962   3.152
    1C        C  248   4.458   3.159   3.272
    1C        C  249   4.435   3.094   3.396
    1C        C  250   4.493   3.302   3.512
    1C        C  251   4.465   3.163   3.515
    1C        C  252   4.500   3.371   3.635
    1C        C  253   4.498   3.301   3.758
    1C        C  254   4.515   3.514   3.875
    1C        C  255   4.512   3.373   3.879
    1C        C  256   4.511   3.585   3.997
    1C        C  257   4.512   3.517   4.120
    1C        C  258   4.485   3.728   4.243
    1C        C  259   4.509   3.589   4.242
    1C        C  260   4.468   3.801   4.363
    1C        C  261   4.487   3.733   4.485
    1C        C  262   4.414   3.935   4.605
    1C        C  263   4.471   3.806   4.605
    1C        C  264   4.396   4.009   4.724
    1C        C  265   4.436   3.951   4.846
    1C        C  266   4.317   4.129   4.960
    1C        C  267   4.398   4.016   4.964
    1C        C  268   4.257   2.775   2.060
    1C        C  269   4.200   2.728   2.179
    1C        C  270   4.344   2.890   2.298
    1C        C  271   4.253   2.781   2.299
    1C        C  272   4.384   2.951   2.419
    1C        C  273   4.342   2.890   2.540
    1C        C  274   4.446   3.078   2.662
    1C        C  275   4.378   2.954   2.660
    1C        C  276   4.476   3.145   2.782
    1C        C  277   4.447   3.083   2.906
    1C        C  278   4.502   3.291   3.024
    1C        C  279   4.467   3.154   3.026
    1C        C  280   4.506   3.365   3.144
    1C        C  281   4.489   3.296   3.266
    1C        C  282   4.506   3.508   3.389
    1C        C  283   4.505   3.367   3.388
    1C        C  284   4.505   3.581   3.510
    1C        C  285   4.509   3.512   3.633
    1C        C  286   4.485   3.725   3.753
    1C        C  287   4.511   3.586   3.753
    1C        C  288   4.471   3.792   3.877
    1C        C  289   4.490   3.725   4.000
    1C        C  290   4.420   3.928   4.115
    1C        C  291   4.474   3.797   4.120
    1C        C  292   4.395   3.997   4.235
    1C        C  293   4.424   3.935   4.359
    1C        C  294   4.328   4.125   4.477
    1C        C  295   4.393   3.999   4.480
    1C        C  296   4.281   4.180   4.597
    1C        C  297   4.324   4.132   4.723
    1C        C  298   4.199   4.313   4.840
    1C        C  299   4.283   4.197   4.842
    1C        C  300   4.170   4.404   4.947
    1C        C  301   4.348   2.880   2.060
    1C        C  302   4.470   3.065   2.177
    1C        C  303   4.392   2.945   2.176
    1C        C  304   4.488   3.137   2.299
    1C        C  305   4.453   3.074   2.421
    1C        C  306   4.510   3.281   2.536
    1C        C  307   4.479   3.144   2.541
    1C        C  308   4.512   3.354   2.657
    1C        C  309   4.501   3.284   2.780
    1C        C  310   4.526   3.498   2.899
    1C        C  311   4.517   3.357   2.900
    1C        C  312   4.517   3.570   3.020
    1C        C  313   4.516   3.506   3.146
    1C        C  314   4.484   3.718   3.264
    1C        C  315   4.511   3.580   3.267
    1C        C  316   4.467   3.790   3.384
    1C        C  317   4.484   3.720   3.505
    1C        C  318   4.427   3.924   3.626
    1C        C  319   4.467   3.788   3.628
    1C        C  320   4.392   3.988   3.747
    1C        C  321   4.422   3.925   3.870
    1C        C  322   4.315   4.110   3.990
    1C        C  323   4.387   3.988   3.991
    1C        C  324   4.281   4.176   4.110
    1C        C  325   4.324   4.119   4.232
    1C        C  326   4.186   4.280   4.353
    1C        C  327   4.284   4.179   4.354
    1C        C  328   4.136   4.334   4.474
    1C        C  329   4.189   4.288   4.596
    1C        C  330   4.030   4.436   4.708
    1C        C  331   4.138   4.343   4.716
    1C        C  332   3.971   4.489   4.825
    1C        C  333   4.052   4.479   4.939
    1C        C  334   4.547   3.263   2.060
    1C        C  335   4.537   3.124   2.065
    1C        C  336   4.539   3.347   2.172
    1C        C  337   4.514   3.276   2.292
    1C        C  338   4.525   3.491   2.414
    1C        C  339   4.519   3.350   2.413
    1C        C  340   4.519   3.564   2.535
    1C        C  341   4.522   3.495   2.658
    1C        C  342   4.493   3.708   2.777
    1C        C  343   4.524   3.570   2.778
    1C        C  344   4.474   3.781   2.897
    1C        C  345   4.488   3.708   3.017
    1C        C  346   4.422   3.914   3.137
    1C        C  347   4.466   3.779   3.137
    1C        C  348   4.395   3.985   3.257
    1C        C  349   4.427   3.926   3.381
    1C        C  350   4.318   4.104   3.503
    1C        C  351   4.402   3.991   3.504
    1C        C  352   4.273   4.165   3.623
    1C        C  353   4.317   4.107   3.744
    1C        C  354   4.177   4.267   3.868
    1C        C  355   4.275   4.165   3.866
    1C        C  356   4.124   4.319   3.988
    1C        C  357   4.179   4.274   4.110
    1C        C  358   4.015   4.409   4.229
    1C        C  359   4.129   4.326   4.232
    1C        C  360   3.952   4.445   4.350
    1C        C  361   4.021   4.416   4.469
    1C        C  362   3.832   4.517   4.589
    1C        C  363   3.965   4.470   4.587
    1C        C  364   3.764   4.542   4.710
    1C        C  365   3.838   4.534   4.830
    1C        C  366   3.634   4.596   4.946
    1C        C  367   3.769   4.566   4.948
    1C        C  368   4.513   3.561   2.058
    1C        C  369   4.538   3.488   2.175
    1C        C  370   4.501   3.703   2.290
    1C        C  371   4.521   3.563   2.293
    1C        C  372   4.481   3.773   2.412
    1C        C  373   4.492   3.702   2.534
    1C        C  374   4.425   3.907   2.648
    1C        C  375   4.471   3.774   2.654
    1C        C  376   4.389   3.973   2.768
    1C        C  377   4.425   3.913   2.891
    1C        C  378   4.318   4.095   3.014
    1C        C  379   4.393   3.975   3.014
    1C        C  380   4.273   4.156   3.133
    1C        C  381   4.315   4.101   3.257
    1C        C  382   4.177   4.260   3.376
    1C        C  383   4.272   4.155   3.380
    1C        C  384   4.120   4.307   3.496
    1C        C  385   4.173   4.265   3.620
    1C        C  386   4.006   4.388   3.743
    1C        C  387   4.125   4.311   3.745
    1C        C  388   3.944   4.433   3.862
    1C        C  389   4.009   4.401   3.984
    1C        C  390   3.818   4.488   4.106
    1C        C  391   3.949   4.436   4.107
    1C        C  392   3.750   4.514   4.227
    1C        C  393   3.822   4.502   4.348
    1C        C  394   3.617   4.552   4.472
    1C        C  395   3.756   4.528   4.470
    1C        C  396   3.548   4.557   4.595
    1C        C  397   3.624   4.558   4.715
    1C        C  398   3.412   4.545   4.841
    1C        C  399   3.551   4.567   4.836
    1C        C  400   3.343   4.515   4.959
    1C        C  401   4.497   3.699   2.052
    1C        C  402   4.451   3.911   2.167
    1C        C  403   4.487   3.774   2.169
    1C        C  404   4.408   3.973   2.286
    1C        C  405   4.436   3.907   2.408
    1C        C  406   4.326   4.094   2.524
    1C        C  407   4.403   3.976   2.526
    1C        C  408   4.276   4.151   2.644
    1C        C  409   4.316   4.093   2.767
    1C        C  410   4.179   4.252   2.888
    1C        C  411   4.277   4.150   2.890
    1C        C  412   4.124   4.301   3.008
    1C        C  413   4.174   4.256   3.133
    1C        C  414   4.005   4.385   3.250
    1C        C  415   4.123   4.307   3.254
    1C        C  416   3.943   4.415   3.373
    1C        C  417   4.004   4.388   3.497
    1C        C  418   3.815   4.476   3.620
    1C        C  419   3.946   4.423   3.621
    1C        C  420   3.746   4.502   3.740
    1C        C  421   3.812   4.482   3.863
    1C        C  422   3.607   4.535   3.986
    1C        C  423   3.745   4.503   3.986
    1C        C  424   3.539   4.543   4.110
    1C        C  425   3.610   4.533   4.231
    1C        C  426   3.400   4.545   4.359
    1C        C  427   3.541   4.547   4.353
    1C        C  428   3.330   4.542   4.482
    1C        C  429   3.407   4.550   4.600
    1C        C  430   3.196   4.516   4.723
    1C        C  431   3.336   4.541   4.722
    1C        C  432   3.126   4.496   4.845
    1C        C  433   3.206   4.489   4.960
    1C        C  434   4.383   4.120   2.049
    1C        C  435   4.439   3.992   2.053
    1C        C  436   4.301   4.156   2.161
    1C        C  437   4.329   4.091   2.284
    1C        C  438   4.183   4.252   2.402
    1C        C  439   4.284   4.152   2.403
    1C        C  440   4.123   4.297   2.522
    1C        C  441   4.177   4.252   2.644
    1C        C  442   4.006   4.377   2.763
    1C        C  443   4.123   4.298   2.766
    1C        C  444   3.945   4.413   2.886
    1C        C  445   4.004   4.377   3.008
    1C        C  446   3.810   4.470   3.130
    1C        C  447   3.940   4.415   3.128
    1C        C  448   3.747   4.495   3.254
    1C        C  449   3.813   4.470   3.377
    1C        C  450   3.607   4.527   3.496
    1C        C  451   3.745   4.495   3.498
    1C        C  452   3.537   4.539   3.618
    1C        C  453   3.607   4.532   3.740
    1C        C  454   3.399   4.550   3.865
    1C        C  455   3.540   4.549   3.863
    1C        C  456   3.330   4.540   3.988
    1C        C  457   3.398   4.546   4.112
    1C        C  458   3.194   4.505   4.237
    1C        C  459   3.331   4.539   4.236
    1C        C  460   3.126   4.488   4.360
    1C        C  461   3.191   4.515   4.482
    1C        C  462   2.997   4.433   4.606
    1C        C  463   3.123   4.497   4.604
    1C        C  464   2.928   4.403   4.726
    1C        C  465   2.992   4.447   4.845
    1C        C  466   2.805   4.336   4.964
    1C        C  467   2.911   4.428   4.961
    1C        C  468   4.124   4.286   2.043
    1C        C  469   4.191   4.247   2.160
    1C        C  470   4.008   4.370   2.279
    1C        C  471   4.131   4.298   2.279
    1C        C  472   3.942   4.402   2.399
    1C        C  473   4.003   4.371   2.523
    1C        C  474   3.810   4.465   2.640
    1C        C  475   3.941   4.411   2.643
    1C        C  476   3.746   4.492   2.763
    1C        C  477   3.816   4.472   2.884
    1C        C  478   3.607   4.514   3.008
    1C        C  479   3.746   4.491   3.005
    1C        C  480   3.539   4.527   3.131
    1C        C  481   3.609   4.523   3.254
    1C        C  482   3.394   4.529   3.377
    1C        C  483   3.535   4.534   3.374
    1C        C  484   3.325   4.534   3.500
    1C        C  485   3.396   4.546   3.622
    1C        C  486   3.189   4.506   3.747
    1C        C  487   3.326   4.541   3.744
    1C        C  488   3.124   4.483   3.871
    1C        C  489   3.194   4.503   3.992
    1C        C  490   3.003   4.414   4.117
    1C        C  491   3.127   4.482   4.115
    1C        C  492   2.942   4.384   4.241
    1C        C  493   3.001   4.421   4.364
    1C        C  494   2.827   4.301   4.482
    1C        C  495   2.939   4.387   4.486
    1C        C  496   2.773   4.256   4.605
    1C        C  497   2.815   4.317   4.725
    1C        C  498   2.664   4.170   4.846
    1C        C  499   2.755   4.279   4.847
    1C        C  500   2.590   4.121   4.954
    1C        C  501   4.004   4.356   2.038
    1C        C  502   3.815   4.458   2.155
    1C        C  503   3.942   4.397   2.157
    1C        C  504   3.745   4.481   2.275
    1C        C  505   3.812   4.459   2.397
    1C        C  506   3.603   4.507   2.517
    1C        C  507   3.742   4.481   2.518
    1C        C  508   3.534   4.518   2.640
    1C        C  509   3.606   4.514   2.762
    1C        C  510   3.397   4.521   2.884
    1C        C  511   3.538   4.521   2.885
    1C        C  512   3.326   4.519   3.007
    1C        C  513   3.398   4.531   3.128
    1C        C  514   3.192   4.490   3.257
    1C        C  515   3.329   4.522   3.251
    1C        C  516   3.123   4.467   3.378
    1C        C  517   3.189   4.497   3.499
    1C        C  518   3.003   4.406   3.626
    1C        C  519   3.126   4.475   3.624
    1C        C  520   2.946   4.368   3.749
    1C        C  521   3.002   4.413   3.871
    1C        C  522   2.835   4.285   3.996
    1C        C  523   2.946   4.372   3.994
    1C        C  524   2.783   4.240   4.120
    1C        C  525   2.829   4.299   4.240
    1C        C  526   2.695   4.133   4.364
    1C        C  527   2.779   4.246   4.361
    1C        C  528   2.654   4.077   4.487
    1C        C  529   2.687   4.143   4.607
    1C        C  530   2.590   3.959   4.732
    1C        C  531   2.645   4.090   4.731
    1C        C  532   2.546   3.901   4.854
    1C        C  533   2.525   3.997   4.959
    1C        C  534   3.615   4.551   2.037
    1C        C  535   3.749   4.509   2.043
    1C        C  536   3.533   4.526   2.151
    1C        C  537   3.604   4.501   2.272
    1C        C  538   3.393   4.513   2.400
    1C        C  539   3.534   4.514   2.394
    1C        C  540   3.321   4.509   2.521
    1C        C  541   3.393   4.517   2.642
    1C        C  542   3.184   4.480   2.767
    1C        C  543   3.323   4.508   2.764
    1C        C  544   3.121   4.462   2.891
    1C        C  545   3.190   4.481   3.013
    1C        C  546   2.998   4.397   3.134
    1C        C  547   3.125   4.460   3.136
    1C        C  548   2.938   4.365   3.258
    1C        C  549   2.994   4.409   3.380
    1C        C  550   2.832   4.279   3.507
    1C        C  551   2.942   4.367   3.504
    1C        C  552   2.775   4.237   3.629
    1C        C  553   2.832   4.284   3.750
    1C        C  554   2.701   4.122   3.877
    1C        C  555   2.785   4.236   3.874
    1C        C  556   2.663   4.061   3.998
    1C        C  557   2.697   4.129   4.118
    1C        C  558   2.596   3.946   4.245
    1C        C  559   2.656   4.075   4.242
    1C        C  560   2.572   3.882   4.368
    1C        C  561   2.591   3.950   4.490
    1C        C  562   2.533   3.748   4.613
    1C        C  563   2.570   3.884   4.613
    1C        C  564   2.519   3.682   4.736
    1C        C  565   2.528   3.759   4.855
    1C        C  566   2.530   3.550   4.978
    1C        C  567   2.523   3.689   4.976
    1C        C  568   3.321   4.481   2.037
    1C        C  569   3.392   4.509   2.155
    1C        C  570   3.182   4.482   2.279
    1C        C  571   3.321   4.510   2.278
    1C        C  572   3.115   4.458   2.401
    1C        C  573   3.182   4.483   2.523
    1C        C  574   2.986   4.403   2.648
    1C        C  575   3.114   4.463   2.645
    1C        C  576   2.929   4.367   2.772
    1C        C  577   2.991   4.406   2.893
    1C        C  578   2.823   4.272   3.015
    1C        C  579   2.930   4.364   3.014
    1C        C  580   2.777   4.225   3.140
    1C        C  581   2.828   4.277   3.261
    1C        C  582   2.700   4.113   3.386
    1C        C  583   2.784   4.226   3.385
    1C        C  584   2.665   4.056   3.511
    1C        C  585   2.696   4.121   3.633
    1C        C  586   2.600   3.933   3.758
    1C        C  587   2.660   4.061   3.756
    1C        C  588   2.567   3.870   3.880
    1C        C  589   2.594   3.938   4.001
    1C        C  590   2.543   3.737   4.126
    1C        C  591   2.570   3.876   4.126
    1C        C  592   2.528   3.671   4.250
    1C        C  593   2.540   3.744   4.371
    1C        C  594   2.515   3.534   4.498
    1C        C  595   2.521   3.675   4.492
    1C        C  596   2.520   3.465   4.621
    1C        C  597   2.518   3.539   4.741
    1C        C  598   2.536   3.329   4.865
    1C        C  599   2.532   3.470   4.863
    1C        C  600   2.530   3.251   4.981
    1C        C  601   3.192   4.432   2.039
    1C        C  602   2.983   4.394   2.158
    1C        C  603   3.118   4.440   2.158
    1C        C  604   2.925   4.357   2.282
    1C        C  605   2.990   4.393   2.403
    1C        C  606   2.825   4.264   2.529
    1C        C  607   2.932   4.356   2.526
    1C        C  608   2.770   4.219   2.651
    1C        C  609   2.823   4.274   2.771
    1C        C  610   2.686   4.111   2.896
    1C        C  611   2.773   4.222   2.892
    1C        C  612   2.648   4.057   3.021
    1C        C  613   2.693   4.111   3.143
    1C        C  614   2.588   3.928   3.269
    1C        C  615   2.655   4.052   3.266
    1C        C  616   2.565   3.865   3.394
    1C        C  617   2.601   3.930   3.514
    1C        C  618   2.533   3.730   3.638
    1C        C  619   2.571   3.866   3.637
    1C        C  620   2.518   3.662   3.761
    1C        C  621   2.528   3.734   3.882
    1C        C  622   2.509   3.526   4.010
    1C        C  623   2.520   3.667   4.006
    1C        C  624   2.513   3.458   4.134
    1C        C  625   2.513   3.531   4.255
    1C        C  626   2.536   3.321   4.381
    1C        C  627   2.513   3.460   4.377
    1C        C  628   2.555   3.252   4.503
    1C        C  629   2.540   3.325   4.624
    1C        C  630   2.595   3.119   4.748
    1C        C  631   2.553   3.255   4.746
    1C        C  632   2.619   3.049   4.870
    1C        C  633   2.561   3.115   4.983
    1C        C  634   2.771   4.311   2.058
    1C        C  635   2.888   4.387   2.051
    1C        C  636   2.743   4.231   2.169
    1C        C  637   2.812   4.271   2.285
    1C        C  638   2.674   4.113   2.411
    1C        C  639   2.769   4.217   2.408
    1C        C  640   2.641   4.049   2.532
    1C        C  641   2.685   4.107   2.653
    1C        C  642   2.585   3.922   2.779
    1C        C  643   2.645   4.049   2.775
    1C        C  644   2.566   3.857   2.903
    1C        C  645   2.592   3.928   3.023
    1C        C  646   2.528   3.727   3.149
    1C        C  647   2.569   3.862   3.146
    1C        C  648   2.513   3.658   3.271
    1C        C  649   2.530   3.729   3.393
    1C        C  650   2.512   3.519   3.520
    1C        C  651   2.521   3.660   3.516
    1C        C  652   2.509   3.449   3.643
    1C        C  653   2.506   3.521   3.764
    1C        C  654   2.536   3.315   3.891
    1C        C  655   2.508   3.454   3.889
    1C        C  656   2.557   3.251   4.015
    1C        C  657   2.540   3.319   4.138
    1C        C  658   2.606   3.119   4.260
    1C        C  659   2.555   3.250   4.260
    1C        C  660   2.643   3.060   4.383
    1C        C  661   2.602   3.119   4.505
    1C        C  662   2.711   2.939   4.626
    1C        C  663   2.630   3.055   4.627
    1C        C  664   2.752   2.878   4.746
    1C        C  665   2.697   2.929   4.867
    1C        C  666   2.742   2.870   4.986
    1C        C  667   2.679   4.022   2.053
    1C        C  668   2.682   4.103   2.168
    1C        C  669   2.587   3.915   2.289
    1C        C  670   2.642   4.046   2.290
    1C        C  671   2.559   3.852   2.413
    1C        C  672   2.582   3.920   2.534
    1C        C  673   2.516   3.720   2.658
    1C        C  674   2.559   3.855   2.658
    1C        C  675   2.504   3.653   2.782
    1C        C  676   2.521   3.723   2.903
    1C        C  677   2.508   3.514   3.032
    1C        C  678   2.516   3.655   3.028
    1C        C  679   2.512   3.445   3.155
    1C        C  680   2.508   3.517   3.276
    1C        C  681   2.530   3.307   3.401
    1C        C  682   2.510   3.447   3.398
    1C        C  683   2.549   3.240   3.524
    1C        C  684   2.537   3.311   3.645
    1C        C  685   2.607   3.114   3.772
    1C        C  686   2.557   3.246   3.770
    1C        C  687   2.635   3.052   3.895
    1C        C  688   2.604   3.118   4.016
    1C        C  689   2.712   2.934   4.139
    1C        C  690   2.635   3.053   4.138
    1C        C  691   2.758   2.879   4.261
    1C        C  692   2.713   2.938   4.381
    1C        C  693   2.750   2.879   4.504
    1C        C  694   2.625   3.893   2.054
    1C        C  695   2.528   3.704   2.178
    1C        C  696   2.574   3.837   2.172
    1C        C  697   2.501   3.639   2.301
    1C        C  698   2.515   3.718   2.417
    1C        C  699   2.490   3.506   2.545
    1C        C  700   2.500   3.647   2.539
    1C        C  701   2.494   3.435   2.667
    1C        C  702   2.497   3.512   2.786
    1C        C  703   2.535   3.305   2.911
    1C        C  704   2.510   3.444   2.910
    1C        C  705   2.547   3.235   3.033
    1C        C  706   2.527   3.304   3.154
    1C        C  707   2.596   3.106   3.280
    1C        C  708   2.546   3.238   3.278
    1C        C  709   2.632   3.046   3.403
    1C        C  710   2.604   3.110   3.526
    1C        C  711   2.712   2.931   3.648
    1C        C  712   2.634   3.049   3.650
    1C        C  713   2.753   2.876   3.772
    1C        C  714   2.710   2.932   3.894
    1C        C  715   2.746   2.873   4.017
    1C        C  716   2.449   3.499   2.065
    1C        C  717   2.502   3.629   2.063
    1C        C  718   2.463   3.421   2.184
    1C        C  719   2.480   3.499   2.302
    1C        C  720   2.507   3.291   2.426
    1C        C  721   2.489   3.431   2.426
    1C        C  722   2.536   3.224   2.548
    1C        C  723   2.529   3.298   2.667
    1C        C  724   2.597   3.099   2.790
    1C        C  725   2.549   3.232   2.790
    1C        C  726   2.630   3.041   2.915
    1C        C  727   2.598   3.103   3.037
    1C        C  728   2.704   2.921   3.158
    1C        C  729   2.625   3.038   3.160
    1C        C  730   2.752   2.869   3.280
    1C        C  731   2.711   2.929   3.401
    1C        C  732   2.753   2.875   3.525
    1C        C  733   2.491   3.199   2.072
    1C        C  734   2.487   3.280   2.186
    1C        C  735   2.591   3.091   2.305
    1C        C  736   2.526   3.217   2.307
    1C        C  737   2.620   3.025   2.427
    1C        C  738   2.596   3.096   2.547
    1C        C  739   2.694   2.909   2.670
    1C        C  740   2.624   3.031   2.669
    1C        C  741   2.745   2.858   2.792
    1C        C  742   2.707   2.922   2.912
    1C        C  743   2.742   2.862   3.035
    1C        C  744   2.549   3.072   2.072
    1C        C  745   2.686   2.898   2.186
    1C        C  746   2.614   3.020   2.185
    1C        C  747   2.734   2.843   2.307
    1C        C  748   2.695   2.906   2.427
    1C        C  749   2.734   2.847   2.549
    1C        C  750   2.735   2.838   2.070
    1C        C  751   3.650   2.320   1.966
    1C        O  752   3.674   2.198   1.983
    1C        O  753   3.621   2.349   1.832
    1C        C  754   4.629   3.046   1.978
    1C        O  755   4.611   3.068   1.855
    1C        O  756   4.764   3.018   2.000
    1C        C  757   4.464   4.225   1.984
    1C        O  758   4.554   4.282   2.051
    1C        O  759   4.424   4.296   1.869
    1C        C  760   3.593   4.661   1.940
    1C        O  761   3.646   4.774   1.954
    1C        O  762   3.598   4.623   1.805
    1C        C  763   2.893   4.490   1.944
    1C        O  764   2.909   4.472   1.820
    1C        O  765   2.886   4.625   1.979
    1C        C  766   2.332   3.486   1.976
    1C        O  767   2.346   3.429   1.864
    1C        O  768   2.218   3.566   1.995
    1C        C  769   4.709   3.606   5.042
    1C        O  770   4.704   3.564   5.161
    1C        O  771   4.830   3.657   4.993
    1C        C  772   4.273   4.484   5.017
    1C        O  773   4.345   4.437   5.110
    1C        O  774   4.358   4.566   4.942
    1C        C  775   4.148   2.481   5.021
    1C        O  776   4.147   2.365   4.972
    1C        O  777   4.223   2.497   5.139
    1C        C  778   2.899   4.532   5.066
    1C        O  779   2.842   4.641   5.037
    1C        O  780   2.911   4.510   5.204
    1C        C  781   2.467   3.053   5.079
    1C        O  782   2.380   2.967   5.047
    1C        O  783   2.480   3.088   5.213
    1C        C  784   2.393   3.991   5.024
    1C        O  785   2.281   3.971   4.968
    1C        O  786   2.378   4.005   5.162
    1C        C  787   2.951   2.443   1.988
    1C        O  788   2.964   2.435   1.863
    1C        O  789   2.863   2.344   2.031
    1C        C  790   3.175   2.380   5.075
    1C        O  791   3.196   2.257   5.053
    1C        O  792   3.129   2.399   5.206
    1C        H  793   4.275   3.026   5.056
    1C        H  794   4.141   2.832   5.051
    1C        H  795   4.510   3.129   5.058
    1C        H  796   4.483   3.378   5.055
    1C        H  797   4.582   3.816   5.037
    1C        H  798   4.398   3.957   5.054
    1C        H  799   4.255   4.152   5.045
    1C        H  800   4.039   4.552   5.016
    1C        H  801   3.831   4.597   5.030
    1C        H  802   3.600   4.682   4.999
    1C        H  803   3.380   4.552   5.053
    1C        H  804   3.173   4.426   5.040
    1C        H  805   3.879   2.515   5.073
    1C        H  806   3.673   2.439   5.070
    1C        H  807   3.012   2.576   5.069
    1C        H  808   3.443   2.473   5.079
    1C        H  809   2.909   2.785   5.068
    1C        H  810   2.677   2.875   5.071
    1C        H  811   2.549   3.300   5.075
    1C        H  812   2.576   3.503   5.062
    1C        H  813   2.491   3.736   5.066
    1C        H  814   2.586   4.176   5.046
    1C        H  815   2.734   4.352   5.042
    1C        H  816   2.670   2.825   1.986
    1C        H  817   2.859   2.700   1.973
    1C        H  818   3.207   2.409   1.994
    1C        H  819   3.437   2.448   1.973
    1C        H  820   3.831   2.553   1.981
    1C        H  821   4.076   2.572   1.980
    1C        H  822   4.199   2.765   1.970
    1C        H  823   4.385   2.901   1.962
    1C        H  824   4.578   3.309   1.969
    1C        H  825   4.472   3.506   1.975
    1C        H  826   4.496   3.744   1.954
    1C        H  827   3.806   4.527   1.954
    1C        H  828   3.971   4.397   1.945
    1C        H  829   4.163   4.252   1.950
    1C        H  830   4.458   3.950   1.956
    1C        H  831   2.678   3.828   1.989
    1C        H  832   2.758   4.036   1.982
    1C        H  833   2.727   4.284   1.964
    1C        H  834   3.370   4.488   1.942
    1C        H  835   3.136   4.416   1.950
    1C        H  836   2.529   3.011   1.987
    1C        H  837   2.417   3.222   1.998
    1C        H  838   2.577   3.637   1.987
    2V3OU   H29  839   2.796   3.545   0.936
    2V3OU   C27  840   2.782   3.497   1.036
    2V3OU   H27  841   2.731   3.563   1.111
    2V3OU   H28  842   2.730   3.398   1.026
    2V3OU   O11  843   2.912   3.462   1.085
    2V3OU   C15  844   2.921   3.396   1.206
    2V3OU   C13  845   3.049   3.370   1.258
    2V3OU   C14  846   3.075   3.264   1.346
    2V3OU   C16  847   2.968   3.183   1.384
    2V3OU    H6  848   2.986   3.105   1.459
    2V3OU   C12  849   3.215   3.231   1.379
    2V3OU    O2  850   3.241   3.126   1.442
    2V3OU   C10  851   3.325   3.312   1.325
    2V3OU    C8  852   3.457   3.274   1.347
    2V3OU   O10  853   3.492   3.149   1.388
    2V3OU   H26  854   3.405   3.119   1.418
    2V3OU    C6  855   3.564   3.351   1.293
    2V3OU    C5  856   3.542   3.463   1.215
    2V3OU    C4  857   3.701   3.292   1.290
    2V3OU    H4  858   3.720   3.237   1.387
    2V3OU    H5  859   3.710   3.224   1.200
    2V3OU    C2  860   3.813   3.396   1.279
    2V3OU    O6  861   3.810   3.478   1.396
    2V3OU   H21  862   3.763   3.556   1.361
    2V3OU    C3  863   3.781   3.490   1.163
    2V3OU    H2  864   3.861   3.568   1.161
    2V3OU    H3  865   3.787   3.441   1.062
    2V3OU   C25  866   3.949   3.327   1.262
    2V3OU    O7  867   3.999   3.288   1.157
    2V3OU   C26  868   4.026   3.294   1.388
    2V3OU   H22  869   4.068   3.388   1.434
    2V3OU   H23  870   4.114   3.230   1.364
    2V3OU    O8  871   3.957   3.216   1.483
    2V3OU   H24  872   3.915   3.269   1.553
    2V3OU    C1  873   3.648   3.562   1.178
    2V3OU    H1  874   3.627   3.619   1.082
    2V3OU    O3  875   3.663   3.656   1.285
    2V3OU   C19  876   3.617   3.789   1.262
    2V3OU    H9  877   3.519   3.800   1.206
    2V3OU    O4  878   3.709   3.849   1.174
    2V3OU   C20  879   3.840   3.877   1.225
    2V3OU   H10  880   3.897   3.780   1.220
    2V3OU   C24  881   3.608   3.849   1.403
    2V3OU   H16  882   3.540   3.786   1.466
    2V3OU   H17  883   3.564   3.952   1.395
    2V3OU   C23  884   3.748   3.875   1.459
    2V3OU   H15  885   3.793   3.772   1.482
    2V3OU    N1  886   3.735   3.957   1.577
    2V3OU   H19  887   3.811   3.933   1.637
    2V3OU   H20  888   3.650   3.940   1.627
    2V3OU   C21  889   3.844   3.948   1.360
    2V3OU   H11  890   3.947   3.928   1.402
    2V3OU    O5  891   3.826   4.089   1.367
    2V3OU   H18  892   3.774   4.109   1.447
    2V3OU   C22  893   3.915   3.946   1.112
    2V3OU   H12  894   3.864   4.044   1.092
    2V3OU   H13  895   3.908   3.887   1.017
    2V3OU   H14  896   4.025   3.949   1.135
    2V3OU   C11  897   3.157   3.466   1.232
    2V3OU    O1  898   3.132   3.585   1.203
    2V3OU    C9  899   3.300   3.431   1.251
    2V3OU    C7  900   3.406   3.503   1.197
    2V3OU    O9  901   3.386   3.620   1.127
    2V3OU   H25  902   3.289   3.628   1.124
    2V3OU   C17  903   2.816   3.314   1.253
    2V3OU    H7  904   2.713   3.344   1.232
    2V3OU   C18  905   2.839   3.206   1.337
    2V3OU    H8  906   2.757   3.142   1.372
    3SOL     OW  907   0.572   4.058   0.689
    3SOL    HW1  908   0.653   4.000   0.683
    3SOL    HW2  909   0.567   4.098   0.781
    4SOL     OW  910   5.613   1.380   2.021
    4SOL    HW1  911   5.594   1.282   2.013
    4SOL    HW2  912   5.611   1.406   2.118
    5SOL     OW  913   3.680   2.933   1.353
    5SOL    HW1  914   3.615   2.994   1.398
    5SOL    HW2  915   3.773   2.962   1.376
    6SOL     OW  916   2.640   2.298   0.198
    6SOL    HW1  917   2.689   2.227   0.148
    6SOL    HW2  918   2.629   2.270   0.293
    7SOL     OW  919   5.930   1.001   1.710
    7SOL    HW1  920   5.846   1.035   1.667
    7SOL    HW2  921   5.915   0.908   1.744
    8SOL     OW  922   3.012   1.908   3.328
    8SOL    HW1  923   2.978   1.844   3.396
    8SOL    HW2  924   2.942   1.976   3.307
    9SOL     OW  925   6.928   4.135   5.587
    9SOL    HW1  926   6.845   4.087   5.614
    9SOL    HW2  927   6.906   4.229   5.561
   10SOL     OW  928   0.441   4.432   0.888
   10SOL    HW1  929   0.375   4.417   0.961
   10SOL    HW2  930   0.396   4.422   0.800
   11SOL     OW  931   4.412   6.869   6.809
   11SOL    HW1  932   4.450   6.852   6.900
   11SOL    HW2  933   4.456   6.808   6.743
   12SOL     OW  934   5.408   6.517   1.941
   12SOL    HW1  935   5.418   6.595   2.003
   12SOL    HW2  936   5.376   6.437   1.994
   13SOL     OW  937   1.418   0.488   3.046
   13SOL    HW1  938   1.491   0.531   2.994
   13SOL    HW2  939   1.413   0.529   3.137
   14SOL     OW  940   3.031   0.018   2.980
   14SOL    HW1  941   3.085   6.997   3.053
   14SOL    HW2  942   3.056   7.001   2.892
   15SOL     OW  943   2.619   6.453   6.600
   15SOL    HW1  944   2.531   6.481   6.561
   15SOL    HW2  945   2.614   6.357   6.628
   16SOL     OW  946   6.398   2.178   6.892
   16SOL    HW1  947   6.431   2.254   6.835
   16SOL    HW2  948   6.314   2.206   6.938
   17SOL     OW  949   4.525   6.076   2.926
   17SOL    HW1  950   4.466   6.128   2.988
   17SOL    HW2  951   4.485   5.986   2.908
   18SOL     OW  952   1.631   0.998   0.036
   18SOL    HW1  953   1.634   0.976   6.961
   18SOL    HW2  954   1.718   1.037   0.064
   19SOL     OW  955   1.008   6.936   1.245
   19SOL    HW1  956   1.054   6.851   1.271
   19SOL    HW2  957   1.076   7.005   1.223
   20SOL     OW  958   3.391   1.012   4.038
   20SOL    HW1  959   3.404   0.915   4.060
   20SOL    HW2  960   3.473   1.063   4.062
   21SOL     OW  961   3.318   3.081   1.739
   21SOL    HW1  962   3.318   3.172   1.698
   21SOL    HW2  963   3.246   3.075   1.807
   22SOL     OW  964   0.914   1.090   5.589
   22SOL    HW1  965   1.000   1.126   5.552
   22SOL    HW2  966   0.923   0.992   5.606
   23SOL     OW  967   3.014   5.998   4.945
   23SOL    HW1  968   2.981   5.907   4.970
   23SOL    HW2  969   2.959   6.067   4.992
   24SOL     OW  970   4.027   1.403   5.181
   24SOL    HW1  971   3.985   1.313   5.167
   24SOL    HW2  972   3.956   1.472   5.193
   25SOL     OW  973   2.185   5.149   0.976
   25SOL    HW1  974   2.111   5.092   0.940
   25SOL    HW2  975   2.270   5.127   0.929
   26SOL     OW  976   5.922   0.947   3.009
   26SOL    HW1  977   5.881   0.959   2.918
   26SOL    HW2  978   5.850   0.930   3.076
   27SOL     OW  979   6.145   0.125   2.448
   27SOL    HW1  980   6.147   0.091   2.354
   27SOL    HW2  981   6.219   0.083   2.500
   28SOL     OW  982   2.747   0.347   0.633
   28SOL    HW1  983   2.735   0.439   0.672
   28SOL    HW2  984   2.840   0.316   0.650
   29SOL     OW  985   4.391   3.084   1.710
   29SOL    HW1  986   4.474   3.092   1.765
   29SOL    HW2  987   4.394   2.999   1.657
   30SOL     OW  988   4.148   1.337   5.413
   30SOL    HW1  989   4.235   1.379   5.438
   30SOL    HW2  990   4.119   1.370   5.323
   31SOL     OW  991   0.616   1.179   5.245
   31SOL    HW1  992   0.624   1.228   5.158
   31SOL    HW2  993   0.531   1.206   5.290
   32SOL     OW  994   6.965   2.048   2.334
   32SOL    HW1  995   6.992   2.111   2.261
   32SOL    HW2  996   7.008   1.959   2.318
   33SOL     OW  997   1.558   1.843   5.851
   33SOL    HW1  998   1.540   1.837   5.753
   33SOL    HW2  999   1.656   1.860   5.866
   34SOL     OW 1000   0.660   0.474   5.194
   34SOL    HW1 1001   0.705   0.552   5.238
   34SOL    HW2 1002   0.693   0.466   5.100
   35SOL     OW 1003   3.873   2.063   6.113
   35SOL    HW1 1004   3.944   2.108   6.167
   35SOL    HW2 1005   3.783   2.091   6.147
   36SOL     OW 1006   1.317   1.587   5.928
   36SOL    HW1 1007   1.262   1.532   5.866
   36SOL    HW2 1008   1.390   1.632   5.877
   37SOL     OW 1009   2.468   6.246   1.065
   37SOL    HW1 1010   2.400   6.180   1.033
   37SOL    HW2 1011   2.553   6.198   1.087
   38SOL     OW 1012   0.083   6.234   2.036
   38SOL    HW1 1013   7.014   6.196   2.049
   38SOL    HW2 1014   0.152   6.169   2.068
   39SOL     OW 1015   6.765   2.705   6.153
   39SOL    HW1 1016   6.812   2.794   6.147
   39SOL    HW2 1017   6.686   2.705   6.092
   40SOL     OW 1018   0.158   1.041   1.113
   40SOL    HW1 1019   0.164   1.005   1.020
   40SOL    HW2 1020   0.181   0.969   1.178
   41SOL     OW 1021   1.184   1.203   6.232
   41SOL    HW1 1022   1.246   1.281   6.232
   41SOL    HW2 1023   1.158   1.182   6.138
   42SOL     OW 1024   4.119   0.244   0.745
   42SOL    HW1 1025   4.055   0.318   0.763
   42SOL    HW2 1026   4.210   0.270   0.780
   43SOL     OW 1027   4.558   5.546   5.193
   43SOL    HW1 1028   4.621   5.608   5.147
   43SOL    HW2 1029   4.609   5.479   5.246
   44SOL     OW 1030   1.046   3.545   6.813
   44SOL    HW1 1031   0.975   3.487   6.774
   44SOL    HW2 1032   1.030   3.640   6.786
   45SOL     OW 1033   2.576   0.491   1.309
   45SOL    HW1 1034   2.612   0.398   1.321
   45SOL    HW2 1035   2.530   0.520   1.393
   46SOL     OW 1036   1.117   4.927   4.272
   46SOL    HW1 1037   1.082   5.019   4.254
   46SOL    HW2 1038   1.073   4.891   4.355
   47SOL     OW 1039   5.559   4.325   2.448
   47SOL    HW1 1040   5.638   4.381   2.425
   47SOL    HW2 1041   5.475   4.376   2.427
   48SOL     OW 1042   0.646   1.000   5.483
   48SOL    HW1 1043   0.724   1.063   5.489
   48SOL    HW2 1044   0.654   0.933   5.557
   49SOL     OW 1045   5.562   3.405   0.293
   49SOL    HW1 1046   5.607   3.379   0.207
   49SOL    HW2 1047   5.597   3.348   0.367
   50SOL     OW 1048   6.953   3.622   5.028
   50SOL    HW1 1049   0.012   3.680   5.020
   50SOL    HW2 1050   6.922   3.596   4.937
   51SOL     OW 1051   3.398   5.776   2.167
   51SOL    HW1 1052   3.476   5.822   2.210
   51SOL    HW2 1053   3.406   5.678   2.180
   52SOL     OW 1054   0.988   2.228   1.951
   52SOL    HW1 1055   0.945   2.279   1.876
   52SOL    HW2 1056   1.087   2.227   1.938
   53SOL     OW 1057   5.073   6.329   4.198
   53SOL    HW1 1058   5.119   6.265   4.260
   53SOL    HW2 1059   5.102   6.422   4.220
   54SOL     OW 1060   5.022   4.907   5.606
   54SOL    HW1 1061   4.942   4.963   5.626
   54SOL    HW2 1062   5.056   4.865   5.690
   55SOL     OW 1063   3.688   1.691   0.923
   55SOL    HW1 1064   3.692   1.676   1.022
   55SOL    HW2 1065   3.598   1.666   0.889
   56SOL     OW 1066   0.431   6.698   1.732
   56SOL    HW1 1067   0.350   6.754   1.749
   56SOL    HW2 1068   0.477   6.680   1.819
   57SOL     OW 1069   5.338   1.139   1.289
   57SOL    HW1 1070   5.388   1.094   1.214
   57SOL    HW2 1071   5.278   1.072   1.333
   58SOL     OW 1072   6.844   0.222   6.717
   58SOL    HW1 1073   6.842   0.133   6.762
   58SOL    HW2 1074   6.760   0.272   6.737
   59SOL     OW 1075   1.161   6.885   5.076
   59SOL    HW1 1076   1.148   6.855   5.170
   59SOL    HW2 1077   1.152   6.806   5.014
   60SOL     OW 1078   5.260   0.085   5.048
   60SOL    HW1 1079   5.231   0.014   5.112
   60SOL    HW2 1080   5.288   0.167   5.099
   61SOL     OW 1081   4.238   0.006   5.214
   61SOL    HW1 1082   4.223   0.056   5.129
   61SOL    HW2 1083   4.236   0.069   5.291
   62SOL     OW 1084   3.106   0.749   5.215
   62SOL    HW1 1085   3.082   0.787   5.304
   62SOL    HW2 1086   3.170   0.810   5.169
   63SOL     OW 1087   6.907   3.149   3.575
   63SOL    HW1 1088   6.843   3.143   3.499
   63SOL    HW2 1089   6.929   3.057   3.608
   64SOL     OW 1090   6.985   2.054   5.517
   64SOL    HW1 1091   7.010   2.143   5.555
   64SOL    HW2 1092   6.997   1.984   5.587
   65SOL     OW 1093   0.878   3.489   5.587
   65SOL    HW1 1094   0.923   3.406   5.619
   65SOL    HW2 1095   0.859   3.481   5.489
   66SOL     OW 1096   2.567   0.734   0.950
   66SOL    HW1 1097   2.511   0.704   1.027
   66SOL    HW2 1098   2.625   0.811   0.978
   67SOL     OW 1099   4.768   5.527   4.090
   67SOL    HW1 1100   4.775   5.435   4.129
   67SOL    HW2 1101   4.710   5.583   4.149
   68SOL     OW 1102   5.291   2.602   6.591
   68SOL    HW1 1103   5.282   2.602   6.690
   68SOL    HW2 1104   5.380   2.564   6.565
   69SOL     OW 1105   2.383   2.839   5.840
   69SOL    HW1 1106   2.311   2.826   5.773
   69SOL    HW2 1107   2.449   2.764   5.834
   70SOL     OW 1108   6.093   6.385   2.136
   70SOL    HW1 1109   6.139   6.306   2.178
   70SOL    HW2 1110   6.006   6.401   2.182
   71SOL     OW 1111   2.139   3.828   2.606
   71SOL    HW1 1112   2.125   3.916   2.560
   71SOL    HW2 1113   2.225   3.829   2.657
   72SOL     OW 1114   3.371   5.546   3.751
   72SOL    HW1 1115   3.287   5.570   3.703
   72SOL    HW2 1116   3.367   5.580   3.845
   73SOL     OW 1117   3.551   2.514   6.762
   73SOL    HW1 1118   3.626   2.510   6.696
   73SOL    HW2 1119   3.525   2.610   6.777
   74SOL     OW 1120   5.316   6.668   6.292
   74SOL    HW1 1121   5.287   6.617   6.211
   74SOL    HW2 1122   5.279   6.625   6.374
   75SOL     OW 1123   3.362   4.999   5.481
   75SOL    HW1 1124   3.321   4.909   5.467
   75SOL    HW2 1125   3.341   5.032   5.573
   76SOL     OW 1126   2.586   3.007   1.226
   76SOL    HW1 1127   2.620   3.031   1.136
   76SOL    HW2 1128   2.498   3.051   1.242
   77SOL     OW 1129   5.241   4.596   6.463
   77SOL    HW1 1130   5.245   4.505   6.504
   77SOL    HW2 1131   5.165   4.601   6.398
   78SOL     OW 1132   6.336   6.429   6.315
   78SOL    HW1 1133   6.412   6.373   6.349
   78SOL    HW2 1134   6.338   6.518   6.359
   79SOL     OW 1135   3.542   6.880   0.411
   79SOL    HW1 1136   3.589   6.806   0.363
   79SOL    HW2 1137   3.494   6.844   0.491
   80SOL     OW 1138   0.308   0.858   4.585
   80SOL    HW1 1139   0.361   0.773   4.584
   80SOL    HW2 1140   0.362   0.930   4.628
   81SOL     OW 1141   1.654   0.275   3.825
   81SOL    HW1 1142   1.648   0.203   3.755
   81SOL    HW2 1143   1.716   0.347   3.794
   82SOL     OW 1144   6.629   4.535   5.756
   82SOL    HW1 1145   6.702   4.604   5.757
   82SOL    HW2 1146   6.541   4.579   5.771
   83SOL     OW 1147   6.558   6.638   6.256
   83SOL    HW1 1148   6.639   6.601   6.302
   83SOL    HW2 1149   6.586   6.711   6.193
   84SOL     OW 1150   6.059   3.848   1.414
   84SOL    HW1 1151   6.153   3.863   1.444
   84SOL    HW2 1152   5.996   3.871   1.489
   85SOL     OW 1153   1.118   1.150   5.416
   85SOL    HW1 1154   1.197   1.165   5.357
   85SOL    HW2 1155   1.038   1.126   5.361
   86SOL     OW 1156   2.306   1.179   4.536
   86SOL    HW1 1157   2.265   1.185   4.445
   86SOL    HW2 1158   2.259   1.242   4.598
   87SOL     OW 1159   4.856   6.901   1.739
   87SOL    HW1 1160   4.859   6.949   1.651
   87SOL    HW2 1161   4.926   6.940   1.799
   88SOL     OW 1162   5.907   0.662   0.903
   88SOL    HW1 1163   5.891   0.579   0.955
   88SOL    HW2 1164   5.890   0.644   0.806
   89SOL     OW 1165   2.275   1.662   5.474
   89SOL    HW1 1166   2.272   1.617   5.385
   89SOL    HW2 1167   2.214   1.616   5.538
   90SOL     OW 1168   6.606   5.900   3.292
   90SOL    HW1 1169   6.561   5.942   3.213
   90SOL    HW2 1170   6.592   5.800   3.288
   91SOL     OW 1171   4.196   4.815   4.786
   91SOL    HW1 1172   4.275   4.859   4.830
   91SOL    HW2 1173   4.223   4.726   4.749
   92SOL     OW 1174   3.212   6.203   1.713
   92SOL    HW1 1175   3.227   6.281   1.652
   92SOL    HW2 1176   3.160   6.133   1.664
   93SOL     OW 1177   3.413   4.601   5.924
   93SOL    HW1 1178   3.466   4.519   5.947
   93SOL    HW2 1179   3.474   4.673   5.892
   94SOL     OW 1180   2.526   6.514   1.827
   94SOL    HW1 1181   2.532   6.576   1.905
   94SOL    HW2 1182   2.549   6.422   1.855
   95SOL     OW 1183   6.792   0.244   5.227
   95SOL    HW1 1184   6.791   0.150   5.261
   95SOL    HW2 1185   6.873   0.258   5.169
   96SOL     OW 1186   1.917   0.144   4.930
   96SOL    HW1 1187   1.831   0.153   4.880
   96SOL    HW2 1188   1.957   0.055   4.912
   97SOL     OW 1189   5.943   2.976   4.802
   97SOL    HW1 1190   6.004   2.959   4.725
   97SOL    HW2 1191   5.984   2.941   4.886
   98SOL     OW 1192   5.593   1.649   5.991
   98SOL    HW1 1193   5.607   1.553   6.016
   98SOL    HW2 1194   5.560   1.699   6.070
   99SOL     OW 1195   4.537   1.846   1.034
   99SOL    HW1 1196   4.558   1.844   0.937
   99SOL    HW2 1197   4.553   1.938   1.070
  100SOL     OW 1198   6.113   5.539   6.669
  100SOL    HW1 1199   6.195   5.586   6.637
  100SOL    HW2 1200   6.133   5.491   6.754
  101SOL     OW 1201   0.871   6.588   4.603
  101SOL    HW1 1202   0.922   6.672   4.584
  101SOL    HW2 1203   0.810   6.568   4.527
  102SOL     OW 1204   4.544   0.289   3.202
  102SOL    HW1 1205   4.468   0.235   3.240
  102SOL    HW2 1206   4.562   0.367   3.262
  103SOL     OW 1207   3.498   2.005   1.560
  103SOL    HW1 1208   3.453   1.916   1.549
  103SOL    HW2 1209   3.470   2.047   1.646
  104SOL     OW 1210   0.342   6.061   2.220
  104SOL    HW1 1211   0.433   6.100   2.234
  104SOL    HW2 1212   0.351   5.967   2.187
  105SOL     OW 1213   5.384   1.334   5.802
  105SOL    HW1 1214   5.367   1.387   5.719
  105SOL    HW2 1215   5.305   1.277   5.822
  106SOL     OW 1216   3.410   6.355   1.200
  106SOL    HW1 1217   3.332   6.349   1.263
  106SOL    HW2 1218   3.378   6.381   1.110
  107SOL     OW 1219   2.374   3.163   0.746
  107SOL    HW1 1220   2.423   3.111   0.677
  107SOL    HW2 1221   2.379   3.115   0.834
  108SOL     OW 1222   4.759   4.152   4.955
  108SOL    HW1 1223   4.764   4.058   4.988
  108SOL    HW2 1224   4.689   4.202   5.006
  109SOL     OW 1225   6.255   0.651   1.454
  109SOL    HW1 1226   6.310   0.718   1.504
  109SOL    HW2 1227   6.169   0.636   1.502
  110SOL     OW 1228   3.445   6.149   4.619
  110SOL    HW1 1229   3.482   6.204   4.693
  110SOL    HW2 1230   3.494   6.063   4.613
  111SOL     OW 1231   3.000   1.104   3.409
  111SOL    HW1 1232   2.988   1.016   3.455
  111SOL    HW2 1233   3.097   1.116   3.385
  112SOL     OW 1234   6.828   1.204   6.677
  112SOL    HW1 1235   6.888   1.275   6.639
  112SOL    HW2 1236   6.733   1.228   6.659
  113SOL     OW 1237   6.964   6.403   3.645
  113SOL    HW1 1238   6.956   6.503   3.637
  113SOL    HW2 1239   6.978   6.364   3.554
  114SOL     OW 1240   1.394   6.498   0.074
  114SOL    HW1 1241   1.365   6.411   0.033
  114SOL    HW2 1242   1.345   6.573   0.029
  115SOL     OW 1243   5.554   0.902   5.592
  115SOL    HW1 1244   5.611   0.900   5.509
  115SOL    HW2 1245   5.586   0.833   5.656
  116SOL     OW 1246   6.288   4.267   2.466
  116SOL    HW1 1247   6.218   4.283   2.536
  116SOL    HW2 1248   6.321   4.173   2.474
  117SOL     OW 1249   1.462   6.728   6.350
  117SOL    HW1 1250   1.538   6.753   6.290
  117SOL    HW2 1251   1.470   6.778   6.437
  118SOL     OW 1252   2.131   0.831   2.794
  118SOL    HW1 1253   2.164   0.888   2.870
  118SOL    HW2 1254   2.140   0.882   2.709
  119SOL     OW 1255   6.745   2.572   6.420
  119SOL    HW1 1256   6.752   2.606   6.327
  119SOL    HW2 1257   6.783   2.479   6.425
  120SOL     OW 1258   5.409   6.420   1.481
  120SOL    HW1 1259   5.492   6.364   1.471
  120SOL    HW2 1260   5.417   6.476   1.563
  121SOL     OW 1261   2.813   3.111   5.877
  121SOL    HW1 1262   2.867   3.058   5.811
  121SOL    HW2 1263   2.722   3.071   5.884
  122SOL     OW 1264   0.368   3.244   4.780
  122SOL    HW1 1265   0.453   3.244   4.728
  122SOL    HW2 1266   0.376   3.307   4.857
  123SOL     OW 1267   0.487   2.043   2.134
  123SOL    HW1 1268   0.558   2.015   2.069
  123SOL    HW2 1269   0.402   2.062   2.085
  124SOL     OW 1270   4.761   3.563   1.081
  124SOL    HW1 1271   4.803   3.629   1.142
  124SOL    HW2 1272   4.817   3.553   0.998
  125SOL     OW 1273   2.187   3.655   1.711
  125SOL    HW1 1274   2.217   3.593   1.784
  125SOL    HW2 1275   2.239   3.740   1.716
  126SOL     OW 1276   3.838   4.565   0.506
  126SOL    HW1 1277   3.756   4.540   0.559
  126SOL    HW2 1278   3.820   4.550   0.409
  127SOL     OW 1279   1.090   5.098   5.651
  127SOL    HW1 1280   1.059   5.015   5.604
  127SOL    HW2 1281   1.067   5.178   5.595
  128SOL     OW 1282   4.389   2.666   0.952
  128SOL    HW1 1283   4.435   2.736   0.898
  128SOL    HW2 1284   4.308   2.634   0.904
  129SOL     OW 1285   2.435   4.005   0.031
  129SOL    HW1 1286   2.525   4.022   7.014
  129SOL    HW2 1287   2.445   3.983   0.128
  130SOL     OW 1288   1.652   2.496   4.969
  130SOL    HW1 1289   1.586   2.425   4.942
  130SOL    HW2 1290   1.744   2.467   4.942
  131SOL     OW 1291   5.589   1.418   2.303
  131SOL    HW1 1292   5.503   1.398   2.350
  131SOL    HW2 1293   5.664   1.418   2.370
  132SOL     OW 1294   0.799   2.334   2.563
  132SOL    HW1 1295   0.748   2.278   2.498
  132SOL    HW2 1296   0.825   2.420   2.519
  133SOL     OW 1297   0.038   5.677   2.713
  133SOL    HW1 1298   0.108   5.748   2.713
  133SOL    HW2 1299   0.051   5.617   2.634
  134SOL     OW 1300   1.260   3.562   2.275
  134SOL    HW1 1301   1.339   3.592   2.330
  134SOL    HW2 1302   1.197   3.639   2.263
  135SOL     OW 1303   4.161   1.240   4.192
  135SOL    HW1 1304   4.134   1.306   4.122
  135SOL    HW2 1305   4.246   1.194   4.163
  136SOL     OW 1306   4.802   4.650   5.668
  136SOL    HW1 1307   4.816   4.641   5.569
  136SOL    HW2 1308   4.731   4.586   5.698
  137SOL     OW 1309   3.491   0.839   5.874
  137SOL    HW1 1310   3.405   0.801   5.840
  137SOL    HW2 1311   3.552   0.765   5.903
  138SOL     OW 1312   6.123   4.880   5.435
  138SOL    HW1 1313   6.184   4.816   5.481
  138SOL    HW2 1314   6.041   4.831   5.404
  139SOL     OW 1315   3.025   6.042   5.812
  139SOL    HW1 1316   2.952   6.071   5.874
  139SOL    HW2 1317   3.083   6.120   5.789
  140SOL     OW 1318   6.433   4.282   4.307
  140SOL    HW1 1319   6.422   4.311   4.403
  140SOL    HW2 1320   6.398   4.354   4.247
  141SOL     OW 1321   1.284   1.768   2.531
  141SOL    HW1 1322   1.267   1.865   2.511
  141SOL    HW2 1323   1.266   1.714   2.449
  142SOL     OW 1324   1.765   5.097   1.429
  142SOL    HW1 1325   1.694   5.116   1.497
  142SOL    HW2 1326   1.814   5.014   1.456
  143SOL     OW 1327   4.938   4.638   2.241
  143SOL    HW1 1328   5.004   4.564   2.229
  143SOL    HW2 1329   4.882   4.619   2.322
  144SOL     OW 1330   2.717   6.147   1.109
  144SOL    HW1 1331   2.794   6.088   1.086
  144SOL    HW2 1332   2.751   6.230   1.155
  145SOL     OW 1333   6.926   5.149   0.676
  145SOL    HW1 1334   6.829   5.125   0.685
  145SOL    HW2 1335   6.982   5.070   0.699
  146SOL     OW 1336   6.674   4.949   0.742
  146SOL    HW1 1337   6.605   4.877   0.753
  146SOL    HW2 1338   6.701   4.983   0.832
  147SOL     OW 1339   5.615   2.816   0.831
  147SOL    HW1 1340   5.677   2.853   0.900
  147SOL    HW2 1341   5.635   2.718   0.818
  148SOL     OW 1342   1.054   5.121   5.316
  148SOL    HW1 1343   1.043   5.172   5.401
  148SOL    HW2 1344   1.043   5.185   5.239
  149SOL     OW 1345   3.132   0.922   6.181
  149SOL    HW1 1346   3.123   0.992   6.252
  149SOL    HW2 1347   3.180   0.960   6.102
  150SOL     OW 1348   0.184   6.001   5.728
  150SOL    HW1 1349   0.238   5.917   5.718
  150SOL    HW2 1350   0.098   5.991   5.679
  151SOL     OW 1351   3.638   0.494   1.975
  151SOL    HW1 1352   3.612   0.589   1.954
  151SOL    HW2 1353   3.726   0.494   2.022
  152SOL     OW 1354   3.432   1.036   4.772
  152SOL    HW1 1355   3.500   1.087   4.718
  152SOL    HW2 1356   3.401   1.093   4.848
  153SOL     OW 1357   1.102   0.567   2.716
  153SOL    HW1 1358   1.195   0.530   2.727
  153SOL    HW2 1359   1.068   0.543   2.625
  154SOL     OW 1360   6.605   1.992   2.999
  154SOL    HW1 1361   6.617   2.062   3.070
  154SOL    HW2 1362   6.606   1.902   3.042
  155SOL     OW 1363   0.447   1.017   2.869
  155SOL    HW1 1364   0.510   1.009   2.946
  155SOL    HW2 1365   0.362   0.969   2.890
  156SOL     OW 1366   0.353   2.477   1.546
  156SOL    HW1 1367   0.356   2.525   1.634
  156SOL    HW2 1368   0.314   2.538   1.477
  157SOL     OW 1369   6.030   3.115   2.800
  157SOL    HW1 1370   6.029   3.149   2.705
  157SOL    HW2 1371   5.954   3.051   2.813
  158SOL     OW 1372   1.863   1.844   4.102
  158SOL    HW1 1373   1.892   1.794   4.020
  158SOL    HW2 1374   1.856   1.941   4.081
  159SOL     OW 1375   4.891   3.264   1.978
  159SOL    HW1 1376   4.859   3.170   1.989
  159SOL    HW2 1377   4.984   3.264   1.941
  160SOL     OW 1378   6.219   4.400   5.978
  160SOL    HW1 1379   6.182   4.326   5.922
  160SOL    HW2 1380   6.312   4.377   6.008
  161SOL     OW 1381   3.188   4.773   5.487
  161SOL    HW1 1382   3.120   4.843   5.509
  161SOL    HW2 1383   3.173   4.742   5.393
  162SOL     OW 1384   4.963   5.964   2.181
  162SOL    HW1 1385   5.001   6.019   2.256
  162SOL    HW2 1386   4.906   5.891   2.219
  163SOL     OW 1387   5.779   0.970   2.081
  163SOL    HW1 1388   5.716   0.985   2.157
  163SOL    HW2 1389   5.824   0.882   2.092
  164SOL     OW 1390   6.520   3.381   1.096
  164SOL    HW1 1391   6.525   3.289   1.136
  164SOL    HW2 1392   6.576   3.385   1.014
  165SOL     OW 1393   6.442   3.932   6.703
  165SOL    HW1 1394   6.459   4.025   6.671
  165SOL    HW2 1395   6.394   3.881   6.632
  166SOL     OW 1396   1.421   0.392   0.883
  166SOL    HW1 1397   1.488   0.317   0.884
  166SOL    HW2 1398   1.416   0.432   0.974
  167SOL     OW 1399   6.658   3.330   0.877
  167SOL    HW1 1400   6.581   3.310   0.817
  167SOL    HW2 1401   6.715   3.248   0.888
  168SOL     OW 1402   2.571   5.627   1.517
  168SOL    HW1 1403   2.501   5.591   1.455
  168SOL    HW2 1404   2.658   5.580   1.502
  169SOL     OW 1405   1.186   0.096   1.478
  169SOL    HW1 1406   1.090   0.083   1.505
  169SOL    HW2 1407   1.246   0.065   1.551
  170SOL     OW 1408   0.704   1.304   3.031
  170SOL    HW1 1409   0.797   1.336   3.050
  170SOL    HW2 1410   0.703   1.204   3.028
  171SOL     OW 1411   3.472   4.098   0.550
  171SOL    HW1 1412   3.402   4.029   0.570
  171SOL    HW2 1413   3.430   4.173   0.499
  172SOL     OW 1414   6.754   2.956   1.695
  172SOL    HW1 1415   6.733   3.051   1.714
  172SOL    HW2 1416   6.797   2.914   1.775
  173SOL     OW 1417   0.303   6.282   5.672
  173SOL    HW1 1418   0.212   6.321   5.680
  173SOL    HW2 1419   0.302   6.187   5.704
  174SOL     OW 1420   2.535   5.735   3.815
  174SOL    HW1 1421   2.614   5.785   3.850
  174SOL    HW2 1422   2.507   5.665   3.880
  175SOL     OW 1423   0.459   5.321   3.235
  175SOL    HW1 1424   0.451   5.421   3.239
  175SOL    HW2 1425   0.552   5.297   3.205
  176SOL     OW 1426   2.945   5.378   0.252
  176SOL    HW1 1427   3.044   5.367   0.241
  176SOL    HW2 1428   2.898   5.338   0.173
  177SOL     OW 1429   4.681   2.122   3.174
  177SOL    HW1 1430   4.684   2.025   3.148
  177SOL    HW2 1431   4.710   2.132   3.269
  178SOL     OW 1432   5.635   4.320   5.578
  178SOL    HW1 1433   5.616   4.278   5.667
  178SOL    HW2 1434   5.549   4.344   5.534
  179SOL     OW 1435   3.181   0.024   1.085
  179SOL    HW1 1436   3.263   7.018   1.135
  179SOL    HW2 1437   3.207   0.059   0.995
  180SOL     OW 1438   1.063   2.099   0.136
  180SOL    HW1 1439   1.041   2.125   0.230
  180SOL    HW2 1440   1.162   2.092   0.125
  181SOL     OW 1441   3.054   3.561   4.709
  181SOL    HW1 1442   3.035   3.637   4.647
  181SOL    HW2 1443   3.135   3.582   4.765
  182SOL     OW 1444   5.023   2.465   4.767
  182SOL    HW1 1445   5.066   2.529   4.703
  182SOL    HW2 1446   4.924   2.466   4.753
  183SOL     OW 1447   5.968   1.821   2.595
  183SOL    HW1 1448   6.063   1.799   2.570
  183SOL    HW2 1449   5.967   1.865   2.685
  184SOL     OW 1450   0.098   4.431   2.834
  184SOL    HW1 1451   0.196   4.448   2.851
  184SOL    HW2 1452   0.058   4.512   2.792
  185SOL     OW 1453   2.859   3.233   6.575
  185SOL    HW1 1454   2.838   3.139   6.548
  185SOL    HW2 1455   2.958   3.245   6.578
  186SOL     OW 1456   5.934   6.376   3.686
  186SOL    HW1 1457   6.020   6.394   3.638
  186SOL    HW2 1458   5.938   6.417   3.778
  187SOL     OW 1459   5.650   0.043   4.023
  187SOL    HW1 1460   5.563   0.067   3.981
  187SOL    HW2 1461   5.722   0.103   3.987
  188SOL     OW 1462   6.117   2.169   4.609
  188SOL    HW1 1463   6.034   2.165   4.664
  188SOL    HW2 1464   6.145   2.265   4.596
  189SOL     OW 1465   1.613   4.495   3.105
  189SOL    HW1 1466   1.587   4.534   3.193
  189SOL    HW2 1467   1.680   4.555   3.061
  190SOL     OW 1468   3.207   1.174   6.331
  190SOL    HW1 1469   3.170   1.241   6.395
  190SOL    HW2 1470   3.253   1.222   6.256
  191SOL     OW 1471   4.704   5.960   5.978
  191SOL    HW1 1472   4.681   6.003   6.065
  191SOL    HW2 1473   4.670   5.866   5.977
  192SOL     OW 1474   6.564   0.888   0.580
  192SOL    HW1 1475   6.571   0.863   0.677
  192SOL    HW2 1476   6.638   0.950   0.556
  193SOL     OW 1477   5.941   4.407   0.117
  193SOL    HW1 1478   5.934   4.356   0.031
  193SOL    HW2 1479   6.012   4.366   0.174
  194SOL     OW 1480   4.393   6.777   4.488
  194SOL    HW1 1481   4.440   6.840   4.426
  194SOL    HW2 1482   4.411   6.804   4.583
  195SOL     OW 1483   6.712   5.208   3.316
  195SOL    HW1 1484   6.774   5.149   3.263
  195SOL    HW2 1485   6.642   5.245   3.256
  196SOL     OW 1486   0.912   1.205   1.048
  196SOL    HW1 1487   0.815   1.229   1.048
  196SOL    HW2 1488   0.922   1.106   1.057
  197SOL     OW 1489   1.802   0.853   0.646
  197SOL    HW1 1490   1.792   0.904   0.561
  197SOL    HW2 1491   1.840   0.912   0.717
  198SOL     OW 1492   2.869   1.435   4.003
  198SOL    HW1 1493   2.855   1.473   4.094
  198SOL    HW2 1494   2.878   1.509   3.936
  199SOL     OW 1495   1.075   1.997   4.922
  199SOL    HW1 1496   1.119   1.942   4.994
  199SOL    HW2 1497   0.982   1.963   4.907
  200SOL     OW 1498   6.133   2.293   7.007
  200SOL    HW1 1499   6.121   2.287   0.084
  200SOL    HW2 1500   6.170   2.382   6.983
  201SOL     OW 1501   6.873   1.438   6.300
  201SOL    HW1 1502   6.935   1.466   6.373
  201SOL    HW2 1503   6.854   1.516   6.241
  202SOL     OW 1504   5.101   0.285   0.291
  202SOL    HW1 1505   5.136   0.280   0.384
  202SOL    HW2 1506   5.118   0.199   0.244
  203SOL     OW 1507   6.432   3.079   6.612
  203SOL    HW1 1508   6.493   3.085   6.534
  203SOL    HW2 1509   6.363   3.008   6.595
  204SOL     OW 1510   6.112   0.536   5.112
  204SOL    HW1 1511   6.176   0.460   5.126
  204SOL    HW2 1512   6.163   0.620   5.093
  205SOL     OW 1513   1.691   4.127   2.464
  205SOL    HW1 1514   1.708   4.172   2.551
  205SOL    HW2 1515   1.763   4.061   2.445
  206SOL     OW 1516   0.454   3.801   0.730
  206SOL    HW1 1517   0.551   3.778   0.720
  206SOL    HW2 1518   0.436   3.888   0.685
  207SOL     OW 1519   5.957   2.592   4.882
  207SOL    HW1 1520   5.961   2.493   4.869
  207SOL    HW2 1521   6.050   2.629   4.889
  208SOL     OW 1522   1.002   3.430   5.237
  208SOL    HW1 1523   1.060   3.380   5.301
  208SOL    HW2 1524   1.013   3.528   5.253
  209SOL     OW 1525   6.517   4.536   2.874
  209SOL    HW1 1526   6.457   4.605   2.914
  209SOL    HW2 1527   6.463   4.475   2.816
  210SOL     OW 1528   4.705   3.026   0.615
  210SOL    HW1 1529   4.657   3.109   0.643
  210SOL    HW2 1530   4.778   3.006   0.681
  211SOL     OW 1531   1.530   1.347   2.057
  211SOL    HW1 1532   1.465   1.368   2.130
  211SOL    HW2 1533   1.500   1.391   1.973
  212SOL     OW 1534   1.960   3.985   1.564
  212SOL    HW1 1535   2.039   3.927   1.582
  212SOL    HW2 1536   1.878   3.941   1.600
  213SOL     OW 1537   1.097   4.849   0.944
  213SOL    HW1 1538   1.177   4.888   0.899
  213SOL    HW2 1539   1.026   4.918   0.954
  214SOL     OW 1540   5.576   6.908   2.030
  214SOL    HW1 1541   5.671   6.938   2.014
  214SOL    HW2 1542   5.541   6.952   2.112
  215SOL     OW 1543   2.045   5.067   3.024
  215SOL    HW1 1544   2.005   5.052   2.934
  215SOL    HW2 1545   2.143   5.046   3.021
  216SOL     OW 1546   1.797   6.098   3.212
  216SOL    HW1 1547   1.755   6.147   3.288
  216SOL    HW2 1548   1.866   6.156   3.169
  217SOL     OW 1549   1.008   4.891   5.515
  217SOL    HW1 1550   1.000   4.792   5.507
  217SOL    HW2 1551   0.923   4.934   5.485
  218SOL     OW 1552   2.531   2.091   5.548
  218SOL    HW1 1553   2.462   2.023   5.572
  218SOL    HW2 1554   2.585   2.114   5.629
  219SOL     OW 1555   4.380   2.346   1.389
  219SOL    HW1 1556   4.301   2.288   1.368
  219SOL    HW2 1557   4.377   2.427   1.330
  220SOL     OW 1558   3.150   6.549   0.975
  220SOL    HW1 1559   3.082   6.609   1.016
  220SOL    HW2 1560   3.121   6.454   0.988
  221SOL     OW 1561   4.919   4.690   1.949
  221SOL    HW1 1562   4.919   4.648   2.039
  221SOL    HW2 1563   5.013   4.706   1.919
  222SOL     OW 1564   1.862   4.710   6.651
  222SOL    HW1 1565   1.863   4.798   6.698
  222SOL    HW2 1566   1.825   4.640   6.712
  223SOL     OW 1567   6.535   2.432   5.183
  223SOL    HW1 1568   6.451   2.377   5.186
  223SOL    HW2 1569   6.516   2.523   5.221
  224SOL     OW 1570   3.377   2.041   5.796
  224SOL    HW1 1571   3.448   2.020   5.729
  224SOL    HW2 1572   3.385   1.980   5.875
  225SOL     OW 1573   3.940   6.240   6.374
  225SOL    HW1 1574   3.875   6.287   6.434
  225SOL    HW2 1575   3.975   6.158   6.421
  226SOL     OW 1576   1.851   2.576   0.022
  226SOL    HW1 1577   1.889   2.544   6.958
  226SOL    HW2 1578   1.753   2.557   0.024
  227SOL     OW 1579   1.564   3.752   0.931
  227SOL    HW1 1580   1.599   3.659   0.943
  227SOL    HW2 1581   1.621   3.802   0.865
  228SOL     OW 1582   0.733   0.415   2.200
  228SOL    HW1 1583   0.765   0.413   2.295
  228SOL    HW2 1584   0.683   0.500   2.183
  229SOL     OW 1585   3.986   6.895   6.104
  229SOL    HW1 1586   4.062   6.913   6.166
  229SOL    HW2 1587   3.913   6.849   6.153
  230SOL     OW 1588   5.314   5.135   5.738
  230SOL    HW1 1589   5.302   5.127   5.639
  230SOL    HW2 1590   5.366   5.218   5.758
  231SOL     OW 1591   5.278   1.671   6.930
  231SOL    HW1 1592   5.354   1.606   6.937
  231SOL    HW2 1593   5.235   1.662   6.840
  232SOL     OW 1594   1.015   1.777   5.816
  232SOL    HW1 1595   0.923   1.799   5.784
  232SOL    HW2 1596   1.011   1.747   5.911
  233SOL     OW 1597   3.209   1.797   2.894
  233SOL    HW1 1598   3.207   1.703   2.859
  233SOL    HW2 1599   3.149   1.804   2.974
  234SOL     OW 1600   5.241   0.707   0.974
  234SOL    HW1 1601   5.281   0.628   1.021
  234SOL    HW2 1602   5.304   0.740   0.904
  235SOL     OW 1603   5.036   2.612   2.529
  235SOL    HW1 1604   4.962   2.677   2.510
  235SOL    HW2 1605   4.999   2.520   2.538
  236SOL     OW 1606   4.160   3.477   6.219
  236SOL    HW1 1607   4.073   3.480   6.170
  236SOL    HW2 1608   4.147   3.428   6.306
  237SOL     OW 1609   6.188   3.445   2.747
  237SOL    HW1 1610   6.170   3.439   2.649
  237SOL    HW2 1611   6.105   3.418   2.798
  238SOL     OW 1612   5.910   2.115   0.790
  238SOL    HW1 1613   5.850   2.125   0.711
  238SOL    HW2 1614   5.936   2.020   0.801
  239SOL     OW 1615   1.138   3.567   0.321
  239SOL    HW1 1616   1.201   3.490   0.333
  239SOL    HW2 1617   1.053   3.534   0.280
  240SOL     OW 1618   4.962   3.412   4.134
  240SOL    HW1 1619   5.057   3.390   4.113
  240SOL    HW2 1620   4.928   3.348   4.203
  241SOL     OW 1621   2.568   1.943   4.276
  241SOL    HW1 1622   2.615   1.910   4.358
  241SOL    HW2 1623   2.531   1.865   4.225
  242SOL     OW 1624   3.748   3.528   2.879
  242SOL    HW1 1625   3.718   3.595   2.811
  242SOL    HW2 1626   3.747   3.437   2.838
  243SOL     OW 1627   3.966   2.337   6.860
  243SOL    HW1 1628   3.881   2.296   6.893
  243SOL    HW2 1629   4.025   2.360   6.938
  244SOL     OW 1630   4.982   3.339   4.741
  244SOL    HW1 1631   4.911   3.305   4.803
  244SOL    HW2 1632   4.988   3.279   4.661
  245SOL     OW 1633   3.237   1.159   3.312
  245SOL    HW1 1634   3.275   1.208   3.234
  245SOL    HW2 1635   3.303   1.158   3.387
  246SOL     OW 1636   6.402   1.086   2.202
  246SOL    HW1 1637   6.352   1.151   2.144
  246SOL    HW2 1638   6.450   1.020   2.144
  247SOL     OW 1639   1.764   1.451   1.752
  247SOL    HW1 1640   1.781   1.542   1.715
  247SOL    HW2 1641   1.678   1.416   1.715
  248SOL     OW 1642   3.046   3.561   1.579
  248SOL    HW1 1643   3.013   3.467   1.590
  248SOL    HW2 1644   3.081   3.594   1.667
  249SOL     OW 1645   4.852   6.601   4.873
  249SOL    HW1 1646   4.859   6.685   4.927
  249SOL    HW2 1647   4.794   6.536   4.920
  250SOL     OW 1648   4.374   2.254   0.525
  250SOL    HW1 1649   4.455   2.295   0.482
  250SOL    HW2 1650   4.399   2.221   0.617
  251SOL     OW 1651   3.941   4.834   5.232
  251SOL    HW1 1652   3.956   4.843   5.133
  251SOL    HW2 1653   3.962   4.741   5.261
  252SOL     OW 1654   6.339   6.704   5.292
  252SOL    HW1 1655   6.264   6.637   5.295
  252SOL    HW2 1656   6.412   6.671   5.233
  253SOL     OW 1657   4.439   6.163   6.111
  253SOL    HW1 1658   4.455   6.209   6.023
  253SOL    HW2 1659   4.400   6.073   6.094
  254SOL     OW 1660   6.074   2.004   5.653
  254SOL    HW1 1661   5.983   2.006   5.694
  254SOL    HW2 1662   6.116   1.915   5.671
  255SOL     OW 1663   0.843   4.150   6.971
  255SOL    HW1 1664   0.918   4.090   6.943
  255SOL    HW2 1665   0.875   4.210   0.023
  256SOL     OW 1666   5.413   2.375   4.995
  256SOL    HW1 1667   5.335   2.433   4.970
  256SOL    HW2 1668   5.498   2.426   4.980
  257SOL     OW 1669   4.698   6.302   2.512
  257SOL    HW1 1670   4.638   6.236   2.467
  257SOL    HW2 1671   4.692   6.291   2.611
  258SOL     OW 1672   1.807   3.125   6.040
  258SOL    HW1 1673   1.869   3.047   6.030
  258SOL    HW2 1674   1.804   3.152   6.136
  259SOL     OW 1675   3.280   6.691   3.862
  259SOL    HW1 1676   3.223   6.760   3.905
  259SOL    HW2 1677   3.316   6.629   3.932
  260SOL     OW 1678   4.352   5.152   3.035
  260SOL    HW1 1679   4.448   5.141   3.061
  260SOL    HW2 1680   4.338   5.245   3.000
  261SOL     OW 1681   4.479   5.167   6.920
  261SOL    HW1 1682   4.571   5.129   6.912
  261SOL    HW2 1683   4.483   5.267   6.920
  262SOL     OW 1684   0.891   4.070   6.297
  262SOL    HW1 1685   0.912   4.130   6.220
  262SOL    HW2 1686   0.941   4.101   6.378
  263SOL     OW 1687   1.147   6.892   4.123
  263SOL    HW1 1688   1.235   6.846   4.132
  263SOL    HW2 1689   1.099   6.890   4.211
  264SOL     OW 1690   6.552   3.512   6.811
  264SOL    HW1 1691   6.456   3.533   6.795
  264SOL    HW2 1692   6.606   3.596   6.805
  265SOL     OW 1693   0.044   0.435   3.303
  265SOL    HW1 1694   0.090   0.391   3.226
  265SOL    HW2 1695   6.986   0.483   3.271
  266SOL     OW 1696   3.689   0.690   6.013
  266SOL    HW1 1697   3.644   0.707   6.101
  266SOL    HW2 1698   3.788   0.697   6.024
  267SOL     OW 1699   2.167   0.447   3.380
  267SOL    HW1 1700   2.120   0.532   3.355
  267SOL    HW2 1701   2.137   0.418   3.471
  268SOL     OW 1702   3.352   2.745   1.031
  268SOL    HW1 1703   3.327   2.827   0.980
  268SOL    HW2 1704   3.391   2.772   1.119
  269SOL     OW 1705   4.642   1.892   0.322
  269SOL    HW1 1706   4.734   1.855   0.307
  269SOL    HW2 1707   4.604   1.853   0.406
  270SOL     OW 1708   5.802   0.628   0.132
  270SOL    HW1 1709   5.866   0.703   0.114
  270SOL    HW2 1710   5.769   0.591   0.046
  271SOL     OW 1711   0.661   3.846   6.395
  271SOL    HW1 1712   0.627   3.848   6.301
  271SOL    HW2 1713   0.754   3.882   6.398
  272SOL     OW 1714   3.279   5.926   3.162
  272SOL    HW1 1715   3.214   5.990   3.120
  272SOL    HW2 1716   3.287   5.945   3.259
  273SOL     OW 1717   1.898   4.834   6.095
  273SOL    HW1 1718   1.807   4.820   6.135
  273SOL    HW2 1719   1.908   4.776   6.014
  274SOL     OW 1720   5.149   2.282   3.585
  274SOL    HW1 1721   5.096   2.201   3.557
  274SOL    HW2 1722   5.238   2.281   3.540
  275SOL     OW 1723   6.498   6.481   1.264
  275SOL    HW1 1724   6.555   6.556   1.231
  275SOL    HW2 1725   6.465   6.427   1.186
  276SOL     OW 1726   1.042   0.395   5.232
  276SOL    HW1 1727   1.014   0.310   5.189
  276SOL    HW2 1728   1.139   0.413   5.211
  277SOL     OW 1729   2.058   4.256   0.759
  277SOL    HW1 1730   2.139   4.219   0.804
  277SOL    HW2 1731   1.977   4.235   0.814
  278SOL     OW 1732   0.905   3.166   2.731
  278SOL    HW1 1733   0.931   3.072   2.709
  278SOL    HW2 1734   0.865   3.169   2.823
  279SOL     OW 1735   6.563   1.115   3.659
  279SOL    HW1 1736   6.593   1.190   3.600
  279SOL    HW2 1737   6.470   1.089   3.636
  280SOL     OW 1738   1.506   4.726   2.537
  280SOL    HW1 1739   1.469   4.633   2.536
  280SOL    HW2 1740   1.604   4.723   2.517
  281SOL     OW 1741   2.463   4.622   1.231
  281SOL    HW1 1742   2.536   4.580   1.284
  281SOL    HW2 1743   2.500   4.658   1.145
  282SOL     OW 1744   2.629   1.583   5.937
  282SOL    HW1 1745   2.727   1.564   5.939
  282SOL    HW2 1746   2.583   1.527   6.005
  283SOL     OW 1747   3.536   2.586   5.940
  283SOL    HW1 1748   3.570   2.665   5.889
  283SOL    HW2 1749   3.485   2.526   5.878
  284SOL     OW 1750   0.648   3.630   3.816
  284SOL    HW1 1751   0.589   3.656   3.740
  284SOL    HW2 1752   0.691   3.712   3.854
  285SOL     OW 1753   4.758   5.057   4.151
  285SOL    HW1 1754   4.674   5.091   4.194
  285SOL    HW2 1755   4.823   5.030   4.222
  286SOL     OW 1756   2.878   3.883   0.481
  286SOL    HW1 1757   2.876   3.974   0.439
  286SOL    HW2 1758   2.940   3.883   0.559
  287SOL     OW 1759   1.254   2.653   0.385
  287SOL    HW1 1760   1.261   2.750   0.409
  287SOL    HW2 1761   1.235   2.644   0.287
  288SOL     OW 1762   4.979   3.318   1.027
  288SOL    HW1 1763   5.055   3.349   1.084
  288SOL    HW2 1764   4.941   3.234   1.065
  289SOL     OW 1765   4.077   5.591   6.686
  289SOL    HW1 1766   4.009   5.628   6.749
  289SOL    HW2 1767   4.089   5.493   6.704
  290SOL     OW 1768   1.405   1.312   4.902
  290SOL    HW1 1769   1.470   1.345   4.833
  290SOL    HW2 1770   1.316   1.354   4.886
  291SOL     OW 1771   6.388   2.493   2.723
  291SOL    HW1 1772   6.479   2.484   2.764
  291SOL    HW2 1773   6.324   2.435   2.772
  292SOL     OW 1774   3.413   0.595   3.789
  292SOL    HW1 1775   3.389   0.689   3.762
  292SOL    HW2 1776   3.475   0.597   3.867
  293SOL     OW 1777   3.654   4.917   3.697
  293SOL    HW1 1778   3.601   4.908   3.782
  293SOL    HW2 1779   3.697   5.007   3.695
  294SOL     OW 1780   4.959   0.902   0.724
  294SOL    HW1 1781   5.004   0.943   0.645
  294SOL    HW2 1782   5.011   0.822   0.754
  295SOL     OW 1783   5.877   0.024   3.634
  295SOL    HW1 1784   5.846   0.035   3.540
  295SOL    HW2 1785   5.953   6.981   3.637
  296SOL     OW 1786   2.274   2.198   3.587
  296SOL    HW1 1787   2.374   2.202   3.596
  296SOL    HW2 1788   2.231   2.251   3.660
  297SOL     OW 1789   1.618   5.235   2.244
  297SOL    HW1 1790   1.593   5.265   2.336
  297SOL    HW2 1791   1.541   5.186   2.203
  298SOL     OW 1792   6.411   4.774   1.104
  298SOL    HW1 1793   6.477   4.776   1.029
  298SOL    HW2 1794   6.459   4.786   1.191
  299SOL     OW 1795   5.774   2.439   3.885
  299SOL    HW1 1796   5.757   2.404   3.977
  299SOL    HW2 1797   5.732   2.529   3.875
  300SOL     OW 1798   6.665   6.681   1.957
  300SOL    HW1 1799   6.640   6.748   2.027
  300SOL    HW2 1800   6.584   6.651   1.908
  301SOL     OW 1801   4.477   2.666   5.477
  301SOL    HW1 1802   4.481   2.758   5.516
  301SOL    HW2 1803   4.569   2.635   5.455
  302SOL     OW 1804   1.022   5.735   4.449
  302SOL    HW1 1805   1.043   5.823   4.492
  302SOL    HW2 1806   0.964   5.681   4.510
  303SOL     OW 1807   6.087   6.981   3.224
  303SOL    HW1 1808   5.993   6.985   3.258
  303SOL    HW2 1809   6.098   6.900   3.166
  304SOL     OW 1810   3.570   0.326   3.336
  304SOL    HW1 1811   3.660   0.311   3.375
  304SOL    HW2 1812   3.507   0.357   3.407
  305SOL     OW 1813   1.428   4.492   1.170
  305SOL    HW1 1814   1.498   4.528   1.108
  305SOL    HW2 1815   1.408   4.559   1.242
  306SOL     OW 1816   1.859   0.743   3.668
  306SOL    HW1 1817   1.915   0.771   3.746
  306SOL    HW2 1818   1.860   0.814   3.598
  307SOL     OW 1819   3.186   0.332   1.696
  307SOL    HW1 1820   3.199   0.278   1.613
  307SOL    HW2 1821   3.208   0.276   1.776
  308SOL     OW 1822   0.886   4.438   3.872
  308SOL    HW1 1823   0.903   4.527   3.915
  308SOL    HW2 1824   0.867   4.370   3.944
  309SOL     OW 1825   3.299   4.995   5.102
  309SOL    HW1 1826   3.313   5.033   5.011
  309SOL    HW2 1827   3.208   5.021   5.136
  310SOL     OW 1828   1.479   5.804   6.167
  310SOL    HW1 1829   1.471   5.706   6.182
  310SOL    HW2 1830   1.560   5.823   6.111
  311SOL     OW 1831   0.199   0.866   1.359
  311SOL    HW1 1832   0.236   0.800   1.294
  311SOL    HW2 1833   0.272   0.925   1.393
  312SOL     OW 1834   3.836   1.123   5.801
  312SOL    HW1 1835   3.829   1.106   5.703
  312SOL    HW2 1836   3.911   1.187   5.818
  313SOL     OW 1837   0.304   4.707   1.077
  313SOL    HW1 1838   0.308   4.728   1.175
  313SOL    HW2 1839   0.285   4.610   1.065
  314SOL     OW 1840   3.494   5.749   1.832
  314SOL    HW1 1841   3.470   5.845   1.843
  314SOL    HW2 1842   3.492   5.704   1.921
  315SOL     OW 1843   1.099   3.781   2.873
  315SOL    HW1 1844   1.008   3.807   2.906
  315SOL    HW2 1845   1.090   3.739   2.783
  316SOL     OW 1846   2.080   3.125   4.947
  316SOL    HW1 1847   1.998   3.131   4.890
  316SOL    HW2 1848   2.142   3.056   4.910
  317SOL     OW 1849   6.399   1.277   0.221
  317SOL    HW1 1850   6.359   1.350   0.167
  317SOL    HW2 1851   6.499   1.284   0.218
  318SOL     OW 1852   2.833   4.575   1.095
  318SOL    HW1 1853   2.775   4.494   1.108
  318SOL    HW2 1854   2.811   4.617   1.007
  319SOL     OW 1855   1.353   0.025   6.746
  319SOL    HW1 1856   1.427   0.009   6.681
  319SOL    HW2 1857   1.362   6.985   6.823
  320SOL     OW 1858   5.500   3.260   1.070
  320SOL    HW1 1859   5.417   3.227   1.026
  320SOL    HW2 1860   5.484   3.351   1.108
  321SOL     OW 1861   2.003   1.508   2.301
  321SOL    HW1 1862   2.064   1.538   2.228
  321SOL    HW2 1863   2.011   1.409   2.313
  322SOL     OW 1864   3.408   2.361   5.573
  322SOL    HW1 1865   3.379   2.404   5.487
  322SOL    HW2 1866   3.397   2.426   5.648
  323SOL     OW 1867   1.074   4.083   1.816
  323SOL    HW1 1868   1.146   4.034   1.864
  323SOL    HW2 1869   1.114   4.157   1.761
  324SOL     OW 1870   0.319   2.737   4.367
  324SOL    HW1 1871   0.378   2.685   4.429
  324SOL    HW2 1872   0.368   2.757   4.283
  325SOL     OW 1873   2.581   1.642   3.077
  325SOL    HW1 1874   2.658   1.638   3.141
  325SOL    HW2 1875   2.584   1.728   3.026
  326SOL     OW 1876   1.585   4.073   4.478
  326SOL    HW1 1877   1.677   4.091   4.442
  326SOL    HW2 1878   1.518   4.127   4.426
  327SOL     OW 1879   6.452   4.133   6.095
  327SOL    HW1 1880   6.441   4.073   6.174
  327SOL    HW2 1881   6.495   4.218   6.123
  328SOL     OW 1882   4.035   5.981   2.769
  328SOL    HW1 1883   4.008   5.889   2.795
  328SOL    HW2 1884   3.966   6.047   2.801
  329SOL     OW 1885   3.521   4.121   2.426
  329SOL    HW1 1886   3.612   4.081   2.437
  329SOL    HW2 1887   3.485   4.145   2.517
  330SOL     OW 1888   2.547   2.154   1.948
  330SOL    HW1 1889   2.615   2.174   1.877
  330SOL    HW2 1890   2.568   2.206   2.031
  331SOL     OW 1891   5.867   4.206   5.521
  331SOL    HW1 1892   5.777   4.243   5.548
  331SOL    HW2 1893   5.926   4.281   5.492
  332SOL     OW 1894   4.005   1.931   3.328
  332SOL    HW1 1895   4.062   1.885   3.396
  332SOL    HW2 1896   3.994   1.872   3.248
  333SOL     OW 1897   4.765   6.722   0.634
  333SOL    HW1 1898   4.670   6.746   0.651
  333SOL    HW2 1899   4.774   6.680   0.544
  334SOL     OW 1900   5.016   6.562   2.872
  334SOL    HW1 1901   4.960   6.484   2.901
  334SOL    HW2 1902   5.078   6.586   2.946
  335SOL     OW 1903   3.323   0.005   2.662
  335SOL    HW1 1904   3.347   0.100   2.641
  335SOL    HW2 1905   3.252   6.997   2.599
  336SOL     OW 1906   3.393   0.404   4.527
  336SOL    HW1 1907   3.460   0.458   4.476
  336SOL    HW2 1908   3.306   0.455   4.531
  337SOL     OW 1909   0.077   3.956   2.318
  337SOL    HW1 1910   0.064   3.964   2.417
  337SOL    HW2 1911   0.113   4.042   2.282
  338SOL     OW 1912   2.618   2.379   1.558
  338SOL    HW1 1913   2.698   2.321   1.544
  338SOL    HW2 1914   2.536   2.322   1.566
  339SOL     OW 1915   4.283   1.332   3.242
  339SOL    HW1 1916   4.218   1.303   3.171
  339SOL    HW2 1917   4.251   1.300   3.331
  340SOL     OW 1918   4.860   4.004   4.696
  340SOL    HW1 1919   4.886   3.912   4.724
  340SOL    HW2 1920   4.815   4.050   4.773
  341SOL     OW 1921   4.580   4.525   5.747
  341SOL    HW1 1922   4.561   4.592   5.818
  341SOL    HW2 1923   4.511   4.453   5.749
  342SOL     OW 1924   5.857   3.933   0.533
  342SOL    HW1 1925   5.837   3.940   0.435
  342SOL    HW2 1926   5.893   3.842   0.553
  343SOL     OW 1927   2.230   0.807   2.208
  343SOL    HW1 1928   2.217   0.751   2.126
  343SOL    HW2 1929   2.307   0.772   2.261
  344SOL     OW 1930   4.113   6.647   0.372
  344SOL    HW1 1931   4.149   6.577   0.310
  344SOL    HW2 1932   4.189   6.687   0.424
  345SOL     OW 1933   1.528   1.200   5.574
  345SOL    HW1 1934   1.550   1.104   5.588
  345SOL    HW2 1935   1.608   1.256   5.594
  346SOL     OW 1936   3.351   0.887   5.123
  346SOL    HW1 1937   3.399   0.920   5.204
  346SOL    HW2 1938   3.387   0.933   5.042
  347SOL     OW 1939   4.918   6.238   5.918
  347SOL    HW1 1940   4.997   6.232   5.857
  347SOL    HW2 1941   4.838   6.201   5.871
  348SOL     OW 1942   2.638   6.521   2.675
  348SOL    HW1 1943   2.574   6.451   2.707
  348SOL    HW2 1944   2.673   6.573   2.753
  349SOL     OW 1945   2.971   5.065   2.394
  349SOL    HW1 1946   2.896   5.025   2.343
  349SOL    HW2 1947   3.015   4.995   2.450
  350SOL     OW 1948   4.559   3.106   1.004
  350SOL    HW1 1949   4.519   3.066   1.087
  350SOL    HW2 1950   4.591   3.033   0.944
  351SOL     OW 1951   3.416   1.665   0.838
  351SOL    HW1 1952   3.429   1.660   0.739
  351SOL    HW2 1953   3.336   1.721   0.859
  352SOL     OW 1954   2.989   2.126   6.144
  352SOL    HW1 1955   2.951   2.144   6.235
  352SOL    HW2 1956   3.048   2.045   6.148
  353SOL     OW 1957   1.914   0.004   1.388
  353SOL    HW1 1958   2.012   0.004   1.404
  353SOL    HW2 1959   1.868   0.059   1.459
  354SOL     OW 1960   5.098   0.343   2.164
  354SOL    HW1 1961   5.048   0.256   2.170
  354SOL    HW2 1962   5.040   0.416   2.201
  355SOL     OW 1963   0.974   0.953   2.190
  355SOL    HW1 1964   1.010   0.950   2.283
  355SOL    HW2 1965   0.882   0.991   2.191
  356SOL     OW 1966   3.156   0.289   2.976
  356SOL    HW1 1967   3.188   0.290   3.071
  356SOL    HW2 1968   3.101   0.207   2.960
  357SOL     OW 1969   1.089   4.835   5.228
  357SOL    HW1 1970   1.033   4.813   5.149
  357SOL    HW2 1971   1.080   4.932   5.249
  358SOL     OW 1972   4.539   1.243   3.129
  358SOL    HW1 1973   4.489   1.182   3.067
  358SOL    HW2 1974   4.474   1.300   3.179
  359SOL     OW 1975   0.157   1.641   0.436
  359SOL    HW1 1976   0.155   1.616   0.533
  359SOL    HW2 1977   0.109   1.728   0.423
  360SOL     OW 1978   5.109   0.028   0.184
  360SOL    HW1 1979   5.183   6.983   0.181
  360SOL    HW2 1980   5.023   7.007   0.158
  361SOL     OW 1981   3.249   0.325   2.613
  361SOL    HW1 1982   3.271   0.407   2.560
  361SOL    HW2 1983   3.177   0.347   2.679
  362SOL     OW 1984   2.905   4.207   0.948
  362SOL    HW1 1985   2.818   4.199   0.900
  362SOL    HW2 1986   2.952   4.290   0.919
  363SOL     OW 1987   4.689   4.658   3.485
  363SOL    HW1 1988   4.624   4.722   3.443
  363SOL    HW2 1989   4.639   4.593   3.543
  364SOL     OW 1990   2.632   5.726   6.154
  364SOL    HW1 1991   2.609   5.776   6.238
  364SOL    HW2 1992   2.729   5.699   6.157
  365SOL     OW 1993   4.570   6.991   3.196
  365SOL    HW1 1994   4.621   0.011   3.121
  365SOL    HW2 1995   4.580   0.023   3.279
  366SOL     OW 1996   5.285   1.145   0.522
  366SOL    HW1 1997   5.374   1.101   0.532
  366SOL    HW2 1998   5.281   1.226   0.580
  367SOL     OW 1999   5.302   2.050   2.352
  367SOL    HW1 2000   5.310   1.950   2.347
  367SOL    HW2 2001   5.233   2.081   2.287
  368SOL     OW 2002   0.667   5.263   5.493
  368SOL    HW1 2003   0.696   5.305   5.407
  368SOL    HW2 2004   0.701   5.317   5.570
  369SOL     OW 2005   0.870   3.413   1.779
  369SOL    HW1 2006   0.904   3.345   1.845
  369SOL    HW2 2007   0.798   3.372   1.723
  370SOL     OW 2008   3.987   1.750   6.290
  370SOL    HW1 2009   3.903   1.701   6.270
  370SOL    HW2 2010   3.977   1.800   6.376
  371SOL     OW 2011   3.789   2.573   6.616
  371SOL    HW1 2012   3.840   2.568   6.530
  371SOL    HW2 2013   3.853   2.583   6.692
  372SOL     OW 2014   2.299   5.419   0.239
  372SOL    HW1 2015   2.288   5.395   0.336
  372SOL    HW2 2016   2.393   5.449   0.223
  373SOL     OW 2017   6.112   0.022   6.230
  373SOL    HW1 2018   6.046   6.977   6.197
  373SOL    HW2 2019   6.114   0.021   6.330
  374SOL     OW 2020   4.872   0.726   1.074
  374SOL    HW1 2021   4.872   0.629   1.096
  374SOL    HW2 2022   4.940   0.745   1.003
  375SOL     OW 2023   6.727   4.455   1.137
  375SOL    HW1 2024   6.706   4.499   1.050
  375SOL    HW2 2025   6.660   4.383   1.156
  376SOL     OW 2026   2.130   3.807   4.819
  376SOL    HW1 2027   2.036   3.840   4.806
  376SOL    HW2 2028   2.184   3.878   4.865
  377SOL     OW 2029   5.229   1.159   4.285
  377SOL    HW1 2030   5.200   1.116   4.371
  377SOL    HW2 2031   5.149   1.183   4.231
  378SOL     OW 2032   5.696   2.467   5.381
  378SOL    HW1 2033   5.603   2.504   5.375
  378SOL    HW2 2034   5.762   2.542   5.385
  379SOL     OW 2035   6.460   2.980   1.407
  379SOL    HW1 2036   6.534   2.913   1.419
  379SOL    HW2 2037   6.415   2.963   1.319
  380SOL     OW 2038   1.059   2.181   0.437
  380SOL    HW1 2039   1.151   2.144   0.446
  380SOL    HW2 2040   1.043   2.250   0.508
  381SOL     OW 2041   4.780   5.256   6.938
  381SOL    HW1 2042   4.739   5.332   6.888
  381SOL    HW2 2043   4.879   5.259   6.928
  382SOL     OW 2044   2.245   5.264   6.799
  382SOL    HW1 2045   2.280   5.256   6.893
  382SOL    HW2 2046   2.228   5.360   6.778
  383SOL     OW 2047   6.290   1.488   0.069
  383SOL    HW1 2048   6.318   1.502   6.997
  383SOL    HW2 2049   6.198   1.448   0.071
  384SOL     OW 2050   0.852   5.367   4.933
  384SOL    HW1 2051   0.882   5.348   4.840
  384SOL    HW2 2052   0.757   5.335   4.944
  385SOL     OW 2053   4.470   5.299   1.459
  385SOL    HW1 2054   4.488   5.397   1.461
  385SOL    HW2 2055   4.430   5.274   1.371
  386SOL     OW 2056   2.297   5.950   4.350
  386SOL    HW1 2057   2.317   5.999   4.435
  386SOL    HW2 2058   2.223   5.997   4.301
  387SOL     OW 2059   6.945   0.634   5.863
  387SOL    HW1 2060   6.975   0.575   5.937
  387SOL    HW2 2061   6.949   0.584   5.776
  388SOL     OW 2062   0.471   1.523   4.453
  388SOL    HW1 2063   0.426   1.493   4.368
  388SOL    HW2 2064   0.526   1.604   4.434
  389SOL     OW 2065   4.872   3.932   2.339
  389SOL    HW1 2066   4.815   3.972   2.267
  389SOL    HW2 2067   4.968   3.944   2.315
  390SOL     OW 2068   3.340   2.685   0.679
  390SOL    HW1 2069   3.402   2.684   0.600
  390SOL    HW2 2070   3.275   2.761   0.669
  391SOL     OW 2071   3.993   3.737   4.053
  391SOL    HW1 2072   4.068   3.743   4.119
  391SOL    HW2 2073   3.917   3.795   4.082
  392SOL     OW 2074   1.946   3.916   1.082
  392SOL    HW1 2075   1.992   3.843   1.134
  392SOL    HW2 2076   1.942   3.999   1.138
  393SOL     OW 2077   1.073   5.943   1.394
  393SOL    HW1 2078   1.160   5.964   1.350
  393SOL    HW2 2079   1.077   5.852   1.434
  394SOL     OW 2080   6.090   1.308   6.274
  394SOL    HW1 2081   6.132   1.242   6.213
  394SOL    HW2 2082   6.006   1.343   6.232
  395SOL     OW 2083   6.096   4.738   6.576
  395SOL    HW1 2084   6.100   4.748   6.476
  395SOL    HW2 2085   6.112   4.827   6.619
  396SOL     OW 2086   0.600   0.826   1.359
  396SOL    HW1 2087   0.648   0.906   1.394
  396SOL    HW2 2088   0.585   0.836   1.261
  397SOL     OW 2089   4.874   2.110   4.643
  397SOL    HW1 2090   4.877   2.040   4.572
  397SOL    HW2 2091   4.902   2.198   4.604
  398SOL     OW 2092   6.998   1.656   3.007
  398SOL    HW1 2093   6.987   1.754   3.022
  398SOL    HW2 2094   0.056   1.623   3.056
  399SOL     OW 2095   5.922   5.444   3.722
  399SOL    HW1 2096   5.872   5.409   3.800
  399SOL    HW2 2097   5.858   5.474   3.651
  400SOL     OW 2098   0.096   6.445   2.927
  400SOL    HW1 2099   0.036   6.524   2.939
  400SOL    HW2 2100   0.140   6.449   2.837
  401SOL     OW 2101   0.917   5.949   5.102
  401SOL    HW1 2102   0.919   5.926   5.005
  401SOL    HW2 2103   0.911   5.864   5.155
  402SOL     OW 2104   5.959   0.831   3.931
  402SOL    HW1 2105   6.006   0.893   3.868
  402SOL    HW2 2106   5.875   0.798   3.889
  403SOL     OW 2107   2.326   1.819   5.082
  403SOL    HW1 2108   2.311   1.830   4.984
  403SOL    HW2 2109   2.240   1.795   5.127
  404SOL     OW 2110   2.957   5.425   3.475
  404SOL    HW1 2111   2.945   5.398   3.380
  404SOL    HW2 2112   2.877   5.399   3.528
  405SOL     OW 2113   2.755   4.712   3.739
  405SOL    HW1 2114   2.736   4.794   3.684
  405SOL    HW2 2115   2.830   4.730   3.802
  406SOL     OW 2116   0.770   6.842   6.431
  406SOL    HW1 2117   0.857   6.883   6.403
  406SOL    HW2 2118   0.700   6.862   6.363
  407SOL     OW 2119   2.126   3.693   4.281
  407SOL    HW1 2120   2.038   3.664   4.242
  407SOL    HW2 2121   2.123   3.683   4.380
  408SOL     OW 2122   2.627   2.395   2.095
  408SOL    HW1 2123   2.725   2.391   2.074
  408SOL    HW2 2124   2.578   2.440   2.021
  409SOL     OW 2125   0.359   2.502   2.111
  409SOL    HW1 2126   0.352   2.591   2.156
  409SOL    HW2 2127   0.273   2.452   2.124
  410SOL     OW 2128   1.834   3.344   1.453
  410SOL    HW1 2129   1.736   3.331   1.437
  410SOL    HW2 2130   1.853   3.337   1.551
  411SOL     OW 2131   6.780   1.595   1.198
  411SOL    HW1 2132   6.700   1.582   1.139
  411SOL    HW2 2133   6.794   1.693   1.213
  412SOL     OW 2134   1.757   4.629   2.928
  412SOL    HW1 2135   1.781   4.568   2.852
  412SOL    HW2 2136   1.703   4.706   2.893
  413SOL     OW 2137   6.472   5.433   2.442
  413SOL    HW1 2138   6.507   5.420   2.349
  413SOL    HW2 2139   6.373   5.447   2.438
  414SOL     OW 2140   2.119   0.353   2.900
  414SOL    HW1 2141   2.100   0.320   2.808
  414SOL    HW2 2142   2.209   0.320   2.930
  415SOL     OW 2143   5.603   3.048   0.126
  415SOL    HW1 2144   5.634   3.141   0.108
  415SOL    HW2 2145   5.682   2.987   0.135
  416SOL     OW 2146   5.933   3.369   6.942
  416SOL    HW1 2147   5.938   3.469   6.937
  416SOL    HW2 2148   5.964   3.330   6.856
  417SOL     OW 2149   2.371   2.656   5.579
  417SOL    HW1 2150   2.448   2.704   5.537
  417SOL    HW2 2151   2.288   2.711   5.567
  418SOL     OW 2152   3.804   5.861   6.622
  418SOL    HW1 2153   3.853   5.838   6.706
  418SOL    HW2 2154   3.858   5.926   6.568
  419SOL     OW 2155   5.584   0.539   0.423
  419SOL    HW1 2156   5.594   0.492   0.511
  419SOL    HW2 2157   5.617   0.480   0.349
  420SOL     OW 2158   3.451   6.672   1.068
  420SOL    HW1 2159   3.487   6.607   1.135
  420SOL    HW2 2160   3.482   6.764   1.090
  421SOL     OW 2161   5.395   4.692   3.230
  421SOL    HW1 2162   5.491   4.704   3.254
  421SOL    HW2 2163   5.374   4.594   3.223
  422SOL     OW 2164   3.891   1.701   2.141
  422SOL    HW1 2165   3.955   1.774   2.160
  422SOL    HW2 2166   3.889   1.637   2.218
  423SOL     OW 2167   3.000   1.242   5.695
  423SOL    HW1 2168   2.978   1.338   5.715
  423SOL    HW2 2169   2.922   1.184   5.719
  424SOL     OW 2170   1.590   4.059   4.754
  424SOL    HW1 2171   1.633   4.058   4.664
  424SOL    HW2 2172   1.492   4.047   4.744
  425SOL     OW 2173   3.219   1.579   0.431
  425SOL    HW1 2174   3.161   1.522   0.373
  425SOL    HW2 2175   3.164   1.649   0.475
  426SOL     OW 2176   2.308   2.495   3.726
  426SOL    HW1 2177   2.392   2.522   3.773
  426SOL    HW2 2178   2.309   2.530   3.633
  427SOL     OW 2179   4.437   1.683   4.230
  427SOL    HW1 2180   4.338   1.680   4.243
  427SOL    HW2 2181   4.458   1.729   4.144
  428SOL     OW 2182   2.493   2.206   5.939
  428SOL    HW1 2183   2.551   2.132   5.906
  428SOL    HW2 2184   2.423   2.226   5.870
  429SOL     OW 2185   6.958   6.623   3.010
  429SOL    HW1 2186   6.912   6.543   3.048
  429SOL    HW2 2187   6.949   6.699   3.074
  430SOL     OW 2188   2.264   1.265   3.567
  430SOL    HW1 2189   2.273   1.206   3.647
  430SOL    HW2 2190   2.167   1.281   3.548
  431SOL     OW 2191   2.325   1.390   1.587
  431SOL    HW1 2192   2.413   1.349   1.564
  431SOL    HW2 2193   2.296   1.450   1.512
  432SOL     OW 2194   4.960   1.649   1.530
  432SOL    HW1 2195   4.921   1.624   1.442
  432SOL    HW2 2196   5.055   1.680   1.518
  433SOL     OW 2197   2.261   4.722   0.154
  433SOL    HW1 2198   2.287   4.650   0.090
  433SOL    HW2 2199   2.261   4.686   0.247
  434SOL     OW 2200   3.660   5.898   2.544
  434SOL    HW1 2201   3.590   5.855   2.486
  434SOL    HW2 2202   3.705   5.828   2.600
  435SOL     OW 2203   2.689   2.472   6.502
  435SOL    HW1 2204   2.770   2.463   6.445
  435SOL    HW2 2205   2.700   2.548   6.566
  436SOL     OW 2206   5.009   6.797   2.656
  436SOL    HW1 2207   5.060   6.772   2.574
  436SOL    HW2 2208   5.022   6.727   2.726
  437SOL     OW 2209   6.769   0.989   5.755
  437SOL    HW1 2210   6.829   1.012   5.832
  437SOL    HW2 2211   6.722   0.903   5.774
  438SOL     OW 2212   0.664   3.677   2.133
  438SOL    HW1 2213   0.762   3.685   2.151
  438SOL    HW2 2214   0.641   3.583   2.107
  439SOL     OW 2215   0.745   0.850   5.912
  439SOL    HW1 2216   0.692   0.911   5.852
  439SOL    HW2 2217   0.808   0.905   5.967
  440SOL     OW 2218   3.448   1.545   1.091
  440SOL    HW1 2219   3.544   1.538   1.120
  440SOL    HW2 2220   3.441   1.610   1.016
  441SOL     OW 2221   1.022   4.477   2.563
  441SOL    HW1 2222   0.932   4.464   2.522
  441SOL    HW2 2223   1.026   4.432   2.652
  442SOL     OW 2224   2.920   3.284   4.916
  442SOL    HW1 2225   2.890   3.306   4.824
  442SOL    HW2 2226   2.922   3.367   4.972
  443SOL     OW 2227   4.880   2.458   2.843
  443SOL    HW1 2228   4.829   2.382   2.882
  443SOL    HW2 2229   4.970   2.463   2.885
  444SOL     OW 2230   4.050   2.400   1.174
  444SOL    HW1 2231   4.045   2.468   1.101
  444SOL    HW2 2232   3.969   2.342   1.171
  445SOL     OW 2233   2.495   5.134   3.634
  445SOL    HW1 2234   2.559   5.114   3.560
  445SOL    HW2 2235   2.402   5.110   3.606
  446SOL     OW 2236   6.683   6.878   0.667
  446SOL    HW1 2237   6.779   6.855   0.685
  446SOL    HW2 2238   6.679   6.966   0.619
  447SOL     OW 2239   6.283   3.512   6.784
  447SOL    HW1 2240   6.244   3.568   6.857
  447SOL    HW2 2241   6.258   3.416   6.798
  448SOL     OW 2242   3.415   6.532   4.059
  448SOL    HW1 2243   3.463   6.619   4.047
  448SOL    HW2 2244   3.401   6.515   4.157
  449SOL     OW 2245   0.503   3.638   4.807
  449SOL    HW1 2246   0.519   3.621   4.709
  449SOL    HW2 2247   0.426   3.701   4.818
  450SOL     OW 2248   6.352   3.709   3.115
  450SOL    HW1 2249   6.447   3.728   3.093
  450SOL    HW2 2250   6.343   3.696   3.214
  451SOL     OW 2251   2.671   1.859   6.931
  451SOL    HW1 2252   2.575   1.881   6.950
  451SOL    HW2 2253   2.681   1.832   6.835
  452SOL     OW 2254   4.226   5.477   1.644
  452SOL    HW1 2255   4.233   5.489   1.743
  452SOL    HW2 2256   4.274   5.393   1.617
  453SOL     OW 2257   4.013   0.727   6.890
  453SOL    HW1 2258   3.928   0.678   6.908
  453SOL    HW2 2259   3.995   0.802   6.826
  454SOL     OW 2260   6.988   2.892   3.626
  454SOL    HW1 2261   6.990   2.843   3.713
  454SOL    HW2 2262   7.007   2.829   3.551
  455SOL     OW 2263   6.034   5.194   6.948
  455SOL    HW1 2264   5.953   5.184   6.890
  455SOL    HW2 2265   6.085   5.275   6.920
  456SOL     OW 2266   1.729   1.105   3.297
  456SOL    HW1 2267   1.683   1.164   3.363
  456SOL    HW2 2268   1.781   1.161   3.232
  457SOL     OW 2269   3.026   5.774   0.254
  457SOL    HW1 2270   3.119   5.799   0.280
  457SOL    HW2 2271   3.029   5.715   0.173
  458SOL     OW 2272   2.976   1.021   4.115
  458SOL    HW1 2273   2.964   1.023   4.214
  458SOL    HW2 2274   3.049   1.084   4.089
  459SOL     OW 2275   2.565   1.155   3.493
  459SOL    HW1 2276   2.600   1.131   3.584
  459SOL    HW2 2277   2.514   1.241   3.499
  460SOL     OW 2278   1.057   1.757   0.204
  460SOL    HW1 2279   1.044   1.828   0.274
  460SOL    HW2 2280   1.005   1.781   0.122
  461SOL     OW 2281   1.379   0.023   5.184
  461SOL    HW1 2282   1.293   6.996   5.174
  461SOL    HW2 2283   1.376   0.079   5.267
  462SOL     OW 2284   3.503   4.138   5.098
  462SOL    HW1 2285   3.566   4.066   5.067
  462SOL    HW2 2286   3.553   4.225   5.102
  463SOL     OW 2287   5.187   6.332   3.093
  463SOL    HW1 2288   5.271   6.365   3.135
  463SOL    HW2 2289   5.111   6.342   3.157
  464SOL     OW 2290   4.365   6.245   4.693
  464SOL    HW1 2291   4.415   6.331   4.689
  464SOL    HW2 2292   4.282   6.258   4.748
  465SOL     OW 2293   0.785   5.207   0.692
  465SOL    HW1 2294   0.703   5.175   0.646
  465SOL    HW2 2295   0.764   5.228   0.788
  466SOL     OW 2296   3.774   5.144   4.361
  466SOL    HW1 2297   3.723   5.193   4.431
  466SOL    HW2 2298   3.869   5.175   4.360
  467SOL     OW 2299   6.711   6.954   1.560
  467SOL    HW1 2300   6.624   6.911   1.534
  467SOL    HW2 2301   6.782   6.884   1.566
  468SOL     OW 2302   2.786   5.920   6.453
  468SOL    HW1 2303   2.837   5.958   6.375
  468SOL    HW2 2304   2.811   5.970   6.536
  469SOL     OW 2305   3.660   4.691   5.388
  469SOL    HW1 2306   3.591   4.673   5.458
  469SOL    HW2 2307   3.620   4.747   5.315
  470SOL     OW 2308   2.167   5.167   2.371
  470SOL    HW1 2309   2.160   5.201   2.464
  470SOL    HW2 2310   2.077   5.141   2.337
  471SOL     OW 2311   1.259   2.001   4.467
  471SOL    HW1 2312   1.248   1.960   4.558
  471SOL    HW2 2313   1.181   1.975   4.410
  472SOL     OW 2314   5.067   3.987   6.152
  472SOL    HW1 2315   5.055   4.061   6.086
  472SOL    HW2 2316   5.162   3.955   6.149
  473SOL     OW 2317   5.601   3.201   1.814
  473SOL    HW1 2318   5.517   3.181   1.763
  473SOL    HW2 2319   5.577   3.240   1.903
  474SOL     OW 2320   5.361   5.213   3.628
  474SOL    HW1 2321   5.408   5.168   3.552
  474SOL    HW2 2322   5.267   5.232   3.602
  475SOL     OW 2323   4.520   1.491   0.351
  475SOL    HW1 2324   4.587   1.419   0.338
  475SOL    HW2 2325   4.535   1.563   0.283
  476SOL     OW 2326   1.199   2.947   0.388
  476SOL    HW1 2327   1.254   3.018   0.344
  476SOL    HW2 2328   1.126   2.919   0.326
  477SOL     OW 2329   6.157   5.646   3.031
  477SOL    HW1 2330   6.066   5.605   3.040
  477SOL    HW2 2331   6.165   5.722   3.096
  478SOL     OW 2332   6.584   5.055   2.547
  478SOL    HW1 2333   6.504   5.057   2.487
  478SOL    HW2 2334   6.558   5.015   2.635
  479SOL     OW 2335   3.675   3.718   2.695
  479SOL    HW1 2336   3.723   3.805   2.705
  479SOL    HW2 2337   3.580   3.729   2.723
  480SOL     OW 2338   0.550   0.385   1.806
  480SOL    HW1 2339   0.636   0.408   1.853
  480SOL    HW2 2340   0.568   0.375   1.708
  481SOL     OW 2341   5.962   5.817   0.908
  481SOL    HW1 2342   5.908   5.788   0.829
  481SOL    HW2 2343   5.962   5.745   0.977
  482SOL     OW 2344   3.586   5.062   2.826
  482SOL    HW1 2345   3.617   5.020   2.911
  482SOL    HW2 2346   3.509   5.010   2.789
  483SOL     OW 2347   6.560   1.109   4.699
  483SOL    HW1 2348   6.488   1.103   4.630
  483SOL    HW2 2349   6.520   1.106   4.790
  484SOL     OW 2350   2.371   4.812   3.308
  484SOL    HW1 2351   2.290   4.872   3.303
  484SOL    HW2 2352   2.401   4.806   3.403
  485SOL     OW 2353   4.581   2.600   0.524
  485SOL    HW1 2354   4.648   2.673   0.510
  485SOL    HW2 2355   4.584   2.537   0.446
  486SOL     OW 2356   5.809   6.069   5.281
  486SOL    HW1 2357   5.754   6.012   5.220
  486SOL    HW2 2358   5.819   6.161   5.242
  487SOL     OW 2359   6.888   0.887   0.109
  487SOL    HW1 2360   6.830   0.967   0.126
  487SOL    HW2 2361   6.879   0.823   0.184
  488SOL     OW 2362   1.890   5.940   3.548
  488SOL    HW1 2363   1.895   5.844   3.577
  488SOL    HW2 2364   1.797   5.960   3.516
  489SOL     OW 2365   2.798   4.646   5.409
  489SOL    HW1 2366   2.759   4.721   5.355
  489SOL    HW2 2367   2.854   4.589   5.350
  490SOL     OW 2368   1.411   3.382   5.243
  490SOL    HW1 2369   1.340   3.447   5.270
  490SOL    HW2 2370   1.479   3.428   5.186
  491SOL     OW 2371   6.336   3.892   1.189
  491SOL    HW1 2372   6.291   3.827   1.127
  491SOL    HW2 2373   6.332   3.856   1.283
  492SOL     OW 2374   1.355   2.708   5.562
  492SOL    HW1 2375   1.399   2.666   5.483
  492SOL    HW2 2376   1.422   2.721   5.635
  493SOL     OW 2377   1.356   5.511   3.508
  493SOL    HW1 2378   1.399   5.597   3.534
  493SOL    HW2 2379   1.261   5.511   3.538
  494SOL     OW 2380   2.579   0.270   2.973
  494SOL    HW1 2381   2.504   0.311   2.922
  494SOL    HW2 2382   2.643   0.341   3.003
  495SOL     OW 2383   4.101   4.741   0.185
  495SOL    HW1 2384   4.041   4.708   0.111
  495SOL    HW2 2385   4.049   4.798   0.248
  496SOL     OW 2386   4.873   0.649   3.158
  496SOL    HW1 2387   4.793   0.685   3.206
  496SOL    HW2 2388   4.891   0.706   3.077
  497SOL     OW 2389   4.783   2.784   1.226
  497SOL    HW1 2390   4.686   2.805   1.216
  497SOL    HW2 2391   4.800   2.749   1.318
  498SOL     OW 2392   0.944   0.280   0.985
  498SOL    HW1 2393   0.872   0.339   0.948
  498SOL    HW2 2394   1.011   0.336   1.034
  499SOL     OW 2395   2.871   6.637   6.882
  499SOL    HW1 2396   2.918   6.674   6.802
  499SOL    HW2 2397   2.810   6.563   6.854
  500SOL     OW 2398   6.221   2.222   6.561
  500SOL    HW1 2399   6.159   2.145   6.546
  500SOL    HW2 2400   6.172   2.296   6.606
  501SOL     OW 2401   1.460   2.335   4.862
  501SOL    HW1 2402   1.383   2.382   4.903
  501SOL    HW2 2403   1.452   2.236   4.878
  502SOL     OW 2404   2.257   3.044   6.846
  502SOL    HW1 2405   2.259   2.946   6.826
  502SOL    HW2 2406   2.346   3.084   6.826
  503SOL     OW 2407   4.114   5.184   0.822
  503SOL    HW1 2408   4.077   5.098   0.786
  503SOL    HW2 2409   4.039   5.237   0.862
  504SOL     OW 2410   6.502   0.402   0.195
  504SOL    HW1 2411   6.428   0.357   0.246
  504SOL    HW2 2412   6.573   0.335   0.174
  505SOL     OW 2413   6.440   3.697   5.363
  505SOL    HW1 2414   6.485   3.749   5.435
  505SOL    HW2 2415   6.341   3.711   5.368
  506SOL     OW 2416   2.773   5.649   2.285
  506SOL    HW1 2417   2.799   5.609   2.197
  506SOL    HW2 2418   2.702   5.594   2.328
  507SOL     OW 2419   2.782   6.546   3.356
  507SOL    HW1 2420   2.872   6.563   3.396
  507SOL    HW2 2421   2.723   6.626   3.372
  508SOL     OW 2422   0.365   5.060   3.262
  508SOL    HW1 2423   0.322   5.047   3.173
  508SOL    HW2 2424   0.399   5.154   3.269
  509SOL     OW 2425   4.737   0.178   5.970
  509SOL    HW1 2426   4.830   0.148   5.953
  509SOL    HW2 2427   4.712   0.159   6.065
  510SOL     OW 2428   0.142   4.588   0.558
  510SOL    HW1 2429   0.190   4.655   0.502
  510SOL    HW2 2430   0.156   4.497   0.520
  511SOL     OW 2431   0.524   1.681   0.649
  511SOL    HW1 2432   0.573   1.595   0.663
  511SOL    HW2 2433   0.519   1.701   0.551
  512SOL     OW 2434   1.330   2.243   4.580
  512SOL    HW1 2435   1.253   2.301   4.551
  512SOL    HW2 2436   1.324   2.154   4.536
  513SOL     OW 2437   5.980   5.732   2.792
  513SOL    HW1 2438   6.047   5.658   2.782
  513SOL    HW2 2439   5.895   5.706   2.746
  514SOL     OW 2440   5.029   1.256   4.713
  514SOL    HW1 2441   5.128   1.254   4.714
  514SOL    HW2 2442   4.995   1.210   4.631
  515SOL     OW 2443   3.237   0.596   6.896
  515SOL    HW1 2444   3.165   0.556   6.952
  515SOL    HW2 2445   3.273   0.527   6.832
  516SOL     OW 2446   0.724   5.549   2.374
  516SOL    HW1 2447   0.734   5.453   2.399
  516SOL    HW2 2448   0.814   5.593   2.373
  517SOL     OW 2449   3.534   4.858   0.953
  517SOL    HW1 2450   3.569   4.831   1.043
  517SOL    HW2 2451   3.591   4.817   0.881
  518SOL     OW 2452   2.208   6.869   3.948
  518SOL    HW1 2453   2.284   6.860   3.884
  518SOL    HW2 2454   2.220   6.953   4.001
  519SOL     OW 2455   6.660   0.025   2.610
  519SOL    HW1 2456   6.705   7.022   2.525
  519SOL    HW2 2457   6.727   0.064   2.673
  520SOL     OW 2458   3.483   5.126   0.924
  520SOL    HW1 2459   3.389   5.142   0.894
  520SOL    HW2 2460   3.495   5.029   0.944
  521SOL     OW 2461   6.999   6.596   5.252
  521SOL    HW1 2462   0.015   6.611   5.161
  521SOL    HW2 2463   6.947   6.510   5.252
  522SOL     OW 2464   4.079   4.816   6.507
  522SOL    HW1 2465   4.000   4.776   6.554
  522SOL    HW2 2466   4.121   4.886   6.566
  523SOL     OW 2467   2.013   6.784   5.442
  523SOL    HW1 2468   2.018   6.881   5.462
  523SOL    HW2 2469   2.104   6.749   5.419
  524SOL     OW 2470   6.607   1.469   0.996
  524SOL    HW1 2471   6.649   1.400   0.937
  524SOL    HW2 2472   6.518   1.437   1.028
  525SOL     OW 2473   1.106   3.538   3.676
  525SOL    HW1 2474   1.092   3.467   3.607
  525SOL    HW2 2475   1.062   3.510   3.762
  526SOL     OW 2476   4.179   6.296   4.470
  526SOL    HW1 2477   4.153   6.365   4.537
  526SOL    HW2 2478   4.279   6.287   4.469
  527SOL     OW 2479   0.003   0.972   0.723
  527SOL    HW1 2480   7.016   0.952   0.625
  527SOL    HW2 2481   6.938   1.002   0.759
  528SOL     OW 2482   0.067   1.725   4.087
  528SOL    HW1 2483   0.059   1.817   4.048
  528SOL    HW2 2484   0.160   1.711   4.121
  529SOL     OW 2485   1.079   1.606   6.126
  529SOL    HW1 2486   1.174   1.618   6.096
  529SOL    HW2 2487   1.037   1.530   6.076
  530SOL     OW 2488   3.380   4.470   1.653
  530SOL    HW1 2489   3.454   4.498   1.713
  530SOL    HW2 2490   3.336   4.551   1.615
  531SOL     OW 2491   0.253   1.408   6.047
  531SOL    HW1 2492   0.230   1.486   6.106
  531SOL    HW2 2493   0.171   1.375   6.002
  532SOL     OW 2494   3.708   0.927   0.067
  532SOL    HW1 2495   3.655   0.895   7.011
  532SOL    HW2 2496   3.694   0.865   0.144
  533SOL     OW 2497   4.429   0.275   4.931
  533SOL    HW1 2498   4.506   0.213   4.941
  533SOL    HW2 2499   4.352   0.227   4.888
  534SOL     OW 2500   1.944   4.112   1.301
  534SOL    HW1 2501   1.949   4.066   1.390
  534SOL    HW2 2502   1.980   4.205   1.310
  535SOL     OW 2503   4.571   4.513   3.985
  535SOL    HW1 2504   4.507   4.546   4.055
  535SOL    HW2 2505   4.599   4.589   3.927
  536SOL     OW 2506   6.618   6.224   1.049
  536SOL    HW1 2507   6.543   6.280   1.014
  536SOL    HW2 2508   6.633   6.146   0.987
  537SOL     OW 2509   3.173   1.524   2.722
  537SOL    HW1 2510   3.150   1.577   2.641
  537SOL    HW2 2511   3.153   1.427   2.707
  538SOL     OW 2512   4.015   5.111   5.599
  538SOL    HW1 2513   3.952   5.039   5.571
  538SOL    HW2 2514   4.076   5.076   5.670
  539SOL     OW 2515   2.360   0.345   0.062
  539SOL    HW1 2516   2.460   0.342   0.061
  539SOL    HW2 2517   2.324   0.260   0.024
  540SOL     OW 2518   2.685   1.373   5.501
  540SOL    HW1 2519   2.748   1.321   5.442
  540SOL    HW2 2520   2.645   1.448   5.449
  541SOL     OW 2521   5.213   5.844   2.675
  541SOL    HW1 2522   5.116   5.827   2.660
  541SOL    HW2 2523   5.229   5.941   2.687
  542SOL     OW 2524   3.896   5.890   5.794
  542SOL    HW1 2525   3.908   5.825   5.869
  542SOL    HW2 2526   3.941   5.855   5.711
  543SOL     OW 2527   6.412   2.120   4.732
  543SOL    HW1 2528   6.452   2.043   4.681
  543SOL    HW2 2529   6.323   2.143   4.692
  544SOL     OW 2530   0.670   2.867   1.063
  544SOL    HW1 2531   0.728   2.833   0.989
  544SOL    HW2 2532   0.633   2.957   1.039
  545SOL     OW 2533   7.019   5.294   0.483
  545SOL    HW1 2534   6.974   5.240   0.554
  545SOL    HW2 2535   7.005   5.250   0.394
  546SOL     OW 2536   6.875   5.274   2.586
  546SOL    HW1 2537   6.793   5.325   2.612
  546SOL    HW2 2538   6.859   5.225   2.500
  547SOL     OW 2539   4.338   6.505   6.615
  547SOL    HW1 2540   4.352   6.482   6.519
  547SOL    HW2 2541   4.422   6.543   6.653
  548SOL     OW 2542   4.260   2.520   0.360
  548SOL    HW1 2543   4.233   2.604   0.312
  548SOL    HW2 2544   4.295   2.454   0.293
  549SOL     OW 2545   5.661   2.681   3.881
  549SOL    HW1 2546   5.603   2.656   3.958
  549SOL    HW2 2547   5.605   2.710   3.804
  550SOL     OW 2548   0.118   5.673   3.842
  550SOL    HW1 2549   0.129   5.755   3.897
  550SOL    HW2 2550   0.045   5.687   3.775
  551SOL     OW 2551   5.264   0.634   0.452
  551SOL    HW1 2552   5.321   0.708   0.490
  551SOL    HW2 2553   5.239   0.571   0.525
  552SOL     OW 2554   0.472   0.143   4.927
  552SOL    HW1 2555   0.490   0.192   4.842
  552SOL    HW2 2556   0.411   0.197   4.985
  553SOL     OW 2557   3.771   2.356   5.409
  553SOL    HW1 2558   3.862   2.385   5.439
  553SOL    HW2 2559   3.778   2.316   5.317
  554SOL     OW 2560   0.243   5.066   0.428
  554SOL    HW1 2561   0.208   5.056   0.335
  554SOL    HW2 2562   0.248   5.163   0.452
  555SOL     OW 2563   3.311   4.112   5.943
  555SOL    HW1 2564   3.355   4.157   5.865
  555SOL    HW2 2565   3.220   4.151   5.957
  556SOL     OW 2566   5.831   6.354   2.693
  556SOL    HW1 2567   5.809   6.285   2.624
  556SOL    HW2 2568   5.771   6.433   2.683
  557SOL     OW 2569   6.221   3.650   7.001
  557SOL    HW1 2570   6.127   3.683   6.988
  557SOL    HW2 2571   6.285   3.723   6.976
  558SOL     OW 2572   3.226   3.647   2.029
  558SOL    HW1 2573   3.232   3.561   2.080
  558SOL    HW2 2574   3.243   3.724   2.090
  559SOL     OW 2575   6.158   1.204   6.549
  559SOL    HW1 2576   6.245   1.239   6.581
  559SOL    HW2 2577   6.139   1.238   6.457
  560SOL     OW 2578   1.232   2.168   3.598
  560SOL    HW1 2579   1.260   2.173   3.694
  560SOL    HW2 2580   1.286   2.232   3.544
  561SOL     OW 2581   0.193   4.012   6.953
  561SOL    HW1 2582   0.253   3.949   7.003
  561SOL    HW2 2583   0.243   4.050   6.875
  562SOL     OW 2584   3.612   6.200   3.502
  562SOL    HW1 2585   3.690   6.142   3.528
  562SOL    HW2 2586   3.616   6.286   3.553
  563SOL     OW 2587   0.801   0.868   4.418
  563SOL    HW1 2588   0.727   0.897   4.358
  563SOL    HW2 2589   0.780   0.895   4.512
  564SOL     OW 2590   5.860   1.332   5.170
  564SOL    HW1 2591   5.829   1.343   5.075
  564SOL    HW2 2592   5.787   1.290   5.224
  565SOL     OW 2593   3.222   3.606   4.259
  565SOL    HW1 2594   3.288   3.642   4.325
  565SOL    HW2 2595   3.251   3.516   4.228
  566SOL     OW 2596   1.595   2.867   3.485
  566SOL    HW1 2597   1.518   2.926   3.511
  566SOL    HW2 2598   1.680   2.907   3.519
  567SOL     OW 2599   1.615   3.029   5.511
  567SOL    HW1 2600   1.546   2.975   5.464
  567SOL    HW2 2601   1.637   3.110   5.457
  568SOL     OW 2602   1.109   0.299   0.007
  568SOL    HW1 2603   1.192   0.289   6.975
  568SOL    HW2 2604   1.134   0.301   0.104
  569SOL     OW 2605   5.196   3.641   5.263
  569SOL    HW1 2606   5.235   3.733   5.259
  569SOL    HW2 2607   5.096   3.646   5.260
  570SOL     OW 2608   3.260   0.460   6.353
  570SOL    HW1 2609   3.191   0.529   6.372
  570SOL    HW2 2610   3.287   0.465   6.256
  571SOL     OW 2611   2.453   4.435   1.731
  571SOL    HW1 2612   2.541   4.411   1.690
  571SOL    HW2 2613   2.467   4.465   1.825
  572SOL     OW 2614   2.825   1.508   4.735
  572SOL    HW1 2615   2.736   1.515   4.780
  572SOL    HW2 2616   2.893   1.478   4.802
  573SOL     OW 2617   0.581   0.361   5.624
  573SOL    HW1 2618   0.528   0.441   5.597
  573SOL    HW2 2619   0.636   0.330   5.546
  574SOL     OW 2620   2.695   0.735   5.639
  574SOL    HW1 2621   2.644   0.819   5.660
  574SOL    HW2 2622   2.675   0.667   5.710
  575SOL     OW 2623   3.829   3.788   0.390
  575SOL    HW1 2624   3.903   3.736   0.433
  575SOL    HW2 2625   3.772   3.726   0.336
  576SOL     OW 2626   0.194   0.951   2.969
  576SOL    HW1 2627   0.102   0.991   2.965
  576SOL    HW2 2628   0.202   0.895   3.052
  577SOL     OW 2629   0.120   6.953   2.516
  577SOL    HW1 2630   0.203   6.911   2.552
  577SOL    HW2 2631   0.070   6.887   2.461
  578SOL     OW 2632   4.002   0.021   0.643
  578SOL    HW1 2633   4.048   0.098   0.688
  578SOL    HW2 2634   4.042   6.958   0.676
  579SOL     OW 2635   0.958   3.667   2.064
  579SOL    HW1 2636   1.002   3.578   2.058
  579SOL    HW2 2637   0.933   3.699   1.973
  580SOL     OW 2638   4.921   4.674   4.861
  580SOL    HW1 2639   5.014   4.699   4.888
  580SOL    HW2 2640   4.921   4.641   4.767
  581SOL     OW 2641   1.944   2.540   3.940
  581SOL    HW1 2642   1.881   2.570   4.011
  581SOL    HW2 2643   1.930   2.595   3.858
  582SOL     OW 2644   5.448   4.145   4.685
  582SOL    HW1 2645   5.384   4.199   4.629
  582SOL    HW2 2646   5.489   4.073   4.629
  583SOL     OW 2647   3.546   6.281   5.406
  583SOL    HW1 2648   3.603   6.218   5.354
  583SOL    HW2 2649   3.498   6.343   5.344
  584SOL     OW 2650   4.149   0.919   4.688
  584SOL    HW1 2651   4.205   0.975   4.750
  584SOL    HW2 2652   4.156   0.823   4.715
  585SOL     OW 2653   3.842   6.379   1.574
  585SOL    HW1 2654   3.813   6.331   1.657
  585SOL    HW2 2655   3.819   6.476   1.583
  586SOL     OW 2656   3.703   0.328   1.121
  586SOL    HW1 2657   3.686   0.341   1.023
  586SOL    HW2 2658   3.761   0.247   1.133
  587SOL     OW 2659   4.639   1.348   2.713
  587SOL    HW1 2660   4.685   1.336   2.801
  587SOL    HW2 2661   4.696   1.403   2.652
  588SOL     OW 2662   2.197   4.039   2.963
  588SOL    HW1 2663   2.101   4.011   2.954
  588SOL    HW2 2664   2.220   4.104   2.890
  589SOL     OW 2665   3.411   4.815   6.594
  589SOL    HW1 2666   3.463   4.828   6.510
  589SOL    HW2 2667   3.347   4.891   6.607
  590SOL     OW 2668   2.637   1.739   6.234
  590SOL    HW1 2669   2.566   1.677   6.267
  590SOL    HW2 2670   2.611   1.774   6.144
  591SOL     OW 2671   2.767   0.010   4.014
  591SOL    HW1 2672   2.771   0.066   4.096
  591SOL    HW2 2673   2.790   6.938   4.038
  592SOL     OW 2674   4.842   2.395   4.479
  592SOL    HW1 2675   4.781   2.400   4.558
  592SOL    HW2 2676   4.799   2.442   4.401
  593SOL     OW 2677   1.819   0.096   0.289
  593SOL    HW1 2678   1.744   0.156   0.262
  593SOL    HW2 2679   1.793   0.001   0.273
  594SOL     OW 2680   3.801   1.054   4.958
  594SOL    HW1 2681   3.746   0.978   4.924
  594SOL    HW2 2682   3.871   1.078   4.890
  595SOL     OW 2683   6.460   4.047   2.174
  595SOL    HW1 2684   6.466   4.065   2.273
  595SOL    HW2 2685   6.544   4.078   2.130
  596SOL     OW 2686   5.705   5.092   4.609
  596SOL    HW1 2687   5.741   5.014   4.661
  596SOL    HW2 2688   5.780   5.140   4.565
  597SOL     OW 2689   3.745   1.625   6.222
  597SOL    HW1 2690   3.699   1.633   6.134
  597SOL    HW2 2691   3.676   1.619   6.295
  598SOL     OW 2692   2.968   3.360   3.068
  598SOL    HW1 2693   2.971   3.319   2.977
  598SOL    HW2 2694   2.966   3.287   3.137
  599SOL     OW 2695   1.947   4.777   1.252
  599SOL    HW1 2696   1.955   4.728   1.339
  599SOL    HW2 2697   1.977   4.872   1.264
  600SOL     OW 2698   0.211   3.273   5.588
  600SOL    HW1 2699   0.229   3.187   5.635
  600SOL    HW2 2700   0.296   3.308   5.548
  601SOL     OW 2701   0.183   0.361   5.936
  601SOL    HW1 2702   0.216   0.268   5.925
  601SOL    HW2 2703   0.232   0.422   5.874
  602SOL     OW 2704   1.412   0.684   3.669
  602SOL    HW1 2705   1.459   0.733   3.596
  602SOL    HW2 2706   1.376   0.598   3.633
  603SOL     OW 2707   1.382   1.550   4.182
  603SOL    HW1 2708   1.400   1.632   4.128
  603SOL    HW2 2709   1.301   1.503   4.147
  604SOL     OW 2710   5.236   2.586   1.453
  604SOL    HW1 2711   5.223   2.507   1.513
  604SOL    HW2 2712   5.148   2.620   1.423
  605SOL     OW 2713   5.782   6.587   1.526
  605SOL    HW1 2714   5.796   6.574   1.624
  605SOL    HW2 2715   5.800   6.501   1.478
  606SOL     OW 2716   2.962   6.467   5.059
  606SOL    HW1 2717   2.909   6.395   5.104
  606SOL    HW2 2718   2.913   6.554   5.066
  607SOL     OW 2719   1.376   3.451   6.288
  607SOL    HW1 2720   1.361   3.452   6.189
  607SOL    HW2 2721   1.472   3.428   6.306
  608SOL     OW 2722   3.025   1.754   0.441
  608SOL    HW1 2723   3.016   1.698   0.358
  608SOL    HW2 2724   3.057   1.845   0.416
  609SOL     OW 2725   3.705   2.890   2.561
  609SOL    HW1 2726   3.804   2.893   2.568
  609SOL    HW2 2727   3.664   2.945   2.634
  610SOL     OW 2728   4.976   2.972   1.817
  610SOL    HW1 2729   4.906   2.991   1.886
  610SOL    HW2 2730   5.021   2.885   1.838
  611SOL     OW 2731   3.451   1.529   2.165
  611SOL    HW1 2732   3.423   1.624   2.180
  611SOL    HW2 2733   3.458   1.512   2.067
  612SOL     OW 2734   4.563   4.851   4.305
  612SOL    HW1 2735   4.539   4.917   4.235
  612SOL    HW2 2736   4.508   4.866   4.387
  613SOL     OW 2737   4.071   5.158   6.384
  613SOL    HW1 2738   4.072   5.257   6.366
  613SOL    HW2 2739   3.983   5.132   6.424
  614SOL     OW 2740   3.301   6.040   6.190
  614SOL    HW1 2741   3.251   6.068   6.271
  614SOL    HW2 2742   3.238   5.998   6.124
  615SOL     OW 2743   6.738   4.981   4.060
  615SOL    HW1 2744   6.645   4.964   4.028
  615SOL    HW2 2745   6.796   4.903   4.037
  616SOL     OW 2746   6.040   2.640   3.748
  616SOL    HW1 2747   6.002   2.614   3.660
  616SOL    HW2 2748   6.086   2.561   3.789
  617SOL     OW 2749   2.631   0.499   6.053
  617SOL    HW1 2750   2.688   0.418   6.067
  617SOL    HW2 2751   2.584   0.522   6.138
  618SOL     OW 2752   2.447   0.525   3.320
  618SOL    HW1 2753   2.353   0.496   3.338
  618SOL    HW2 2754   2.490   0.552   3.406
  619SOL     OW 2755   1.225   2.308   6.864
  619SOL    HW1 2756   1.216   2.312   6.765
  619SOL    HW2 2757   1.143   2.268   6.904
  620SOL     OW 2758   4.517   3.824   0.535
  620SOL    HW1 2759   4.425   3.817   0.573
  620SOL    HW2 2760   4.553   3.916   0.550
  621SOL     OW 2761   0.382   5.900   1.460
  621SOL    HW1 2762   0.422   5.981   1.416
  621SOL    HW2 2763   0.287   5.920   1.486
  622SOL     OW 2764   0.567   1.517   0.062
  622SOL    HW1 2765   0.627   1.437   0.065
  622SOL    HW2 2766   0.611   1.593   0.110
  623SOL     OW 2767   6.696   5.901   5.178
  623SOL    HW1 2768   6.773   5.905   5.241
  623SOL    HW2 2769   6.711   5.966   5.103
  624SOL     OW 2770   0.679   1.351   1.547
  624SOL    HW1 2771   0.598   1.394   1.506
  624SOL    HW2 2772   0.732   1.419   1.597
  625SOL     OW 2773   1.381   1.007   2.567
  625SOL    HW1 2774   1.341   1.097   2.586
  625SOL    HW2 2775   1.315   0.935   2.589
  626SOL     OW 2776   3.263   5.563   4.765
  626SOL    HW1 2777   3.297   5.622   4.693
  626SOL    HW2 2778   3.182   5.604   4.807
  627SOL     OW 2779   4.360   6.060   6.726
  627SOL    HW1 2780   4.288   6.001   6.760
  627SOL    HW2 2781   4.440   6.005   6.700
  628SOL     OW 2782   5.061   4.016   3.013
  628SOL    HW1 2783   5.075   4.068   3.098
  628SOL    HW2 2784   4.970   3.975   3.015
  629SOL     OW 2785   1.861   6.934   1.120
  629SOL    HW1 2786   1.900   6.959   1.208
  629SOL    HW2 2787   1.920   6.868   1.073
  630SOL     OW 2788   2.575   1.250   2.099
  630SOL    HW1 2789   2.591   1.239   2.001
  630SOL    HW2 2790   2.477   1.242   2.117
  631SOL     OW 2791   2.459   1.237   4.141
  631SOL    HW1 2792   2.401   1.298   4.195
  631SOL    HW2 2793   2.402   1.184   4.079
  632SOL     OW 2794   2.983   0.544   0.791
  632SOL    HW1 2795   3.038   0.463   0.812
  632SOL    HW2 2796   2.946   0.582   0.876
  633SOL     OW 2797   1.946   0.436   4.857
  633SOL    HW1 2798   1.996   0.431   4.943
  633SOL    HW2 2799   1.861   0.383   4.865
  634SOL     OW 2800   2.906   5.521   2.071
  634SOL    HW1 2801   2.879   5.440   2.122
  634SOL    HW2 2802   2.996   5.505   2.029
  635SOL     OW 2803   3.123   6.982   2.448
  635SOL    HW1 2804   3.103   6.887   2.422
  635SOL    HW2 2805   3.124   0.017   2.366
  636SOL     OW 2806   4.840   4.845   6.353
  636SOL    HW1 2807   4.936   4.841   6.327
  636SOL    HW2 2808   4.823   4.781   6.429
  637SOL     OW 2809   5.859   5.247   6.407
  637SOL    HW1 2810   5.803   5.235   6.490
  637SOL    HW2 2811   5.907   5.162   6.387
  638SOL     OW 2812   5.682   1.593   3.332
  638SOL    HW1 2813   5.738   1.662   3.377
  638SOL    HW2 2814   5.619   1.636   3.267
  639SOL     OW 2815   4.241   3.768   1.770
  639SOL    HW1 2816   4.222   3.676   1.736
  639SOL    HW2 2817   4.222   3.772   1.868
  640SOL     OW 2818   2.913   2.657   5.527
  640SOL    HW1 2819   2.916   2.617   5.435
  640SOL    HW2 2820   2.858   2.740   5.525
  641SOL     OW 2821   0.060   6.085   4.462
  641SOL    HW1 2822   0.118   6.013   4.425
  641SOL    HW2 2823   0.094   6.174   4.430
  642SOL     OW 2824   0.607   4.092   6.060
  642SOL    HW1 2825   0.696   4.066   6.098
  642SOL    HW2 2826   0.542   4.104   6.135
  643SOL     OW 2827   5.653   6.241   4.651
  643SOL    HW1 2828   5.569   6.194   4.678
  643SOL    HW2 2829   5.691   6.291   4.729
  644SOL     OW 2830   3.168   6.348   1.415
  644SOL    HW1 2831   3.107   6.427   1.410
  644SOL    HW2 2832   3.133   6.275   1.356
  645SOL     OW 2833   0.952   2.875   3.028
  645SOL    HW1 2834   1.045   2.896   2.997
  645SOL    HW2 2835   0.904   2.822   2.958
  646SOL     OW 2836   1.436   2.950   4.398
  646SOL    HW1 2837   1.485   3.037   4.399
  646SOL    HW2 2838   1.488   2.881   4.448
  647SOL     OW 2839   5.881   3.903   0.159
  647SOL    HW1 2840   5.904   3.998   0.136
  647SOL    HW2 2841   5.786   3.898   0.188
  648SOL     OW 2842   4.299   2.390   4.231
  648SOL    HW1 2843   4.265   2.328   4.302
  648SOL    HW2 2844   4.307   2.340   4.145
  649SOL     OW 2845   4.313   4.499   1.408
  649SOL    HW1 2846   4.262   4.437   1.349
  649SOL    HW2 2847   4.289   4.594   1.386
  650SOL     OW 2848   5.516   5.029   0.627
  650SOL    HW1 2849   5.482   5.038   0.721
  650SOL    HW2 2850   5.567   4.943   0.618
  651SOL     OW 2851   1.787   5.702   6.670
  651SOL    HW1 2852   1.802   5.783   6.727
  651SOL    HW2 2853   1.756   5.626   6.726
  652SOL     OW 2854   5.008   2.363   2.020
  652SOL    HW1 2855   5.099   2.359   1.977
  652SOL    HW2 2856   4.977   2.458   2.021
  653SOL     OW 2857   3.422   5.262   2.373
  653SOL    HW1 2858   3.439   5.163   2.376
  653SOL    HW2 2859   3.360   5.283   2.298
  654SOL     OW 2860   0.187   5.291   6.730
  654SOL    HW1 2861   0.160   5.308   6.635
  654SOL    HW2 2862   0.109   5.256   6.781
  655SOL     OW 2863   1.614   1.540   6.962
  655SOL    HW1 2864   1.683   1.612   6.957
  655SOL    HW2 2865   1.526   1.575   6.931
  656SOL     OW 2866   1.733   6.468   1.295
  656SOL    HW1 2867   1.686   6.543   1.342
  656SOL    HW2 2868   1.759   6.497   1.203
  657SOL     OW 2869   3.874   0.597   0.281
  657SOL    HW1 2870   3.936   0.644   0.219
  657SOL    HW2 2871   3.781   0.630   0.266
  658SOL     OW 2872   3.907   5.766   6.890
  658SOL    HW1 2873   3.819   5.793   6.930
  658SOL    HW2 2874   3.969   5.739   6.964
  659SOL     OW 2875   3.665   0.355   6.246
  659SOL    HW1 2876   3.708   0.440   6.277
  659SOL    HW2 2877   3.591   0.330   6.308
  660SOL     OW 2878   3.429   6.563   3.253
  660SOL    HW1 2879   3.474   6.608   3.330
  660SOL    HW2 2880   3.494   6.554   3.178
  661SOL     OW 2881   6.192   5.072   2.586
  661SOL    HW1 2882   6.158   5.096   2.495
  661SOL    HW2 2883   6.253   5.145   2.618
  662SOL     OW 2884   4.444   1.775   6.716
  662SOL    HW1 2885   4.502   1.845   6.759
  662SOL    HW2 2886   4.348   1.800   6.729
  663SOL     OW 2887   1.067   4.338   4.410
  663SOL    HW1 2888   1.068   4.356   4.312
  663SOL    HW2 2889   1.161   4.338   4.446
  664SOL     OW 2890   5.906   0.195   6.623
  664SOL    HW1 2891   5.884   0.292   6.628
  664SOL    HW2 2892   5.822   0.142   6.614
  665SOL     OW 2893   1.007   4.269   2.100
  665SOL    HW1 2894   1.081   4.259   2.166
  665SOL    HW2 2895   0.975   4.179   2.071
  666SOL     OW 2896   4.447   0.685   2.138
  666SOL    HW1 2897   4.521   0.650   2.195
  666SOL    HW2 2898   4.363   0.693   2.192
  667SOL     OW 2899   0.537   0.338   1.494
  667SOL    HW1 2900   0.509   0.425   1.454
  667SOL    HW2 2901   0.543   0.269   1.422
  668SOL     OW 2902   5.452   3.047   6.759
  668SOL    HW1 2903   5.465   3.147   6.756
  668SOL    HW2 2904   5.540   3.002   6.746
  669SOL     OW 2905   5.080   1.492   3.232
  669SOL    HW1 2906   5.057   1.585   3.262
  669SOL    HW2 2907   5.057   1.482   3.135
  670SOL     OW 2908   4.158   2.254   2.346
  670SOL    HW1 2909   4.150   2.244   2.445
  670SOL    HW2 2910   4.067   2.245   2.304
  671SOL     OW 2911   1.110   5.720   1.532
  671SOL    HW1 2912   1.116   5.621   1.519
  671SOL    HW2 2913   1.150   5.745   1.620
  672SOL     OW 2914   0.613   0.155   1.256
  672SOL    HW1 2915   0.674   0.091   1.302
  672SOL    HW2 2916   0.603   0.130   1.160
  673SOL     OW 2917   6.098   0.023   6.489
  673SOL    HW1 2918   6.031   0.098   6.487
  673SOL    HW2 2919   6.165   0.041   6.561
  674SOL     OW 2920   5.378   0.242   4.142
  674SOL    HW1 2921   5.469   0.235   4.182
  674SOL    HW2 2922   5.328   0.157   4.158
  675SOL     OW 2923   1.168   4.885   1.901
  675SOL    HW1 2924   1.173   4.802   1.957
  675SOL    HW2 2925   1.123   4.865   1.815
  676SOL     OW 2926   2.606   5.998   6.829
  676SOL    HW1 2927   2.571   5.914   6.869
  676SOL    HW2 2928   2.645   6.056   6.901
  677SOL     OW 2929   5.681   1.065   1.614
  677SOL    HW1 2930   5.632   1.146   1.582
  677SOL    HW2 2931   5.629   0.983   1.588
  678SOL     OW 2932   0.807   5.330   4.052
  678SOL    HW1 2933   0.730   5.347   4.114
  678SOL    HW2 2934   0.860   5.415   4.041
  679SOL     OW 2935   4.935   1.620   5.515
  679SOL    HW1 2936   4.859   1.644   5.455
  679SOL    HW2 2937   4.991   1.700   5.533
  680SOL     OW 2938   5.898   6.355   3.989
  680SOL    HW1 2939   5.988   6.327   4.024
  680SOL    HW2 2940   5.868   6.438   4.037
  681SOL     OW 2941   4.111   4.772   2.678
  681SOL    HW1 2942   4.026   4.823   2.666
  681SOL    HW2 2943   4.180   4.830   2.722
  682SOL     OW 2944   6.746   1.084   3.015
  682SOL    HW1 2945   6.750   0.987   3.039
  682SOL    HW2 2946   6.664   1.125   3.056
  683SOL     OW 2947   3.202   4.552   0.316
  683SOL    HW1 2948   3.232   4.512   0.229
  683SOL    HW2 2949   3.282   4.582   0.369
  684SOL     OW 2950   6.383   1.420   6.557
  684SOL    HW1 2951   6.478   1.409   6.525
  684SOL    HW2 2952   6.368   1.515   6.584
  685SOL     OW 2953   3.292   6.660   3.607
  685SOL    HW1 2954   3.371   6.600   3.609
  685SOL    HW2 2955   3.248   6.660   3.697
  686SOL     OW 2956   3.686   0.191   5.280
  686SOL    HW1 2957   3.767   0.218   5.332
  686SOL    HW2 2958   3.613   0.258   5.296
  687SOL     OW 2959   0.180   0.481   4.764
  687SOL    HW1 2960   0.202   0.383   4.761
  687SOL    HW2 2961   0.109   0.501   4.698
  688SOL     OW 2962   5.083   3.080   0.083
  688SOL    HW1 2963   5.175   3.112   0.102
  688SOL    HW2 2964   5.043   3.042   0.167
  689SOL     OW 2965   2.573   5.460   0.187
  689SOL    HW1 2966   2.616   5.548   0.166
  689SOL    HW2 2967   2.632   5.409   0.250
  690SOL     OW 2968   5.769   3.554   4.195
  690SOL    HW1 2969   5.748   3.476   4.135
  690SOL    HW2 2970   5.755   3.528   4.290
  691SOL     OW 2971   5.856   0.971   2.599
  691SOL    HW1 2972   5.813   1.058   2.576
  691SOL    HW2 2973   5.879   0.922   2.515
  692SOL     OW 2974   1.188   0.288   3.242
  692SOL    HW1 2975   1.192   0.254   3.149
  692SOL    HW2 2976   1.264   0.251   3.295
  693SOL     OW 2977   6.049   4.200   2.234
  693SOL    HW1 2978   6.113   4.248   2.294
  693SOL    HW2 2979   5.985   4.146   2.289
  694SOL     OW 2980   4.024   4.834   4.233
  694SOL    HW1 2981   3.937   4.804   4.193
  694SOL    HW2 2982   4.060   4.911   4.180
  695SOL     OW 2983   4.590   6.895   3.647
  695SOL    HW1 2984   4.525   6.928   3.715
  695SOL    HW2 2985   4.563   6.804   3.616
  696SOL     OW 2986   5.766   4.014   1.917
  696SOL    HW1 2987   5.738   3.947   1.985
  696SOL    HW2 2988   5.832   4.078   1.958
  697SOL     OW 2989   0.605   6.292   2.705
  697SOL    HW1 2990   0.705   6.294   2.709
  697SOL    HW2 2991   0.569   6.383   2.727
  698SOL     OW 2992   5.696   6.473   6.041
  698SOL    HW1 2993   5.714   6.531   5.962
  698SOL    HW2 2994   5.766   6.488   6.110
  699SOL     OW 2995   3.908   3.669   0.742
  699SOL    HW1 2996   3.839   3.730   0.781
  699SOL    HW2 2997   3.976   3.646   0.811
  700SOL     OW 2998   3.552   6.811   5.590
  700SOL    HW1 2999   3.585   6.861   5.510
  700SOL    HW2 3000   3.566   6.867   5.672
  701SOL     OW 3001   4.650   4.659   2.130
  701SOL    HW1 3002   4.660   4.759   2.135
  701SOL    HW2 3003   4.716   4.616   2.191
  702SOL     OW 3004   3.995   0.311   4.593
  702SOL    HW1 3005   3.941   0.395   4.584
  702SOL    HW2 3006   4.063   0.307   4.520
  703SOL     OW 3007   3.578   3.326   0.385
  703SOL    HW1 3008   3.625   3.393   0.443
  703SOL    HW2 3009   3.545   3.250   0.441
  704SOL     OW 3010   3.841   1.510   6.848
  704SOL    HW1 3011   3.920   1.569   6.866
  704SOL    HW2 3012   3.872   1.427   6.802
  705SOL     OW 3013   6.949   6.282   5.572
  705SOL    HW1 3014   0.008   6.247   5.527
  705SOL    HW2 3015   6.974   6.325   5.659
  706SOL     OW 3016   3.993   0.342   4.885
  706SOL    HW1 3017   4.013   0.342   4.787
  706SOL    HW2 3018   4.032   0.260   4.927
  707SOL     OW 3019   3.205   4.922   4.219
  707SOL    HW1 3020   3.177   5.007   4.174
  707SOL    HW2 3021   3.124   4.866   4.238
  708SOL     OW 3022   3.169   5.901   3.649
  708SOL    HW1 3023   3.173   5.821   3.710
  708SOL    HW2 3024   3.086   5.895   3.593
  709SOL     OW 3025   2.137   0.350   2.100
  709SOL    HW1 3026   2.159   0.274   2.039
  709SOL    HW2 3027   2.178   0.335   2.189
  710SOL     OW 3028   4.929   3.262   2.914
  710SOL    HW1 3029   4.863   3.332   2.884
  710SOL    HW2 3030   4.948   3.200   2.837
  711SOL     OW 3031   6.875   1.782   0.901
  711SOL    HW1 3032   6.907   1.814   0.812
  711SOL    HW2 3033   6.941   1.717   0.939
  712SOL     OW 3034   5.611   4.008   0.282
  712SOL    HW1 3035   5.531   4.009   0.223
  712SOL    HW2 3036   5.636   4.101   0.307
  713SOL     OW 3037   4.096   3.111   6.370
  713SOL    HW1 3038   4.124   3.193   6.420
  713SOL    HW2 3039   4.021   3.066   6.419
  714SOL     OW 3040   4.329   6.619   3.087
  714SOL    HW1 3041   4.350   6.554   3.014
  714SOL    HW2 3042   4.326   6.712   3.051
  715SOL     OW 3043   6.103   4.403   5.511
  715SOL    HW1 3044   6.076   4.497   5.529
  715SOL    HW2 3045   6.197   4.388   5.541
  716SOL     OW 3046   3.311   1.874   3.535
  716SOL    HW1 3047   3.231   1.848   3.590
  716SOL    HW2 3048   3.372   1.796   3.527
  717SOL     OW 3049   4.662   5.205   3.902
  717SOL    HW1 3050   4.744   5.166   3.943
  717SOL    HW2 3051   4.584   5.145   3.918
  718SOL     OW 3052   6.172   1.922   5.183
  718SOL    HW1 3053   6.115   1.958   5.256
  718SOL    HW2 3054   6.168   1.984   5.104
  719SOL     OW 3055   4.969   5.736   2.660
  719SOL    HW1 3056   4.948   5.771   2.751
  719SOL    HW2 3057   4.884   5.725   2.608
  720SOL     OW 3058   3.068   1.577   1.265
  720SOL    HW1 3059   3.092   1.674   1.272
  720SOL    HW2 3060   2.974   1.569   1.231
  721SOL     OW 3061   6.868   2.777   2.178
  721SOL    HW1 3062   6.806   2.736   2.245
  721SOL    HW2 3063   6.962   2.770   2.210
  722SOL     OW 3064   5.607   6.244   1.434
  722SOL    HW1 3065   5.692   6.297   1.434
  722SOL    HW2 3066   5.630   6.146   1.435
  723SOL     OW 3067   2.214   0.769   4.444
  723SOL    HW1 3068   2.159   0.701   4.395
  723SOL    HW2 3069   2.154   0.842   4.477
  724SOL     OW 3070   1.349   2.712   4.938
  724SOL    HW1 3071   1.449   2.706   4.937
  724SOL    HW2 3072   1.311   2.622   4.956
  725SOL     OW 3073   1.734   4.254   3.199
  725SOL    HW1 3074   1.683   4.331   3.162
  725SOL    HW2 3075   1.672   4.178   3.218
  726SOL     OW 3076   2.290   3.832   0.515
  726SOL    HW1 3077   2.230   3.884   0.576
  726SOL    HW2 3078   2.318   3.747   0.561
  727SOL     OW 3079   3.947   5.404   4.544
  727SOL    HW1 3080   3.859   5.359   4.550
  727SOL    HW2 3081   3.934   5.503   4.553
  728SOL     OW 3082   6.001   3.087   3.453
  728SOL    HW1 3083   5.989   3.111   3.550
  728SOL    HW2 3084   6.071   3.146   3.413
  729SOL     OW 3085   0.948   4.764   0.240
  729SOL    HW1 3086   0.977   4.784   0.333
  729SOL    HW2 3087   0.852   4.789   0.229
  730SOL     OW 3088   4.056   1.619   3.145
  730SOL    HW1 3089   4.156   1.621   3.156
  730SOL    HW2 3090   4.032   1.562   3.066
  731SOL     OW 3091   4.751   4.862   5.151
  731SOL    HW1 3092   4.699   4.945   5.170
  731SOL    HW2 3093   4.834   4.862   5.206
  732SOL     OW 3094   4.347   0.680   4.173
  732SOL    HW1 3095   4.361   0.585   4.200
  732SOL    HW2 3096   4.417   0.738   4.215
  733SOL     OW 3097   0.051   5.070   4.238
  733SOL    HW1 3098   0.090   5.162   4.233
  733SOL    HW2 3099   0.066   5.023   4.151
  734SOL     OW 3100   6.013   6.090   3.233
  734SOL    HW1 3101   5.983   6.067   3.326
  734SOL    HW2 3102   5.984   6.018   3.170
  735SOL     OW 3103   4.210   0.244   2.517
  735SOL    HW1 3104   4.308   0.245   2.499
  735SOL    HW2 3105   4.160   0.234   2.430
  736SOL     OW 3106   1.555   2.100   4.110
  736SOL    HW1 3107   1.636   2.107   4.051
  736SOL    HW2 3108   1.508   2.188   4.113
  737SOL     OW 3109   3.589   0.684   6.256
  737SOL    HW1 3110   3.674   0.682   6.310
  737SOL    HW2 3111   3.520   0.738   6.305
  738SOL     OW 3112   1.576   5.198   0.453
  738SOL    HW1 3113   1.500   5.158   0.402
  738SOL    HW2 3114   1.581   5.156   0.544
  739SOL     OW 3115   1.615   0.774   3.498
  739SOL    HW1 3116   1.633   0.676   3.494
  739SOL    HW2 3117   1.699   0.824   3.474
  740SOL     OW 3118   5.277   2.880   2.941
  740SOL    HW1 3119   5.246   2.926   2.858
  740SOL    HW2 3120   5.297   2.784   2.921
  741SOL     OW 3121   2.878   1.537   2.932
  741SOL    HW1 3122   2.946   1.570   2.866
  741SOL    HW2 3123   2.786   1.559   2.899
  742SOL     OW 3124   2.214   0.501   2.532
  742SOL    HW1 3125   2.125   0.455   2.537
  742SOL    HW2 3126   2.280   0.440   2.488
  743SOL     OW 3127   0.187   6.519   2.617
  743SOL    HW1 3128   0.219   6.437   2.568
  743SOL    HW2 3129   0.247   6.596   2.595
  744SOL     OW 3130   4.863   1.833   1.090
  744SOL    HW1 3131   4.773   1.808   1.127
  744SOL    HW2 3132   4.887   1.770   1.016
  745SOL     OW 3133   2.244   6.748   5.219
  745SOL    HW1 3134   2.192   6.810   5.161
  745SOL    HW2 3135   2.292   6.800   5.290
  746SOL     OW 3136   6.273   5.931   4.973
  746SOL    HW1 3137   6.351   5.977   4.930
  746SOL    HW2 3138   6.291   5.833   4.979
  747SOL     OW 3139   4.134   5.274   2.361
  747SOL    HW1 3140   4.157   5.280   2.458
  747SOL    HW2 3141   4.040   5.244   2.351
  748SOL     OW 3142   5.917   4.506   1.931
  748SOL    HW1 3143   5.910   4.605   1.922
  748SOL    HW2 3144   5.947   4.467   1.844
  749SOL     OW 3145   4.700   4.252   4.559
  749SOL    HW1 3146   4.799   4.263   4.558
  749SOL    HW2 3147   4.677   4.157   4.535
  750SOL     OW 3148   2.363   1.804   3.344
  750SOL    HW1 3149   2.405   1.874   3.287
  750SOL    HW2 3150   2.289   1.844   3.398
  751SOL     OW 3151   4.751   0.531   0.448
  751SOL    HW1 3152   4.672   0.507   0.504
  751SOL    HW2 3153   4.800   0.607   0.490
  752SOL     OW 3154   2.915   3.308   4.654
  752SOL    HW1 3155   2.864   3.282   4.572
  752SOL    HW2 3156   2.946   3.403   4.646
  753SOL     OW 3157   3.613   3.949   3.383
  753SOL    HW1 3158   3.563   3.863   3.394
  753SOL    HW2 3159   3.704   3.930   3.346
  754SOL     OW 3160   4.899   6.958   6.970
  754SOL    HW1 3161   4.940   6.894   6.905
  754SOL    HW2 3162   4.880   0.022   6.925
  755SOL     OW 3163   4.821   4.487   5.088
  755SOL    HW1 3164   4.867   4.472   5.001
  755SOL    HW2 3165   4.876   4.447   5.162
  756SOL     OW 3166   3.345   5.753   5.715
  756SOL    HW1 3167   3.410   5.819   5.678
  756SOL    HW2 3168   3.325   5.684   5.646
  757SOL     OW 3169   1.321   0.042   1.698
  757SOL    HW1 3170   1.407   7.014   1.692
  757SOL    HW2 3171   1.335   0.125   1.751
  758SOL     OW 3172   3.858   1.165   4.585
  758SOL    HW1 3173   3.935   1.191   4.527
  758SOL    HW2 3174   3.870   1.070   4.615
  759SOL     OW 3175   0.016   2.703   3.390
  759SOL    HW1 3176   6.989   2.731   3.308
  759SOL    HW2 3177   0.113   2.725   3.380
  760SOL     OW 3178   6.885   5.494   4.030
  760SOL    HW1 3179   6.897   5.512   4.128
  760SOL    HW2 3180   6.795   5.453   4.014
  761SOL     OW 3181   4.554   4.871   5.803
  761SOL    HW1 3182   4.495   4.864   5.883
  761SOL    HW2 3183   4.650   4.866   5.831
  762SOL     OW 3184   3.991   5.776   3.424
  762SOL    HW1 3185   4.016   5.761   3.328
  762SOL    HW2 3186   4.068   5.749   3.482
  763SOL     OW 3187   5.616   1.227   0.760
  763SOL    HW1 3188   5.651   1.312   0.719
  763SOL    HW2 3189   5.678   1.197   0.832
  764SOL     OW 3190   5.391   6.334   5.054
  764SOL    HW1 3191   5.294   6.321   5.073
  764SOL    HW2 3192   5.429   6.403   5.116
  765SOL     OW 3193   5.608   5.948   0.401
  765SOL    HW1 3194   5.642   5.854   0.408
  765SOL    HW2 3195   5.684   6.012   0.401
  766SOL     OW 3196   2.493   2.240   3.931
  766SOL    HW1 3197   2.423   2.216   3.998
  766SOL    HW2 3198   2.559   2.303   3.972
  767SOL     OW 3199   6.736   6.297   3.311
  767SOL    HW1 3200   6.698   6.373   3.363
  767SOL    HW2 3201   6.666   6.226   3.301
  768SOL     OW 3202   2.545   5.632   2.025
  768SOL    HW1 3203   2.546   5.680   1.937
  768SOL    HW2 3204   2.541   5.534   2.009
  769SOL     OW 3205   3.648   1.274   5.153
  769SOL    HW1 3206   3.680   1.214   5.227
  769SOL    HW2 3207   3.602   1.220   5.083
  770SOL     OW 3208   0.652   4.813   5.602
  770SOL    HW1 3209   0.686   4.721   5.618
  770SOL    HW2 3210   0.714   4.862   5.542
  771SOL     OW 3211   1.560   4.782   2.822
  771SOL    HW1 3212   1.516   4.770   2.733
  771SOL    HW2 3213   1.489   4.791   2.893
  772SOL     OW 3214   5.872   5.120   0.267
  772SOL    HW1 3215   5.807   5.136   0.192
  772SOL    HW2 3216   5.880   5.203   0.322
  773SOL     OW 3217   1.883   4.972   4.317
  773SOL    HW1 3218   1.792   5.012   4.312
  773SOL    HW2 3219   1.948   5.040   4.351
  774SOL     OW 3220   1.885   2.133   4.017
  774SOL    HW1 3221   1.829   2.201   3.970
  774SOL    HW2 3222   1.977   2.132   3.977
  775SOL     OW 3223   0.685   4.092   2.437
  775SOL    HW1 3224   0.597   4.075   2.395
  775SOL    HW2 3225   0.735   4.160   2.383
  776SOL     OW 3226   3.304   5.394   6.339
  776SOL    HW1 3227   3.397   5.362   6.357
  776SOL    HW2 3228   3.301   5.441   6.250
  777SOL     OW 3229   1.928   3.595   6.648
  777SOL    HW1 3230   1.956   3.622   6.740
  777SOL    HW2 3231   1.894   3.501   6.650
  778SOL     OW 3232   3.578   5.431   6.888
  778SOL    HW1 3233   3.597   5.409   6.792
  778SOL    HW2 3234   3.529   5.518   6.893
  779SOL     OW 3235   6.008   1.389   3.496
  779SOL    HW1 3236   5.967   1.415   3.583
  779SOL    HW2 3237   6.107   1.401   3.500
  780SOL     OW 3238   6.420   1.568   4.483
  780SOL    HW1 3239   6.449   1.663   4.498
  780SOL    HW2 3240   6.436   1.514   4.565
  781SOL     OW 3241   0.741   5.081   6.419
  781SOL    HW1 3242   0.822   5.132   6.447
  781SOL    HW2 3243   0.660   5.126   6.457
  782SOL     OW 3244   2.196   4.200   5.511
  782SOL    HW1 3245   2.152   4.284   5.544
  782SOL    HW2 3246   2.158   4.175   5.423
  783SOL     OW 3247   6.794   5.083   6.388
  783SOL    HW1 3248   6.759   5.113   6.300
  783SOL    HW2 3249   6.892   5.065   6.382
  784SOL     OW 3250   2.137   5.749   6.397
  784SOL    HW1 3251   2.158   5.733   6.493
  784SOL    HW2 3252   2.220   5.742   6.343
  785SOL     OW 3253   0.454   0.335   3.920
  785SOL    HW1 3254   0.541   0.317   3.966
  785SOL    HW2 3255   0.425   0.253   3.870
  786SOL     OW 3256   5.694   0.867   4.956
  786SOL    HW1 3257   5.793   0.850   4.951
  786SOL    HW2 3258   5.651   0.835   4.872
  787SOL     OW 3259   2.097   6.591   0.807
  787SOL    HW1 3260   2.076   6.651   0.884
  787SOL    HW2 3261   2.192   6.606   0.778
  788SOL     OW 3262   2.258   2.878   2.285
  788SOL    HW1 3263   2.181   2.907   2.228
  788SOL    HW2 3264   2.319   2.955   2.300
  789SOL     OW 3265   3.825   5.142   2.474
  789SOL    HW1 3266   3.804   5.057   2.426
  789SOL    HW2 3267   3.786   5.219   2.424
  790SOL     OW 3268   6.806   3.252   2.119
  790SOL    HW1 3269   6.714   3.248   2.081
  790SOL    HW2 3270   6.806   3.311   2.200
  791SOL     OW 3271   3.279   1.506   3.504
  791SOL    HW1 3272   3.244   1.420   3.539
  791SOL    HW2 3273   3.258   1.514   3.407
  792SOL     OW 3274   2.294   0.211   0.810
  792SOL    HW1 3275   2.253   0.266   0.737
  792SOL    HW2 3276   2.310   0.268   0.891
  793SOL     OW 3277   1.738   5.555   4.958
  793SOL    HW1 3278   1.801   5.604   5.018
  793SOL    HW2 3279   1.789   5.512   4.883
  794SOL     OW 3280   3.456   3.672   2.397
  794SOL    HW1 3281   3.519   3.639   2.467
  794SOL    HW2 3282   3.384   3.604   2.381
  795SOL     OW 3283   4.713   6.793   5.282
  795SOL    HW1 3284   4.777   6.867   5.262
  795SOL    HW2 3285   4.760   6.720   5.331
  796SOL     OW 3286   1.159   2.582   6.522
  796SOL    HW1 3287   1.252   2.619   6.530
  796SOL    HW2 3288   1.125   2.597   6.430
  797SOL     OW 3289   3.418   6.931   1.245
  797SOL    HW1 3290   3.445   6.873   1.322
  797SOL    HW2 3291   3.494   6.940   1.182
  798SOL     OW 3292   4.808   4.570   1.295
  798SOL    HW1 3293   4.740   4.573   1.369
  798SOL    HW2 3294   4.897   4.549   1.333
  799SOL     OW 3295   3.654   3.028   5.578
  799SOL    HW1 3296   3.581   3.095   5.562
  799SOL    HW2 3297   3.738   3.059   5.534
  800SOL     OW 3298   5.484   2.918   2.608
  800SOL    HW1 3299   5.519   2.856   2.679
  800SOL    HW2 3300   5.432   2.866   2.541
  801SOL     OW 3301   1.965   5.577   6.921
  801SOL    HW1 3302   1.873   5.540   6.911
  801SOL    HW2 3303   2.027   5.533   6.856
  802SOL     OW 3304   4.192   2.205   6.434
  802SOL    HW1 3305   4.122   2.196   6.505
  802SOL    HW2 3306   4.274   2.154   6.462
  803SOL     OW 3307   2.624   2.489   3.526
  803SOL    HW1 3308   2.565   2.570   3.526
  803SOL    HW2 3309   2.651   2.468   3.432
  804SOL     OW 3310   4.774   0.030   2.994
  804SOL    HW1 3311   4.786   6.965   2.947
  804SOL    HW2 3312   4.843   0.039   3.066
  805SOL     OW 3313   3.431   1.571   3.954
  805SOL    HW1 3314   3.473   1.611   3.872
  805SOL    HW2 3315   3.493   1.583   4.032
  806SOL     OW 3316   4.036   6.114   6.092
  806SOL    HW1 3317   4.089   6.199   6.098
  806SOL    HW2 3318   3.978   6.116   6.011
  807SOL     OW 3319   1.653   6.109   6.285
  807SOL    HW1 3320   1.660   6.016   6.323
  807SOL    HW2 3321   1.596   6.107   6.203
  808SOL     OW 3322   5.408   2.120   5.868
  808SOL    HW1 3323   5.333   2.181   5.895
  808SOL    HW2 3324   5.475   2.172   5.815
  809SOL     OW 3325   3.351   6.558   6.294
  809SOL    HW1 3326   3.257   6.592   6.300
  809SOL    HW2 3327   3.369   6.526   6.202
  810SOL     OW 3328   3.806   4.043   0.098
  810SOL    HW1 3329   3.744   4.000   0.033
  810SOL    HW2 3330   3.768   4.035   0.191
  811SOL     OW 3331   5.558   5.690   4.453
  811SOL    HW1 3332   5.506   5.680   4.368
  811SOL    HW2 3333   5.623   5.766   4.443
  812SOL     OW 3334   1.136   2.857   1.011
  812SOL    HW1 3335   1.222   2.853   0.960
  812SOL    HW2 3336   1.148   2.817   1.102
  813SOL     OW 3337   3.142   1.819   4.839
  813SOL    HW1 3338   3.205   1.891   4.810
  813SOL    HW2 3339   3.139   1.816   4.939
  814SOL     OW 3340   0.380   4.653   1.711
  814SOL    HW1 3341   0.453   4.713   1.744
  814SOL    HW2 3342   0.303   4.656   1.775
  815SOL     OW 3343   4.633   1.013   3.860
  815SOL    HW1 3344   4.572   0.943   3.897
  815SOL    HW2 3345   4.709   0.970   3.811
  816SOL     OW 3346   4.865   3.808   6.144
  816SOL    HW1 3347   4.782   3.834   6.194
  816SOL    HW2 3348   4.941   3.866   6.174
  817SOL     OW 3349   6.788   5.337   6.723
  817SOL    HW1 3350   6.881   5.366   6.701
  817SOL    HW2 3351   6.737   5.414   6.760
  818SOL     OW 3352   6.776   1.201   5.584
  818SOL    HW1 3353   6.763   1.114   5.630
  818SOL    HW2 3354   6.739   1.196   5.491
  819SOL     OW 3355   5.596   3.427   1.450
  819SOL    HW1 3356   5.559   3.483   1.524
  819SOL    HW2 3357   5.680   3.382   1.481
  820SOL     OW 3358   2.288   1.925   5.556
  820SOL    HW1 3359   2.220   1.911   5.627
  820SOL    HW2 3360   2.302   1.839   5.506
  821SOL     OW 3361   5.259   3.237   6.155
  821SOL    HW1 3362   5.222   3.309   6.097
  821SOL    HW2 3363   5.185   3.196   6.209
  822SOL     OW 3364   6.754   4.548   3.186
  822SOL    HW1 3365   6.713   4.509   3.269
  822SOL    HW2 3366   6.746   4.648   3.188
  823SOL     OW 3367   2.217   2.853   4.373
  823SOL    HW1 3368   2.224   2.940   4.421
  823SOL    HW2 3369   2.129   2.848   4.326
  824SOL     OW 3370   5.398   0.713   6.401
  824SOL    HW1 3371   5.414   0.628   6.452
  824SOL    HW2 3372   5.303   0.740   6.411
  825SOL     OW 3373   6.395   5.525   0.685
  825SOL    HW1 3374   6.382   5.428   0.665
  825SOL    HW2 3375   6.457   5.536   0.762
  826SOL     OW 3376   3.843   1.971   0.344
  826SOL    HW1 3377   3.919   2.011   0.293
  826SOL    HW2 3378   3.757   2.014   0.316
  827SOL     OW 3379   3.635   3.124   5.015
  827SOL    HW1 3380   3.591   3.213   5.010
  827SOL    HW2 3381   3.567   3.053   5.032
  828SOL     OW 3382   1.032   6.779   6.102
  828SOL    HW1 3383   1.088   6.734   6.033
  828SOL    HW2 3384   1.091   6.814   6.175
  829SOL     OW 3385   3.827   3.317   1.712
  829SOL    HW1 3386   3.899   3.368   1.758
  829SOL    HW2 3387   3.743   3.371   1.711
  830SOL     OW 3388   6.759   3.956   5.692
  830SOL    HW1 3389   6.844   3.910   5.718
  830SOL    HW2 3390   6.732   4.020   5.764
  831SOL     OW 3391   5.913   1.299   3.101
  831SOL    HW1 3392   5.956   1.231   3.161
  831SOL    HW2 3393   5.814   1.292   3.108
  832SOL     OW 3394   3.096   2.150   4.816
  832SOL    HW1 3395   3.119   2.191   4.904
  832SOL    HW2 3396   2.997   2.150   4.804
  833SOL     OW 3397   4.267   2.844   0.010
  833SOL    HW1 3398   4.238   2.931   6.995
  833SOL    HW2 3399   4.201   2.815   0.080
  834SOL     OW 3400   5.846   3.336   0.562
  834SOL    HW1 3401   5.887   3.406   0.620
  834SOL    HW2 3402   5.917   3.272   0.532
  835SOL     OW 3403   6.720   6.811   5.478
  835SOL    HW1 3404   6.734   6.808   5.379
  835SOL    HW2 3405   6.766   6.734   5.521
  836SOL     OW 3406   6.009   6.759   4.170
  836SOL    HW1 3407   6.035   6.667   4.143
  836SOL    HW2 3408   5.913   6.775   4.146
  837SOL     OW 3409   1.149   0.506   6.563
  837SOL    HW1 3410   1.215   0.493   6.637
  837SOL    HW2 3411   1.086   0.428   6.559
  838SOL     OW 3412   1.575   5.836   3.194
  838SOL    HW1 3413   1.663   5.832   3.146
  838SOL    HW2 3414   1.548   5.744   3.221
  839SOL     OW 3415   1.166   2.572   0.147
  839SOL    HW1 3416   1.232   2.576   0.072
  839SOL    HW2 3417   1.100   2.499   0.130
  840SOL     OW 3418   4.418   5.422   0.093
  840SOL    HW1 3419   4.362   5.341   0.107
  840SOL    HW2 3420   4.513   5.402   0.117
  841SOL     OW 3421   3.004   5.231   6.372
  841SOL    HW1 3422   2.946   5.303   6.333
  841SOL    HW2 3423   3.052   5.268   6.451
  842SOL     OW 3424   4.607   6.664   1.118
  842SOL    HW1 3425   4.637   6.699   1.206
  842SOL    HW2 3426   4.571   6.740   1.063
  843SOL     OW 3427   1.208   0.649   1.917
  843SOL    HW1 3428   1.131   0.713   1.911
  843SOL    HW2 3429   1.261   0.651   1.832
  844SOL     OW 3430   6.799   6.462   1.668
  844SOL    HW1 3431   6.705   6.476   1.638
  844SOL    HW2 3432   6.818   6.525   1.744
  845SOL     OW 3433   3.814   1.331   1.883
  845SOL    HW1 3434   3.815   1.397   1.957
  845SOL    HW2 3435   3.727   1.338   1.834
  846SOL     OW 3436   1.472   1.507   1.434
  846SOL    HW1 3437   1.409   1.460   1.373
  846SOL    HW2 3438   1.563   1.510   1.392
  847SOL     OW 3439   2.369   3.160   1.243
  847SOL    HW1 3440   2.426   3.214   1.305
  847SOL    HW2 3441   2.350   3.213   1.160
  848SOL     OW 3442   6.401   5.948   0.722
  848SOL    HW1 3443   6.370   5.982   0.811
  848SOL    HW2 3444   6.366   6.007   0.649
  849SOL     OW 3445   5.042   3.188   6.304
  849SOL    HW1 3446   5.024   3.161   6.399
  849SOL    HW2 3447   4.966   3.158   6.246
  850SOL     OW 3448   1.727   1.234   4.597
  850SOL    HW1 3449   1.627   1.234   4.589
  850SOL    HW2 3450   1.768   1.262   4.510
  851SOL     OW 3451   5.193   2.271   5.922
  851SOL    HW1 3452   5.164   2.366   5.918
  851SOL    HW2 3453   5.113   2.211   5.926
  852SOL     OW 3454   6.747   5.281   1.763
  852SOL    HW1 3455   6.784   5.196   1.725
  852SOL    HW2 3456   6.699   5.332   1.692
  853SOL     OW 3457   3.334   2.953   0.849
  853SOL    HW1 3458   3.406   3.011   0.811
  853SOL    HW2 3459   3.249   2.967   0.798
  854SOL     OW 3460   0.075   0.109   6.055
  854SOL    HW1 3461   0.154   0.102   6.115
  854SOL    HW2 3462   0.014   0.181   6.089
  855SOL     OW 3463   4.824   1.766   6.826
  855SOL    HW1 3464   4.857   1.702   6.895
  855SOL    HW2 3465   4.886   1.844   6.821
  856SOL     OW 3466   1.815   5.688   1.616
  856SOL    HW1 3467   1.770   5.603   1.643
  856SOL    HW2 3468   1.830   5.745   1.697
  857SOL     OW 3469   6.831   6.169   5.070
  857SOL    HW1 3470   6.871   6.184   5.160
  857SOL    HW2 3471   6.777   6.250   5.044
  858SOL     OW 3472   3.455   4.088   6.967
  858SOL    HW1 3473   3.464   3.989   6.981
  858SOL    HW2 3474   3.373   4.107   6.914
  859SOL     OW 3475   4.397   5.627   5.421
  859SOL    HW1 3476   4.476   5.619   5.482
  859SOL    HW2 3477   4.422   5.595   5.329
  860SOL     OW 3478   4.445   2.945   6.458
  860SOL    HW1 3479   4.465   2.907   6.368
  860SOL    HW2 3480   4.369   2.894   6.499
  861SOL     OW 3481   0.918   5.753   2.363
  861SOL    HW1 3482   0.956   5.732   2.272
  861SOL    HW2 3483   0.898   5.850   2.369
  862SOL     OW 3484   0.790   4.245   4.037
  862SOL    HW1 3485   0.847   4.189   3.977
  862SOL    HW2 3486   0.696   4.213   4.033
  863SOL     OW 3487   5.504   0.848   1.536
  863SOL    HW1 3488   5.462   0.768   1.579
  863SOL    HW2 3489   5.549   0.819   1.451
  864SOL     OW 3490   5.900   5.297   3.016
  864SOL    HW1 3491   5.949   5.210   3.012
  864SOL    HW2 3492   5.830   5.299   2.944
  865SOL     OW 3493   1.152   5.218   4.445
  865SOL    HW1 3494   1.107   5.160   4.513
  865SOL    HW2 3495   1.230   5.170   4.405
  866SOL     OW 3496   3.781   6.859   1.343
  866SOL    HW1 3497   3.822   6.939   1.386
  866SOL    HW2 3498   3.822   6.844   1.253
  867SOL     OW 3499   6.158   3.660   5.369
  867SOL    HW1 3500   6.163   3.601   5.450
  867SOL    HW2 3501   6.203   3.615   5.292
  868SOL     OW 3502   0.827   1.509   2.433
  868SOL    HW1 3503   0.853   1.540   2.341
  868SOL    HW2 3504   0.891   1.545   2.500
  869SOL     OW 3505   0.513   3.164   2.133
  869SOL    HW1 3506   0.585   3.100   2.160
  869SOL    HW2 3507   0.482   3.141   2.040
  870SOL     OW 3508   3.878   4.854   2.097
  870SOL    HW1 3509   3.803   4.808   2.050
  870SOL    HW2 3510   3.953   4.870   2.033
  871SOL     OW 3511   4.297   1.664   3.655
  871SOL    HW1 3512   4.322   1.621   3.741
  871SOL    HW2 3513   4.380   1.690   3.605
  872SOL     OW 3514   1.241   2.462   4.997
  872SOL    HW1 3515   1.197   2.385   4.951
  872SOL    HW2 3516   1.217   2.462   5.094
  873SOL     OW 3517   4.141   6.988   6.305
  873SOL    HW1 3518   4.124   0.057   6.340
  873SOL    HW2 3519   4.098   6.921   6.365
  874SOL     OW 3520   6.263   4.186   2.003
  874SOL    HW1 3521   6.244   4.099   2.050
  874SOL    HW2 3522   6.252   4.261   2.067
  875SOL     OW 3523   5.383   5.870   2.375
  875SOL    HW1 3524   5.375   5.787   2.320
  875SOL    HW2 3525   5.314   5.869   2.447
  876SOL     OW 3526   6.555   1.169   6.562
  876SOL    HW1 3527   6.613   1.226   6.503
  876SOL    HW2 3528   6.517   1.225   6.635
  877SOL     OW 3529   1.597   3.195   6.846
  877SOL    HW1 3530   1.666   3.244   6.900
  877SOL    HW2 3531   1.604   3.097   6.866
  878SOL     OW 3532   4.150   6.561   4.117
  878SOL    HW1 3533   4.148   6.618   4.199
  878SOL    HW2 3534   4.056   6.545   4.086
  879SOL     OW 3535   5.410   6.869   6.102
  879SOL    HW1 3536   5.403   6.956   6.151
  879SOL    HW2 3537   5.362   6.798   6.154
  880SOL     OW 3538   3.221   3.282   2.911
  880SOL    HW1 3539   3.216   3.329   2.824
  880SOL    HW2 3540   3.246   3.347   2.983
  881SOL     OW 3541   4.078   2.179   0.515
  881SOL    HW1 3542   4.173   2.174   0.548
  881SOL    HW2 3543   4.078   2.188   0.415
  882SOL     OW 3544   1.883   2.977   3.548
  882SOL    HW1 3545   1.964   2.935   3.588
  882SOL    HW2 3546   1.910   3.057   3.494
  883SOL     OW 3547   2.419   6.209   3.003
  883SOL    HW1 3548   2.328   6.241   2.975
  883SOL    HW2 3549   2.408   6.139   3.075
  884SOL     OW 3550   2.589   3.561   6.229
  884SOL    HW1 3551   2.582   3.647   6.177
  884SOL    HW2 3552   2.683   3.528   6.227
  885SOL     OW 3553   4.097   2.928   6.673
  885SOL    HW1 3554   4.176   2.985   6.698
  885SOL    HW2 3555   4.014   2.984   6.673
  886SOL     OW 3556   3.686   1.163   6.925
  886SOL    HW1 3557   3.693   1.117   7.013
  886SOL    HW2 3558   3.775   1.203   6.901
  887SOL     OW 3559   4.382   0.939   5.286
  887SOL    HW1 3560   4.439   1.001   5.340
  887SOL    HW2 3561   4.286   0.967   5.294
  888SOL     OW 3562   0.648   6.530   1.644
  888SOL    HW1 3563   0.578   6.482   1.698
  888SOL    HW2 3564   0.613   6.620   1.618
  889SOL     OW 3565   0.219   3.897   0.572
  889SOL    HW1 3566   0.229   3.832   0.648
  889SOL    HW2 3567   0.130   3.942   0.577
  890SOL     OW 3568   2.050   5.933   4.569
  890SOL    HW1 3569   2.066   5.942   4.471
  890SOL    HW2 3570   1.998   5.849   4.587
  891SOL     OW 3571   4.800   4.588   2.464
  891SOL    HW1 3572   4.706   4.555   2.452
  891SOL    HW2 3573   4.839   4.549   2.548
  892SOL     OW 3574   2.473   4.251   0.664
  892SOL    HW1 3575   2.511   4.324   0.607
  892SOL    HW2 3576   2.430   4.291   0.744
  893SOL     OW 3577   1.746   5.434   2.704
  893SOL    HW1 3578   1.674   5.447   2.772
  893SOL    HW2 3579   1.812   5.509   2.711
  894SOL     OW 3580   0.964   4.462   1.230
  894SOL    HW1 3581   1.012   4.396   1.286
  894SOL    HW2 3582   1.002   4.553   1.245
  895SOL     OW 3583   0.106   4.945   4.000
  895SOL    HW1 3584   0.074   5.017   3.939
  895SOL    HW2 3585   0.176   4.891   3.953
  896SOL     OW 3586   0.154   1.096   6.557
  896SOL    HW1 3587   0.108   1.041   6.628
  896SOL    HW2 3588   0.235   1.047   6.525
  897SOL     OW 3589   5.371   1.086   0.823
  897SOL    HW1 3590   5.463   1.126   0.815
  897SOL    HW2 3591   5.306   1.158   0.846
  898SOL     OW 3592   4.033   1.044   2.860
  898SOL    HW1 3593   4.104   0.975   2.845
  898SOL    HW2 3594   3.950   1.018   2.810
  899SOL     OW 3595   6.435   6.507   6.788
  899SOL    HW1 3596   6.523   6.502   6.740
  899SOL    HW2 3597   6.449   6.544   6.879
  900SOL     OW 3598   5.206   5.207   0.156
  900SOL    HW1 3599   5.275   5.254   0.101
  900SOL    HW2 3600   5.243   5.192   0.248
  901SOL     OW 3601   1.207   0.572   3.331
  901SOL    HW1 3602   1.189   0.506   3.259
  901SOL    HW2 3603   1.237   0.524   3.414
  902SOL     OW 3604   6.689   3.407   1.335
  902SOL    HW1 3605   6.603   3.395   1.285
  902SOL    HW2 3606   6.669   3.429   1.431
  903SOL     OW 3607   0.232   0.915   0.867
  903SOL    HW1 3608   0.158   0.947   0.809
  903SOL    HW2 3609   0.316   0.966   0.847
  904SOL     OW 3610   2.693   1.009   3.289
  904SOL    HW1 3611   2.657   1.067   3.362
  904SOL    HW2 3612   2.739   0.930   3.330
  905SOL     OW 3613   6.136   1.920   6.237
  905SOL    HW1 3614   6.047   1.964   6.232
  905SOL    HW2 3615   6.183   1.947   6.321
  906SOL     OW 3616   5.285   3.219   0.495
  906SOL    HW1 3617   5.380   3.226   0.526
  906SOL    HW2 3618   5.243   3.309   0.497
  907SOL     OW 3619   5.247   4.214   6.350
  907SOL    HW1 3620   5.163   4.171   6.384
  907SOL    HW2 3621   5.296   4.149   6.291
  908SOL     OW 3622   0.464   4.020   3.376
  908SOL    HW1 3623   0.439   3.956   3.304
  908SOL    HW2 3624   0.544   3.986   3.425
  909SOL     OW 3625   5.512   5.364   5.942
  909SOL    HW1 3626   5.578   5.310   5.888
  909SOL    HW2 3627   5.558   5.403   6.021
  910SOL     OW 3628   3.360   4.674   0.521
  910SOL    HW1 3629   3.318   4.749   0.572
  910SOL    HW2 3630   3.427   4.627   0.580
  911SOL     OW 3631   1.258   4.625   5.612
  911SOL    HW1 3632   1.257   4.601   5.515
  911SOL    HW2 3633   1.275   4.723   5.622
  912SOL     OW 3634   4.947   1.368   5.113
  912SOL    HW1 3635   4.978   1.388   5.206
  912SOL    HW2 3636   4.962   1.271   5.094
  913SOL     OW 3637   4.673   6.534   3.114
  913SOL    HW1 3638   4.579   6.503   3.124
  913SOL    HW2 3639   4.693   6.602   3.185
  914SOL     OW 3640   3.100   6.416   5.911
  914SOL    HW1 3641   3.128   6.337   5.856
  914SOL    HW2 3642   3.163   6.491   5.898
  915SOL     OW 3643   5.333   5.586   1.663
  915SOL    HW1 3644   5.269   5.535   1.606
  915SOL    HW2 3645   5.315   5.565   1.759
  916SOL     OW 3646   1.254   3.243   2.981
  916SOL    HW1 3647   1.217   3.272   3.070
  916SOL    HW2 3648   1.353   3.258   2.980
  917SOL     OW 3649   0.755   6.934   6.693
  917SOL    HW1 3650   0.694   6.860   6.722
  917SOL    HW2 3651   0.781   6.920   6.598
  918SOL     OW 3652   3.713   6.415   0.017
  918SOL    HW1 3653   3.766   6.404   0.101
  918SOL    HW2 3654   3.616   6.424   0.040
  919SOL     OW 3655   4.480   0.758   6.226
  919SOL    HW1 3656   4.564   0.746   6.172
  919SOL    HW2 3657   4.405   0.785   6.166
  920SOL     OW 3658   3.208   4.831   1.798
  920SOL    HW1 3659   3.164   4.744   1.774
  920SOL    HW2 3660   3.302   4.830   1.767
  921SOL     OW 3661   4.700   5.778   5.095
  921SOL    HW1 3662   4.667   5.858   5.044
  921SOL    HW2 3663   4.704   5.801   5.192
  922SOL     OW 3664   2.993   3.559   3.525
  922SOL    HW1 3665   2.966   3.560   3.429
  922SOL    HW2 3666   2.962   3.643   3.570
  923SOL     OW 3667   2.565   3.372   5.659
  923SOL    HW1 3668   2.547   3.424   5.576
  923SOL    HW2 3669   2.548   3.429   5.739
  924SOL     OW 3670   0.180   3.204   1.286
  924SOL    HW1 3671   0.161   3.282   1.227
  924SOL    HW2 3672   0.156   3.227   1.380
  925SOL     OW 3673   0.457   1.301   6.664
  925SOL    HW1 3674   0.506   1.229   6.614
  925SOL    HW2 3675   0.522   1.369   6.697
  926SOL     OW 3676   2.164   1.934   1.132
  926SOL    HW1 3677   2.223   1.855   1.141
  926SOL    HW2 3678   2.101   1.921   1.056
  927SOL     OW 3679   6.454   3.362   4.700
  927SOL    HW1 3680   6.468   3.296   4.774
  927SOL    HW2 3681   6.520   3.436   4.709
  928SOL     OW 3682   2.962   5.423   5.499
  928SOL    HW1 3683   2.899   5.451   5.571
  928SOL    HW2 3684   2.921   5.351   5.444
  929SOL     OW 3685   0.542   1.802   4.754
  929SOL    HW1 3686   0.446   1.818   4.734
  929SOL    HW2 3687   0.565   1.840   4.844
  930SOL     OW 3688   5.798   5.415   4.822
  930SOL    HW1 3689   5.763   5.322   4.832
  930SOL    HW2 3690   5.739   5.465   4.758
  931SOL     OW 3691   5.851   0.338   3.441
  931SOL    HW1 3692   5.888   0.387   3.520
  931SOL    HW2 3693   5.926   0.294   3.392
  932SOL     OW 3694   3.420   0.275   3.594
  932SOL    HW1 3695   3.419   0.180   3.562
  932SOL    HW2 3696   3.358   0.285   3.671
  933SOL     OW 3697   1.006   5.542   1.845
  933SOL    HW1 3698   0.964   5.624   1.807
  933SOL    HW2 3699   0.936   5.470   1.852
  934SOL     OW 3700   1.704   2.765   0.323
  934SOL    HW1 3701   1.614   2.727   0.302
  934SOL    HW2 3702   1.766   2.750   0.246
  935SOL     OW 3703   5.778   2.699   5.591
  935SOL    HW1 3704   5.736   2.625   5.642
  935SOL    HW2 3705   5.871   2.715   5.625
  936SOL     OW 3706   2.084   0.536   5.933
  936SOL    HW1 3707   2.031   0.469   5.985
  936SOL    HW2 3708   2.164   0.564   5.987
  937SOL     OW 3709   3.233   2.571   6.444
  937SOL    HW1 3710   3.296   2.632   6.490
  937SOL    HW2 3711   3.272   2.543   6.356
  938SOL     OW 3712   5.063   6.465   4.780
  938SOL    HW1 3713   4.975   6.513   4.793
  938SOL    HW2 3714   5.057   6.374   4.820
  939SOL     OW 3715   1.570   0.094   4.971
  939SOL    HW1 3716   1.487   0.077   5.024
  939SOL    HW2 3717   1.584   0.020   4.906
  940SOL     OW 3718   1.995   5.406   0.636
  940SOL    HW1 3719   1.966   5.500   0.616
  940SOL    HW2 3720   1.916   5.353   0.667
  941SOL     OW 3721   4.136   6.981   1.060
  941SOL    HW1 3722   4.184   6.896   1.039
  941SOL    HW2 3723   4.165   7.015   1.149
  942SOL     OW 3724   6.592   5.171   0.084
  942SOL    HW1 3725   6.604   5.254   0.140
  942SOL    HW2 3726   6.499   5.137   0.094
  943SOL     OW 3727   3.559   5.812   0.746
  943SOL    HW1 3728   3.492   5.739   0.758
  943SOL    HW2 3729   3.651   5.775   0.762
  944SOL     OW 3730   6.899   6.123   3.047
  944SOL    HW1 3731   6.975   6.131   3.111
  944SOL    HW2 3732   6.877   6.026   3.033
  945SOL     OW 3733   0.942   5.880   6.656
  945SOL    HW1 3734   0.871   5.950   6.646
  945SOL    HW2 3735   0.997   5.878   6.573
  946SOL     OW 3736   5.618   2.047   3.965
  946SOL    HW1 3737   5.532   2.083   4.003
  946SOL    HW2 3738   5.685   2.121   3.959
  947SOL     OW 3739   3.799   4.077   2.415
  947SOL    HW1 3740   3.817   3.981   2.436
  947SOL    HW2 3741   3.837   4.099   2.325
  948SOL     OW 3742   3.564   1.386   3.750
  948SOL    HW1 3743   3.644   1.437   3.781
  948SOL    HW2 3744   3.504   1.446   3.697
  949SOL     OW 3745   2.734   0.195   5.913
  949SOL    HW1 3746   2.739   0.222   6.009
  949SOL    HW2 3747   2.769   0.269   5.856
  950SOL     OW 3748   6.971   6.688   1.739
  950SOL    HW1 3749   0.043   6.710   1.715
  950SOL    HW2 3750   6.961   6.682   1.838
  951SOL     OW 3751   1.294   6.997   2.944
  951SOL    HW1 3752   1.380   6.947   2.930
  951SOL    HW2 3753   1.266   0.016   2.858
  952SOL     OW 3754   3.650   1.660   3.047
  952SOL    HW1 3755   3.635   1.618   3.137
  952SOL    HW2 3756   3.586   1.737   3.036
  953SOL     OW 3757   0.837   5.567   5.871
  953SOL    HW1 3758   0.813   5.532   5.962
  953SOL    HW2 3759   0.901   5.643   5.882
  954SOL     OW 3760   4.420   6.686   2.359
  954SOL    HW1 3761   4.377   6.599   2.333
  954SOL    HW2 3762   4.498   6.668   2.419
  955SOL     OW 3763   2.663   4.844   1.111
  955SOL    HW1 3764   2.695   4.815   1.202
  955SOL    HW2 3765   2.735   4.898   1.066
  956SOL     OW 3766   3.593   0.395   0.877
  956SOL    HW1 3767   3.540   0.459   0.822
  956SOL    HW2 3768   3.674   0.365   0.826
  957SOL     OW 3769   5.901   6.703   3.559
  957SOL    HW1 3770   5.899   6.738   3.465
  957SOL    HW2 3771   5.807   6.692   3.592
  958SOL     OW 3772   5.653   6.095   2.057
  958SOL    HW1 3773   5.662   6.067   1.962
  958SOL    HW2 3774   5.566   6.063   2.094
  959SOL     OW 3775   4.975   0.310   2.911
  959SOL    HW1 3776   4.877   0.324   2.922
  959SOL    HW2 3777   5.009   0.371   2.839
  960SOL     OW 3778   1.651   6.103   5.631
  960SOL    HW1 3779   1.632   6.197   5.659
  960SOL    HW2 3780   1.746   6.081   5.653
  961SOL     OW 3781   3.825   1.029   3.435
  961SOL    HW1 3782   3.905   1.009   3.378
  961SOL    HW2 3783   3.744   0.988   3.393
  962SOL     OW 3784   0.322   6.921   4.872
  962SOL    HW1 3785   0.391   6.992   4.858
  962SOL    HW2 3786   0.363   6.831   4.857
  963SOL     OW 3787   5.878   2.831   1.329
  963SOL    HW1 3788   5.836   2.876   1.408
  963SOL    HW2 3789   5.881   2.733   1.345
  964SOL     OW 3790   3.492   6.532   4.932
  964SOL    HW1 3791   3.532   6.615   4.971
  964SOL    HW2 3792   3.394   6.530   4.952
  965SOL     OW 3793   4.850   2.039   3.903
  965SOL    HW1 3794   4.938   2.077   3.875
  965SOL    HW2 3795   4.860   1.994   3.992
  966SOL     OW 3796   5.375   0.762   3.238
  966SOL    HW1 3797   5.282   0.746   3.272
  966SOL    HW2 3798   5.393   0.703   3.159
  967SOL     OW 3799   4.216   5.083   5.828
  967SOL    HW1 3800   4.266   5.011   5.781
  967SOL    HW2 3801   4.279   5.133   5.888
  968SOL     OW 3802   3.454   0.587   1.179
  968SOL    HW1 3803   3.483   0.494   1.159
  968SOL    HW2 3804   3.477   0.647   1.103
  969SOL     OW 3805   2.724   3.747   6.794
  969SOL    HW1 3806   2.721   3.783   6.701
  969SOL    HW2 3807   2.813   3.707   6.811
  970SOL     OW 3808   4.459   6.446   5.094
  970SOL    HW1 3809   4.470   6.452   5.193
  970SOL    HW2 3810   4.370   6.405   5.073
  971SOL     OW 3811   5.209   3.345   3.425
  971SOL    HW1 3812   5.268   3.415   3.386
  971SOL    HW2 3813   5.119   3.349   3.381
  972SOL     OW 3814   0.592   1.871   0.842
  972SOL    HW1 3815   0.540   1.835   0.919
  972SOL    HW2 3816   0.586   1.808   0.765
  973SOL     OW 3817   6.763   2.570   4.812
  973SOL    HW1 3818   6.739   2.500   4.879
  973SOL    HW2 3819   6.781   2.656   4.858
  974SOL     OW 3820   0.453   3.130   1.855
  974SOL    HW1 3821   0.451   3.066   1.778
  974SOL    HW2 3822   0.437   3.223   1.822
  975SOL     OW 3823   2.772   0.406   1.874
  975SOL    HW1 3824   2.826   0.490   1.869
  975SOL    HW2 3825   2.816   0.335   1.818
  976SOL     OW 3826   0.222   2.751   3.831
  976SOL    HW1 3827   0.134   2.704   3.830
  976SOL    HW2 3828   0.244   2.779   3.924
  977SOL     OW 3829   6.178   1.078   2.401
  977SOL    HW1 3830   6.255   1.078   2.337
  977SOL    HW2 3831   6.196   1.144   2.474
  978SOL     OW 3832   4.770   2.668   0.981
  978SOL    HW1 3833   4.842   2.601   0.999
  978SOL    HW2 3834   4.756   2.725   1.062
  979SOL     OW 3835   0.033   5.037   6.280
  979SOL    HW1 3836   0.008   4.941   6.273
  979SOL    HW2 3837   0.056   5.059   6.375
  980SOL     OW 3838   4.670   1.410   4.210
  980SOL    HW1 3839   4.608   1.486   4.189
  980SOL    HW2 3840   4.666   1.342   4.137
  981SOL     OW 3841   0.756   5.982   5.638
  981SOL    HW1 3842   0.850   6.014   5.633
  981SOL    HW2 3843   0.717   6.006   5.727
  982SOL     OW 3844   0.156   0.873   6.982
  982SOL    HW1 3845   0.224   0.822   0.013
  982SOL    HW2 3846   0.202   0.922   6.907
  983SOL     OW 3847   0.305   3.670   2.981
  983SOL    HW1 3848   0.334   3.574   2.971
  983SOL    HW2 3849   0.355   3.711   3.058
  984SOL     OW 3850   0.134   3.394   3.950
  984SOL    HW1 3851   0.041   3.364   3.967
  984SOL    HW2 3852   0.133   3.480   3.899
  985SOL     OW 3853   5.512   5.722   4.911
  985SOL    HW1 3854   5.511   5.677   4.821
  985SOL    HW2 3855   5.418   5.728   4.945
  986SOL     OW 3856   3.987   5.666   1.857
  986SOL    HW1 3857   3.912   5.684   1.793
  986SOL    HW2 3858   4.054   5.740   1.853
  987SOL     OW 3859   4.607   4.510   4.580
  987SOL    HW1 3860   4.651   4.562   4.507
  987SOL    HW2 3861   4.614   4.412   4.560
  988SOL     OW 3862   3.070   4.798   2.061
  988SOL    HW1 3863   3.153   4.778   2.008
  988SOL    HW2 3864   3.000   4.731   2.039
  989SOL     OW 3865   0.106   2.583   1.169
  989SOL    HW1 3866   0.153   2.521   1.108
  989SOL    HW2 3867   0.173   2.632   1.226
  990SOL     OW 3868   3.673   0.117   5.008
  990SOL    HW1 3869   3.691   0.204   4.963
  990SOL    HW2 3870   3.684   0.127   5.107
  991SOL     OW 3871   1.069   5.891   4.054
  991SOL    HW1 3872   1.147   5.925   4.001
  991SOL    HW2 3873   1.093   5.805   4.098
  992SOL     OW 3874   6.605   2.892   0.252
  992SOL    HW1 3875   6.550   2.972   0.274
  992SOL    HW2 3876   6.661   2.868   0.331
  993SOL     OW 3877   1.690   5.206   6.523
  993SOL    HW1 3878   1.620   5.143   6.491
  993SOL    HW2 3879   1.781   5.168   6.506
  994SOL     OW 3880   2.520   7.012   1.447
  994SOL    HW1 3881   2.611   0.018   1.415
  994SOL    HW2 3882   2.465   0.070   1.468
  995SOL     OW 3883   6.019   4.025   5.630
  995SOL    HW1 3884   5.949   4.087   5.594
  995SOL    HW2 3885   6.032   3.949   5.566
  996SOL     OW 3886   4.171   6.498   5.273
  996SOL    HW1 3887   4.229   6.491   5.354
  996SOL    HW2 3888   4.172   6.593   5.239
  997SOL     OW 3889   1.201   6.383   3.533
  997SOL    HW1 3890   1.263   6.361   3.609
  997SOL    HW2 3891   1.184   6.300   3.480
  998SOL     OW 3892   4.670   6.953   0.471
  998SOL    HW1 3893   4.762   6.973   0.436
  998SOL    HW2 3894   4.643   0.002   0.535
  999SOL     OW 3895   5.562   2.936   2.251
  999SOL    HW1 3896   5.641   2.905   2.198
  999SOL    HW2 3897   5.494   2.862   2.257
 1000SOL     OW 3898   5.675   1.770   2.159
 1000SOL    HW1 3899   5.759   1.716   2.170
 1000SOL    HW2 3900   5.695   1.866   2.176
 1001SOL     OW 3901   2.820   6.472   3.083
 1001SOL    HW1 3902   2.919   6.456   3.088
 1001SOL    HW2 3903   2.788   6.511   3.169
 1002SOL     OW 3904   3.851   2.338   0.572
 1002SOL    HW1 3905   3.774   2.283   0.538
 1002SOL    HW2 3906   3.937   2.299   0.539
 1003SOL     OW 3907   0.436   0.958   3.873
 1003SOL    HW1 3908   0.434   0.888   3.801
 1003SOL    HW2 3909   0.342   0.978   3.902
 1004SOL     OW 3910   5.268   1.707   4.423
 1004SOL    HW1 3911   5.208   1.669   4.493
 1004SOL    HW2 3912   5.223   1.786   4.381
 1005SOL     OW 3913   0.945   5.312   1.334
 1005SOL    HW1 3914   0.892   5.278   1.412
 1005SOL    HW2 3915   0.972   5.236   1.276
 1006SOL     OW 3916   1.792   4.467   1.544
 1006SOL    HW1 3917   1.871   4.407   1.557
 1006SOL    HW2 3918   1.735   4.431   1.470
 1007SOL     OW 3919   4.662   1.078   6.354
 1007SOL    HW1 3920   4.627   1.039   6.269
 1007SOL    HW2 3921   4.658   1.178   6.350
 1008SOL     OW 3922   0.187   4.832   4.912
 1008SOL    HW1 3923   0.104   4.823   4.858
 1008SOL    HW2 3924   0.257   4.770   4.876
 1009SOL     OW 3925   6.368   6.151   6.664
 1009SOL    HW1 3926   6.352   6.131   6.761
 1009SOL    HW2 3927   6.290   6.201   6.627
 1010SOL     OW 3928   2.694   3.678   0.498
 1010SOL    HW1 3929   2.781   3.727   0.504
 1010SOL    HW2 3930   2.655   3.670   0.589
 1011SOL     OW 3931   0.081   5.040   2.315
 1011SOL    HW1 3932   0.031   5.122   2.341
 1011SOL    HW2 3933   0.178   5.061   2.306
 1012SOL     OW 3934   5.528   6.281   2.768
 1012SOL    HW1 3935   5.580   6.266   2.853
 1012SOL    HW2 3936   5.589   6.315   2.697
 1013SOL     OW 3937   0.880   1.035   6.049
 1013SOL    HW1 3938   0.963   1.082   6.018
 1013SOL    HW2 3939   0.836   1.089   6.121
 1014SOL     OW 3940   0.626   4.651   4.433
 1014SOL    HW1 3941   0.668   4.667   4.343
 1014SOL    HW2 3942   0.569   4.730   4.457
 1015SOL     OW 3943   3.191   6.356   0.170
 1015SOL    HW1 3944   3.154   6.273   0.212
 1015SOL    HW2 3945   3.118   6.423   0.157
 1016SOL     OW 3946   6.866   4.784   0.639
 1016SOL    HW1 3947   6.807   4.864   0.636
 1016SOL    HW2 3948   6.962   4.813   0.633
 1017SOL     OW 3949   2.037   1.236   2.294
 1017SOL    HW1 3950   2.120   1.181   2.285
 1017SOL    HW2 3951   2.003   1.229   2.388
 1018SOL     OW 3952   5.886   6.305   5.066
 1018SOL    HW1 3953   5.787   6.320   5.066
 1018SOL    HW2 3954   5.927   6.352   4.988
 1019SOL     OW 3955   6.234   4.144   1.146
 1019SOL    HW1 3956   6.226   4.180   1.238
 1019SOL    HW2 3957   6.270   4.051   1.149
 1020SOL     OW 3958   5.287   1.409   1.272
 1020SOL    HW1 3959   5.294   1.462   1.357
 1020SOL    HW2 3960   5.303   1.312   1.292
 1021SOL     OW 3961   1.559   6.608   0.701
 1021SOL    HW1 3962   1.500   6.686   0.719
 1021SOL    HW2 3963   1.581   6.562   0.787
 1022SOL     OW 3964   1.978   5.124   6.462
 1022SOL    HW1 3965   1.991   5.061   6.386
 1022SOL    HW2 3966   2.019   5.085   6.545
 1023SOL     OW 3967   1.114   1.324   2.296
 1023SOL    HW1 3968   1.072   1.376   2.222
 1023SOL    HW2 3969   1.169   1.250   2.258
 1024SOL     OW 3970   1.895   2.365   4.647
 1024SOL    HW1 3971   1.881   2.365   4.746
 1024SOL    HW2 3972   1.993   2.373   4.627
 1025SOL     OW 3973   4.551   4.223   1.477
 1025SOL    HW1 3974   4.563   4.315   1.440
 1025SOL    HW2 3975   4.561   4.156   1.403
 1026SOL     OW 3976   3.366   2.964   2.145
 1026SOL    HW1 3977   3.271   2.972   2.176
 1026SOL    HW2 3978   3.419   2.913   2.214
 1027SOL     OW 3979   6.503   6.988   0.315
 1027SOL    HW1 3980   6.414   7.020   0.285
 1027SOL    HW2 3981   6.536   0.022   0.391
 1028SOL     OW 3982   0.955   4.823   3.137
 1028SOL    HW1 3983   0.982   4.918   3.125
 1028SOL    HW2 3984   1.022   4.776   3.194
 1029SOL     OW 3985   0.452   0.768   5.029
 1029SOL    HW1 3986   0.352   0.771   5.023
 1029SOL    HW2 3987   0.481   0.808   5.116
 1030SOL     OW 3988   4.147   3.673   0.889
 1030SOL    HW1 3989   4.154   3.767   0.924
 1030SOL    HW2 3990   4.238   3.633   0.881
 1031SOL     OW 3991   3.997   2.940   0.571
 1031SOL    HW1 3992   3.927   2.871   0.551
 1031SOL    HW2 3993   4.074   2.897   0.617
 1032SOL     OW 3994   1.684   1.332   1.098
 1032SOL    HW1 3995   1.745   1.391   1.047
 1032SOL    HW2 3996   1.646   1.262   1.037
 1033SOL     OW 3997   6.747   6.990   2.038
 1033SOL    HW1 3998   6.843   7.012   2.022
 1033SOL    HW2 3999   6.691   0.011   1.967
 1034SOL     OW 4000   2.782   0.802   4.985
 1034SOL    HW1 4001   2.703   0.831   4.932
 1034SOL    HW2 4002   2.775   0.839   5.078
 1035SOL     OW 4003   1.658   0.307   0.205
 1035SOL    HW1 4004   1.690   0.402   0.207
 1035SOL    HW2 4005   1.564   0.304   0.171
 1036SOL     OW 4006   4.966   1.316   2.386
 1036SOL    HW1 4007   4.918   1.231   2.365
 1036SOL    HW2 4008   5.008   1.352   2.303
 1037SOL     OW 4009   1.696   3.724   3.021
 1037SOL    HW1 4010   1.730   3.759   2.933
 1037SOL    HW2 4011   1.617   3.779   3.050
 1038SOL     OW 4012   2.086   6.020   0.467
 1038SOL    HW1 4013   2.103   5.923   0.446
 1038SOL    HW2 4014   2.166   6.074   0.443
 1039SOL     OW 4015   3.056   3.652   2.934
 1039SOL    HW1 4016   3.033   3.572   2.991
 1039SOL    HW2 4017   3.150   3.680   2.952
 1040SOL     OW 4018   3.565   1.240   2.834
 1040SOL    HW1 4019   3.557   1.338   2.814
 1040SOL    HW2 4020   3.537   1.222   2.928
 1041SOL     OW 4021   6.640   6.554   6.562
 1041SOL    HW1 4022   6.626   6.644   6.603
 1041SOL    HW2 4023   6.721   6.557   6.502
 1042SOL     OW 4024   5.498   3.649   4.153
 1042SOL    HW1 4025   5.593   3.644   4.185
 1042SOL    HW2 4026   5.494   3.620   4.057
 1043SOL     OW 4027   2.499   1.960   3.888
 1043SOL    HW1 4028   2.469   1.926   3.799
 1043SOL    HW2 4029   2.518   2.058   3.881
 1044SOL     OW 4030   5.959   4.514   2.197
 1044SOL    HW1 4031   6.047   4.502   2.243
 1044SOL    HW2 4032   5.968   4.490   2.101
 1045SOL     OW 4033   2.337   0.644   2.733
 1045SOL    HW1 4034   2.280   0.598   2.666
 1045SOL    HW2 4035   2.284   0.713   2.782
 1046SOL     OW 4036   2.987   2.677   0.879
 1046SOL    HW1 4037   3.079   2.640   0.889
 1046SOL    HW2 4038   2.923   2.623   0.934
 1047SOL     OW 4039   3.619   0.887   3.344
 1047SOL    HW1 4040   3.589   0.792   3.339
 1047SOL    HW2 4041   3.557   0.944   3.291
 1048SOL     OW 4042   0.801   7.010   2.024
 1048SOL    HW1 4043   0.794   6.973   1.932
 1048SOL    HW2 4044   0.760   0.078   2.027
 1049SOL     OW 4045   3.377   6.866   0.636
 1049SOL    HW1 4046   3.342   6.944   0.687
 1049SOL    HW2 4047   3.366   6.783   0.691
 1050SOL     OW 4048   2.283   1.445   4.312
 1050SOL    HW1 4049   2.217   1.371   4.300
 1050SOL    HW2 4050   2.234   1.531   4.327
 1051SOL     OW 4051   1.795   2.047   5.466
 1051SOL    HW1 4052   1.709   2.077   5.509
 1051SOL    HW2 4053   1.841   1.981   5.526
 1052SOL     OW 4054   4.199   1.922   6.617
 1052SOL    HW1 4055   4.280   1.967   6.580
 1052SOL    HW2 4056   4.120   1.982   6.604
 1053SOL     OW 4057   5.151   2.832   3.908
 1053SOL    HW1 4058   5.197   2.743   3.914
 1053SOL    HW2 4059   5.178   2.877   3.823
 1054SOL     OW 4060   4.871   5.409   6.452
 1054SOL    HW1 4061   4.895   5.393   6.357
 1054SOL    HW2 4062   4.776   5.380   6.468
 1055SOL     OW 4063   5.565   5.624   6.320
 1055SOL    HW1 4064   5.472   5.618   6.356
 1055SOL    HW2 4065   5.617   5.694   6.369
 1056SOL     OW 4066   3.881   4.021   0.529
 1056SOL    HW1 4067   3.890   4.097   0.465
 1056SOL    HW2 4068   3.853   3.939   0.480
 1057SOL     OW 4069   3.232   3.497   6.486
 1057SOL    HW1 4070   3.164   3.549   6.537
 1057SOL    HW2 4071   3.228   3.523   6.389
 1058SOL     OW 4072   3.016   2.093   2.027
 1058SOL    HW1 4073   2.970   2.179   2.004
 1058SOL    HW2 4074   3.100   2.085   1.973
 1059SOL     OW 4075   2.218   6.161   2.259
 1059SOL    HW1 4076   2.278   6.089   2.226
 1059SOL    HW2 4077   2.217   6.237   2.194
 1060SOL     OW 4078   6.266   0.406   5.734
 1060SOL    HW1 4079   6.242   0.487   5.788
 1060SOL    HW2 4080   6.226   0.325   5.776
 1061SOL     OW 4081   6.977   3.870   6.423
 1061SOL    HW1 4082   6.880   3.868   6.448
 1061SOL    HW2 4083   0.010   3.850   6.503
 1062SOL     OW 4084   3.051   4.912   5.752
 1062SOL    HW1 4085   3.021   4.996   5.705
 1062SOL    HW2 4086   3.117   4.936   5.823
 1063SOL     OW 4087   2.785   6.284   3.997
 1063SOL    HW1 4088   2.782   6.276   3.898
 1063SOL    HW2 4089   2.693   6.304   4.032
 1064SOL     OW 4090   1.058   3.859   0.714
 1064SOL    HW1 4091   1.038   3.762   0.728
 1064SOL    HW2 4092   1.106   3.895   0.793
 1065SOL     OW 4093   6.149   1.102   4.938
 1065SOL    HW1 4094   6.121   1.016   4.895
 1065SOL    HW2 4095   6.243   1.093   4.972
 1066SOL     OW 4096   4.766   6.179   1.042
 1066SOL    HW1 4097   4.799   6.207   0.952
 1066SOL    HW2 4098   4.712   6.095   1.033
 1067SOL     OW 4099   3.182   1.225   7.014
 1067SOL    HW1 4100   3.160   1.209   6.917
 1067SOL    HW2 4101   3.250   1.158   0.022
 1068SOL     OW 4102   6.006   2.885   1.708
 1068SOL    HW1 4103   6.036   2.930   1.624
 1068SOL    HW2 4104   5.906   2.877   1.708
 1069SOL     OW 4105   0.047   2.588   2.786
 1069SOL    HW1 4106   7.014   2.602   2.704
 1069SOL    HW2 4107   7.010   2.568   2.863
 1070SOL     OW 4108   0.479   0.810   2.271
 1070SOL    HW1 4109   0.420   0.759   2.334
 1070SOL    HW2 4110   0.560   0.843   2.321
 1071SOL     OW 4111   0.738   2.920   6.313
 1071SOL    HW1 4112   0.692   2.982   6.250
 1071SOL    HW2 4113   0.795   2.974   6.376
 1072SOL     OW 4114   2.184   1.318   2.023
 1072SOL    HW1 4115   2.252   1.329   1.951
 1072SOL    HW2 4116   2.220   1.256   2.093
 1073SOL     OW 4117   5.633   2.103   3.032
 1073SOL    HW1 4118   5.549   2.056   3.057
 1073SOL    HW2 4119   5.708   2.038   3.027
 1074SOL     OW 4120   3.189   5.549   1.669
 1074SOL    HW1 4121   3.208   5.492   1.590
 1074SOL    HW2 4122   3.275   5.587   1.704
 1075SOL     OW 4123   6.272   3.858   4.728
 1075SOL    HW1 4124   6.288   3.761   4.745
 1075SOL    HW2 4125   6.301   3.880   4.635
 1076SOL     OW 4126   2.200   4.171   5.239
 1076SOL    HW1 4127   2.262   4.099   5.210
 1076SOL    HW2 4128   2.118   4.169   5.182
 1077SOL     OW 4129   6.668   6.322   0.397
 1077SOL    HW1 4130   6.758   6.358   0.371
 1077SOL    HW2 4131   6.659   6.324   0.497
 1078SOL     OW 4132   5.659   6.648   4.415
 1078SOL    HW1 4133   5.591   6.709   4.373
 1078SOL    HW2 4134   5.702   6.592   4.344
 1079SOL     OW 4135   1.010   6.659   1.154
 1079SOL    HW1 4136   0.957   6.706   1.084
 1079SOL    HW2 4137   1.090   6.616   1.113
 1080SOL     OW 4138   4.662   5.762   0.685
 1080SOL    HW1 4139   4.615   5.826   0.624
 1080SOL    HW2 4140   4.625   5.670   0.671
 1081SOL     OW 4141   0.079   6.610   3.344
 1081SOL    HW1 4142   0.097   6.707   3.328
 1081SOL    HW2 4143   7.003   6.595   3.353
 1082SOL     OW 4144   4.631   6.881   7.002
 1082SOL    HW1 4145   4.588   6.952   0.036
 1082SOL    HW2 4146   4.727   6.904   6.988
 1083SOL     OW 4147   5.780   4.138   2.326
 1083SOL    HW1 4148   5.736   4.192   2.254
 1083SOL    HW2 4149   5.739   4.161   2.414
 1084SOL     OW 4150   4.670   0.699   5.200
 1084SOL    HW1 4151   4.671   0.623   5.265
 1084SOL    HW2 4152   4.684   0.785   5.249
 1085SOL     OW 4153   1.445   3.234   5.009
 1085SOL    HW1 4154   1.426   3.288   4.927
 1085SOL    HW2 4155   1.402   3.277   5.088
 1086SOL     OW 4156   5.838   4.979   1.873
 1086SOL    HW1 4157   5.786   5.058   1.904
 1086SOL    HW2 4158   5.784   4.896   1.885
 1087SOL     OW 4159   3.810   0.198   5.896
 1087SOL    HW1 4160   3.860   0.252   5.964
 1087SOL    HW2 4161   3.868   0.124   5.863
 1088SOL     OW 4162   6.772   5.155   4.654
 1088SOL    HW1 4163   6.814   5.134   4.742
 1088SOL    HW2 4164   6.819   5.105   4.581
 1089SOL     OW 4165   5.876   5.225   4.430
 1089SOL    HW1 4166   5.919   5.183   4.350
 1089SOL    HW2 4167   5.929   5.204   4.512
 1090SOL     OW 4168   5.681   2.545   5.048
 1090SOL    HW1 4169   5.686   2.612   4.974
 1090SOL    HW2 4170   5.611   2.573   5.114
 1091SOL     OW 4171   2.003   3.681   2.976
 1091SOL    HW1 4172   2.040   3.612   2.914
 1091SOL    HW2 4173   1.956   3.635   3.052
 1092SOL     OW 4174   0.937   6.467   0.576
 1092SOL    HW1 4175   1.002   6.421   0.515
 1092SOL    HW2 4176   0.955   6.441   0.671
 1093SOL     OW 4177   1.214   0.859   3.014
 1093SOL    HW1 4178   1.312   0.873   2.999
 1093SOL    HW2 4179   1.196   0.852   3.112
 1094SOL     OW 4180   0.403   6.923   3.042
 1094SOL    HW1 4181   0.439   6.832   3.021
 1094SOL    HW2 4182   0.473   6.991   3.020
 1095SOL     OW 4183   6.158   3.959   0.730
 1095SOL    HW1 4184   6.110   3.991   0.648
 1095SOL    HW2 4185   6.235   3.901   0.703
 1096SOL     OW 4186   2.356   5.953   2.173
 1096SOL    HW1 4187   2.383   5.949   2.077
 1096SOL    HW2 4188   2.432   5.925   2.231
 1097SOL     OW 4189   2.833   5.892   4.677
 1097SOL    HW1 4190   2.785   5.942   4.749
 1097SOL    HW2 4191   2.788   5.909   4.589
 1098SOL     OW 4192   6.863   4.105   0.153
 1098SOL    HW1 4193   6.827   4.199   0.159
 1098SOL    HW2 4194   6.892   4.088   0.058
 1099SOL     OW 4195   5.485   0.508   6.139
 1099SOL    HW1 4196   5.516   0.541   6.228
 1099SOL    HW2 4197   5.428   0.427   6.151
 1100SOL     OW 4198   4.777   1.613   4.636
 1100SOL    HW1 4199   4.788   1.547   4.710
 1100SOL    HW2 4200   4.680   1.627   4.619
 1101SOL     OW 4201   4.862   2.669   6.532
 1101SOL    HW1 4202   4.927   2.602   6.567
 1101SOL    HW2 4203   4.774   2.659   6.578
 1102SOL     OW 4204   2.890   0.676   4.081
 1102SOL    HW1 4205   2.907   0.706   3.987
 1102SOL    HW2 4206   2.855   0.754   4.135
 1103SOL     OW 4207   3.258   5.708   1.164
 1103SOL    HW1 4208   3.356   5.722   1.177
 1103SOL    HW2 4209   3.243   5.633   1.099
 1104SOL     OW 4210   6.839   1.667   3.991
 1104SOL    HW1 4211   6.937   1.668   4.013
 1104SOL    HW2 4212   6.803   1.760   3.995
 1105SOL     OW 4213   4.761   0.681   6.391
 1105SOL    HW1 4214   4.794   0.666   6.298
 1105SOL    HW2 4215   4.836   0.672   6.456
 1106SOL     OW 4216   6.104   1.782   1.652
 1106SOL    HW1 4217   6.087   1.783   1.750
 1106SOL    HW2 4218   6.018   1.794   1.603
 1107SOL     OW 4219   1.315   1.980   0.380
 1107SOL    HW1 4220   1.338   1.957   0.286
 1107SOL    HW2 4221   1.302   1.896   0.432
 1108SOL     OW 4222   2.495   1.450   3.557
 1108SOL    HW1 4223   2.556   1.507   3.502
 1108SOL    HW2 4224   2.414   1.427   3.503
 1109SOL     OW 4225   5.174   2.003   5.221
 1109SOL    HW1 4226   5.152   2.094   5.185
 1109SOL    HW2 4227   5.253   1.966   5.171
 1110SOL     OW 4228   1.224   0.819   2.677
 1110SOL    HW1 4229   1.237   0.877   2.757
 1110SOL    HW2 4230   1.185   0.731   2.705
 1111SOL     OW 4231   5.732   2.942   6.061
 1111SOL    HW1 4232   5.745   2.843   6.061
 1111SOL    HW2 4233   5.791   2.983   5.992
 1112SOL     OW 4234   5.983   0.599   2.300
 1112SOL    HW1 4235   5.930   0.568   2.379
 1112SOL    HW2 4236   5.991   0.699   2.302
 1113SOL     OW 4237   6.417   2.735   3.026
 1113SOL    HW1 4238   6.450   2.825   2.998
 1113SOL    HW2 4239   6.488   2.667   3.008
 1114SOL     OW 4240   3.520   3.372   4.971
 1114SOL    HW1 4241   3.476   3.368   4.881
 1114SOL    HW2 4242   3.499   3.459   5.015
 1115SOL     OW 4243   1.884   5.090   5.937
 1115SOL    HW1 4244   1.879   5.117   5.841
 1115SOL    HW2 4245   1.811   5.025   5.957
 1116SOL     OW 4246   4.360   0.037   0.369
 1116SOL    HW1 4247   4.277   0.033   0.313
 1116SOL    HW2 4248   4.440   0.025   0.310
 1117SOL     OW 4249   1.985   2.373   1.659
 1117SOL    HW1 4250   2.050   2.431   1.608
 1117SOL    HW2 4251   1.897   2.419   1.664
 1118SOL     OW 4252   4.845   6.845   0.216
 1118SOL    HW1 4253   4.844   6.866   0.118
 1118SOL    HW2 4254   4.870   6.749   0.229
 1119SOL     OW 4255   2.748   5.277   3.934
 1119SOL    HW1 4256   2.820   5.306   3.870
 1119SOL    HW2 4257   2.751   5.177   3.943
 1120SOL     OW 4258   6.928   3.466   1.227
 1120SOL    HW1 4259   6.904   3.560   1.202
 1120SOL    HW2 4260   6.845   3.419   1.259
 1121SOL     OW 4261   6.008   4.657   5.607
 1121SOL    HW1 4262   5.950   4.713   5.548
 1121SOL    HW2 4263   6.007   4.693   5.700
 1122SOL     OW 4264   5.992   1.248   1.821
 1122SOL    HW1 4265   6.082   1.289   1.803
 1122SOL    HW2 4266   5.976   1.175   1.756
 1123SOL     OW 4267   4.209   1.623   4.606
 1123SOL    HW1 4268   4.181   1.648   4.699
 1123SOL    HW2 4269   4.128   1.612   4.549
 1124SOL     OW 4270   2.346   2.800   3.847
 1124SOL    HW1 4271   2.428   2.755   3.813
 1124SOL    HW2 4272   2.357   2.820   3.945
 1125SOL     OW 4273   1.308   3.321   3.585
 1125SOL    HW1 4274   1.271   3.266   3.660
 1125SOL    HW2 4275   1.376   3.385   3.620
 1126SOL     OW 4276   4.293   4.822   3.976
 1126SOL    HW1 4277   4.331   4.760   4.045
 1126SOL    HW2 4278   4.269   4.769   3.895
 1127SOL     OW 4279   6.254   6.834   1.100
 1127SOL    HW1 4280   6.351   6.821   1.077
 1127SOL    HW2 4281   6.197   6.779   1.040
 1128SOL     OW 4282   4.251   1.577   5.077
 1128SOL    HW1 4283   4.198   1.491   5.079
 1128SOL    HW2 4284   4.347   1.556   5.092
 1129SOL     OW 4285   1.233   0.869   0.108
 1129SOL    HW1 4286   1.299   0.863   0.183
 1129SOL    HW2 4287   1.220   0.965   0.084
 1130SOL     OW 4288   2.332   5.522   1.857
 1130SOL    HW1 4289   2.263   5.449   1.862
 1130SOL    HW2 4290   2.294   5.601   1.809
 1131SOL     OW 4291   1.518   5.236   3.776
 1131SOL    HW1 4292   1.477   5.230   3.685
 1131SOL    HW2 4293   1.606   5.282   3.770
 1132SOL     OW 4294   1.468   1.825   2.813
 1132SOL    HW1 4295   1.411   1.903   2.789
 1132SOL    HW2 4296   1.474   1.762   2.736
 1133SOL     OW 4297   1.172   6.398   6.526
 1133SOL    HW1 4298   1.271   6.407   6.538
 1133SOL    HW2 4299   1.142   6.457   6.451
 1134SOL     OW 4300   4.798   5.577   0.907
 1134SOL    HW1 4301   4.787   5.487   0.864
 1134SOL    HW2 4302   4.779   5.649   0.840
 1135SOL     OW 4303   1.705   0.356   3.122
 1135SOL    HW1 4304   1.632   0.424   3.119
 1135SOL    HW2 4305   1.788   0.394   3.083
 1136SOL     OW 4306   1.398   4.885   2.385
 1136SOL    HW1 4307   1.468   4.907   2.318
 1136SOL    HW2 4308   1.434   4.820   2.452
 1137SOL     OW 4309   0.647   5.374   4.291
 1137SOL    HW1 4310   0.621   5.462   4.331
 1137SOL    HW2 4311   0.678   5.312   4.364
 1138SOL     OW 4312   1.850   3.839   4.769
 1138SOL    HW1 4313   1.778   3.867   4.833
 1138SOL    HW2 4314   1.821   3.755   4.722
 1139SOL     OW 4315   2.702   5.737   5.225
 1139SOL    HW1 4316   2.633   5.691   5.280
 1139SOL    HW2 4317   2.666   5.756   5.134
 1140SOL     OW 4318   2.301   2.329   1.596
 1140SOL    HW1 4319   2.331   2.248   1.546
 1140SOL    HW2 4320   2.268   2.302   1.687
 1141SOL     OW 4321   6.119   5.144   5.343
 1141SOL    HW1 4322   6.122   5.047   5.365
 1141SOL    HW2 4323   6.167   5.195   5.414
 1142SOL     OW 4324   1.066   5.743   2.925
 1142SOL    HW1 4325   1.138   5.811   2.922
 1142SOL    HW2 4326   1.068   5.688   2.841
 1143SOL     OW 4327   6.955   4.330   1.534
 1143SOL    HW1 4328   6.929   4.265   1.605
 1143SOL    HW2 4329   6.930   4.422   1.563
 1144SOL     OW 4330   5.180   4.300   0.694
 1144SOL    HW1 4331   5.135   4.359   0.760
 1144SOL    HW2 4332   5.116   4.275   0.622
 1145SOL     OW 4333   6.280   0.397   0.768
 1145SOL    HW1 4334   6.234   0.484   0.782
 1145SOL    HW2 4335   6.217   0.332   0.725
 1146SOL     OW 4336   1.441   1.161   1.308
 1146SOL    HW1 4337   1.509   1.223   1.268
 1146SOL    HW2 4338   1.481   1.114   1.387
 1147SOL     OW 4339   2.029   6.474   1.191
 1147SOL    HW1 4340   2.055   6.417   1.112
 1147SOL    HW2 4341   1.995   6.415   1.264
 1148SOL     OW 4342   3.779   6.077   2.366
 1148SOL    HW1 4343   3.741   6.168   2.383
 1148SOL    HW2 4344   3.729   6.010   2.421
 1149SOL     OW 4345   5.235   2.275   1.630
 1149SOL    HW1 4346   5.262   2.347   1.694
 1149SOL    HW2 4347   5.135   2.269   1.626
 1150SOL     OW 4348   0.896   2.594   1.076
 1150SOL    HW1 4349   0.987   2.592   1.118
 1150SOL    HW2 4350   0.897   2.655   0.998
 1151SOL     OW 4351   5.451   5.234   4.182
 1151SOL    HW1 4352   5.505   5.185   4.114
 1151SOL    HW2 4353   5.511   5.280   4.246
 1152SOL     OW 4354   3.649   6.517   6.153
 1152SOL    HW1 4355   3.610   6.454   6.086
 1152SOL    HW2 4356   3.748   6.521   6.141
 1153SOL     OW 4357   5.592   6.565   1.337
 1153SOL    HW1 4358   5.657   6.589   1.409
 1153SOL    HW2 4359   5.516   6.513   1.376
 1154SOL     OW 4360   1.685   3.229   0.787
 1154SOL    HW1 4361   1.757   3.167   0.817
 1154SOL    HW2 4362   1.601   3.177   0.770
 1155SOL     OW 4363   3.589   5.855   3.463
 1155SOL    HW1 4364   3.662   5.907   3.419
 1155SOL    HW2 4365   3.600   5.859   3.562
 1156SOL     OW 4366   2.655   1.166   1.827
 1156SOL    HW1 4367   2.686   1.071   1.821
 1156SOL    HW2 4368   2.608   1.192   1.743
 1157SOL     OW 4369   2.620   2.129   0.417
 1157SOL    HW1 4370   2.694   2.070   0.383
 1157SOL    HW2 4371   2.619   2.126   0.517
 1158SOL     OW 4372   5.423   4.697   3.829
 1158SOL    HW1 4373   5.402   4.783   3.783
 1158SOL    HW2 4374   5.339   4.645   3.843
 1159SOL     OW 4375   5.936   4.729   0.677
 1159SOL    HW1 4376   5.893   4.652   0.724
 1159SOL    HW2 4377   5.961   4.700   0.584
 1160SOL     OW 4378   4.749   2.160   0.368
 1160SOL    HW1 4379   4.807   2.152   0.449
 1160SOL    HW2 4380   4.713   2.070   0.344
 1161SOL     OW 4381   6.581   5.254   0.791
 1161SOL    HW1 4382   6.539   5.284   0.877
 1161SOL    HW2 4383   6.592   5.154   0.792
 1162SOL     OW 4384   2.415   2.290   4.785
 1162SOL    HW1 4385   2.405   2.245   4.697
 1162SOL    HW2 4386   2.396   2.225   4.858
 1163SOL     OW 4387   5.593   2.171   1.996
 1163SOL    HW1 4388   5.570   2.163   1.899
 1163SOL    HW2 4389   5.673   2.114   2.016
 1164SOL     OW 4390   4.463   2.203   5.533
 1164SOL    HW1 4391   4.438   2.289   5.577
 1164SOL    HW2 4392   4.525   2.152   5.592
 1165SOL     OW 4393   4.625   0.075   3.462
 1165SOL    HW1 4394   4.606   7.000   3.465
 1165SOL    HW2 4395   4.569   0.122   3.531
 1166SOL     OW 4396   3.763   4.181   6.464
 1166SOL    HW1 4397   3.795   4.275   6.460
 1166SOL    HW2 4398   3.664   4.178   6.451
 1167SOL     OW 4399   4.863   4.571   2.927
 1167SOL    HW1 4400   4.875   4.652   2.985
 1167SOL    HW2 4401   4.883   4.489   2.980
 1168SOL     OW 4402   0.605   0.053   0.994
 1168SOL    HW1 4403   0.553   6.994   0.969
 1168SOL    HW2 4404   0.703   0.034   0.987
 1169SOL     OW 4405   4.669   1.724   5.414
 1169SOL    HW1 4406   4.635   1.799   5.357
 1169SOL    HW2 4407   4.648   1.636   5.371
 1170SOL     OW 4408   5.084   4.622   2.491
 1170SOL    HW1 4409   5.009   4.673   2.450
 1170SOL    HW2 4410   5.048   4.560   2.561
 1171SOL     OW 4411   0.623   6.310   0.700
 1171SOL    HW1 4412   0.529   6.288   0.672
 1171SOL    HW2 4413   0.630   6.305   0.799
 1172SOL     OW 4414   5.915   3.002   6.641
 1172SOL    HW1 4415   5.934   3.090   6.684
 1172SOL    HW2 4416   5.949   3.003   6.546
 1173SOL     OW 4417   4.031   2.570   0.928
 1173SOL    HW1 4418   4.024   2.670   0.933
 1173SOL    HW2 4419   3.945   2.532   0.896
 1174SOL     OW 4420   2.582   4.777   0.174
 1174SOL    HW1 4421   2.499   4.833   0.177
 1174SOL    HW2 4422   2.606   4.759   0.078
 1175SOL     OW 4423   3.204   4.081   4.091
 1175SOL    HW1 4424   3.153   4.122   4.015
 1175SOL    HW2 4425   3.302   4.088   4.072
 1176SOL     OW 4426   5.594   3.012   6.484
 1176SOL    HW1 4427   5.644   2.942   6.534
 1176SOL    HW2 4428   5.639   3.029   6.396
 1177SOL     OW 4429   1.151   2.186   5.141
 1177SOL    HW1 4430   1.181   2.164   5.233
 1177SOL    HW2 4431   1.183   2.115   5.077
 1178SOL     OW 4432   4.523   6.709   0.225
 1178SOL    HW1 4433   4.482   6.639   0.167
 1178SOL    HW2 4434   4.574   6.774   0.168
 1179SOL     OW 4435   0.131   5.944   0.613
 1179SOL    HW1 4436   0.122   5.939   0.514
 1179SOL    HW2 4437   0.169   5.859   0.648
 1180SOL     OW 4438   3.583   6.028   0.526
 1180SOL    HW1 4439   3.682   6.040   0.531
 1180SOL    HW2 4440   3.561   5.930   0.534
 1181SOL     OW 4441   6.521   6.293   6.466
 1181SOL    HW1 4442   6.490   6.219   6.525
 1181SOL    HW2 4443   6.550   6.371   6.522
 1182SOL     OW 4444   4.808   3.842   3.217
 1182SOL    HW1 4445   4.748   3.919   3.237
 1182SOL    HW2 4446   4.865   3.822   3.298
 1183SOL     OW 4447   1.768   4.571   6.852
 1183SOL    HW1 4448   1.824   4.603   6.927
 1183SOL    HW2 4449   1.686   4.527   6.888
 1184SOL     OW 4450   6.988   0.509   5.624
 1184SOL    HW1 4451   6.961   0.550   5.536
 1184SOL    HW2 4452   0.052   0.460   5.612
 1185SOL     OW 4453   6.288   1.588   6.826
 1185SOL    HW1 4454   6.365   1.649   6.806
 1185SOL    HW2 4455   6.203   1.640   6.828
 1186SOL     OW 4456   5.552   6.917   4.704
 1186SOL    HW1 4457   5.556   7.007   4.747
 1186SOL    HW2 4458   5.600   6.850   4.761
 1187SOL     OW 4459   6.565   1.939   6.298
 1187SOL    HW1 4460   6.653   1.943   6.347
 1187SOL    HW2 4461   6.517   1.855   6.325
 1188SOL     OW 4462   3.808   1.647   6.555
 1188SOL    HW1 4463   3.737   1.710   6.525
 1188SOL    HW2 4464   3.790   1.619   6.649
 1189SOL     OW 4465   5.649   3.243   3.459
 1189SOL    HW1 4466   5.642   3.310   3.533
 1189SOL    HW2 4467   5.659   3.151   3.497
 1190SOL     OW 4468   3.100   6.965   3.770
 1190SOL    HW1 4469   3.001   6.961   3.760
 1190SOL    HW2 4470   3.125   6.939   3.863
 1191SOL     OW 4471   3.607   6.604   2.819
 1191SOL    HW1 4472   3.535   6.671   2.803
 1191SOL    HW2 4473   3.570   6.524   2.866
 1192SOL     OW 4474   6.191   5.400   3.699
 1192SOL    HW1 4475   6.203   5.476   3.635
 1192SOL    HW2 4476   6.103   5.410   3.746
 1193SOL     OW 4477   6.552   5.891   4.426
 1193SOL    HW1 4478   6.591   5.983   4.432
 1193SOL    HW2 4479   6.535   5.869   4.330
 1194SOL     OW 4480   3.602   6.911   1.055
 1194SOL    HW1 4481   3.621   6.856   0.974
 1194SOL    HW2 4482   3.629   7.006   1.039
 1195SOL     OW 4483   5.079   2.485   3.015
 1195SOL    HW1 4484   5.173   2.451   3.013
 1195SOL    HW2 4485   5.078   2.580   3.045
 1196SOL     OW 4486   0.027   6.599   4.965
 1196SOL    HW1 4487   0.124   6.611   4.948
 1196SOL    HW2 4488   7.010   6.540   4.894
 1197SOL     OW 4489   1.823   5.929   0.464
 1197SOL    HW1 4490   1.913   5.968   0.445
 1197SOL    HW2 4491   1.752   5.994   0.436
 1198SOL     OW 4492   1.636   2.397   6.975
 1198SOL    HW1 4493   1.589   2.371   0.037
 1198SOL    HW2 4494   1.695   2.321   6.946
 1199SOL     OW 4495   6.191   3.881   2.125
 1199SOL    HW1 4496   6.276   3.867   2.175
 1199SOL    HW2 4497   6.117   3.900   2.189
 1200SOL     OW 4498   3.389   4.155   2.661
 1200SOL    HW1 4499   3.483   4.134   2.689
 1200SOL    HW2 4500   3.326   4.113   2.725
 1201SOL     OW 4501   1.159   2.253   4.822
 1201SOL    HW1 4502   1.206   2.249   4.734
 1201SOL    HW2 4503   1.127   2.162   4.847
 1202SOL     OW 4504   1.100   5.626   5.136
 1202SOL    HW1 4505   1.128   5.647   5.042
 1202SOL    HW2 4506   1.148   5.686   5.199
 1203SOL     OW 4507   3.920   6.223   5.421
 1203SOL    HW1 4508   3.924   6.135   5.468
 1203SOL    HW2 4509   3.973   6.290   5.472
 1204SOL     OW 4510   1.851   6.832   3.223
 1204SOL    HW1 4511   1.890   6.894   3.155
 1204SOL    HW2 4512   1.760   6.803   3.193
 1205SOL     OW 4513   5.722   3.807   2.072
 1205SOL    HW1 4514   5.696   3.743   2.000
 1205SOL    HW2 4515   5.744   3.757   2.156
 1206SOL     OW 4516   3.467   3.614   4.521
 1206SOL    HW1 4517   3.440   3.606   4.617
 1206SOL    HW2 4518   3.477   3.710   4.498
 1207SOL     OW 4519   1.367   5.953   2.727
 1207SOL    HW1 4520   1.276   5.992   2.719
 1207SOL    HW2 4521   1.418   6.000   2.799
 1208SOL     OW 4522   3.258   3.641   6.244
 1208SOL    HW1 4523   3.192   3.684   6.182
 1208SOL    HW2 4524   3.332   3.601   6.191
 1209SOL     OW 4525   3.939   6.330   5.162
 1209SOL    HW1 4526   3.935   6.290   5.253
 1209SOL    HW2 4527   3.846   6.347   5.129
 1210SOL     OW 4528   3.130   0.911   2.600
 1210SOL    HW1 4529   3.199   0.983   2.599
 1210SOL    HW2 4530   3.046   0.946   2.558
 1211SOL     OW 4531   0.945   2.793   0.421
 1211SOL    HW1 4532   0.985   2.821   0.333
 1211SOL    HW2 4533   0.902   2.703   0.411
 1212SOL     OW 4534   1.253   0.013   0.248
 1212SOL    HW1 4535   1.241   7.008   0.153
 1212SOL    HW2 4536   1.252   6.955   0.307
 1213SOL     OW 4537   5.548   3.151   1.448
 1213SOL    HW1 4538   5.544   3.248   1.421
 1213SOL    HW2 4539   5.477   3.133   1.515
 1214SOL     OW 4540   7.021   2.564   2.373
 1214SOL    HW1 4541   6.958   2.580   2.449
 1214SOL    HW2 4542   0.060   2.642   2.364
 1215SOL     OW 4543   2.250   5.956   2.900
 1215SOL    HW1 4544   2.210   6.007   2.824
 1215SOL    HW2 4545   2.188   5.959   2.978
 1216SOL     OW 4546   3.835   0.046   1.793
 1216SOL    HW1 4547   3.804   0.089   1.708
 1216SOL    HW2 4548   3.835   0.114   1.867
 1217SOL     OW 4549   2.880   4.160   6.655
 1217SOL    HW1 4550   2.968   4.190   6.618
 1217SOL    HW2 4551   2.822   4.130   6.580
 1218SOL     OW 4552   2.492   4.816   3.557
 1218SOL    HW1 4553   2.437   4.823   3.640
 1218SOL    HW2 4554   2.566   4.883   3.561
 1219SOL     OW 4555   3.976   6.126   1.906
 1219SOL    HW1 4556   3.937   6.095   1.820
 1219SOL    HW2 4557   4.017   6.217   1.893
 1220SOL     OW 4558   0.560   4.808   1.820
 1220SOL    HW1 4559   0.642   4.774   1.866
 1220SOL    HW2 4560   0.514   4.875   1.878
 1221SOL     OW 4561   4.303   4.596   6.585
 1221SOL    HW1 4562   4.215   4.583   6.631
 1221SOL    HW2 4563   4.347   4.508   6.571
 1222SOL     OW 4564   6.689   0.869   6.702
 1222SOL    HW1 4565   6.670   0.965   6.683
 1222SOL    HW2 4566   6.645   0.842   6.787
 1223SOL     OW 4567   3.659   6.487   1.304
 1223SOL    HW1 4568   3.571   6.443   1.289
 1223SOL    HW2 4569   3.699   6.455   1.390
 1224SOL     OW 4570   3.145   1.129   1.609
 1224SOL    HW1 4571   3.144   1.140   1.708
 1224SOL    HW2 4572   3.197   1.048   1.585
 1225SOL     OW 4573   3.135   3.721   5.903
 1225SOL    HW1 4574   3.217   3.767   5.868
 1225SOL    HW2 4575   3.098   3.661   5.833
 1226SOL     OW 4576   2.240   5.071   0.415
 1226SOL    HW1 4577   2.141   5.059   0.413
 1226SOL    HW2 4578   2.262   5.162   0.450
 1227SOL     OW 4579   1.024   4.051   5.831
 1227SOL    HW1 4580   0.963   3.998   5.772
 1227SOL    HW2 4581   1.104   3.996   5.855
 1228SOL     OW 4582   4.044   2.075   0.193
 1228SOL    HW1 4583   4.128   2.127   0.207
 1228SOL    HW2 4584   4.027   2.062   0.096
 1229SOL     OW 4585   3.017   4.046   6.219
 1229SOL    HW1 4586   3.075   4.119   6.181
 1229SOL    HW2 4587   3.066   3.999   6.292
 1230SOL     OW 4588   4.507   0.519   3.916
 1230SOL    HW1 4589   4.467   0.436   3.956
 1230SOL    HW2 4590   4.506   0.511   3.816
 1231SOL     OW 4591   0.692   3.487   4.048
 1231SOL    HW1 4592   0.678   3.515   3.953
 1231SOL    HW2 4593   0.719   3.567   4.102
 1232SOL     OW 4594   2.238   2.847   2.883
 1232SOL    HW1 4595   2.244   2.897   2.796
 1232SOL    HW2 4596   2.160   2.880   2.935
 1233SOL     OW 4597   0.814   2.406   4.233
 1233SOL    HW1 4598   0.903   2.403   4.278
 1233SOL    HW2 4599   0.758   2.478   4.275
 1234SOL     OW 4600   6.332   4.511   4.198
 1234SOL    HW1 4601   6.356   4.608   4.192
 1234SOL    HW2 4602   6.248   4.494   4.146
 1235SOL     OW 4603   6.724   5.534   3.663
 1235SOL    HW1 4604   6.693   5.583   3.745
 1235SOL    HW2 4605   6.645   5.500   3.612
 1236SOL     OW 4606   5.466   0.966   6.430
 1236SOL    HW1 4607   5.453   0.875   6.391
 1236SOL    HW2 4608   5.377   1.012   6.437
 1237SOL     OW 4609   2.005   4.781   5.791
 1237SOL    HW1 4610   2.043   4.837   5.718
 1237SOL    HW2 4611   1.919   4.741   5.761
 1238SOL     OW 4612   1.864   1.565   0.705
 1238SOL    HW1 4613   1.944   1.541   0.651
 1238SOL    HW2 4614   1.788   1.586   0.643
 1239SOL     OW 4615   1.180   0.494   6.122
 1239SOL    HW1 4616   1.206   0.415   6.067
 1239SOL    HW2 4617   1.140   0.564   6.063
 1240SOL     OW 4618   4.911   5.490   1.155
 1240SOL    HW1 4619   4.897   5.548   1.075
 1240SOL    HW2 4620   4.863   5.530   1.234
 1241SOL     OW 4621   0.162   2.249   4.774
 1241SOL    HW1 4622   0.101   2.288   4.705
 1241SOL    HW2 4623   0.139   2.152   4.787
 1242SOL     OW 4624   2.070   2.053   6.404
 1242SOL    HW1 4625   1.979   2.012   6.394
 1242SOL    HW2 4626   2.074   2.138   6.351
 1243SOL     OW 4627   2.292   5.105   5.229
 1243SOL    HW1 4628   2.353   5.117   5.151
 1243SOL    HW2 4629   2.340   5.058   5.303
 1244SOL     OW 4630   0.466   2.123   2.828
 1244SOL    HW1 4631   0.462   2.214   2.787
 1244SOL    HW2 4632   0.394   2.114   2.897
 1245SOL     OW 4633   2.977   2.895   5.782
 1245SOL    HW1 4634   3.063   2.940   5.759
 1245SOL    HW2 4635   2.980   2.800   5.753
 1246SOL     OW 4636   1.350   6.493   1.041
 1246SOL    HW1 4637   1.434   6.452   1.005
 1246SOL    HW2 4638   1.321   6.444   1.123
 1247SOL     OW 4639   1.115   6.550   6.289
 1247SOL    HW1 4640   1.146   6.644   6.281
 1247SOL    HW2 4641   1.020   6.543   6.257
 1248SOL     OW 4642   2.422   6.822   3.799
 1248SOL    HW1 4643   2.419   6.758   3.722
 1248SOL    HW2 4644   2.470   6.780   3.876
 1249SOL     OW 4645   5.563   2.800   2.858
 1249SOL    HW1 4646   5.573   2.841   2.948
 1249SOL    HW2 4647   5.626   2.723   2.849
 1250SOL     OW 4648   0.057   3.658   4.445
 1250SOL    HW1 4649   0.041   3.561   4.463
 1250SOL    HW2 4650   6.997   3.710   4.469
 1251SOL     OW 4651   3.487   0.596   6.621
 1251SOL    HW1 4652   3.474   0.613   6.523
 1251SOL    HW2 4653   3.555   0.658   6.658
 1252SOL     OW 4654   3.193   4.113   0.097
 1252SOL    HW1 4655   3.236   4.040   0.150
 1252SOL    HW2 4656   3.190   4.086   0.000
 1253SOL     OW 4657   4.706   0.962   3.007
 1253SOL    HW1 4658   4.617   1.005   2.988
 1253SOL    HW2 4659   4.696   0.898   3.082
 1254SOL     OW 4660   5.434   1.191   3.551
 1254SOL    HW1 4661   5.501   1.127   3.513
 1254SOL    HW2 4662   5.397   1.247   3.477
 1255SOL     OW 4663   6.109   0.355   1.543
 1255SOL    HW1 4664   6.150   0.391   1.459
 1255SOL    HW2 4665   6.090   0.257   1.531
 1256SOL     OW 4666   4.847   2.411   3.983
 1256SOL    HW1 4667   4.795   2.416   3.898
 1256SOL    HW2 4668   4.850   2.316   4.015
 1257SOL     OW 4669   5.806   1.049   4.376
 1257SOL    HW1 4670   5.778   1.080   4.467
 1257SOL    HW2 4671   5.743   0.978   4.344
 1258SOL     OW 4672   6.834   5.484   3.321
 1258SOL    HW1 4673   6.922   5.506   3.364
 1258SOL    HW2 4674   6.805   5.392   3.350
 1259SOL     OW 4675   5.090   2.011   4.787
 1259SOL    HW1 4676   5.016   2.078   4.787
 1259SOL    HW2 4677   5.077   1.948   4.864
 1260SOL     OW 4678   0.592   1.688   5.059
 1260SOL    HW1 4679   0.666   1.667   5.123
 1260SOL    HW2 4680   0.599   1.784   5.032
 1261SOL     OW 4681   6.820   3.701   1.113
 1261SOL    HW1 4682   6.843   3.650   1.030
 1261SOL    HW2 4683   6.732   3.747   1.101
 1262SOL     OW 4684   4.936   6.236   2.394
 1262SOL    HW1 4685   4.842   6.262   2.413
 1262SOL    HW2 4686   4.972   6.291   2.318
 1263SOL     OW 4687   0.429   2.103   3.285
 1263SOL    HW1 4688   0.349   2.157   3.311
 1263SOL    HW2 4689   0.512   2.153   3.309
 1264SOL     OW 4690   0.719   2.553   5.268
 1264SOL    HW1 4691   0.805   2.603   5.275
 1264SOL    HW2 4692   0.685   2.534   5.360
 1265SOL     OW 4693   5.806   0.095   5.475
 1265SOL    HW1 4694   5.849   0.176   5.516
 1265SOL    HW2 4695   5.745   0.053   5.542
 1266SOL     OW 4696   3.025   1.419   4.982
 1266SOL    HW1 4697   3.007   1.451   5.075
 1266SOL    HW2 4698   3.005   1.321   4.976
 1267SOL     OW 4699   3.153   0.049   2.151
 1267SOL    HW1 4700   3.138   6.987   2.098
 1267SOL    HW2 4701   3.066   0.080   2.189
 1268SOL     OW 4702   4.092   2.236   5.267
 1268SOL    HW1 4703   4.073   2.180   5.347
 1268SOL    HW2 4704   4.082   2.333   5.290
 1269SOL     OW 4705   5.307   1.719   3.748
 1269SOL    HW1 4706   5.279   1.677   3.662
 1269SOL    HW2 4707   5.319   1.648   3.818
 1270SOL     OW 4708   6.335   5.438   2.955
 1270SOL    HW1 4709   6.298   5.350   2.983
 1270SOL    HW2 4710   6.300   5.510   3.016
 1271SOL     OW 4711   1.706   0.953   1.881
 1271SOL    HW1 4712   1.619   0.966   1.927
 1271SOL    HW2 4713   1.761   0.886   1.931
 1272SOL     OW 4714   6.140   2.822   0.753
 1272SOL    HW1 4715   6.117   2.842   0.657
 1272SOL    HW2 4716   6.056   2.806   0.804
 1273SOL     OW 4717   1.990   3.974   5.664
 1273SOL    HW1 4718   1.890   3.974   5.661
 1273SOL    HW2 4719   2.027   3.997   5.574
 1274SOL     OW 4720   0.209   4.015   3.961
 1274SOL    HW1 4721   0.244   3.976   3.876
 1274SOL    HW2 4722   0.227   4.113   3.962
 1275SOL     OW 4723   1.971   1.570   2.864
 1275SOL    HW1 4724   1.959   1.642   2.796
 1275SOL    HW2 4725   1.945   1.604   2.954
 1276SOL     OW 4726   5.548   4.434   3.791
 1276SOL    HW1 4727   5.532   4.504   3.861
 1276SOL    HW2 4728   5.552   4.478   3.701
 1277SOL     OW 4729   1.536   6.054   6.624
 1277SOL    HW1 4730   1.605   6.047   6.696
 1277SOL    HW2 4731   1.567   6.006   6.543
 1278SOL     OW 4732   0.413   5.702   2.718
 1278SOL    HW1 4733   0.348   5.777   2.706
 1278SOL    HW2 4734   0.377   5.639   2.787
 1279SOL     OW 4735   2.725   3.288   0.655
 1279SOL    HW1 4736   2.823   3.305   0.646
 1279SOL    HW2 4737   2.693   3.235   0.577
 1280SOL     OW 4738   2.510   2.577   3.901
 1280SOL    HW1 4739   2.441   2.556   3.971
 1280SOL    HW2 4740   2.599   2.544   3.931
 1281SOL     OW 4741   5.128   6.352   5.463
 1281SOL    HW1 4742   5.151   6.428   5.402
 1281SOL    HW2 4743   5.206   6.290   5.469
 1282SOL     OW 4744   0.621   2.971   1.309
 1282SOL    HW1 4745   0.525   2.995   1.325
 1282SOL    HW2 4746   0.628   2.923   1.222
 1283SOL     OW 4747   0.420   1.307   4.661
 1283SOL    HW1 4748   0.444   1.233   4.598
 1283SOL    HW2 4749   0.430   1.395   4.615
 1284SOL     OW 4750   3.752   2.020   1.792
 1284SOL    HW1 4751   3.720   2.091   1.855
 1284SOL    HW2 4752   3.793   2.063   1.712
 1285SOL     OW 4753   4.457   1.724   4.539
 1285SOL    HW1 4754   4.366   1.683   4.545
 1285SOL    HW2 4755   4.487   1.726   4.444
 1286SOL     OW 4756   4.795   1.098   2.299
 1286SOL    HW1 4757   4.763   1.155   2.224
 1286SOL    HW2 4758   4.758   1.006   2.289
 1287SOL     OW 4759   5.092   4.788   6.261
 1287SOL    HW1 4760   5.092   4.884   6.289
 1287SOL    HW2 4761   5.166   4.773   6.195
 1288SOL     OW 4762   4.607   4.261   6.799
 1288SOL    HW1 4763   4.684   4.292   6.744
 1288SOL    HW2 4764   4.638   4.194   6.866
 1289SOL     OW 4765   0.669   6.542   0.556
 1289SOL    HW1 4766   0.767   6.536   0.542
 1289SOL    HW2 4767   0.638   6.463   0.610
 1290SOL     OW 4768   1.411   6.731   5.030
 1290SOL    HW1 4769   1.496   6.771   5.064
 1290SOL    HW2 4770   1.334   6.787   5.061
 1291SOL     OW 4771   5.532   5.321   3.831
 1291SOL    HW1 4772   5.493   5.259   3.763
 1291SOL    HW2 4773   5.576   5.268   3.903
 1292SOL     OW 4774   0.442   6.554   2.791
 1292SOL    HW1 4775   0.368   6.597   2.741
 1292SOL    HW2 4776   0.530   6.592   2.762
 1293SOL     OW 4777   5.356   0.107   1.057
 1293SOL    HW1 4778   5.307   0.195   1.057
 1293SOL    HW2 4779   5.312   0.045   1.122
 1294SOL     OW 4780   2.222   4.501   5.321
 1294SOL    HW1 4781   2.171   4.434   5.374
 1294SOL    HW2 4782   2.192   4.498   5.225
 1295SOL     OW 4783   0.316   4.668   0.171
 1295SOL    HW1 4784   0.318   4.703   0.265
 1295SOL    HW2 4785   0.241   4.604   0.161
 1296SOL     OW 4786   4.585   0.477   5.693
 1296SOL    HW1 4787   4.666   0.503   5.746
 1296SOL    HW2 4788   4.520   0.554   5.693
 1297SOL     OW 4789   6.468   6.839   6.960
 1297SOL    HW1 4790   6.472   6.925   7.012
 1297SOL    HW2 4791   6.379   6.797   6.971
 1298SOL     OW 4792   5.302   0.461   3.117
 1298SOL    HW1 4793   5.228   0.416   3.067
 1298SOL    HW2 4794   5.272   0.483   3.210
 1299SOL     OW 4795   1.007   4.172   4.670
 1299SOL    HW1 4796   1.066   4.093   4.655
 1299SOL    HW2 4797   0.990   4.219   4.583
 1300SOL     OW 4798   1.554   5.494   0.094
 1300SOL    HW1 4799   1.521   5.581   0.130
 1300SOL    HW2 4800   1.479   5.444   0.052
 1301SOL     OW 4801   6.077   1.160   0.314
 1301SOL    HW1 4802   6.109   1.197   0.226
 1301SOL    HW2 4803   6.149   1.171   0.383
 1302SOL     OW 4804   6.932   6.949   5.009
 1302SOL    HW1 4805   6.971   6.903   4.929
 1302SOL    HW2 4806   6.987   6.930   5.090
 1303SOL     OW 4807   3.276   6.765   1.525
 1303SOL    HW1 4808   3.225   6.792   1.443
 1303SOL    HW2 4809   3.374   6.779   1.509
 1304SOL     OW 4810   0.039   0.352   0.341
 1304SOL    HW1 4811   0.072   0.433   0.390
 1304SOL    HW2 4812   0.087   0.343   0.254
 1305SOL     OW 4813   4.303   3.884   6.075
 1305SOL    HW1 4814   4.353   3.800   6.098
 1305SOL    HW2 4815   4.306   3.947   6.153
 1306SOL     OW 4816   2.973   6.129   4.433
 1306SOL    HW1 4817   3.025   6.070   4.495
 1306SOL    HW2 4818   2.974   6.090   4.341
 1307SOL     OW 4819   2.105   3.162   4.308
 1307SOL    HW1 4820   2.110   3.261   4.297
 1307SOL    HW2 4821   2.120   3.139   4.404
 1308SOL     OW 4822   6.735   3.578   6.269
 1308SOL    HW1 4823   6.682   3.539   6.344
 1308SOL    HW2 4824   6.678   3.587   6.188
 1309SOL     OW 4825   5.601   4.235   6.525
 1309SOL    HW1 4826   5.558   4.237   6.615
 1309SOL    HW2 4827   5.544   4.286   6.460
 1310SOL     OW 4828   2.077   3.134   3.329
 1310SOL    HW1 4829   2.016   3.212   3.346
 1310SOL    HW2 4830   2.171   3.159   3.352
 1311SOL     OW 4831   5.749   5.222   0.060
 1311SOL    HW1 4832   5.696   5.214   6.998
 1311SOL    HW2 4833   5.832   5.275   0.042
 1312SOL     OW 4834   2.665   1.611   6.626
 1312SOL    HW1 4835   2.620   1.539   6.680
 1312SOL    HW2 4836   2.763   1.593   6.621
 1313SOL     OW 4837   5.674   5.209   1.936
 1313SOL    HW1 4838   5.659   5.216   2.034
 1313SOL    HW2 4839   5.728   5.288   1.905
 1314SOL     OW 4840   1.975   1.108   3.771
 1314SOL    HW1 4841   1.957   1.030   3.831
 1314SOL    HW2 4842   1.970   1.192   3.825
 1315SOL     OW 4843   6.207   0.595   3.374
 1315SOL    HW1 4844   6.161   0.509   3.351
 1315SOL    HW2 4845   6.305   0.585   3.361
 1316SOL     OW 4846   5.302   7.011   6.303
 1316SOL    HW1 4847   5.306   6.995   6.401
 1316SOL    HW2 4848   5.234   6.949   6.262
 1317SOL     OW 4849   3.684   2.907   4.668
 1317SOL    HW1 4850   3.690   3.002   4.700
 1317SOL    HW2 4851   3.734   2.847   4.730
 1318SOL     OW 4852   1.681   1.553   6.354
 1318SOL    HW1 4853   1.676   1.606   6.439
 1318SOL    HW2 4854   1.607   1.486   6.352
 1319SOL     OW 4855   6.846   1.558   0.683
 1319SOL    HW1 4856   6.923   1.570   0.621
 1319SOL    HW2 4857   6.784   1.636   0.676
 1320SOL     OW 4858   2.837   3.105   6.165
 1320SOL    HW1 4859   2.893   3.030   6.201
 1320SOL    HW2 4860   2.826   3.094   6.067
 1321SOL     OW 4861   6.763   2.382   1.374
 1321SOL    HW1 4862   6.750   2.329   1.290
 1321SOL    HW2 4863   6.861   2.391   1.393
 1322SOL     OW 4864   2.494   2.735   6.962
 1322SOL    HW1 4865   2.523   2.802   6.893
 1322SOL    HW2 4866   2.567   2.720   0.005
 1323SOL     OW 4867   4.099   0.526   1.453
 1323SOL    HW1 4868   4.084   0.491   1.361
 1323SOL    HW2 4869   4.017   0.574   1.484
 1324SOL     OW 4870   2.478   4.180   5.820
 1324SOL    HW1 4871   2.394   4.126   5.829
 1324SOL    HW2 4872   2.536   4.138   5.750
 1325SOL     OW 4873   4.083   6.479   4.661
 1325SOL    HW1 4874   4.073   6.414   4.736
 1325SOL    HW2 4875   4.123   6.564   4.696
 1326SOL     OW 4876   4.827   1.424   4.847
 1326SOL    HW1 4877   4.889   1.355   4.809
 1326SOL    HW2 4878   4.859   1.449   4.939
 1327SOL     OW 4879   5.057   5.766   2.407
 1327SOL    HW1 4880   5.011   5.854   2.410
 1327SOL    HW2 4881   5.063   5.729   2.500
 1328SOL     OW 4882   2.343   1.935   5.959
 1328SOL    HW1 4883   2.307   1.862   6.018
 1328SOL    HW2 4884   2.327   2.024   6.003
 1329SOL     OW 4885   1.496   3.056   3.751
 1329SOL    HW1 4886   1.491   3.112   3.834
 1329SOL    HW2 4887   1.486   3.114   3.670
 1330SOL     OW 4888   6.419   3.453   2.893
 1330SOL    HW1 4889   6.455   3.540   2.928
 1330SOL    HW2 4890   6.357   3.472   2.816
 1331SOL     OW 4891   4.320   2.142   3.300
 1331SOL    HW1 4892   4.283   2.093   3.221
 1331SOL    HW2 4893   4.389   2.207   3.270
 1332SOL     OW 4894   2.299   5.907   0.181
 1332SOL    HW1 4895   2.207   5.880   0.210
 1332SOL    HW2 4896   2.293   5.952   0.092
 1333SOL     OW 4897   3.495   3.404   2.798
 1333SOL    HW1 4898   3.474   3.316   2.754
 1333SOL    HW2 4899   3.417   3.466   2.787
 1334SOL     OW 4900   6.541   4.396   1.683
 1334SOL    HW1 4901   6.605   4.472   1.688
 1334SOL    HW2 4902   6.541   4.346   1.769
 1335SOL     OW 4903   0.167   3.336   3.263
 1335SOL    HW1 4904   0.172   3.280   3.345
 1335SOL    HW2 4905   0.148   3.278   3.184
 1336SOL     OW 4906   2.419   6.832   5.733
 1336SOL    HW1 4907   2.465   6.920   5.747
 1336SOL    HW2 4908   2.347   6.821   5.802
 1337SOL     OW 4909   0.364   0.029   1.874
 1337SOL    HW1 4910   0.310   6.992   1.815
 1337SOL    HW2 4911   0.308   0.105   1.906
 1338SOL     OW 4912   6.860   3.979   5.007
 1338SOL    HW1 4913   6.805   3.933   5.077
 1338SOL    HW2 4914   6.915   3.912   4.958
 1339SOL     OW 4915   5.432   1.286   6.923
 1339SOL    HW1 4916   5.481   1.246   7.000
 1339SOL    HW2 4917   5.489   1.283   6.841
 1340SOL     OW 4918   3.406   2.829   1.308
 1340SOL    HW1 4919   3.329   2.818   1.371
 1340SOL    HW2 4920   3.484   2.776   1.340
 1341SOL     OW 4921   5.487   5.699   6.050
 1341SOL    HW1 4922   5.415   5.658   5.994
 1341SOL    HW2 4923   5.497   5.647   6.135
 1342SOL     OW 4924   1.925   5.983   1.316
 1342SOL    HW1 4925   1.940   5.944   1.225
 1342SOL    HW2 4926   2.012   6.018   1.351
 1343SOL     OW 4927   5.010   6.131   2.662
 1343SOL    HW1 4928   4.985   6.216   2.616
 1343SOL    HW2 4929   5.110   6.124   2.666
 1344SOL     OW 4930   0.964   0.925   4.176
 1344SOL    HW1 4931   0.903   0.921   4.255
 1344SOL    HW2 4932   0.972   0.833   4.136
 1345SOL     OW 4933   1.645   6.716   5.810
 1345SOL    HW1 4934   1.626   6.657   5.732
 1345SOL    HW2 4935   1.685   6.802   5.777
 1346SOL     OW 4936   3.076   5.367   4.178
 1346SOL    HW1 4937   3.003   5.392   4.241
 1346SOL    HW2 4938   3.155   5.427   4.193
 1347SOL     OW 4939   1.641   0.668   6.418
 1347SOL    HW1 4940   1.630   0.576   6.456
 1347SOL    HW2 4941   1.566   0.726   6.448
 1348SOL     OW 4942   1.484   6.630   4.785
 1348SOL    HW1 4943   1.570   6.579   4.791
 1348SOL    HW2 4944   1.455   6.657   4.876
 1349SOL     OW 4945   5.454   3.844   4.337
 1349SOL    HW1 4946   5.427   3.766   4.281
 1349SOL    HW2 4947   5.374   3.902   4.354
 1350SOL     OW 4948   4.776   4.747   6.594
 1350SOL    HW1 4949   4.689   4.797   6.595
 1350SOL    HW2 4950   4.834   4.779   6.669
 1351SOL     OW 4951   0.129   2.406   6.296
 1351SOL    HW1 4952   0.031   2.406   6.273
 1351SOL    HW2 4953   0.181   2.437   6.216
 1352SOL     OW 4954   6.982   0.520   2.340
 1352SOL    HW1 4955   6.910   0.457   2.369
 1352SOL    HW2 4956   6.947   0.613   2.337
 1353SOL     OW 4957   6.322   1.922   6.762
 1353SOL    HW1 4958   6.304   2.019   6.751
 1353SOL    HW2 4959   6.407   1.909   6.814
 1354SOL     OW 4960   5.140   5.001   2.858
 1354SOL    HW1 4961   5.045   5.010   2.829
 1354SOL    HW2 4962   5.151   4.917   2.911
 1355SOL     OW 4963   4.179   3.571   5.241
 1355SOL    HW1 4964   4.155   3.474   5.244
 1355SOL    HW2 4965   4.272   3.582   5.206
 1356SOL     OW 4966   2.883   3.073   6.883
 1356SOL    HW1 4967   2.891   3.170   6.903
 1356SOL    HW2 4968   2.911   3.055   6.789
 1357SOL     OW 4969   0.992   3.045   5.446
 1357SOL    HW1 4970   1.056   3.119   5.426
 1357SOL    HW2 4971   1.042   2.966   5.481
 1358SOL     OW 4972   2.567   6.902   6.598
 1358SOL    HW1 4973   2.638   6.867   6.538
 1358SOL    HW2 4974   2.478   6.866   6.568
 1359SOL     OW 4975   6.327   4.641   0.194
 1359SOL    HW1 4976   6.324   4.740   0.185
 1359SOL    HW2 4977   6.345   4.617   0.290
 1360SOL     OW 4978   2.729   1.900   6.438
 1360SOL    HW1 4979   2.697   1.853   6.356
 1360SOL    HW2 4980   2.699   1.995   6.436
 1361SOL     OW 4981   6.545   5.414   5.308
 1361SOL    HW1 4982   6.623   5.363   5.273
 1361SOL    HW2 4983   6.490   5.447   5.231
 1362SOL     OW 4984   3.685   3.808   4.302
 1362SOL    HW1 4985   3.639   3.817   4.214
 1362SOL    HW2 4986   3.680   3.713   4.333
 1363SOL     OW 4987   0.648   6.372   3.415
 1363SOL    HW1 4988   0.562   6.363   3.365
 1363SOL    HW2 4989   0.708   6.296   3.392
 1364SOL     OW 4990   3.756   4.359   0.270
 1364SOL    HW1 4991   3.720   4.303   0.195
 1364SOL    HW2 4992   3.741   4.456   0.250
 1365SOL     OW 4993   6.052   2.376   6.296
 1365SOL    HW1 4994   5.971   2.362   6.353
 1365SOL    HW2 4995   6.025   2.391   6.201
 1366SOL     OW 4996   2.173   0.150   5.195
 1366SOL    HW1 4997   2.174   0.243   5.157
 1366SOL    HW2 4998   2.158   0.084   5.121
 1367SOL     OW 4999   2.683   1.769   2.661
 1367SOL    HW1 5000   2.779   1.775   2.636
 1367SOL    HW2 5001   2.627   1.818   2.594
 1368SOL     OW 5002   7.009   0.487   2.915
 1368SOL    HW1 5003   0.030   0.572   2.886
 1368SOL    HW2 5004   6.912   0.503   2.934
 1369SOL     OW 5005   0.222   0.329   2.362
 1369SOL    HW1 5006   0.159   0.401   2.333
 1369SOL    HW2 5007   0.305   0.333   2.306
 1370SOL     OW 5008   1.692   0.869   2.234
 1370SOL    HW1 5009   1.739   0.802   2.291
 1370SOL    HW2 5010   1.746   0.953   2.230
 1371SOL     OW 5011   3.222   0.171   6.527
 1371SOL    HW1 5012   3.236   0.112   6.447
 1371SOL    HW2 5013   3.188   0.116   6.603
 1372SOL     OW 5014   2.696   1.796   1.790
 1372SOL    HW1 5015   2.760   1.720   1.775
 1372SOL    HW2 5016   2.625   1.767   1.855
 1373SOL     OW 5017   1.969   5.858   6.911
 1373SOL    HW1 5018   2.016   5.770   6.914
 1373SOL    HW2 5019   1.946   5.887   7.004
 1374SOL     OW 5020   5.032   3.876   5.446
 1374SOL    HW1 5021   4.986   3.791   5.421
 1374SOL    HW2 5022   5.097   3.901   5.374
 1375SOL     OW 5023   0.881   3.874   4.349
 1375SOL    HW1 5024   0.977   3.869   4.323
 1375SOL    HW2 5025   0.858   3.969   4.371
 1376SOL     OW 5026   5.233   0.604   1.990
 1376SOL    HW1 5027   5.259   0.594   2.086
 1376SOL    HW2 5028   5.223   0.513   1.948
 1377SOL     OW 5029   0.705   4.383   4.881
 1377SOL    HW1 5030   0.718   4.345   4.790
 1377SOL    HW2 5031   0.684   4.480   4.874
 1378SOL     OW 5032   1.926   2.075   0.213
 1378SOL    HW1 5033   1.893   2.164   0.182
 1378SOL    HW2 5034   1.989   2.088   0.290
 1379SOL     OW 5035   4.200   5.836   1.878
 1379SOL    HW1 5036   4.270   5.902   1.904
 1379SOL    HW2 5037   4.165   5.859   1.787
 1380SOL     OW 5038   5.991   4.918   2.717
 1380SOL    HW1 5039   6.070   4.971   2.687
 1380SOL    HW2 5040   6.000   4.824   2.683
 1381SOL     OW 5041   4.799   0.042   2.322
 1381SOL    HW1 5042   4.712   0.084   2.298
 1381SOL    HW2 5043   4.798   0.017   2.419
 1382SOL     OW 5044   0.416   4.167   0.144
 1382SOL    HW1 5045   0.395   4.242   0.082
 1382SOL    HW2 5046   0.332   4.135   0.188
 1383SOL     OW 5047   2.643   0.183   0.928
 1383SOL    HW1 5048   2.686   0.180   0.837
 1383SOL    HW2 5049   2.604   0.274   0.943
 1384SOL     OW 5050   1.494   1.719   2.107
 1384SOL    HW1 5051   1.562   1.646   2.108
 1384SOL    HW2 5052   1.470   1.740   2.012
 1385SOL     OW 5053   4.925   3.689   4.076
 1385SOL    HW1 5054   4.913   3.592   4.056
 1385SOL    HW2 5055   5.008   3.702   4.129
 1386SOL     OW 5056   2.530   2.266   3.664
 1386SOL    HW1 5057   2.518   2.275   3.763
 1386SOL    HW2 5058   2.571   2.349   3.627
 1387SOL     OW 5059   3.371   0.864   3.544
 1387SOL    HW1 5060   3.469   0.869   3.564
 1387SOL    HW2 5061   3.320   0.896   3.624
 1388SOL     OW 5062   5.128   1.928   3.845
 1388SOL    HW1 5063   5.101   1.924   3.941
 1388SOL    HW2 5064   5.196   1.856   3.827
 1389SOL     OW 5065   7.002   0.378   3.654
 1389SOL    HW1 5066   0.015   0.361   3.746
 1389SOL    HW2 5067   0.054   0.373   3.588
 1390SOL     OW 5068   5.503   1.670   2.367
 1390SOL    HW1 5069   5.557   1.736   2.315
 1390SOL    HW2 5070   5.532   1.577   2.342
 1391SOL     OW 5071   5.695   1.055   5.140
 1391SOL    HW1 5072   5.607   1.101   5.148
 1391SOL    HW2 5073   5.697   1.001   5.055
 1392SOL     OW 5074   3.629   6.961   5.360
 1392SOL    HW1 5075   3.647   0.033   5.330
 1392SOL    HW2 5076   3.544   6.929   5.320
 1393SOL     OW 5077   5.248   0.744   6.855
 1393SOL    HW1 5078   5.170   0.681   6.856
 1393SOL    HW2 5079   5.234   0.816   6.923
 1394SOL     OW 5080   4.199   0.832   4.035
 1394SOL    HW1 5081   4.120   0.871   4.082
 1394SOL    HW2 5082   4.240   0.760   4.092
 1395SOL     OW 5083   0.714   5.012   2.599
 1395SOL    HW1 5084   0.679   4.938   2.541
 1395SOL    HW2 5085   0.638   5.055   2.648
 1396SOL     OW 5086   1.491   1.489   3.614
 1396SOL    HW1 5087   1.550   1.569   3.603
 1396SOL    HW2 5088   1.443   1.471   3.528
 1397SOL     OW 5089   2.427   4.625   5.551
 1397SOL    HW1 5090   2.504   4.597   5.609
 1397SOL    HW2 5091   2.391   4.546   5.502
 1398SOL     OW 5092   3.367   6.728   6.516
 1398SOL    HW1 5093   3.385   6.801   6.450
 1398SOL    HW2 5094   3.332   6.647   6.468
 1399SOL     OW 5095   4.043   0.285   0.097
 1399SOL    HW1 5096   4.091   0.368   0.127
 1399SOL    HW2 5097   4.089   0.205   0.136
 1400SOL     OW 5098   0.700   1.235   5.681
 1400SOL    HW1 5099   0.637   1.166   5.718
 1400SOL    HW2 5100   0.787   1.192   5.659
 1401SOL     OW 5101   4.959   0.125   2.124
 1401SOL    HW1 5102   4.884   0.181   2.090
 1401SOL    HW2 5103   4.928   0.073   2.204
 1402SOL     OW 5104   4.967   4.340   2.090
 1402SOL    HW1 5105   4.925   4.270   2.148
 1402SOL    HW2 5106   4.898   4.381   2.031
 1403SOL     OW 5107   3.122   3.221   6.958
 1403SOL    HW1 5108   3.175   3.220   6.873
 1403SOL    HW2 5109   3.164   3.159   0.002
 1404SOL     OW 5110   3.888   6.227   0.443
 1404SOL    HW1 5111   3.912   6.289   0.518
 1404SOL    HW2 5112   3.891   6.277   0.357
 1405SOL     OW 5113   0.940   3.845   6.668
 1405SOL    HW1 5114   0.841   3.858   6.675
 1405SOL    HW2 5115   0.986   3.905   6.734
 1406SOL     OW 5116   2.127   2.590   6.537
 1406SOL    HW1 5117   2.131   2.571   6.439
 1406SOL    HW2 5118   2.202   2.651   6.562
 1407SOL     OW 5119   6.765   2.524   2.101
 1407SOL    HW1 5120   6.701   2.521   2.024
 1407SOL    HW2 5121   6.858   2.528   2.066
 1408SOL     OW 5122   6.093   6.319   0.976
 1408SOL    HW1 5123   6.093   6.219   0.968
 1408SOL    HW2 5124   6.062   6.359   0.890
 1409SOL     OW 5125   5.773   1.786   5.829
 1409SOL    HW1 5126   5.704   1.756   5.895
 1409SOL    HW2 5127   5.864   1.770   5.866
 1410SOL     OW 5128   3.045   0.638   0.557
 1410SOL    HW1 5129   3.009   0.612   0.647
 1410SOL    HW2 5130   2.971   0.635   0.490
 1411SOL     OW 5131   3.562   6.592   0.376
 1411SOL    HW1 5132   3.500   6.541   0.435
 1411SOL    HW2 5133   3.564   6.550   0.285
 1412SOL     OW 5134   2.513   1.340   0.003
 1412SOL    HW1 5135   2.509   1.398   0.084
 1412SOL    HW2 5136   2.447   1.265   0.013
 1413SOL     OW 5137   2.428   1.348   5.253
 1413SOL    HW1 5138   2.467   1.336   5.162
 1413SOL    HW2 5139   2.463   1.433   5.294
 1414SOL     OW 5140   0.387   4.816   2.067
 1414SOL    HW1 5141   0.484   4.797   2.052
 1414SOL    HW2 5142   0.332   4.761   2.005
 1415SOL     OW 5143   3.711   1.906   5.150
 1415SOL    HW1 5144   3.619   1.919   5.112
 1415SOL    HW2 5145   3.707   1.843   5.227
 1416SOL     OW 5146   4.863   0.241   4.965
 1416SOL    HW1 5147   4.823   0.152   4.943
 1416SOL    HW2 5148   4.940   0.260   4.903
 1417SOL     OW 5149   3.806   3.583   4.453
 1417SOL    HW1 5150   3.902   3.557   4.446
 1417SOL    HW2 5151   3.777   3.578   4.549
 1418SOL     OW 5152   3.501   3.738   5.443
 1418SOL    HW1 5153   3.580   3.679   5.459
 1418SOL    HW2 5154   3.422   3.702   5.492
 1419SOL     OW 5155   0.151   5.043   2.015
 1419SOL    HW1 5156   0.138   5.057   2.113
 1419SOL    HW2 5157   0.226   4.978   2.000
 1420SOL     OW 5158   3.085   6.428   3.182
 1420SOL    HW1 5159   3.179   6.394   3.182
 1420SOL    HW2 5160   3.070   6.485   3.263
 1421SOL     OW 5161   1.779   5.305   0.756
 1421SOL    HW1 5162   1.718   5.232   0.727
 1421SOL    HW2 5163   1.768   5.322   0.854
 1422SOL     OW 5164   1.687   3.946   6.860
 1422SOL    HW1 5165   1.712   3.969   6.766
 1422SOL    HW2 5166   1.642   3.857   6.861
 1423SOL     OW 5167   4.610   1.178   4.655
 1423SOL    HW1 5168   4.595   1.277   4.653
 1423SOL    HW2 5169   4.530   1.132   4.618
 1424SOL     OW 5170   6.435   3.571   1.318
 1424SOL    HW1 5171   6.446   3.528   1.228
 1424SOL    HW2 5172   6.517   3.623   1.341
 1425SOL     OW 5173   5.725   6.533   3.246
 1425SOL    HW1 5174   5.766   6.472   3.179
 1425SOL    HW2 5175   5.733   6.494   3.338
 1426SOL     OW 5176   3.631   1.465   0.657
 1426SOL    HW1 5177   3.555   1.524   0.630
 1426SOL    HW2 5178   3.597   1.373   0.677
 1427SOL     OW 5179   0.868   1.085   3.995
 1427SOL    HW1 5180   0.879   1.050   3.902
 1427SOL    HW2 5181   0.896   1.015   4.060
 1428SOL     OW 5182   1.842   3.763   4.052
 1428SOL    HW1 5183   1.774   3.818   4.002
 1428SOL    HW2 5184   1.933   3.784   4.018
 1429SOL     OW 5185   6.553   0.433   1.469
 1429SOL    HW1 5186   6.471   0.413   1.523
 1429SOL    HW2 5187   6.593   0.520   1.499
 1430SOL     OW 5188   2.168   4.008   4.389
 1430SOL    HW1 5189   2.239   4.028   4.322
 1430SOL    HW2 5190   2.159   3.909   4.399
 1431SOL     OW 5191   3.626   2.110   0.497
 1431SOL    HW1 5192   3.543   2.142   0.542
 1431SOL    HW2 5193   3.621   2.130   0.399
 1432SOL     OW 5194   3.530   0.294   2.941
 1432SOL    HW1 5195   3.550   0.253   2.853
 1432SOL    HW2 5196   3.480   0.379   2.928
 1433SOL     OW 5197   3.012   2.167   4.542
 1433SOL    HW1 5198   3.079   2.153   4.615
 1433SOL    HW2 5199   2.936   2.103   4.554
 1434SOL     OW 5200   5.421   3.486   0.748
 1434SOL    HW1 5201   5.429   3.386   0.747
 1434SOL    HW2 5202   5.450   3.522   0.659
 1435SOL     OW 5203   0.461   6.266   4.174
 1435SOL    HW1 5204   0.519   6.200   4.126
 1435SOL    HW2 5205   0.366   6.253   4.146
 1436SOL     OW 5206   5.508   1.067   0.066
 1436SOL    HW1 5207   5.427   1.096   0.117
 1436SOL    HW2 5208   5.555   0.994   0.117
 1437SOL     OW 5209   4.540   1.226   0.732
 1437SOL    HW1 5210   4.522   1.279   0.649
 1437SOL    HW2 5211   4.453   1.207   0.778
 1438SOL     OW 5212   2.253   6.855   3.018
 1438SOL    HW1 5213   2.206   6.931   3.062
 1438SOL    HW2 5214   2.221   6.769   3.057
 1439SOL     OW 5215   0.156   5.376   4.801
 1439SOL    HW1 5216   0.141   5.372   4.702
 1439SOL    HW2 5217   0.115   5.295   4.843
 1440SOL     OW 5218   3.462   3.122   2.613
 1440SOL    HW1 5219   3.387   3.062   2.584
 1440SOL    HW2 5220   3.511   3.080   2.689
 1441SOL     OW 5221   0.366   1.630   5.831
 1441SOL    HW1 5222   0.367   1.572   5.750
 1441SOL    HW2 5223   0.289   1.604   5.890
 1442SOL     OW 5224   5.393   5.958   0.192
 1442SOL    HW1 5225   5.404   5.886   0.123
 1442SOL    HW2 5226   5.465   5.948   0.261
 1443SOL     OW 5227   1.504   3.310   3.937
 1443SOL    HW1 5228   1.502   3.372   3.859
 1443SOL    HW2 5229   1.533   3.360   4.019
 1444SOL     OW 5230   5.117   0.038   4.499
 1444SOL    HW1 5231   5.213   0.012   4.502
 1444SOL    HW2 5232   5.074   7.021   4.418
 1445SOL     OW 5233   6.883   2.402   0.349
 1445SOL    HW1 5234   6.800   2.426   0.297
 1445SOL    HW2 5235   6.871   2.429   0.444
 1446SOL     OW 5236   3.019   5.514   2.410
 1446SOL    HW1 5237   2.924   5.523   2.383
 1446SOL    HW2 5238   3.062   5.439   2.359
 1447SOL     OW 5239   6.906   0.674   4.602
 1447SOL    HW1 5240   6.937   0.736   4.530
 1447SOL    HW2 5241   6.858   0.725   4.673
 1448SOL     OW 5242   5.388   0.798   0.771
 1448SOL    HW1 5243   5.422   0.778   0.679
 1448SOL    HW2 5244   5.361   0.894   0.777
 1449SOL     OW 5245   4.523   5.210   0.429
 1449SOL    HW1 5246   4.471   5.128   0.408
 1449SOL    HW2 5247   4.612   5.205   0.384
 1450SOL     OW 5248   5.158   1.165   3.578
 1450SOL    HW1 5249   5.149   1.212   3.491
 1450SOL    HW2 5250   5.231   1.207   3.632
 1451SOL     OW 5251   0.897   6.881   1.780
 1451SOL    HW1 5252   0.883   6.787   1.749
 1451SOL    HW2 5253   0.983   6.887   1.831
 1452SOL     OW 5254   2.041   7.012   6.290
 1452SOL    HW1 5255   2.098   6.976   6.364
 1452SOL    HW2 5256   1.998   0.075   6.318
 1453SOL     OW 5257   5.931   4.527   4.236
 1453SOL    HW1 5258   6.002   4.462   4.208
 1453SOL    HW2 5259   5.886   4.564   4.155
 1454SOL     OW 5260   5.433   3.742   0.829
 1454SOL    HW1 5261   5.438   3.661   0.771
 1454SOL    HW2 5262   5.458   3.823   0.775
 1455SOL     OW 5263   2.107   1.945   1.605
 1455SOL    HW1 5264   2.024   1.962   1.659
 1455SOL    HW2 5265   2.187   1.972   1.658
 1456SOL     OW 5266   5.343   5.406   4.730
 1456SOL    HW1 5267   5.265   5.467   4.736
 1456SOL    HW2 5268   5.330   5.328   4.791
 1457SOL     OW 5269   2.041   0.965   4.505
 1457SOL    HW1 5270   1.956   0.934   4.464
 1457SOL    HW2 5271   2.023   1.003   4.596
 1458SOL     OW 5272   6.728   5.368   0.249
 1458SOL    HW1 5273   6.810   5.321   0.217
 1458SOL    HW2 5274   6.718   5.355   0.348
 1459SOL     OW 5275   2.635   6.863   1.669
 1459SOL    HW1 5276   2.709   6.801   1.641
 1459SOL    HW2 5277   2.588   6.897   1.587
 1460SOL     OW 5278   0.371   0.961   6.798
 1460SOL    HW1 5279   0.375   0.949   6.699
 1460SOL    HW2 5280   0.427   0.891   6.843
 1461SOL     OW 5281   4.684   4.216   2.750
 1461SOL    HW1 5282   4.708   4.189   2.843
 1461SOL    HW2 5283   4.724   4.151   2.685
 1462SOL     OW 5284   5.673   0.107   4.948
 1462SOL    HW1 5285   5.698   0.150   5.034
 1462SOL    HW2 5286   5.746   0.119   4.881
 1463SOL     OW 5287   0.920   2.045   5.475
 1463SOL    HW1 5288   0.877   1.960   5.446
 1463SOL    HW2 5289   0.936   2.103   5.395
 1464SOL     OW 5290   0.569   0.919   1.032
 1464SOL    HW1 5291   0.537   0.824   1.034
 1464SOL    HW2 5292   0.525   0.967   0.956
 1465SOL     OW 5293   1.942   1.431   3.720
 1465SOL    HW1 5294   1.927   1.428   3.621
 1465SOL    HW2 5295   1.857   1.407   3.767
 1466SOL     OW 5296   6.046   5.778   3.931
 1466SOL    HW1 5297   6.014   5.766   3.837
 1466SOL    HW2 5298   5.971   5.758   3.994
 1467SOL     OW 5299   6.904   3.749   4.785
 1467SOL    HW1 5300   6.808   3.756   4.813
 1467SOL    HW2 5301   6.917   3.798   4.699
 1468SOL     OW 5302   4.733   0.166   2.735
 1468SOL    HW1 5303   4.744   0.115   2.820
 1468SOL    HW2 5304   4.724   0.264   2.755
 1469SOL     OW 5305   0.187   0.630   2.213
 1469SOL    HW1 5306   0.283   0.618   2.239
 1469SOL    HW2 5307   0.131   0.638   2.295
 1470SOL     OW 5308   0.526   0.411   3.108
 1470SOL    HW1 5309   0.608   0.456   3.074
 1470SOL    HW2 5310   0.504   0.445   3.200
 1471SOL     OW 5311   6.039   1.332   1.153
 1471SOL    HW1 5312   6.079   1.408   1.204
 1471SOL    HW2 5313   5.962   1.295   1.204
 1472SOL     OW 5314   4.918   5.110   5.054
 1472SOL    HW1 5315   4.829   5.097   5.010
 1472SOL    HW2 5316   4.964   5.021   5.062
 1473SOL     OW 5317   6.880   3.365   3.965
 1473SOL    HW1 5318   6.810   3.407   4.023
 1473SOL    HW2 5319   6.861   3.267   3.957
 1474SOL     OW 5320   4.749   5.986   2.725
 1474SOL    HW1 5321   4.835   6.036   2.713
 1474SOL    HW2 5322   4.730   5.976   2.823
 1475SOL     OW 5323   5.904   6.916   2.982
 1475SOL    HW1 5324   5.941   6.985   2.920
 1475SOL    HW2 5325   5.826   6.955   3.032
 1476SOL     OW 5326   0.751   2.278   1.581
 1476SOL    HW1 5327   0.741   2.335   1.663
 1476SOL    HW2 5328   0.828   2.312   1.527
 1477SOL     OW 5329   2.679   6.356   4.637
 1477SOL    HW1 5330   2.758   6.400   4.678
 1477SOL    HW2 5331   2.617   6.325   4.709
 1478SOL     OW 5332   0.315   3.484   1.200
 1478SOL    HW1 5333   0.226   3.458   1.162
 1478SOL    HW2 5334   0.320   3.457   1.296
 1479SOL     OW 5335   1.655   5.176   0.102
 1479SOL    HW1 5336   1.668   5.169   0.003
 1479SOL    HW2 5337   1.663   5.085   0.143
 1480SOL     OW 5338   3.199   0.924   0.330
 1480SOL    HW1 5339   3.249   1.004   0.363
 1480SOL    HW2 5340   3.139   0.951   0.255
 1481SOL     OW 5341   0.142   3.485   0.293
 1481SOL    HW1 5342   0.132   3.425   0.213
 1481SOL    HW2 5343   0.085   3.566   0.280
 1482SOL     OW 5344   5.764   0.631   6.335
 1482SOL    HW1 5345   5.815   0.665   6.414
 1482SOL    HW2 5346   5.819   0.563   6.288
 1483SOL     OW 5347   0.065   2.738   0.149
 1483SOL    HW1 5348   7.010   2.677   0.137
 1483SOL    HW2 5349   0.065   2.807   0.077
 1484SOL     OW 5350   6.403   7.013   3.527
 1484SOL    HW1 5351   6.403   0.039   3.615
 1484SOL    HW2 5352   6.435   6.919   3.540
 1485SOL     OW 5353   5.227   3.393   4.050
 1485SOL    HW1 5354   5.288   3.396   3.971
 1485SOL    HW2 5355   5.273   3.431   4.130
 1486SOL     OW 5356   5.005   3.020   1.337
 1486SOL    HW1 5357   4.965   2.933   1.365
 1486SOL    HW2 5358   4.961   3.050   1.252
 1487SOL     OW 5359   0.774   6.985   5.684
 1487SOL    HW1 5360   0.717   7.020   5.610
 1487SOL    HW2 5361   0.831   6.910   5.649
 1488SOL     OW 5362   5.152   2.000   4.416
 1488SOL    HW1 5363   5.142   2.099   4.419
 1488SOL    HW2 5364   5.078   1.958   4.469
 1489SOL     OW 5365   3.184   4.921   4.762
 1489SOL    HW1 5366   3.100   4.866   4.755
 1489SOL    HW2 5367   3.254   4.882   4.702
 1490SOL     OW 5368   2.482   2.971   0.575
 1490SOL    HW1 5369   2.473   2.919   0.490
 1490SOL    HW2 5370   2.491   2.909   0.652
 1491SOL     OW 5371   0.493   1.909   4.285
 1491SOL    HW1 5372   0.516   2.004   4.309
 1491SOL    HW2 5373   0.548   1.881   4.207
 1492SOL     OW 5374   0.262   2.101   1.982
 1492SOL    HW1 5375   0.177   2.063   1.947
 1492SOL    HW2 5376   0.290   2.178   1.925
 1493SOL     OW 5377   6.436   2.904   4.793
 1493SOL    HW1 5378   6.519   2.935   4.840
 1493SOL    HW2 5379   6.375   2.982   4.777
 1494SOL     OW 5380   5.394   1.528   3.912
 1494SOL    HW1 5381   5.359   1.444   3.953
 1494SOL    HW2 5382   5.465   1.567   3.970
 1495SOL     OW 5383   1.715   4.081   1.744
 1495SOL    HW1 5384   1.703   4.131   1.658
 1495SOL    HW2 5385   1.756   3.992   1.726
 1496SOL     OW 5386   1.078   0.514   2.423
 1496SOL    HW1 5387   1.087   0.423   2.383
 1496SOL    HW2 5388   1.087   0.583   2.351
 1497SOL     OW 5389   5.844   5.316   5.970
 1497SOL    HW1 5390   5.790   5.337   6.052
 1497SOL    HW2 5391   5.836   5.218   5.950
 1498SOL     OW 5392   3.069   5.638   6.993
 1498SOL    HW1 5393   2.973   5.609   6.999
 1498SOL    HW2 5394   3.119   5.578   6.931
 1499SOL     OW 5395   0.862   4.160   4.361
 1499SOL    HW1 5396   0.785   4.181   4.301
 1499SOL    HW2 5397   0.917   4.242   4.375
 1500SOL     OW 5398   4.053   6.667   5.893
 1500SOL    HW1 5399   3.987   6.741   5.879
 1500SOL    HW2 5400   4.015   6.581   5.859
 1501SOL     OW 5401   3.445   0.262   1.276
 1501SOL    HW1 5402   3.544   0.258   1.285
 1501SOL    HW2 5403   3.403   0.234   1.362
 1502SOL     OW 5404   0.394   0.947   6.535
 1502SOL    HW1 5405   0.488   0.979   6.520
 1502SOL    HW2 5406   0.371   0.877   6.467
 1503SOL     OW 5407   3.720   3.976   5.029
 1503SOL    HW1 5408   3.760   3.895   5.070
 1503SOL    HW2 5409   3.660   3.948   4.953
 1504SOL     OW 5410   2.684   6.705   3.684
 1504SOL    HW1 5411   2.712   6.800   3.701
 1504SOL    HW2 5412   2.649   6.697   3.590
 1505SOL     OW 5413   5.284   6.655   3.028
 1505SOL    HW1 5414   5.245   6.745   3.007
 1505SOL    HW2 5415   5.284   6.599   2.945
 1506SOL     OW 5416   0.660   6.119   4.077
 1506SOL    HW1 5417   0.648   6.049   4.006
 1506SOL    HW2 5418   0.758   6.134   4.092
 1507SOL     OW 5419   2.130   1.186   0.091
 1507SOL    HW1 5420   2.221   1.168   0.055
 1507SOL    HW2 5421   2.084   1.253   0.032
 1508SOL     OW 5422   4.845   6.354   1.225
 1508SOL    HW1 5423   4.802   6.290   1.162
 1508SOL    HW2 5424   4.792   6.359   1.309
 1509SOL     OW 5425   5.530   1.576   6.857
 1509SOL    HW1 5426   5.533   1.630   6.772
 1509SOL    HW2 5427   5.569   1.486   6.840
 1510SOL     OW 5428   6.496   1.648   2.362
 1510SOL    HW1 5429   6.470   1.584   2.435
 1510SOL    HW2 5430   6.561   1.715   2.398
 1511SOL     OW 5431   0.590   3.047   0.124
 1511SOL    HW1 5432   0.641   3.014   0.203
 1511SOL    HW2 5433   0.566   2.969   0.065
 1512SOL     OW 5434   6.495   0.919   2.004
 1512SOL    HW1 5435   6.586   0.935   1.964
 1512SOL    HW2 5436   6.442   0.860   1.943
 1513SOL     OW 5437   2.131   0.850   2.492
 1513SOL    HW1 5438   2.160   0.946   2.488
 1513SOL    HW2 5439   2.205   0.792   2.460
 1514SOL     OW 5440   4.614   0.856   5.842
 1514SOL    HW1 5441   4.536   0.899   5.797
 1514SOL    HW2 5442   4.698   0.878   5.792
 1515SOL     OW 5443   5.833   5.618   5.860
 1515SOL    HW1 5444   5.846   5.622   5.761
 1515SOL    HW2 5445   5.812   5.524   5.886
 1516SOL     OW 5446   6.041   1.797   1.912
 1516SOL    HW1 5447   5.957   1.744   1.925
 1516SOL    HW2 5448   6.020   1.895   1.922
 1517SOL     OW 5449   3.737   5.326   2.279
 1517SOL    HW1 5450   3.639   5.344   2.285
 1517SOL    HW2 5451   3.759   5.294   2.187
 1518SOL     OW 5452   0.649   4.746   1.285
 1518SOL    HW1 5453   0.617   4.658   1.321
 1518SOL    HW2 5454   0.726   4.731   1.223
 1519SOL     OW 5455   0.309   4.032   1.073
 1519SOL    HW1 5456   0.366   3.951   1.059
 1519SOL    HW2 5457   0.295   4.079   0.985
 1520SOL     OW 5458   1.421   3.927   2.530
 1520SOL    HW1 5459   1.355   3.915   2.604
 1520SOL    HW2 5460   1.505   3.968   2.566
 1521SOL     OW 5461   2.389   5.450   5.202
 1521SOL    HW1 5462   2.407   5.394   5.283
 1521SOL    HW2 5463   2.426   5.404   5.121
 1522SOL     OW 5464   1.908   2.005   6.098
 1522SOL    HW1 5465   1.987   2.060   6.070
 1522SOL    HW2 5466   1.825   2.060   6.089
 1523SOL     OW 5467   5.921   0.746   1.776
 1523SOL    HW1 5468   5.938   0.656   1.736
 1523SOL    HW2 5469   5.890   0.735   1.871
 1524SOL     OW 5470   0.660   2.055   1.377
 1524SOL    HW1 5471   0.736   2.007   1.334
 1524SOL    HW2 5472   0.695   2.117   1.447
 1525SOL     OW 5473   5.155   1.053   5.395
 1525SOL    HW1 5474   5.195   1.066   5.304
 1525SOL    HW2 5475   5.205   0.981   5.443
 1526SOL     OW 5476   5.493   2.531   6.942
 1526SOL    HW1 5477   5.402   2.559   6.915
 1526SOL    HW2 5478   5.499   2.526   0.019
 1527SOL     OW 5479   3.085   0.869   5.546
 1527SOL    HW1 5480   3.126   0.815   5.619
 1527SOL    HW2 5481   3.001   0.826   5.514
 1528SOL     OW 5482   5.414   6.031   3.759
 1528SOL    HW1 5483   5.374   6.005   3.672
 1528SOL    HW2 5484   5.441   6.127   3.756
 1529SOL     OW 5485   2.152   6.952   5.033
 1529SOL    HW1 5486   2.231   6.950   4.972
 1529SOL    HW2 5487   2.069   6.929   4.983
 1530SOL     OW 5488   3.021   6.585   1.423
 1530SOL    HW1 5489   3.085   6.639   1.369
 1530SOL    HW2 5490   2.934   6.634   1.429
 1531SOL     OW 5491   5.824   1.339   6.485
 1531SOL    HW1 5492   5.887   1.317   6.559
 1531SOL    HW2 5493   5.833   1.271   6.412
 1532SOL     OW 5494   2.949   1.493   5.226
 1532SOL    HW1 5495   2.944   1.397   5.254
 1532SOL    HW2 5496   3.010   1.543   5.287
 1533SOL     OW 5497   4.760   3.178   0.390
 1533SOL    HW1 5498   4.741   3.109   0.460
 1533SOL    HW2 5499   4.841   3.231   0.417
 1534SOL     OW 5500   0.471   6.966   0.026
 1534SOL    HW1 5501   0.481   7.013   0.114
 1534SOL    HW2 5502   0.514   7.021   6.977
 1535SOL     OW 5503   5.376   4.355   4.317
 1535SOL    HW1 5504   5.438   4.386   4.245
 1535SOL    HW2 5505   5.383   4.416   4.396
 1536SOL     OW 5506   3.139   6.140   3.069
 1536SOL    HW1 5507   3.180   6.217   3.019
 1536SOL    HW2 5508   3.068   6.098   3.013
 1537SOL     OW 5509   2.009   5.563   4.495
 1537SOL    HW1 5510   1.925   5.596   4.451
 1537SOL    HW2 5511   1.992   5.552   4.593
 1538SOL     OW 5512   3.240   5.896   0.379
 1538SOL    HW1 5513   3.228   5.936   0.470
 1538SOL    HW2 5514   3.326   5.845   0.377
 1539SOL     OW 5515   2.211   6.748   2.603
 1539SOL    HW1 5516   2.293   6.693   2.589
 1539SOL    HW2 5517   2.236   6.834   2.647
 1540SOL     OW 5518   5.818   0.545   5.008
 1540SOL    HW1 5519   5.864   0.632   5.024
 1540SOL    HW2 5520   5.875   0.470   5.041
 1541SOL     OW 5521   5.253   1.780   1.861
 1541SOL    HW1 5522   5.350   1.760   1.878
 1541SOL    HW2 5523   5.225   1.858   1.917
 1542SOL     OW 5524   6.912   5.431   1.127
 1542SOL    HW1 5525   6.893   5.353   1.186
 1542SOL    HW2 5526   6.895   5.406   1.032
 1543SOL     OW 5527   3.275   3.296   3.305
 1543SOL    HW1 5528   3.282   3.332   3.212
 1543SOL    HW2 5529   3.215   3.355   3.359
 1544SOL     OW 5530   3.542   3.671   1.888
 1544SOL    HW1 5531   3.546   3.685   1.987
 1544SOL    HW2 5532   3.487   3.743   1.846
 1545SOL     OW 5533   0.413   6.658   5.444
 1545SOL    HW1 5534   0.494   6.641   5.500
 1545SOL    HW2 5535   0.375   6.748   5.466
 1546SOL     OW 5536   0.174   6.670   6.883
 1546SOL    HW1 5537   0.134   6.761   6.890
 1546SOL    HW2 5538   0.244   6.658   6.954
 1547SOL     OW 5539   3.168   6.047   0.127
 1547SOL    HW1 5540   3.253   6.069   0.079
 1547SOL    HW2 5541   3.188   6.018   0.220
 1548SOL     OW 5542   6.436   4.327   3.117
 1548SOL    HW1 5543   6.410   4.326   3.020
 1548SOL    HW2 5544   6.391   4.251   3.164
 1549SOL     OW 5545   5.984   2.013   1.130
 1549SOL    HW1 5546   5.892   2.033   1.164
 1549SOL    HW2 5547   5.988   1.918   1.099
 1550SOL     OW 5548   2.569   5.105   2.446
 1550SOL    HW1 5549   2.484   5.122   2.496
 1550SOL    HW2 5550   2.573   5.008   2.420
 1551SOL     OW 5551   0.559   2.736   1.670
 1551SOL    HW1 5552   0.607   2.665   1.619
 1551SOL    HW2 5553   0.585   2.826   1.634
 1552SOL     OW 5554   1.650   6.750   1.934
 1552SOL    HW1 5555   1.582   6.720   2.002
 1552SOL    HW2 5556   1.730   6.690   1.938
 1553SOL     OW 5557   5.862   1.580   5.545
 1553SOL    HW1 5558   5.800   1.653   5.517
 1553SOL    HW2 5559   5.957   1.610   5.533
 1554SOL     OW 5560   2.668   3.084   0.954
 1554SOL    HW1 5561   2.767   3.072   0.946
 1554SOL    HW2 5562   2.637   3.149   0.885
 1555SOL     OW 5563   4.165   0.922   1.258
 1555SOL    HW1 5564   4.176   0.998   1.194
 1555SOL    HW2 5565   4.236   0.927   1.328
 1556SOL     OW 5566   3.162   2.377   0.797
 1556SOL    HW1 5567   3.186   2.421   0.884
 1556SOL    HW2 5568   3.234   2.394   0.730
 1557SOL     OW 5569   1.846   2.851   1.378
 1557SOL    HW1 5570   1.761   2.880   1.422
 1557SOL    HW2 5571   1.856   2.896   1.290
 1558SOL     OW 5572   4.639   2.456   6.601
 1558SOL    HW1 5573   4.608   2.362   6.616
 1558SOL    HW2 5574   4.657   2.470   6.504
 1559SOL     OW 5575   2.575   6.197   3.530
 1559SOL    HW1 5576   2.547   6.104   3.509
 1559SOL    HW2 5577   2.641   6.228   3.461
 1560SOL     OW 5578   4.575   3.028   1.402
 1560SOL    HW1 5579   4.595   2.963   1.476
 1560SOL    HW2 5580   4.558   2.977   1.317
 1561SOL     OW 5581   6.284   6.370   0.587
 1561SOL    HW1 5582   6.239   6.377   0.498
 1561SOL    HW2 5583   6.368   6.424   0.586
 1562SOL     OW 5584   2.742   6.960   3.045
 1562SOL    HW1 5585   2.733   0.006   2.973
 1562SOL    HW2 5586   2.800   6.996   3.118
 1563SOL     OW 5587   2.147   3.758   3.778
 1563SOL    HW1 5588   2.164   3.774   3.875
 1563SOL    HW2 5589   2.171   3.840   3.726
 1564SOL     OW 5590   1.319   1.890   3.349
 1564SOL    HW1 5591   1.300   1.933   3.261
 1564SOL    HW2 5592   1.237   1.894   3.406
 1565SOL     OW 5593   5.218   1.601   5.315
 1565SOL    HW1 5594   5.177   1.510   5.326
 1565SOL    HW2 5595   5.157   1.659   5.262
 1566SOL     OW 5596   1.109   3.173   3.701
 1566SOL    HW1 5597   1.077   3.171   3.796
 1566SOL    HW2 5598   1.060   3.104   3.648
 1567SOL     OW 5599   5.331   0.590   4.577
 1567SOL    HW1 5600   5.373   0.499   4.566
 1567SOL    HW2 5601   5.232   0.581   4.578
 1568SOL     OW 5602   2.226   4.276   1.067
 1568SOL    HW1 5603   2.137   4.309   1.099
 1568SOL    HW2 5604   2.224   4.176   1.061
 1569SOL     OW 5605   2.288   1.140   2.201
 1569SOL    HW1 5606   2.240   1.052   2.194
 1569SOL    HW2 5607   2.339   1.143   2.287
 1570SOL     OW 5608   2.976   6.209   6.619
 1570SOL    HW1 5609   3.039   6.155   6.564
 1570SOL    HW2 5610   2.913   6.148   6.666
 1571SOL     OW 5611   0.848   1.446   4.608
 1571SOL    HW1 5612   0.812   1.359   4.574
 1571SOL    HW2 5613   0.773   1.499   4.649
 1572SOL     OW 5614   1.806   6.284   3.453
 1572SOL    HW1 5615   1.784   6.247   3.543
 1572SOL    HW2 5616   1.860   6.368   3.463
 1573SOL     OW 5617   5.382   6.276   0.221
 1573SOL    HW1 5618   5.317   6.223   0.167
 1573SOL    HW2 5619   5.394   6.233   0.311
 1574SOL     OW 5620   6.921   3.465   3.196
 1574SOL    HW1 5621   6.974   3.548   3.212
 1574SOL    HW2 5622   6.979   3.385   3.210
 1575SOL     OW 5623   6.661   2.421   0.197
 1575SOL    HW1 5624   6.654   2.355   0.122
 1575SOL    HW2 5625   6.579   2.416   0.253
 1576SOL     OW 5626   1.820   6.162   2.637
 1576SOL    HW1 5627   1.892   6.226   2.663
 1576SOL    HW2 5628   1.841   6.123   2.548
 1577SOL     OW 5629   4.024   5.735   4.144
 1577SOL    HW1 5630   3.976   5.708   4.061
 1577SOL    HW2 5631   4.080   5.658   4.176
 1578SOL     OW 5632   5.225   1.768   1.566
 1578SOL    HW1 5633   5.231   1.778   1.666
 1578SOL    HW2 5634   5.189   1.853   1.527
 1579SOL     OW 5635   1.337   3.353   2.142
 1579SOL    HW1 5636   1.371   3.384   2.053
 1579SOL    HW2 5637   1.309   3.432   2.196
 1580SOL     OW 5638   3.516   4.074   4.131
 1580SOL    HW1 5639   3.512   4.125   4.045
 1580SOL    HW2 5640   3.504   3.977   4.113
 1581SOL     OW 5641   5.127   4.471   5.422
 1581SOL    HW1 5642   5.036   4.504   5.396
 1581SOL    HW2 5643   5.137   4.475   5.521
 1582SOL     OW 5644   4.119   5.985   4.055
 1582SOL    HW1 5645   4.215   5.979   4.083
 1582SOL    HW2 5646   4.075   5.897   4.072
 1583SOL     OW 5647   0.383   5.446   4.591
 1583SOL    HW1 5648   0.408   5.461   4.686
 1583SOL    HW2 5649   0.324   5.365   4.584
 1584SOL     OW 5650   0.154   4.320   6.986
 1584SOL    HW1 5651   0.234   4.351   6.934
 1584SOL    HW2 5652   0.153   4.220   6.989
 1585SOL     OW 5653   4.879   6.139   4.304
 1585SOL    HW1 5654   4.948   6.185   4.248
 1585SOL    HW2 5655   4.790   6.146   4.259
 1586SOL     OW 5656   2.289   5.860   3.818
 1586SOL    HW1 5657   2.310   5.957   3.831
 1586SOL    HW2 5658   2.371   5.811   3.790
 1587SOL     OW 5659   3.711   6.633   0.622
 1587SOL    HW1 5660   3.751   6.708   0.571
 1587SOL    HW2 5661   3.655   6.576   0.561
 1588SOL     OW 5662   6.406   1.991   3.688
 1588SOL    HW1 5663   6.425   1.893   3.692
 1588SOL    HW2 5664   6.368   2.022   3.775
 1589SOL     OW 5665   0.316   1.363   4.259
 1589SOL    HW1 5666   0.263   1.285   4.291
 1589SOL    HW2 5667   0.327   1.357   4.160
 1590SOL     OW 5668   5.648   0.400   3.715
 1590SOL    HW1 5669   5.723   0.377   3.777
 1590SOL    HW2 5670   5.632   0.323   3.653
 1591SOL     OW 5671   0.255   5.670   0.648
 1591SOL    HW1 5672   0.200   5.653   0.730
 1591SOL    HW2 5673   0.334   5.727   0.672
 1592SOL     OW 5674   6.528   4.090   4.923
 1592SOL    HW1 5675   6.585   4.050   4.995
 1592SOL    HW2 5676   6.432   4.068   4.941
 1593SOL     OW 5677   3.769   5.739   1.728
 1593SOL    HW1 5678   3.693   5.744   1.793
 1593SOL    HW2 5679   3.760   5.813   1.662
 1594SOL     OW 5680   5.255   1.630   2.768
 1594SOL    HW1 5681   5.242   1.631   2.668
 1594SOL    HW2 5682   5.168   1.652   2.813
 1595SOL     OW 5683   0.321   4.081   6.710
 1595SOL    HW1 5684   0.366   4.100   6.623
 1595SOL    HW2 5685   0.257   4.005   6.698
 1596SOL     OW 5686   5.211   4.530   3.929
 1596SOL    HW1 5687   5.261   4.485   4.003
 1596SOL    HW2 5688   5.133   4.473   3.903
 1597SOL     OW 5689   4.319   6.968   1.319
 1597SOL    HW1 5690   4.367   6.950   1.404
 1597SOL    HW2 5691   4.260   6.890   1.296
 1598SOL     OW 5692   0.869   4.997   5.936
 1598SOL    HW1 5693   0.965   5.021   5.922
 1598SOL    HW2 5694   0.852   4.905   5.901
 1599SOL     OW 5695   5.297   5.449   4.018
 1599SOL    HW1 5696   5.228   5.387   3.980
 1599SOL    HW2 5697   5.388   5.407   4.006
 1600SOL     OW 5698   4.351   0.946   1.452
 1600SOL    HW1 5699   4.369   0.854   1.488
 1600SOL    HW2 5700   4.344   1.011   1.528
 1601SOL     OW 5701   6.188   0.673   4.385
 1601SOL    HW1 5702   6.276   0.679   4.336
 1601SOL    HW2 5703   6.119   0.723   4.333
 1602SOL     OW 5704   4.412   5.832   3.047
 1602SOL    HW1 5705   4.449   5.821   3.139
 1602SOL    HW2 5706   4.435   5.751   2.992
 1603SOL     OW 5707   3.480   4.872   1.752
 1603SOL    HW1 5708   3.540   4.797   1.779
 1603SOL    HW2 5709   3.531   4.958   1.752
 1604SOL     OW 5710   4.657   5.327   2.118
 1604SOL    HW1 5711   4.659   5.247   2.058
 1604SOL    HW2 5712   4.567   5.370   2.112
 1605SOL     OW 5713   4.668   4.872   0.303
 1605SOL    HW1 5714   4.767   4.875   0.291
 1605SOL    HW2 5715   4.624   4.924   0.229
 1606SOL     OW 5716   4.119   5.965   4.940
 1606SOL    HW1 5717   4.067   5.907   5.003
 1606SOL    HW2 5718   4.055   6.015   4.881
 1607SOL     OW 5719   4.911   3.784   3.828
 1607SOL    HW1 5720   4.873   3.876   3.842
 1607SOL    HW2 5721   4.905   3.733   3.914
 1608SOL     OW 5722   6.352   3.149   3.342
 1608SOL    HW1 5723   6.314   3.059   3.324
 1608SOL    HW2 5724   6.390   3.187   3.258
 1609SOL     OW 5725   1.885   0.011   0.846
 1609SOL    HW1 5726   1.845   6.971   0.913
 1609SOL    HW2 5727   1.811   0.062   0.801
 1610SOL     OW 5728   5.970   6.175   1.248
 1610SOL    HW1 5729   5.989   6.150   1.153
 1610SOL    HW2 5730   5.902   6.112   1.285
 1611SOL     OW 5731   0.476   4.398   6.648
 1611SOL    HW1 5732   0.522   4.336   6.711
 1611SOL    HW2 5733   0.418   4.462   6.699
 1612SOL     OW 5734   5.159   1.169   1.785
 1612SOL    HW1 5735   5.197   1.089   1.738
 1612SOL    HW2 5736   5.168   1.158   1.884
 1613SOL     OW 5737   0.462   6.087   2.578
 1613SOL    HW1 5738   0.527   6.162   2.590
 1613SOL    HW2 5739   0.501   6.021   2.513
 1614SOL     OW 5740   5.569   1.575   5.376
 1614SOL    HW1 5741   5.530   1.668   5.382
 1614SOL    HW2 5742   5.584   1.540   5.469
 1615SOL     OW 5743   6.846   3.221   5.430
 1615SOL    HW1 5744   6.802   3.132   5.428
 1615SOL    HW2 5745   6.921   3.223   5.364
 1616SOL     OW 5746   0.776   1.438   3.666
 1616SOL    HW1 5747   0.874   1.438   3.647
 1616SOL    HW2 5748   0.757   1.377   3.742
 1617SOL     OW 5749   6.918   5.618   4.265
 1617SOL    HW1 5750   6.872   5.691   4.214
 1617SOL    HW2 5751   6.954   5.655   4.350
 1618SOL     OW 5752   2.880   5.416   3.210
 1618SOL    HW1 5753   2.870   5.334   3.155
 1618SOL    HW2 5754   2.792   5.438   3.252
 1619SOL     OW 5755   0.742   3.399   6.160
 1619SOL    HW1 5756   0.663   3.417   6.102
 1619SOL    HW2 5757   0.823   3.441   6.120
 1620SOL     OW 5758   2.714   6.966   4.595
 1620SOL    HW1 5759   2.677   0.033   4.570
 1620SOL    HW2 5760   2.646   6.895   4.576
 1621SOL     OW 5761   5.567   4.907   1.102
 1621SOL    HW1 5762   5.478   4.942   1.075
 1621SOL    HW2 5763   5.628   4.983   1.123
 1622SOL     OW 5764   6.503   3.259   3.124
 1622SOL    HW1 5765   6.452   3.296   3.046
 1622SOL    HW2 5766   6.574   3.197   3.092
 1623SOL     OW 5767   0.583   2.551   3.984
 1623SOL    HW1 5768   0.603   2.514   3.893
 1623SOL    HW2 5769   0.551   2.477   4.043
 1624SOL     OW 5770   4.484   2.918   0.504
 1624SOL    HW1 5771   4.567   2.966   0.532
 1624SOL    HW2 5772   4.500   2.867   0.420
 1625SOL     OW 5773   1.073   6.358   0.369
 1625SOL    HW1 5774   1.147   6.297   0.342
 1625SOL    HW2 5775   1.016   6.378   0.289
 1626SOL     OW 5776   2.550   1.871   2.039
 1626SOL    HW1 5777   2.514   1.944   1.981
 1626SOL    HW2 5778   2.479   1.803   2.056
 1627SOL     OW 5779   4.698   1.666   5.991
 1627SOL    HW1 5780   4.741   1.577   6.008
 1627SOL    HW2 5781   4.692   1.681   5.892
 1628SOL     OW 5782   5.191   5.974   0.977
 1628SOL    HW1 5783   5.125   5.904   0.949
 1628SOL    HW2 5784   5.142   6.050   1.021
 1629SOL     OW 5785   1.588   6.785   3.144
 1629SOL    HW1 5786   1.548   6.732   3.219
 1629SOL    HW2 5787   1.603   6.725   3.065
 1630SOL     OW 5788   0.238   4.751   6.251
 1630SOL    HW1 5789   0.267   4.690   6.324
 1630SOL    HW2 5790   0.312   4.816   6.231
 1631SOL     OW 5791   5.142   3.959   0.375
 1631SOL    HW1 5792   5.143   3.934   0.472
 1631SOL    HW2 5793   5.171   4.055   0.365
 1632SOL     OW 5794   6.174   6.589   2.349
 1632SOL    HW1 5795   6.077   6.597   2.372
 1632SOL    HW2 5796   6.208   6.500   2.379
 1633SOL     OW 5797   6.154   3.822   4.236
 1633SOL    HW1 5798   6.146   3.814   4.137
 1633SOL    HW2 5799   6.166   3.918   4.262
 1634SOL     OW 5800   1.602   3.844   6.425
 1634SOL    HW1 5801   1.512   3.829   6.383
 1634SOL    HW2 5802   1.631   3.938   6.408
 1635SOL     OW 5803   2.776   0.427   4.203
 1635SOL    HW1 5804   2.695   0.470   4.243
 1635SOL    HW2 5805   2.840   0.497   4.172
 1636SOL     OW 5806   0.399   6.239   1.472
 1636SOL    HW1 5807   0.388   6.321   1.528
 1636SOL    HW2 5808   0.323   6.234   1.406
 1637SOL     OW 5809   1.293   1.295   1.842
 1637SOL    HW1 5810   1.234   1.305   1.762
 1637SOL    HW2 5811   1.310   1.199   1.860
 1638SOL     OW 5812   5.384   2.245   3.468
 1638SOL    HW1 5813   5.362   2.148   3.457
 1638SOL    HW2 5814   5.447   2.258   3.544
 1639SOL     OW 5815   4.961   2.487   1.397
 1639SOL    HW1 5816   4.988   2.408   1.451
 1639SOL    HW2 5817   4.867   2.475   1.363
 1640SOL     OW 5818   6.433   0.999   0.201
 1640SOL    HW1 5819   6.428   1.099   0.206
 1640SOL    HW2 5820   6.359   0.959   0.255
 1641SOL     OW 5821   5.686   0.947   3.155
 1641SOL    HW1 5822   5.635   1.007   3.217
 1641SOL    HW2 5823   5.622   0.895   3.098
 1642SOL     OW 5824   0.015   3.149   5.862
 1642SOL    HW1 5825   6.992   3.236   5.875
 1642SOL    HW2 5826   0.001   3.118   5.767
 1643SOL     OW 5827   2.472   5.058   4.389
 1643SOL    HW1 5828   2.559   5.089   4.351
 1643SOL    HW2 5829   2.486   4.973   4.440
 1644SOL     OW 5830   5.789   1.773   1.255
 1644SOL    HW1 5831   5.730   1.696   1.278
 1644SOL    HW2 5832   5.824   1.762   1.162
 1645SOL     OW 5833   2.501   1.038   4.402
 1645SOL    HW1 5834   2.430   1.094   4.444
 1645SOL    HW2 5835   2.462   0.952   4.372
 1646SOL     OW 5836   0.376   5.563   1.654
 1646SOL    HW1 5837   0.295   5.595   1.702
 1646SOL    HW2 5838   0.423   5.494   1.709
 1647SOL     OW 5839   6.220   3.094   4.796
 1647SOL    HW1 5840   6.134   3.120   4.841
 1647SOL    HW2 5841   6.214   3.114   4.699
 1648SOL     OW 5842   5.342   6.318   2.121
 1648SOL    HW1 5843   5.397   6.327   2.204
 1648SOL    HW2 5844   5.336   6.222   2.095
 1649SOL     OW 5845   3.772   0.640   2.786
 1649SOL    HW1 5846   3.742   0.709   2.721
 1649SOL    HW2 5847   3.702   0.627   2.856
 1650SOL     OW 5848   2.515   2.535   4.902
 1650SOL    HW1 5849   2.479   2.616   4.949
 1650SOL    HW2 5850   2.472   2.453   4.940
 1651SOL     OW 5851   1.405   2.330   4.119
 1651SOL    HW1 5852   1.472   2.371   4.181
 1651SOL    HW2 5853   1.313   2.357   4.148
 1652SOL     OW 5854   0.039   4.434   1.896
 1652SOL    HW1 5855   6.977   4.383   1.881
 1652SOL    HW2 5856   0.116   4.371   1.899
 1653SOL     OW 5857   6.812   4.339   1.860
 1653SOL    HW1 5858   6.817   4.271   1.787
 1653SOL    HW2 5859   6.723   4.331   1.906
 1654SOL     OW 5860   0.102   3.560   1.982
 1654SOL    HW1 5861   0.156   3.576   2.065
 1654SOL    HW2 5862   0.049   3.642   1.960
 1655SOL     OW 5863   6.949   0.426   6.041
 1655SOL    HW1 5864   0.016   0.396   6.008
 1655SOL    HW2 5865   6.932   0.388   6.132
 1656SOL     OW 5866   2.139   4.092   2.506
 1656SOL    HW1 5867   2.216   4.132   2.555
 1656SOL    HW2 5868   2.140   4.123   2.411
 1657SOL     OW 5869   0.476   1.159   6.025
 1657SOL    HW1 5870   0.519   1.176   6.113
 1657SOL    HW2 5871   0.399   1.221   6.012
 1658SOL     OW 5872   5.345   6.845   5.586
 1658SOL    HW1 5873   5.361   6.885   5.496
 1658SOL    HW2 5874   5.395   6.897   5.655
 1659SOL     OW 5875   3.473   0.326   6.462
 1659SOL    HW1 5876   3.487   0.230   6.489
 1659SOL    HW2 5877   3.378   0.339   6.434
 1660SOL     OW 5878   2.448   0.843   1.973
 1660SOL    HW1 5879   2.387   0.764   1.978
 1660SOL    HW2 5880   2.533   0.823   2.022
 1661SOL     OW 5881   4.910   5.039   3.450
 1661SOL    HW1 5882   4.958   4.986   3.520
 1661SOL    HW2 5883   4.820   5.066   3.485
 1662SOL     OW 5884   0.144   1.647   3.771
 1662SOL    HW1 5885   0.082   1.617   3.698
 1662SOL    HW2 5886   0.168   1.568   3.828
 1663SOL     OW 5887   5.520   4.063   0.885
 1663SOL    HW1 5888   5.585   4.139   0.874
 1663SOL    HW2 5889   5.561   3.979   0.848
 1664SOL     OW 5890   1.375   1.825   6.214
 1664SOL    HW1 5891   1.357   1.837   6.116
 1664SOL    HW2 5892   1.308   1.877   6.266
 1665SOL     OW 5893   2.092   4.185   0.018
 1665SOL    HW1 5894   2.139   4.145   6.963
 1665SOL    HW2 5895   2.034   4.116   0.062
 1666SOL     OW 5896   5.364   6.229   5.548
 1666SOL    HW1 5897   5.419   6.169   5.489
 1666SOL    HW2 5898   5.424   6.277   5.612
 1667SOL     OW 5899   6.742   5.053   1.016
 1667SOL    HW1 5900   6.701   5.076   1.105
 1667SOL    HW2 5901   6.838   5.081   1.016
 1668SOL     OW 5902   6.587   3.501   1.611
 1668SOL    HW1 5903   6.591   3.502   1.711
 1668SOL    HW2 5904   6.498   3.467   1.581
 1669SOL     OW 5905   6.238   2.713   5.054
 1669SOL    HW1 5906   6.208   2.642   5.117
 1669SOL    HW2 5907   6.219   2.685   4.960
 1670SOL     OW 5908   3.006   4.377   5.402
 1670SOL    HW1 5909   2.970   4.415   5.318
 1670SOL    HW2 5910   3.051   4.289   5.383
 1671SOL     OW 5911   5.853   2.400   0.630
 1671SOL    HW1 5912   5.878   2.454   0.550
 1671SOL    HW2 5913   5.915   2.420   0.706
 1672SOL     OW 5914   0.112   1.784   1.544
 1672SOL    HW1 5915   0.116   1.709   1.610
 1672SOL    HW2 5916   0.171   1.762   1.466
 1673SOL     OW 5917   1.374   0.636   5.531
 1673SOL    HW1 5918   1.364   0.728   5.570
 1673SOL    HW2 5919   1.359   0.568   5.602
 1674SOL     OW 5920   4.960   2.302   3.274
 1674SOL    HW1 5921   4.968   2.355   3.189
 1674SOL    HW2 5922   5.036   2.237   3.279
 1675SOL     OW 5923   5.401   1.024   2.286
 1675SOL    HW1 5924   5.337   0.979   2.349
 1675SOL    HW2 5925   5.489   0.976   2.287
 1676SOL     OW 5926   1.168   2.598   4.325
 1676SOL    HW1 5927   1.253   2.600   4.272
 1676SOL    HW2 5928   1.159   2.683   4.376
 1677SOL     OW 5929   3.270   4.113   2.314
 1677SOL    HW1 5930   3.238   4.200   2.278
 1677SOL    HW2 5931   3.343   4.129   2.380
 1678SOL     OW 5932   0.456   6.676   7.011
 1678SOL    HW1 5933   0.507   6.753   0.028
 1678SOL    HW2 5934   0.426   6.700   6.919
 1679SOL     OW 5935   6.187   1.737   0.460
 1679SOL    HW1 5936   6.238   1.725   0.375
 1679SOL    HW2 5937   6.212   1.825   0.502
 1680SOL     OW 5938   5.697   2.532   2.820
 1680SOL    HW1 5939   5.756   2.497   2.892
 1680SOL    HW2 5940   5.673   2.458   2.758
 1681SOL     OW 5941   3.809   6.525   4.768
 1681SOL    HW1 5942   3.892   6.500   4.717
 1681SOL    HW2 5943   3.739   6.558   4.705
 1682SOL     OW 5944   4.021   0.994   5.129
 1682SOL    HW1 5945   3.937   1.013   5.077
 1682SOL    HW2 5946   4.100   1.000   5.068
 1683SOL     OW 5947   1.184   2.996   2.870
 1683SOL    HW1 5948   1.235   3.016   2.786
 1683SOL    HW2 5949   1.193   3.073   2.933
 1684SOL     OW 5950   3.002   5.220   1.535
 1684SOL    HW1 5951   3.071   5.249   1.469
 1684SOL    HW2 5952   3.048   5.182   1.616
 1685SOL     OW 5953   0.257   1.736   5.567
 1685SOL    HW1 5954   0.160   1.713   5.559
 1685SOL    HW2 5955   0.310   1.654   5.590
 1686SOL     OW 5956   3.479   5.396   1.717
 1686SOL    HW1 5957   3.507   5.457   1.792
 1686SOL    HW2 5958   3.556   5.381   1.656
 1687SOL     OW 5959   4.567   4.360   0.200
 1687SOL    HW1 5960   4.601   4.423   0.270
 1687SOL    HW2 5961   4.493   4.305   0.238
 1688SOL     OW 5962   2.894   0.361   2.935
 1688SOL    HW1 5963   2.991   0.385   2.946
 1688SOL    HW2 5964   2.850   0.427   2.876
 1689SOL     OW 5965   3.890   0.629   1.579
 1689SOL    HW1 5966   3.816   0.561   1.570
 1689SOL    HW2 5967   3.895   0.660   1.674
 1690SOL     OW 5968   6.707   4.677   4.183
 1690SOL    HW1 5969   6.713   4.655   4.281
 1690SOL    HW2 5970   6.796   4.705   4.150
 1691SOL     OW 5971   4.177   2.651   5.347
 1691SOL    HW1 5972   4.268   2.634   5.384
 1691SOL    HW2 5973   4.160   2.591   5.268
 1692SOL     OW 5974   6.365   5.267   2.645
 1692SOL    HW1 5975   6.438   5.308   2.589
 1692SOL    HW2 5976   6.325   5.337   2.704
 1693SOL     OW 5977   5.591   6.899   5.336
 1693SOL    HW1 5978   5.520   6.968   5.351
 1693SOL    HW2 5979   5.583   6.863   5.243
 1694SOL     OW 5980   4.574   1.034   6.625
 1694SOL    HW1 5981   4.523   1.090   6.692
 1694SOL    HW2 5982   4.611   1.093   6.554
 1695SOL     OW 5983   4.602   0.020   4.811
 1695SOL    HW1 5984   4.563   6.980   4.744
 1695SOL    HW2 5985   4.657   0.089   4.764
 1696SOL     OW 5986   5.063   6.779   1.132
 1696SOL    HW1 5987   5.100   6.693   1.097
 1696SOL    HW2 5988   4.998   6.761   1.205
 1697SOL     OW 5989   4.439   3.344   1.649
 1697SOL    HW1 5990   4.400   3.257   1.680
 1697SOL    HW2 5991   4.502   3.326   1.573
 1698SOL     OW 5992   4.345   1.078   2.121
 1698SOL    HW1 5993   4.310   1.008   2.058
 1698SOL    HW2 5994   4.431   1.115   2.085
 1699SOL     OW 5995   1.651   0.745   1.022
 1699SOL    HW1 5996   1.631   0.727   1.118
 1699SOL    HW2 5997   1.736   0.699   0.996
 1700SOL     OW 5998   5.593   3.362   2.321
 1700SOL    HW1 5999   5.639   3.421   2.388
 1700SOL    HW2 6000   5.574   3.273   2.363
 1701SOL     OW 6001   1.157   5.542   5.448
 1701SOL    HW1 6002   1.252   5.536   5.418
 1701SOL    HW2 6003   1.136   5.637   5.474
 1702SOL     OW 6004   2.122   2.301   0.072
 1702SOL    HW1 6005   2.037   2.305   0.125
 1702SOL    HW2 6006   2.137   2.390   0.028
 1703SOL     OW 6007   1.320   2.320   2.356
 1703SOL    HW1 6008   1.255   2.339   2.429
 1703SOL    HW2 6009   1.366   2.405   2.329
 1704SOL     OW 6010   3.143   3.251   6.592
 1704SOL    HW1 6011   3.173   3.327   6.535
 1704SOL    HW2 6012   3.213   3.231   6.661
 1705SOL     OW 6013   5.315   2.721   0.781
 1705SOL    HW1 6014   5.392   2.785   0.771
 1705SOL    HW2 6015   5.308   2.693   0.877
 1706SOL     OW 6016   5.632   0.663   5.724
 1706SOL    HW1 6017   5.645   0.580   5.779
 1706SOL    HW2 6018   5.720   0.689   5.683
 1707SOL     OW 6019   3.471   1.276   2.258
 1707SOL    HW1 6020   3.431   1.361   2.225
 1707SOL    HW2 6021   3.457   1.269   2.357
 1708SOL     OW 6022   2.489   4.588   1.967
 1708SOL    HW1 6023   2.538   4.615   2.050
 1708SOL    HW2 6024   2.538   4.620   1.886
 1709SOL     OW 6025   5.209   4.742   1.571
 1709SOL    HW1 6026   5.238   4.660   1.521
 1709SOL    HW2 6027   5.288   4.785   1.614
 1710SOL     OW 6028   4.700   2.763   2.102
 1710SOL    HW1 6029   4.646   2.756   2.186
 1710SOL    HW2 6030   4.716   2.859   2.080
 1711SOL     OW 6031   4.568   5.520   6.874
 1711SOL    HW1 6032   4.501   5.520   6.949
 1711SOL    HW2 6033   4.527   5.479   6.793
 1712SOL     OW 6034   0.650   2.144   2.377
 1712SOL    HW1 6035   0.623   2.072   2.441
 1712SOL    HW2 6036   0.590   2.140   2.296
 1713SOL     OW 6037   2.809   1.690   2.259
 1713SOL    HW1 6038   2.787   1.651   2.169
 1713SOL    HW2 6039   2.842   1.784   2.247
 1714SOL     OW 6040   2.933   4.535   1.470
 1714SOL    HW1 6041   2.961   4.443   1.499
 1714SOL    HW2 6042   2.835   4.535   1.450
 1715SOL     OW 6043   1.603   6.037   0.997
 1715SOL    HW1 6044   1.635   6.095   1.072
 1715SOL    HW2 6045   1.617   5.941   1.021
 1716SOL     OW 6046   4.934   1.473   3.001
 1716SOL    HW1 6047   4.882   1.388   3.000
 1716SOL    HW2 6048   4.942   1.508   2.908
 1717SOL     OW 6049   3.699   5.988   4.087
 1717SOL    HW1 6050   3.637   6.020   4.160
 1717SOL    HW2 6051   3.712   5.889   4.096
 1718SOL     OW 6052   1.931   3.607   1.731
 1718SOL    HW1 6053   2.027   3.628   1.714
 1718SOL    HW2 6054   1.921   3.576   1.826
 1719SOL     OW 6055   1.111   4.880   3.426
 1719SOL    HW1 6056   1.031   4.844   3.473
 1719SOL    HW2 6057   1.171   4.805   3.399
 1720SOL     OW 6058   1.281   2.829   5.207
 1720SOL    HW1 6059   1.337   2.868   5.134
 1720SOL    HW2 6060   1.324   2.745   5.241
 1721SOL     OW 6061   2.399   2.731   0.300
 1721SOL    HW1 6062   2.367   2.808   0.245
 1721SOL    HW2 6063   2.320   2.678   0.332
 1722SOL     OW 6064   3.159   2.141   3.420
 1722SOL    HW1 6065   3.114   2.066   3.372
 1722SOL    HW2 6066   3.257   2.141   3.398
 1723SOL     OW 6067   6.575   4.854   1.291
 1723SOL    HW1 6068   6.665   4.876   1.330
 1723SOL    HW2 6069   6.518   4.936   1.289
 1724SOL     OW 6070   5.972   3.494   0.738
 1724SOL    HW1 6071   5.923   3.570   0.782
 1724SOL    HW2 6072   6.059   3.479   0.785
 1725SOL     OW 6073   1.795   6.589   6.008
 1725SOL    HW1 6074   1.760   6.633   5.926
 1725SOL    HW2 6075   1.751   6.500   6.019
 1726SOL     OW 6076   5.004   4.942   3.682
 1726SOL    HW1 6077   5.024   4.979   3.772
 1726SOL    HW2 6078   5.079   4.883   3.652
 1727SOL     OW 6079   2.994   3.452   3.902
 1727SOL    HW1 6080   2.935   3.522   3.943
 1727SOL    HW2 6081   3.032   3.393   3.973
 1728SOL     OW 6082   5.644   2.060   4.875
 1728SOL    HW1 6083   5.551   2.072   4.909
 1728SOL    HW2 6084   5.702   2.024   4.948
 1729SOL     OW 6085   1.882   3.312   2.931
 1729SOL    HW1 6086   1.962   3.358   2.893
 1729SOL    HW2 6087   1.842   3.251   2.862
 1730SOL     OW 6088   2.743   0.528   4.543
 1730SOL    HW1 6089   2.839   0.548   4.526
 1730SOL    HW2 6090   2.731   0.501   4.639
 1731SOL     OW 6091   5.927   4.511   3.671
 1731SOL    HW1 6092   5.967   4.537   3.584
 1731SOL    HW2 6093   5.839   4.556   3.683
 1732SOL     OW 6094   4.171   3.293   5.251
 1732SOL    HW1 6095   4.259   3.247   5.239
 1732SOL    HW2 6096   4.097   3.226   5.243
 1733SOL     OW 6097   1.221   1.847   6.905
 1733SOL    HW1 6098   1.123   1.849   6.925
 1733SOL    HW2 6099   1.273   1.858   6.990
 1734SOL     OW 6100   0.693   4.170   1.964
 1734SOL    HW1 6101   0.781   4.134   1.995
 1734SOL    HW2 6102   0.677   4.142   1.869
 1735SOL     OW 6103   3.209   5.670   5.929
 1735SOL    HW1 6104   3.245   5.703   5.842
 1735SOL    HW2 6105   3.139   5.601   5.912
 1736SOL     OW 6106   4.846   1.923   5.557
 1736SOL    HW1 6107   4.924   1.966   5.512
 1736SOL    HW2 6108   4.792   1.874   5.489
 1737SOL     OW 6109   2.686   1.343   6.386
 1737SOL    HW1 6110   2.606   1.340   6.446
 1737SOL    HW2 6111   2.669   1.286   6.306
 1738SOL     OW 6112   1.253   3.658   1.881
 1738SOL    HW1 6113   1.194   3.720   1.932
 1738SOL    HW2 6114   1.343   3.699   1.868
 1739SOL     OW 6115   4.523   5.204   2.344
 1739SOL    HW1 6116   4.576   5.243   2.269
 1739SOL    HW2 6117   4.466   5.130   2.309
 1740SOL     OW 6118   6.773   2.200   4.570
 1740SOL    HW1 6119   6.725   2.238   4.649
 1740SOL    HW2 6120   6.772   2.101   4.575
 1741SOL     OW 6121   1.010   3.187   4.249
 1741SOL    HW1 6122   0.988   3.225   4.339
 1741SOL    HW2 6123   1.101   3.145   4.252
 1742SOL     OW 6124   5.750   0.229   7.016
 1742SOL    HW1 6125   5.655   0.260   7.020
 1742SOL    HW2 6126   5.753   0.137   6.977
 1743SOL     OW 6127   1.219   2.465   1.642
 1743SOL    HW1 6128   1.243   2.489   1.548
 1743SOL    HW2 6129   1.196   2.368   1.647
 1744SOL     OW 6130   3.186   1.765   5.099
 1744SOL    HW1 6131   3.208   1.674   5.134
 1744SOL    HW2 6132   3.192   1.832   5.173
 1745SOL     OW 6133   6.409   6.365   0.948
 1745SOL    HW1 6134   6.422   6.423   0.868
 1745SOL    HW2 6135   6.312   6.356   0.968
 1746SOL     OW 6136   2.617   5.390   2.661
 1746SOL    HW1 6137   2.683   5.321   2.630
 1746SOL    HW2 6138   2.528   5.346   2.674
 1747SOL     OW 6139   2.573   6.729   2.044
 1747SOL    HW1 6140   2.512   6.808   2.035
 1747SOL    HW2 6141   2.664   6.760   2.068
 1748SOL     OW 6142   6.742   1.454   4.128
 1748SOL    HW1 6143   6.779   1.535   4.082
 1748SOL    HW2 6144   6.704   1.392   4.059
 1749SOL     OW 6145   6.695   4.916   2.777
 1749SOL    HW1 6146   6.715   4.828   2.820
 1749SOL    HW2 6147   6.762   4.984   2.807
 1750SOL     OW 6148   2.857   1.285   1.232
 1750SOL    HW1 6149   2.920   1.296   1.155
 1750SOL    HW2 6150   2.763   1.292   1.200
 1751SOL     OW 6151   6.304   4.344   4.563
 1751SOL    HW1 6152   6.307   4.443   4.550
 1751SOL    HW2 6153   6.368   4.318   4.635
 1752SOL     OW 6154   6.337   0.803   2.399
 1752SOL    HW1 6155   6.287   0.804   2.313
 1752SOL    HW2 6156   6.274   0.821   2.475
 1753SOL     OW 6157   6.327   1.469   1.504
 1753SOL    HW1 6158   6.231   1.474   1.532
 1753SOL    HW2 6159   6.375   1.550   1.538
 1754SOL     OW 6160   2.279   5.211   3.382
 1754SOL    HW1 6161   2.379   5.206   3.383
 1754SOL    HW2 6162   2.242   5.154   3.455
 1755SOL     OW 6163   6.089   6.047   5.401
 1755SOL    HW1 6164   6.106   5.983   5.476
 1755SOL    HW2 6165   5.991   6.049   5.380
 1756SOL     OW 6166   4.417   6.212   1.757
 1756SOL    HW1 6167   4.380   6.294   1.713
 1756SOL    HW2 6168   4.516   6.210   1.744
 1757SOL     OW 6169   2.621   5.013   4.862
 1757SOL    HW1 6170   2.638   4.914   4.861
 1757SOL    HW2 6171   2.708   5.062   4.871
 1758SOL     OW 6172   0.751   6.386   4.090
 1758SOL    HW1 6173   0.828   6.326   4.112
 1758SOL    HW2 6174   0.673   6.331   4.062
 1759SOL     OW 6175   1.752   5.467   6.197
 1759SOL    HW1 6176   1.725   5.513   6.113
 1759SOL    HW2 6177   1.802   5.531   6.255
 1760SOL     OW 6178   5.897   1.465   4.012
 1760SOL    HW1 6179   5.803   1.438   4.036
 1760SOL    HW2 6180   5.938   1.512   4.090
 1761SOL     OW 6181   5.510   2.274   3.717
 1761SOL    HW1 6182   5.506   2.176   3.734
 1761SOL    HW2 6183   5.477   2.324   3.797
 1762SOL     OW 6184   0.750   1.847   5.780
 1762SOL    HW1 6185   0.714   1.925   5.832
 1762SOL    HW2 6186   0.675   1.786   5.755
 1763SOL     OW 6187   1.511   4.671   3.829
 1763SOL    HW1 6188   1.418   4.705   3.816
 1763SOL    HW2 6189   1.568   4.744   3.867
 1764SOL     OW 6190   0.920   5.708   3.655
 1764SOL    HW1 6191   1.014   5.706   3.619
 1764SOL    HW2 6192   0.884   5.800   3.648
 1765SOL     OW 6193   5.448   3.935   2.098
 1765SOL    HW1 6194   5.517   3.864   2.114
 1765SOL    HW2 6195   5.395   3.913   2.016
 1766SOL     OW 6196   4.082   4.984   3.866
 1766SOL    HW1 6197   4.006   4.937   3.821
 1766SOL    HW2 6198   4.147   4.917   3.901
 1767SOL     OW 6199   1.421   4.379   1.561
 1767SOL    HW1 6200   1.481   4.312   1.606
 1767SOL    HW2 6201   1.462   4.470   1.568
 1768SOL     OW 6202   3.618   4.957   3.193
 1768SOL    HW1 6203   3.718   4.962   3.202
 1768SOL    HW2 6204   3.577   4.938   3.282
 1769SOL     OW 6205   5.300   0.474   1.110
 1769SOL    HW1 6206   5.258   0.390   1.144
 1769SOL    HW2 6207   5.339   0.525   1.187
 1770SOL     OW 6208   2.312   4.633   0.688
 1770SOL    HW1 6209   2.296   4.716   0.741
 1770SOL    HW2 6210   2.329   4.557   0.750
 1771SOL     OW 6211   1.316   3.235   6.068
 1771SOL    HW1 6212   1.240   3.178   6.100
 1771SOL    HW2 6213   1.298   3.263   5.974
 1772SOL     OW 6214   2.614   4.741   2.444
 1772SOL    HW1 6215   2.659   4.769   2.359
 1772SOL    HW2 6216   2.683   4.710   2.509
 1773SOL     OW 6217   2.209   6.641   4.653
 1773SOL    HW1 6218   2.176   6.619   4.745
 1773SOL    HW2 6219   2.143   6.702   4.609
 1774SOL     OW 6220   5.399   5.684   2.024
 1774SOL    HW1 6221   5.327   5.672   2.092
 1774SOL    HW2 6222   5.451   5.598   2.016
 1775SOL     OW 6223   1.755   6.562   0.943
 1775SOL    HW1 6224   1.853   6.577   0.956
 1775SOL    HW2 6225   1.703   6.619   1.007
 1776SOL     OW 6226   4.701   3.124   6.387
 1776SOL    HW1 6227   4.643   3.043   6.394
 1776SOL    HW2 6228   4.729   3.137   6.292
 1777SOL     OW 6229   5.072   5.436   6.844
 1777SOL    HW1 6230   5.054   5.337   6.842
 1777SOL    HW2 6231   5.065   5.473   6.751
 1778SOL     OW 6232   0.196   0.357   3.065
 1778SOL    HW1 6233   0.284   0.403   3.057
 1778SOL    HW2 6234   0.133   0.392   2.996
 1779SOL     OW 6235   6.683   0.079   4.520
 1779SOL    HW1 6236   6.770   0.121   4.545
 1779SOL    HW2 6237   6.649   0.120   4.436
 1780SOL     OW 6238   2.836   6.703   4.439
 1780SOL    HW1 6239   2.879   6.789   4.466
 1780SOL    HW2 6240   2.747   6.695   4.484
 1781SOL     OW 6241   5.112   1.049   6.092
 1781SOL    HW1 6242   5.208   1.064   6.114
 1781SOL    HW2 6243   5.105   0.991   6.011
 1782SOL     OW 6244   5.009   0.422   2.457
 1782SOL    HW1 6245   5.005   0.472   2.371
 1782SOL    HW2 6246   4.916   0.398   2.485
 1783SOL     OW 6247   1.735   3.245   0.080
 1783SOL    HW1 6248   1.648   3.286   0.109
 1783SOL    HW2 6249   1.771   3.189   0.154
 1784SOL     OW 6250   2.137   5.594   1.462
 1784SOL    HW1 6251   2.065   5.529   1.442
 1784SOL    HW2 6252   2.106   5.687   1.441
 1785SOL     OW 6253   2.037   5.168   4.383
 1785SOL    HW1 6254   2.015   5.225   4.303
 1785SOL    HW2 6255   2.117   5.206   4.430
 1786SOL     OW 6256   0.503   5.799   1.780
 1786SOL    HW1 6257   0.448   5.750   1.713
 1786SOL    HW2 6258   0.555   5.872   1.733
 1787SOL     OW 6259   2.587   2.650   6.149
 1787SOL    HW1 6260   2.673   2.603   6.166
 1787SOL    HW2 6261   2.556   2.631   6.055
 1788SOL     OW 6262   3.601   4.463   0.567
 1788SOL    HW1 6263   3.601   4.394   0.495
 1788SOL    HW2 6264   3.559   4.426   0.650
 1789SOL     OW 6265   5.864   2.584   2.351
 1789SOL    HW1 6266   5.808   2.654   2.395
 1789SOL    HW2 6267   5.843   2.582   2.253
 1790SOL     OW 6268   2.524   2.103   5.025
 1790SOL    HW1 6269   2.563   2.193   5.002
 1790SOL    HW2 6270   2.481   2.108   5.115
 1791SOL     OW 6271   6.369   0.358   3.386
 1791SOL    HW1 6272   6.418   0.430   3.337
 1791SOL    HW2 6273   6.344   0.285   3.323
 1792SOL     OW 6274   6.914   2.573   5.962
 1792SOL    HW1 6275   6.901   2.659   5.913
 1792SOL    HW2 6276   6.869   2.577   6.051
 1793SOL     OW 6277   0.643   1.541   4.725
 1793SOL    HW1 6278   0.607   1.628   4.760
 1793SOL    HW2 6279   0.573   1.470   4.733
 1794SOL     OW 6280   6.538   1.680   6.760
 1794SOL    HW1 6281   6.566   1.770   6.792
 1794SOL    HW2 6282   6.575   1.663   6.669
 1795SOL     OW 6283   5.412   4.649   0.438
 1795SOL    HW1 6284   5.370   4.734   0.471
 1795SOL    HW2 6285   5.352   4.608   0.369
 1796SOL     OW 6286   6.156   0.480   0.084
 1796SOL    HW1 6287   6.145   0.446   0.178
 1796SOL    HW2 6288   6.082   0.444   0.027
 1797SOL     OW 6289   3.188   6.270   5.207
 1797SOL    HW1 6290   3.091   6.284   5.187
 1797SOL    HW2 6291   3.243   6.307   5.133
 1798SOL     OW 6292   2.449   3.874   6.775
 1798SOL    HW1 6293   2.445   3.910   6.682
 1798SOL    HW2 6294   2.531   3.907   6.821
 1799SOL     OW 6295   3.216   1.783   2.182
 1799SOL    HW1 6296   3.266   1.859   2.142
 1799SOL    HW2 6297   3.205   1.710   2.114
 1800SOL     OW 6298   5.750   2.067   5.755
 1800SOL    HW1 6299   5.737   2.107   5.664
 1800SOL    HW2 6300   5.742   1.968   5.749
 1801SOL     OW 6301   0.846   1.564   2.146
 1801SOL    HW1 6302   0.773   1.602   2.090
 1801SOL    HW2 6303   0.868   1.472   2.116
 1802SOL     OW 6304   6.373   4.606   4.515
 1802SOL    HW1 6305   6.422   4.691   4.537
 1802SOL    HW2 6306   6.289   4.629   4.465
 1803SOL     OW 6307   0.164   6.222   3.789
 1803SOL    HW1 6308   0.065   6.222   3.774
 1803SOL    HW2 6309   0.209   6.173   3.715
 1804SOL     OW 6310   0.936   3.038   6.475
 1804SOL    HW1 6311   0.903   3.018   6.568
 1804SOL    HW2 6312   0.942   3.137   6.463
 1805SOL     OW 6313   6.305   4.869   5.697
 1805SOL    HW1 6314   6.390   4.874   5.644
 1805SOL    HW2 6315   6.254   4.954   5.686
 1806SOL     OW 6316   0.374   1.034   1.495
 1806SOL    HW1 6317   0.308   1.081   1.553
 1806SOL    HW2 6318   0.463   1.032   1.541
 1807SOL     OW 6319   6.505   2.400   2.200
 1807SOL    HW1 6320   6.596   2.440   2.200
 1807SOL    HW2 6321   6.465   2.409   2.292
 1808SOL     OW 6322   6.342   0.432   6.873
 1808SOL    HW1 6323   6.249   0.427   6.910
 1808SOL    HW2 6324   6.395   0.499   6.924
 1809SOL     OW 6325   4.650   0.385   5.130
 1809SOL    HW1 6326   4.726   0.386   5.065
 1809SOL    HW2 6327   4.567   0.358   5.082
 1810SOL     OW 6328   1.158   1.859   5.140
 1810SOL    HW1 6329   1.231   1.829   5.202
 1810SOL    HW2 6330   1.071   1.822   5.171
 1811SOL     OW 6331   3.698   5.681   2.097
 1811SOL    HW1 6332   3.743   5.768   2.077
 1811SOL    HW2 6333   3.722   5.651   2.189
 1812SOL     OW 6334   3.976   0.912   6.674
 1812SOL    HW1 6335   4.062   0.962   6.662
 1812SOL    HW2 6336   3.979   0.828   6.621
 1813SOL     OW 6337   5.867   3.374   1.804
 1813SOL    HW1 6338   5.793   3.308   1.793
 1813SOL    HW2 6339   5.877   3.397   1.901
 1814SOL     OW 6340   6.558   5.618   0.926
 1814SOL    HW1 6341   6.588   5.669   0.845
 1814SOL    HW2 6342   6.630   5.555   0.954
 1815SOL     OW 6343   6.185   5.421   1.421
 1815SOL    HW1 6344   6.123   5.495   1.449
 1815SOL    HW2 6345   6.168   5.340   1.476
 1816SOL     OW 6346   3.471   4.917   4.637
 1816SOL    HW1 6347   3.553   4.871   4.671
 1816SOL    HW2 6348   3.496   4.982   4.566
 1817SOL     OW 6349   6.835   2.511   3.334
 1817SOL    HW1 6350   6.882   2.568   3.401
 1817SOL    HW2 6351   6.773   2.449   3.382
 1818SOL     OW 6352   2.566   1.817   0.454
 1818SOL    HW1 6353   2.569   1.741   0.519
 1818SOL    HW2 6354   2.520   1.895   0.497
 1819SOL     OW 6355   0.811   3.251   1.333
 1819SOL    HW1 6356   0.869   3.330   1.313
 1819SOL    HW2 6357   0.844   3.172   1.281
 1820SOL     OW 6358   4.254   6.741   5.187
 1820SOL    HW1 6359   4.230   6.838   5.192
 1820SOL    HW2 6360   4.345   6.731   5.147
 1821SOL     OW 6361   3.719   1.014   2.776
 1821SOL    HW1 6362   3.679   1.105   2.787
 1821SOL    HW2 6363   3.705   0.961   2.860
 1822SOL     OW 6364   1.900   4.086   4.414
 1822SOL    HW1 6365   1.911   4.173   4.462
 1822SOL    HW2 6366   1.989   4.041   4.407
 1823SOL     OW 6367   4.024   6.905   3.873
 1823SOL    HW1 6368   4.097   6.886   3.938
 1823SOL    HW2 6369   4.063   6.947   3.791
 1824SOL     OW 6370   4.640   2.663   1.862
 1824SOL    HW1 6371   4.653   2.710   1.950
 1824SOL    HW2 6372   4.616   2.567   1.878
 1825SOL     OW 6373   1.402   3.865   0.316
 1825SOL    HW1 6374   1.305   3.841   0.320
 1825SOL    HW2 6375   1.455   3.785   0.287
 1826SOL     OW 6376   3.394   3.510   0.260
 1826SOL    HW1 6377   3.457   3.448   0.307
 1826SOL    HW2 6378   3.358   3.577   0.325
 1827SOL     OW 6379   5.324   4.536   0.894
 1827SOL    HW1 6380   5.367   4.543   0.804
 1827SOL    HW2 6381   5.393   4.514   0.963
 1828SOL     OW 6382   2.432   5.143   4.989
 1828SOL    HW1 6383   2.512   5.097   4.951
 1828SOL    HW2 6384   2.426   5.236   4.950
 1829SOL     OW 6385   1.846   6.298   2.143
 1829SOL    HW1 6386   1.816   6.326   2.234
 1829SOL    HW2 6387   1.852   6.198   2.139
 1830SOL     OW 6388   4.336   1.235   6.531
 1830SOL    HW1 6389   4.431   1.266   6.540
 1830SOL    HW2 6390   4.275   1.314   6.536
 1831SOL     OW 6391   3.332   4.541   6.959
 1831SOL    HW1 6392   3.250   4.593   6.984
 1831SOL    HW2 6393   3.353   4.475   0.008
 1832SOL     OW 6394   2.057   3.072   5.786
 1832SOL    HW1 6395   2.149   3.110   5.781
 1832SOL    HW2 6396   2.024   3.076   5.880
 1833SOL     OW 6397   5.803   1.428   0.660
 1833SOL    HW1 6398   5.773   1.454   0.752
 1833SOL    HW2 6399   5.840   1.509   0.613
 1834SOL     OW 6400   2.120   3.827   6.155
 1834SOL    HW1 6401   2.152   3.879   6.075
 1834SOL    HW2 6402   2.022   3.842   6.168
 1835SOL     OW 6403   6.462   0.084   0.025
 1835SOL    HW1 6404   6.382   0.081   0.085
 1835SOL    HW2 6405   6.541   0.115   0.078
 1836SOL     OW 6406   5.808   1.349   4.355
 1836SOL    HW1 6407   5.715   1.340   4.391
 1836SOL    HW2 6408   5.835   1.264   4.310
 1837SOL     OW 6409   1.194   2.160   0.752
 1837SOL    HW1 6410   1.128   2.094   0.788
 1837SOL    HW2 6411   1.149   2.219   0.685
 1838SOL     OW 6412   5.118   0.385   0.656
 1838SOL    HW1 6413   5.200   0.329   0.646
 1838SOL    HW2 6414   5.042   0.342   0.607
 1839SOL     OW 6415   6.941   1.673   6.158
 1839SOL    HW1 6416   6.937   1.772   6.144
 1839SOL    HW2 6417   6.965   1.628   6.072
 1840SOL     OW 6418   2.994   6.973   5.531
 1840SOL    HW1 6419   3.083   7.014   5.515
 1840SOL    HW2 6420   3.004   6.894   5.592
 1841SOL     OW 6421   2.464   7.000   1.965
 1841SOL    HW1 6422   2.534   0.048   1.955
 1841SOL    HW2 6423   2.437   6.967   1.874
 1842SOL     OW 6424   6.927   4.628   1.535
 1842SOL    HW1 6425   6.895   4.652   1.444
 1842SOL    HW2 6426   6.999   4.692   1.562
 1843SOL     OW 6427   2.916   0.698   6.827
 1843SOL    HW1 6428   3.011   0.671   6.843
 1843SOL    HW2 6429   2.876   0.731   6.913
 1844SOL     OW 6430   4.952   3.418   0.760
 1844SOL    HW1 6431   4.952   3.517   0.772
 1844SOL    HW2 6432   4.929   3.374   0.846
 1845SOL     OW 6433   0.807   2.556   4.620
 1845SOL    HW1 6434   0.830   2.640   4.668
 1845SOL    HW2 6435   0.816   2.570   4.521
 1846SOL     OW 6436   3.639   1.636   2.404
 1846SOL    HW1 6437   3.575   1.620   2.479
 1846SOL    HW2 6438   3.594   1.617   2.317
 1847SOL     OW 6439   3.334   6.144   6.663
 1847SOL    HW1 6440   3.312   6.209   6.737
 1847SOL    HW2 6441   3.422   6.168   6.623
 1848SOL     OW 6442   3.120   5.950   4.602
 1848SOL    HW1 6443   3.174   5.872   4.569
 1848SOL    HW2 6444   3.037   5.917   4.645
 1849SOL     OW 6445   4.849   2.826   2.479
 1849SOL    HW1 6446   4.877   2.887   2.405
 1849SOL    HW2 6447   4.756   2.793   2.462
 1850SOL     OW 6448   4.960   1.314   1.044
 1850SOL    HW1 6449   4.925   1.299   1.136
 1850SOL    HW2 6450   4.898   1.272   0.977
 1851SOL     OW 6451   0.826   5.056   4.027
 1851SOL    HW1 6452   0.891   5.031   4.099
 1851SOL    HW2 6453   0.822   5.156   4.020
 1852SOL     OW 6454   0.808   6.805   3.481
 1852SOL    HW1 6455   0.864   6.844   3.408
 1852SOL    HW2 6456   0.721   6.854   3.487
 1853SOL     OW 6457   0.770   1.816   5.427
 1853SOL    HW1 6458   0.779   1.779   5.519
 1853SOL    HW2 6459   0.674   1.815   5.399
 1854SOL     OW 6460   0.267   6.942   4.176
 1854SOL    HW1 6461   0.290   0.011   4.145
 1854SOL    HW2 6462   0.331   6.876   4.136
 1855SOL     OW 6463   6.629   1.352   5.036
 1855SOL    HW1 6464   6.536   1.389   5.033
 1855SOL    HW2 6465   6.679   1.379   4.954
 1856SOL     OW 6466   5.123   3.803   6.417
 1856SOL    HW1 6467   5.113   3.724   6.478
 1856SOL    HW2 6468   5.147   3.771   6.325
 1857SOL     OW 6469   4.593   0.757   6.632
 1857SOL    HW1 6470   4.590   0.853   6.660
 1857SOL    HW2 6471   4.649   0.748   6.549
 1858SOL     OW 6472   5.528   2.329   4.280
 1858SOL    HW1 6473   5.484   2.243   4.254
 1858SOL    HW2 6474   5.483   2.366   4.361
 1859SOL     OW 6475   6.122   6.378   2.754
 1859SOL    HW1 6476   6.024   6.379   2.735
 1859SOL    HW2 6477   6.172   6.408   2.673
 1860SOL     OW 6478   2.162   0.794   0.095
 1860SOL    HW1 6479   2.260   0.787   0.112
 1860SOL    HW2 6480   2.127   0.707   0.061
 1861SOL     OW 6481   6.708   6.767   5.190
 1861SOL    HW1 6482   6.663   6.679   5.208
 1861SOL    HW2 6483   6.804   6.751   5.166
 1862SOL     OW 6484   3.877   5.166   5.332
 1862SOL    HW1 6485   3.825   5.235   5.382
 1862SOL    HW2 6486   3.873   5.079   5.381
 1863SOL     OW 6487   6.740   1.271   1.557
 1863SOL    HW1 6488   6.697   1.298   1.470
 1863SOL    HW2 6489   6.810   1.339   1.581
 1864SOL     OW 6490   2.310   5.881   2.629
 1864SOL    HW1 6491   2.379   5.953   2.634
 1864SOL    HW2 6492   2.354   5.792   2.639
 1865SOL     OW 6493   6.365   2.659   5.672
 1865SOL    HW1 6494   6.357   2.571   5.624
 1865SOL    HW2 6495   6.407   2.726   5.611
 1866SOL     OW 6496   0.537   3.951   5.165
 1866SOL    HW1 6497   0.524   3.895   5.247
 1866SOL    HW2 6498   0.462   4.017   5.158
 1867SOL     OW 6499   1.352   0.741   1.284
 1867SOL    HW1 6500   1.326   0.827   1.240
 1867SOL    HW2 6501   1.278   0.711   1.344
 1868SOL     OW 6502   5.630   3.285   5.686
 1868SOL    HW1 6503   5.691   3.209   5.661
 1868SOL    HW2 6504   5.642   3.360   5.621
 1869SOL     OW 6505   5.103   0.355   5.397
 1869SOL    HW1 6506   5.031   0.411   5.355
 1869SOL    HW2 6507   5.176   0.341   5.330
 1870SOL     OW 6508   5.823   0.731   5.534
 1870SOL    HW1 6509   5.868   0.817   5.512
 1870SOL    HW2 6510   5.874   0.685   5.607
 1871SOL     OW 6511   2.492   4.937   6.744
 1871SOL    HW1 6512   2.478   5.019   6.688
 1871SOL    HW2 6513   2.430   4.940   6.822
 1872SOL     OW 6514   2.558   3.357   0.844
 1872SOL    HW1 6515   2.472   3.311   0.823
 1872SOL    HW2 6516   2.626   3.333   0.775
 1873SOL     OW 6517   6.240   1.748   2.421
 1873SOL    HW1 6518   6.327   1.720   2.381
 1873SOL    HW2 6519   6.178   1.777   2.348
 1874SOL     OW 6520   2.106   5.361   6.354
 1874SOL    HW1 6521   2.062   5.332   6.269
 1874SOL    HW2 6522   2.060   5.319   6.431
 1875SOL     OW 6523   1.323   6.289   2.174
 1875SOL    HW1 6524   1.372   6.363   2.220
 1875SOL    HW2 6525   1.272   6.236   2.241
 1876SOL     OW 6526   0.971   4.716   6.040
 1876SOL    HW1 6527   0.872   4.702   6.039
 1876SOL    HW2 6528   1.017   4.634   6.007
 1877SOL     OW 6529   0.326   0.976   3.511
 1877SOL    HW1 6530   0.337   0.893   3.566
 1877SOL    HW2 6531   0.383   0.969   3.429
 1878SOL     OW 6532   5.818   4.179   4.191
 1878SOL    HW1 6533   5.916   4.167   4.211
 1878SOL    HW2 6534   5.770   4.092   4.204
 1879SOL     OW 6535   4.111   6.363   5.616
 1879SOL    HW1 6536   4.175   6.435   5.589
 1879SOL    HW2 6537   4.035   6.402   5.668
 1880SOL     OW 6538   1.624   3.262   4.653
 1880SOL    HW1 6539   1.574   3.348   4.645
 1880SOL    HW2 6540   1.710   3.268   4.602
 1881SOL     OW 6541   2.207   2.275   3.321
 1881SOL    HW1 6542   2.296   2.316   3.302
 1881SOL    HW2 6543   2.210   2.228   3.410
 1882SOL     OW 6544   4.178   6.284   0.863
 1882SOL    HW1 6545   4.277   6.295   0.862
 1882SOL    HW2 6546   4.134   6.374   0.861
 1883SOL     OW 6547   2.074   3.525   2.544
 1883SOL    HW1 6548   2.078   3.624   2.553
 1883SOL    HW2 6549   2.073   3.500   2.447
 1884SOL     OW 6550   4.863   0.882   6.813
 1884SOL    HW1 6551   4.865   0.807   6.879
 1884SOL    HW2 6552   4.798   0.952   6.843
 1885SOL     OW 6553   0.090   1.637   0.946
 1885SOL    HW1 6554   0.161   1.659   0.879
 1885SOL    HW2 6555   0.132   1.594   1.027
 1886SOL     OW 6556   3.458   3.130   4.694
 1886SOL    HW1 6557   3.479   3.033   4.684
 1886SOL    HW2 6558   3.468   3.175   4.605
 1887SOL     OW 6559   0.672   6.025   5.329
 1887SOL    HW1 6560   0.690   5.927   5.327
 1887SOL    HW2 6561   0.695   6.062   5.419
 1888SOL     OW 6562   2.243   1.723   6.100
 1888SOL    HW1 6563   2.288   1.635   6.115
 1888SOL    HW2 6564   2.149   1.718   6.134
 1889SOL     OW 6565   3.527   3.819   6.999
 1889SOL    HW1 6566   3.613   3.778   6.967
 1889SOL    HW2 6567   3.453   3.793   6.937
 1890SOL     OW 6568   6.063   6.460   6.584
 1890SOL    HW1 6569   5.987   6.512   6.545
 1890SOL    HW2 6570   6.117   6.519   6.644
 1891SOL     OW 6571   5.521   3.466   6.604
 1891SOL    HW1 6572   5.480   3.395   6.547
 1891SOL    HW2 6573   5.555   3.540   6.547
 1892SOL     OW 6574   4.159   0.454   3.055
 1892SOL    HW1 6575   4.225   0.414   2.991
 1892SOL    HW2 6576   4.097   0.515   3.005
 1893SOL     OW 6577   2.905   2.041   6.830
 1893SOL    HW1 6578   2.892   2.131   6.789
 1893SOL    HW2 6579   2.913   1.972   6.758
 1894SOL     OW 6580   4.923   2.966   0.766
 1894SOL    HW1 6581   4.975   3.048   0.742
 1894SOL    HW2 6582   4.977   2.885   0.746
 1895SOL     OW 6583   5.136   5.613   3.357
 1895SOL    HW1 6584   5.221   5.585   3.401
 1895SOL    HW2 6585   5.059   5.565   3.399
 1896SOL     OW 6586   6.705   1.458   4.810
 1896SOL    HW1 6587   6.744   1.550   4.808
 1896SOL    HW2 6588   6.644   1.446   4.732
 1897SOL     OW 6589   5.506   5.400   3.300
 1897SOL    HW1 6590   5.455   5.351   3.229
 1897SOL    HW2 6591   5.499   5.498   3.284
 1898SOL     OW 6592   5.538   6.607   6.953
 1898SOL    HW1 6593   5.555   6.537   0.000
 1898SOL    HW2 6594   5.616   6.669   6.949
 1899SOL     OW 6595   2.134   2.829   3.664
 1899SOL    HW1 6596   2.194   2.840   3.743
 1899SOL    HW2 6597   2.166   2.752   3.609
 1900SOL     OW 6598   2.815   5.480   1.518
 1900SOL    HW1 6599   2.891   5.415   1.525
 1900SOL    HW2 6600   2.833   5.559   1.577
 1901SOL     OW 6601   0.638   1.431   5.852
 1901SOL    HW1 6602   0.633   1.337   5.819
 1901SOL    HW2 6603   0.554   1.453   5.902
 1902SOL     OW 6604   1.537   2.541   4.700
 1902SOL    HW1 6605   1.557   2.618   4.759
 1902SOL    HW2 6606   1.482   2.474   4.750
 1903SOL     OW 6607   6.460   5.752   3.658
 1903SOL    HW1 6608   6.510   5.736   3.743
 1903SOL    HW2 6609   6.490   5.838   3.617
 1904SOL     OW 6610   0.697   0.300   4.015
 1904SOL    HW1 6611   0.709   0.387   4.062
 1904SOL    HW2 6612   0.767   0.235   4.047
 1905SOL     OW 6613   6.090   3.117   5.522
 1905SOL    HW1 6614   6.138   3.200   5.494
 1905SOL    HW2 6615   6.092   3.050   5.448
 1906SOL     OW 6616   2.625   6.652   5.611
 1906SOL    HW1 6617   2.572   6.735   5.624
 1906SOL    HW2 6618   2.650   6.613   5.700
 1907SOL     OW 6619   4.225   6.749   3.405
 1907SOL    HW1 6620   4.157   6.802   3.356
 1907SOL    HW2 6621   4.233   6.658   3.363
 1908SOL     OW 6622   5.052   4.910   0.454
 1908SOL    HW1 6623   5.046   4.825   0.402
 1908SOL    HW2 6624   5.148   4.933   0.468
 1909SOL     OW 6625   5.283   5.503   3.595
 1909SOL    HW1 6626   5.263   5.564   3.672
 1909SOL    HW2 6627   5.292   5.409   3.629
 1910SOL     OW 6628   4.882   3.978   4.176
 1910SOL    HW1 6629   4.878   3.984   4.276
 1910SOL    HW2 6630   4.882   3.882   4.149
 1911SOL     OW 6631   0.697   2.449   5.517
 1911SOL    HW1 6632   0.783   2.439   5.566
 1911SOL    HW2 6633   0.652   2.360   5.511
 1912SOL     OW 6634   3.152   6.500   2.495
 1912SOL    HW1 6635   3.057   6.509   2.526
 1912SOL    HW2 6636   3.165   6.409   2.456
 1913SOL     OW 6637   2.679   4.022   6.873
 1913SOL    HW1 6638   2.711   3.988   6.785
 1913SOL    HW2 6639   2.740   3.990   6.946
 1914SOL     OW 6640   4.462   1.359   4.895
 1914SOL    HW1 6641   4.465   1.357   4.795
 1914SOL    HW2 6642   4.490   1.449   4.927
 1915SOL     OW 6643   3.092   6.660   5.393
 1915SOL    HW1 6644   3.143   6.651   5.307
 1915SOL    HW2 6645   3.144   6.717   5.456
 1916SOL     OW 6646   3.373   6.562   2.288
 1916SOL    HW1 6647   3.349   6.647   2.242
 1916SOL    HW2 6648   3.302   6.539   2.354
 1917SOL     OW 6649   3.541   4.109   3.591
 1917SOL    HW1 6650   3.616   4.120   3.655
 1917SOL    HW2 6651   3.570   4.050   3.515
 1918SOL     OW 6652   0.704   6.334   5.675
 1918SOL    HW1 6653   0.795   6.375   5.675
 1918SOL    HW2 6654   0.645   6.382   5.739
 1919SOL     OW 6655   5.833   0.690   2.042
 1919SOL    HW1 6656   5.909   0.637   2.079
 1919SOL    HW2 6657   5.747   0.644   2.064
 1920SOL     OW 6658   6.660   6.166   4.508
 1920SOL    HW1 6659   6.729   6.135   4.573
 1920SOL    HW2 6660   6.676   6.262   4.485
 1921SOL     OW 6661   2.625   6.154   0.029
 1921SOL    HW1 6662   2.567   6.190   0.101
 1921SOL    HW2 6663   2.708   6.115   0.069
 1922SOL     OW 6664   3.911   4.563   0.065
 1922SOL    HW1 6665   3.913   4.465   0.045
 1922SOL    HW2 6666   3.877   4.613   7.008
 1923SOL     OW 6667   1.794   2.951   1.126
 1923SOL    HW1 6668   1.864   2.966   1.056
 1923SOL    HW2 6669   1.719   2.897   1.087
 1924SOL     OW 6670   0.490   3.680   1.480
 1924SOL    HW1 6671   0.395   3.647   1.480
 1924SOL    HW2 6672   0.537   3.645   1.561
 1925SOL     OW 6673   3.122   4.417   0.545
 1925SOL    HW1 6674   3.027   4.388   0.551
 1925SOL    HW2 6675   3.126   4.513   0.518
 1926SOL     OW 6676   0.795   0.768   3.947
 1926SOL    HW1 6677   0.775   0.671   3.931
 1926SOL    HW2 6678   0.718   0.811   3.994
 1927SOL     OW 6679   5.198   3.441   1.305
 1927SOL    HW1 6680   5.204   3.341   1.303
 1927SOL    HW2 6681   5.112   3.469   1.348
 1928SOL     OW 6682   0.094   5.361   4.521
 1928SOL    HW1 6683   0.029   5.430   4.553
 1928SOL    HW2 6684   0.058   5.316   4.439
 1929SOL     OW 6685   0.628   4.831   3.015
 1929SOL    HW1 6686   0.547   4.779   2.991
 1929SOL    HW2 6687   0.619   4.924   2.981
 1930SOL     OW 6688   6.653   5.556   5.816
 1930SOL    HW1 6689   6.570   5.514   5.854
 1930SOL    HW2 6690   6.632   5.598   5.728
 1931SOL     OW 6691   2.001   2.216   4.260
 1931SOL    HW1 6692   2.036   2.148   4.324
 1931SOL    HW2 6693   1.956   2.171   4.183
 1932SOL     OW 6694   5.974   3.359   2.292
 1932SOL    HW1 6695   6.023   3.285   2.246
 1932SOL    HW2 6696   5.919   3.409   2.225
 1933SOL     OW 6697   3.104   4.973   0.259
 1933SOL    HW1 6698   3.194   4.938   0.285
 1933SOL    HW2 6699   3.102   4.990   0.160
 1934SOL     OW 6700   0.307   6.128   2.817
 1934SOL    HW1 6701   0.351   6.209   2.857
 1934SOL    HW2 6702   0.368   6.087   2.749
 1935SOL     OW 6703   0.929   1.035   3.434
 1935SOL    HW1 6704   0.992   1.108   3.408
 1935SOL    HW2 6705   0.972   0.977   3.504
 1936SOL     OW 6706   0.356   5.646   5.056
 1936SOL    HW1 6707   0.291   5.721   5.071
 1936SOL    HW2 6708   0.361   5.590   5.138
 1937SOL     OW 6709   4.773   1.792   3.164
 1937SOL    HW1 6710   4.767   1.704   3.210
 1937SOL    HW2 6711   4.797   1.778   3.068
 1938SOL     OW 6712   5.427   6.801   3.800
 1938SOL    HW1 6713   5.372   6.877   3.767
 1938SOL    HW2 6714   5.420   6.796   3.900
 1939SOL     OW 6715   2.545   0.138   4.469
 1939SOL    HW1 6716   2.553   0.198   4.550
 1939SOL    HW2 6717   2.484   0.062   4.490
 1940SOL     OW 6718   6.022   6.806   6.601
 1940SOL    HW1 6719   6.107   6.762   6.630
 1940SOL    HW2 6720   6.043   6.889   6.550
 1941SOL     OW 6721   4.609   5.044   2.629
 1941SOL    HW1 6722   4.678   4.972   2.620
 1941SOL    HW2 6723   4.621   5.112   2.556
 1942SOL     OW 6724   0.013   2.975   2.915
 1942SOL    HW1 6725   6.943   2.975   2.876
 1942SOL    HW2 6726   0.072   2.915   2.861
 1943SOL     OW 6727   3.352   5.383   3.432
 1943SOL    HW1 6728   3.332   5.448   3.505
 1943SOL    HW2 6729   3.323   5.421   3.344
 1944SOL     OW 6730   0.302   6.485   2.130
 1944SOL    HW1 6731   0.359   6.483   2.212
 1944SOL    HW2 6732   0.246   6.403   2.126
 1945SOL     OW 6733   2.791   4.706   2.681
 1945SOL    HW1 6734   2.796   4.805   2.673
 1945SOL    HW2 6735   2.879   4.670   2.713
 1946SOL     OW 6736   1.772   6.717   6.801
 1946SOL    HW1 6737   1.859   6.668   6.799
 1946SOL    HW2 6738   1.699   6.652   6.821
 1947SOL     OW 6739   4.395   0.682   3.446
 1947SOL    HW1 6740   4.322   0.660   3.381
 1947SOL    HW2 6741   4.362   0.665   3.539
 1948SOL     OW 6742   6.142   2.971   5.292
 1948SOL    HW1 6743   6.065   2.910   5.272
 1948SOL    HW2 6744   6.228   2.923   5.276
 1949SOL     OW 6745   4.823   3.687   6.864
 1949SOL    HW1 6746   4.845   3.590   6.857
 1949SOL    HW2 6747   4.821   3.727   6.772
 1950SOL     OW 6748   3.215   5.151   0.853
 1950SOL    HW1 6749   3.183   5.208   0.928
 1950SOL    HW2 6750   3.138   5.123   0.797
 1951SOL     OW 6751   6.263   2.874   0.040
 1951SOL    HW1 6752   6.205   2.820   7.001
 1951SOL    HW2 6753   6.351   2.829   0.050
 1952SOL     OW 6754   3.096   3.123   4.301
 1952SOL    HW1 6755   3.038   3.127   4.383
 1952SOL    HW2 6756   3.108   3.215   4.264
 1953SOL     OW 6757   0.711   2.160   4.247
 1953SOL    HW1 6758   0.724   2.108   4.162
 1953SOL    HW2 6759   0.763   2.246   4.242
 1954SOL     OW 6760   2.148   1.703   4.414
 1954SOL    HW1 6761   2.055   1.716   4.448
 1954SOL    HW2 6762   2.153   1.729   4.318
 1955SOL     OW 6763   6.395   5.998   2.500
 1955SOL    HW1 6764   6.486   5.957   2.509
 1955SOL    HW2 6765   6.384   6.070   2.568
 1956SOL     OW 6766   4.778   5.984   3.074
 1956SOL    HW1 6767   4.687   5.998   3.036
 1956SOL    HW2 6768   4.821   6.073   3.092
 1957SOL     OW 6769   2.584   6.399   4.997
 1957SOL    HW1 6770   2.643   6.326   5.032
 1957SOL    HW2 6771   2.558   6.460   5.072
 1958SOL     OW 6772   3.832   3.938   6.574
 1958SOL    HW1 6773   3.892   3.943   6.654
 1958SOL    HW2 6774   3.805   4.030   6.547
 1959SOL     OW 6775   2.504   0.429   0.898
 1959SOL    HW1 6776   2.544   0.468   0.816
 1959SOL    HW2 6777   2.417   0.474   0.918
 1960SOL     OW 6778   5.313   5.569   2.547
 1960SOL    HW1 6779   5.241   5.545   2.612
 1960SOL    HW2 6780   5.336   5.666   2.557
 1961SOL     OW 6781   5.530   4.914   5.861
 1961SOL    HW1 6782   5.523   4.818   5.833
 1961SOL    HW2 6783   5.445   4.942   5.906
 1962SOL     OW 6784   0.037   6.564   4.542
 1962SOL    HW1 6785   0.069   6.493   4.478
 1962SOL    HW2 6786   0.112   6.627   4.561
 1963SOL     OW 6787   2.638   1.298   3.961
 1963SOL    HW1 6788   2.718   1.344   3.999
 1963SOL    HW2 6789   2.587   1.253   4.035
 1964SOL     OW 6790   6.536   3.071   2.331
 1964SOL    HW1 6791   6.628   3.065   2.370
 1964SOL    HW2 6792   6.538   3.125   2.247
 1965SOL     OW 6793   2.349   6.622   3.637
 1965SOL    HW1 6794   2.354   6.531   3.678
 1965SOL    HW2 6795   2.253   6.648   3.625
 1966SOL     OW 6796   6.851   6.786   6.699
 1966SOL    HW1 6797   6.916   6.728   6.650
 1966SOL    HW2 6798   6.763   6.786   6.651
 1967SOL     OW 6799   5.690   2.721   4.822
 1967SOL    HW1 6800   5.782   2.683   4.812
 1967SOL    HW2 6801   5.682   2.804   4.766
 1968SOL     OW 6802   4.170   5.567   4.739
 1968SOL    HW1 6803   4.104   5.632   4.778
 1968SOL    HW2 6804   4.168   5.482   4.791
 1969SOL     OW 6805   6.466   1.302   1.693
 1969SOL    HW1 6806   6.559   1.277   1.668
 1969SOL    HW2 6807   6.425   1.355   1.619
 1970SOL     OW 6808   1.759   1.074   4.030
 1970SOL    HW1 6809   1.669   1.064   4.071
 1970SOL    HW2 6810   1.777   0.995   3.971
 1971SOL     OW 6811   6.792   1.304   6.049
 1971SOL    HW1 6812   6.812   1.376   6.115
 1971SOL    HW2 6813   6.721   1.335   5.986
 1972SOL     OW 6814   1.366   6.925   3.694
 1972SOL    HW1 6815   1.338   6.935   3.599
 1972SOL    HW2 6816   1.354   6.830   3.722
 1973SOL     OW 6817   2.638   3.147   0.418
 1973SOL    HW1 6818   2.550   3.187   0.391
 1973SOL    HW2 6819   2.623   3.059   0.463
 1974SOL     OW 6820   6.523   6.419   4.151
 1974SOL    HW1 6821   6.559   6.331   4.120
 1974SOL    HW2 6822   6.501   6.413   4.249
 1975SOL     OW 6823   2.605   6.757   3.390
 1975SOL    HW1 6824   2.659   6.838   3.412
 1975SOL    HW2 6825   2.567   6.767   3.298
 1976SOL     OW 6826   6.372   4.613   5.784
 1976SOL    HW1 6827   6.324   4.694   5.750
 1976SOL    HW2 6828   6.319   4.571   5.857
 1977SOL     OW 6829   3.270   2.074   5.237
 1977SOL    HW1 6830   3.247   2.137   5.162
 1977SOL    HW2 6831   3.299   2.126   5.317
 1978SOL     OW 6832   6.784   2.438   5.052
 1978SOL    HW1 6833   6.829   2.527   5.052
 1978SOL    HW2 6834   6.700   2.443   5.106
 1979SOL     OW 6835   6.733   3.702   2.580
 1979SOL    HW1 6836   6.826   3.675   2.605
 1979SOL    HW2 6837   6.727   3.801   2.573
 1980SOL     OW 6838   2.444   0.713   2.352
 1980SOL    HW1 6839   2.496   0.798   2.346
 1980SOL    HW2 6840   2.506   0.637   2.367
 1981SOL     OW 6841   5.810   3.133   2.052
 1981SOL    HW1 6842   5.908   3.128   2.069
 1981SOL    HW2 6843   5.781   3.050   2.002
 1982SOL     OW 6844   0.210   0.171   5.449
 1982SOL    HW1 6845   0.137   0.171   5.517
 1982SOL    HW2 6846   0.235   0.077   5.426
 1983SOL     OW 6847   1.177   4.290   1.669
 1983SOL    HW1 6848   1.154   4.372   1.722
 1983SOL    HW2 6849   1.275   4.292   1.646
 1984SOL     OW 6850   4.413   0.663   5.379
 1984SOL    HW1 6851   4.405   0.666   5.478
 1984SOL    HW2 6852   4.423   0.756   5.344
 1985SOL     OW 6853   1.433   5.793   1.551
 1985SOL    HW1 6854   1.352   5.742   1.520
 1985SOL    HW2 6855   1.462   5.757   1.640
 1986SOL     OW 6856   6.941   2.852   0.631
 1986SOL    HW1 6857   7.000   2.841   0.551
 1986SOL    HW2 6858   6.984   2.809   0.710
 1987SOL     OW 6859   2.552   3.695   0.003
 1987SOL    HW1 6860   2.537   3.785   0.044
 1987SOL    HW2 6861   2.613   3.704   6.947
 1988SOL     OW 6862   4.935   3.029   1.067
 1988SOL    HW1 6863   5.006   2.974   1.112
 1988SOL    HW2 6864   4.923   2.998   0.973
 1989SOL     OW 6865   2.116   2.324   3.769
 1989SOL    HW1 6866   2.183   2.396   3.751
 1989SOL    HW2 6867   2.039   2.363   3.820
 1990SOL     OW 6868   0.910   0.670   3.241
 1990SOL    HW1 6869   0.926   0.581   3.284
 1990SOL    HW2 6870   0.995   0.722   3.241
 1991SOL     OW 6871   4.701   6.291   2.832
 1991SOL    HW1 6872   4.745   6.304   2.921
 1991SOL    HW2 6873   4.625   6.227   2.842
 1992SOL     OW 6874   2.535   5.430   5.666
 1992SOL    HW1 6875   2.506   5.337   5.642
 1992SOL    HW2 6876   2.457   5.481   5.703
 1993SOL     OW 6877   2.928   3.503   4.400
 1993SOL    HW1 6878   2.919   3.510   4.301
 1993SOL    HW2 6879   2.990   3.574   4.433
 1994SOL     OW 6880   6.652   2.154   2.034
 1994SOL    HW1 6881   6.617   2.169   2.127
 1994SOL    HW2 6882   6.591   2.092   1.985
 1995SOL     OW 6883   3.682   2.213   1.410
 1995SOL    HW1 6884   3.619   2.137   1.422
 1995SOL    HW2 6885   3.689   2.265   1.495
 1996SOL     OW 6886   2.476   4.549   5.220
 1996SOL    HW1 6887   2.393   4.509   5.258
 1996SOL    HW2 6888   2.554   4.528   5.280
 1997SOL     OW 6889   6.076   5.829   4.257
 1997SOL    HW1 6890   6.056   5.912   4.309
 1997SOL    HW2 6891   6.001   5.811   4.193
 1998SOL     OW 6892   2.911   4.813   4.783
 1998SOL    HW1 6893   2.837   4.745   4.781
 1998SOL    HW2 6894   2.936   4.831   4.878
 1999SOL     OW 6895   2.128   1.586   2.042
 1999SOL    HW1 6896   2.050   1.620   1.988
 1999SOL    HW2 6897   2.132   1.486   2.035
 2000SOL     OW 6898   3.031   1.062   5.093
 2000SOL    HW1 6899   3.064   1.034   5.003
 2000SOL    HW2 6900   2.944   1.016   5.113
 2001SOL     OW 6901   2.250   2.732   6.840
 2001SOL    HW1 6902   2.332   2.731   6.898
 2001SOL    HW2 6903   2.277   2.751   6.745
 2002SOL     OW 6904   1.523   4.977   4.717
 2002SOL    HW1 6905   1.538   4.960   4.620
 2002SOL    HW2 6906   1.427   4.956   4.740
 2003SOL     OW 6907   6.441   3.847   3.528
 2003SOL    HW1 6908   6.511   3.883   3.590
 2003SOL    HW2 6909   6.353   3.844   3.574
 2004SOL     OW 6910   3.502   0.064   6.958
 2004SOL    HW1 6911   3.512   0.154   6.916
 2004SOL    HW2 6912   3.419   0.061   7.013
 2005SOL     OW 6913   2.897   6.267   5.270
 2005SOL    HW1 6914   2.877   6.357   5.308
 2005SOL    HW2 6915   2.904   6.200   5.344
 2006SOL     OW 6916   4.665   6.766   3.300
 2006SOL    HW1 6917   4.763   6.769   3.278
 2006SOL    HW2 6918   4.618   6.839   3.251
 2007SOL     OW 6919   6.538   5.723   7.006
 2007SOL    HW1 6920   6.568   5.816   6.987
 2007SOL    HW2 6921   6.580   5.691   0.068
 2008SOL     OW 6922   6.957   5.841   5.693
 2008SOL    HW1 6923   6.924   5.757   5.650
 2008SOL    HW2 6924   6.887   5.912   5.685
 2009SOL     OW 6925   0.994   0.531   0.076
 2009SOL    HW1 6926   1.015   0.433   0.081
 2009SOL    HW2 6927   1.079   0.583   0.064
 2010SOL     OW 6928   2.089   0.862   0.875
 2010SOL    HW1 6929   2.020   0.932   0.858
 2010SOL    HW2 6930   2.119   0.822   0.788
 2011SOL     OW 6931   6.777   1.940   4.587
 2011SOL    HW1 6932   6.705   1.901   4.645
 2011SOL    HW2 6933   6.800   1.876   4.514
 2012SOL     OW 6934   0.105   3.399   1.085
 2012SOL    HW1 6935   0.081   3.326   1.022
 2012SOL    HW2 6936   0.029   3.414   1.149
 2013SOL     OW 6937   3.953   2.108   1.581
 2013SOL    HW1 6938   4.037   2.151   1.614
 2013SOL    HW2 6939   3.885   2.179   1.563
 2014SOL     OW 6940   3.521   5.693   3.242
 2014SOL    HW1 6941   3.536   5.748   3.324
 2014SOL    HW2 6942   3.478   5.749   3.172
 2015SOL     OW 6943   3.437   5.652   6.931
 2015SOL    HW1 6944   3.378   5.645   7.012
 2015SOL    HW2 6945   3.401   5.723   6.870
 2016SOL     OW 6946   6.319   5.722   4.329
 2016SOL    HW1 6947   6.227   5.746   4.296
 2016SOL    HW2 6948   6.358   5.800   4.378
 2017SOL     OW 6949   2.044   5.436   2.348
 2017SOL    HW1 6950   1.947   5.451   2.329
 2017SOL    HW2 6951   2.075   5.355   2.299
 2018SOL     OW 6952   0.494   4.128   5.810
 2018SOL    HW1 6953   0.396   4.110   5.813
 2018SOL    HW2 6954   0.535   4.103   5.898
 2019SOL     OW 6955   5.071   1.216   2.876
 2019SOL    HW1 6956   4.976   1.204   2.903
 2019SOL    HW2 6957   5.125   1.245   2.955
 2020SOL     OW 6958   2.102   5.426   3.335
 2020SOL    HW1 6959   2.158   5.494   3.288
 2020SOL    HW2 6960   2.158   5.348   3.361
 2021SOL     OW 6961   1.866   6.091   1.823
 2021SOL    HW1 6962   1.964   6.102   1.839
 2021SOL    HW2 6963   1.835   6.005   1.863
 2022SOL     OW 6964   3.373   5.244   1.488
 2022SOL    HW1 6965   3.399   5.340   1.489
 2022SOL    HW2 6966   3.275   5.236   1.472
 2023SOL     OW 6967   6.474   2.142   5.703
 2023SOL    HW1 6968   6.513   2.118   5.792
 2023SOL    HW2 6969   6.462   2.059   5.649
 2024SOL     OW 6970   5.967   0.168   3.032
 2024SOL    HW1 6971   5.979   0.138   3.127
 2024SOL    HW2 6972   6.047   0.142   2.978
 2025SOL     OW 6973   6.039   1.025   1.226
 2025SOL    HW1 6974   5.969   1.084   1.187
 2025SOL    HW2 6975   6.084   0.973   1.153
 2026SOL     OW 6976   2.101   1.761   5.210
 2026SOL    HW1 6977   2.099   1.855   5.176
 2026SOL    HW2 6978   2.049   1.756   5.296
 2027SOL     OW 6979   6.981   0.284   1.842
 2027SOL    HW1 6980   0.012   0.362   1.808
 2027SOL    HW2 6981   6.889   0.288   1.804
 2028SOL     OW 6982   3.869   3.885   5.686
 2028SOL    HW1 6983   3.937   3.917   5.621
 2028SOL    HW2 6984   3.910   3.818   5.748
 2029SOL     OW 6985   1.754   0.573   0.228
 2029SOL    HW1 6986   1.794   0.643   0.168
 2029SOL    HW2 6987   1.822   0.545   0.296
 2030SOL     OW 6988   1.906   2.469   2.965
 2030SOL    HW1 6989   1.812   2.445   2.989
 2030SOL    HW2 6990   1.934   2.415   2.886
 2031SOL     OW 6991   6.309   0.246   2.746
 2031SOL    HW1 6992   6.232   0.253   2.809
 2031SOL    HW2 6993   6.312   0.153   2.708
 2032SOL     OW 6994   4.659   6.038   2.421
 2032SOL    HW1 6995   4.728   6.026   2.492
 2032SOL    HW2 6996   4.647   5.952   2.371
 2033SOL     OW 6997   0.373   5.335   6.353
 2033SOL    HW1 6998   0.320   5.267   6.302
 2033SOL    HW2 6999   0.335   5.426   6.338
 2034SOL     OW 7000   2.139   5.302   3.779
 2034SOL    HW1 7001   2.175   5.249   3.856
 2034SOL    HW2 7002   2.212   5.358   3.740
 2035SOL     OW 7003   0.800   2.081   3.221
 2035SOL    HW1 7004   0.766   1.999   3.175
 2035SOL    HW2 7005   0.894   2.098   3.194
 2036SOL     OW 7006   0.638   4.922   0.803
 2036SOL    HW1 7007   0.555   4.977   0.806
 2036SOL    HW2 7008   0.618   4.829   0.836
 2037SOL     OW 7009   0.146   2.129   6.698
 2037SOL    HW1 7010   0.093   2.165   6.622
 2037SOL    HW2 7011   0.238   2.103   6.666
 2038SOL     OW 7012   1.295   0.037   4.754
 2038SOL    HW1 7013   1.216   0.042   4.814
 2038SOL    HW2 7014   1.368   0.095   4.790
 2039SOL     OW 7015   1.338   5.354   1.556
 2039SOL    HW1 7016   1.329   5.383   1.652
 2039SOL    HW2 7017   1.286   5.417   1.498
 2040SOL     OW 7018   3.681   3.627   4.789
 2040SOL    HW1 7019   3.586   3.611   4.760
 2040SOL    HW2 7020   3.738   3.552   4.756
 2041SOL     OW 7021   4.756   2.958   6.797
 2041SOL    HW1 7022   4.671   2.906   6.793
 2041SOL    HW2 7023   4.748   3.040   6.739
 2042SOL     OW 7024   3.092   5.748   0.620
 2042SOL    HW1 7025   3.106   5.826   0.559
 2042SOL    HW2 7026   3.004   5.705   0.599
 2043SOL     OW 7027   4.327   5.957   2.435
 2043SOL    HW1 7028   4.231   5.956   2.463
 2043SOL    HW2 7029   4.343   5.883   2.370
 2044SOL     OW 7030   6.861   1.189   1.901
 2044SOL    HW1 7031   6.822   1.269   1.948
 2044SOL    HW2 7032   6.786   1.132   1.867
 2045SOL     OW 7033   3.315   6.804   6.781
 2045SOL    HW1 7034   3.357   6.758   6.703
 2045SOL    HW2 7035   3.222   6.769   6.794
 2046SOL     OW 7036   6.049   6.788   5.894
 2046SOL    HW1 7037   6.132   6.752   5.935
 2046SOL    HW2 7038   6.067   6.815   5.799
 2047SOL     OW 7039   5.086   3.053   0.369
 2047SOL    HW1 7040   5.024   3.057   0.447
 2047SOL    HW2 7041   5.170   3.103   0.392
 2048SOL     OW 7042   4.776   6.350   5.386
 2048SOL    HW1 7043   4.845   6.297   5.435
 2048SOL    HW2 7044   4.815   6.388   5.302
 2049SOL     OW 7045   5.065   5.529   6.587
 2049SOL    HW1 7046   5.044   5.626   6.575
 2049SOL    HW2 7047   4.994   5.474   6.546
 2050SOL     OW 7048   5.540   0.730   3.492
 2050SOL    HW1 7049   5.475   0.738   3.416
 2050SOL    HW2 7050   5.600   0.810   3.493
 2051SOL     OW 7051   3.114   5.344   1.291
 2051SOL    HW1 7052   3.054   5.402   1.235
 2051SOL    HW2 7053   3.203   5.336   1.247
 2052SOL     OW 7054   2.105   2.552   1.087
 2052SOL    HW1 7055   2.198   2.519   1.071
 2052SOL    HW2 7056   2.106   2.624   1.157
 2053SOL     OW 7057   4.984   1.235   0.698
 2053SOL    HW1 7058   5.060   1.262   0.757
 2053SOL    HW2 7059   4.970   1.137   0.704
 2054SOL     OW 7060   0.576   3.173   0.983
 2054SOL    HW1 7061   0.592   3.242   1.053
 2054SOL    HW2 7062   0.528   3.215   0.905
 2055SOL     OW 7063   6.303   1.201   3.904
 2055SOL    HW1 7064   6.303   1.133   3.978
 2055SOL    HW2 7065   6.253   1.282   3.933
 2056SOL     OW 7066   0.970   6.986   2.481
 2056SOL    HW1 7067   0.926   6.955   2.565
 2056SOL    HW2 7068   0.908   0.027   2.433
 2057SOL     OW 7069   5.173   3.243   3.670
 2057SOL    HW1 7070   5.087   3.194   3.678
 2057SOL    HW2 7071   5.194   3.260   3.574
 2058SOL     OW 7072   0.604   0.815   1.674
 2058SOL    HW1 7073   0.633   0.851   1.585
 2058SOL    HW2 7074   0.679   0.764   1.716
 2059SOL     OW 7075   1.625   0.944   6.753
 2059SOL    HW1 7076   1.544   0.995   6.722
 2059SOL    HW2 7077   1.697   1.009   6.778
 2060SOL     OW 7078   0.364   4.600   3.069
 2060SOL    HW1 7079   0.345   4.535   3.142
 2060SOL    HW2 7080   0.349   4.557   2.980
 2061SOL     OW 7081   1.204   0.900   0.771
 2061SOL    HW1 7082   1.265   0.914   0.849
 2061SOL    HW2 7083   1.252   0.848   0.700
 2062SOL     OW 7084   4.304   0.264   3.877
 2062SOL    HW1 7085   4.254   0.346   3.848
 2062SOL    HW2 7086   4.247   0.211   3.939
 2063SOL     OW 7087   2.449   2.242   0.965
 2063SOL    HW1 7088   2.396   2.222   0.882
 2063SOL    HW2 7089   2.388   2.242   1.044
 2064SOL     OW 7090   1.264   2.162   1.353
 2064SOL    HW1 7091   1.251   2.074   1.308
 2064SOL    HW2 7092   1.247   2.153   1.451
 2065SOL     OW 7093   0.206   3.129   2.731
 2065SOL    HW1 7094   0.302   3.102   2.726
 2065SOL    HW2 7095   0.198   3.228   2.719
 2066SOL     OW 7096   1.640   6.049   2.813
 2066SOL    HW1 7097   1.716   6.072   2.752
 2066SOL    HW2 7098   1.628   5.950   2.815
 2067SOL     OW 7099   0.535   0.314   0.203
 2067SOL    HW1 7100   0.530   0.216   0.218
 2067SOL    HW2 7101   0.629   0.345   0.214
 2068SOL     OW 7102   1.821   2.117   5.091
 2068SOL    HW1 7103   1.774   2.070   5.016
 2068SOL    HW2 7104   1.842   2.053   5.164
 2069SOL     OW 7105   1.013   2.078   2.318
 2069SOL    HW1 7106   0.950   2.022   2.373
 2069SOL    HW2 7107   1.062   2.019   2.253
 2070SOL     OW 7108   6.898   1.491   2.808
 2070SOL    HW1 7109   6.845   1.542   2.741
 2070SOL    HW2 7110   6.933   1.554   2.878
 2071SOL     OW 7111   2.484   6.393   5.624
 2071SOL    HW1 7112   2.493   6.493   5.629
 2071SOL    HW2 7113   2.575   6.352   5.631
 2072SOL     OW 7114   5.163   5.218   2.565
 2072SOL    HW1 7115   5.160   5.299   2.623
 2072SOL    HW2 7116   5.239   5.159   2.594
 2073SOL     OW 7117   3.387   6.844   5.284
 2073SOL    HW1 7118   3.328   6.903   5.229
 2073SOL    HW2 7119   3.331   6.790   5.347
 2074SOL     OW 7120   5.516   2.573   2.503
 2074SOL    HW1 7121   5.427   2.578   2.548
 2074SOL    HW2 7122   5.569   2.655   2.525
 2075SOL     OW 7123   3.850   2.770   6.038
 2075SOL    HW1 7124   3.804   2.859   6.035
 2075SOL    HW2 7125   3.907   2.759   5.957
 2076SOL     OW 7126   5.298   0.170   0.449
 2076SOL    HW1 7127   5.243   0.094   0.413
 2076SOL    HW2 7128   5.319   0.151   0.546
 2077SOL     OW 7129   4.365   1.055   4.122
 2077SOL    HW1 7130   4.460   1.030   4.140
 2077SOL    HW2 7131   4.312   0.972   4.100
 2078SOL     OW 7132   4.149   5.984   4.541
 2078SOL    HW1 7133   4.233   5.931   4.548
 2078SOL    HW2 7134   4.164   6.064   4.484
 2079SOL     OW 7135   6.340   6.803   4.082
 2079SOL    HW1 7136   6.360   6.820   4.179
 2079SOL    HW2 7137   6.425   6.787   4.033
 2080SOL     OW 7138   2.466   1.821   3.646
 2080SOL    HW1 7139   2.437   1.786   3.557
 2080SOL    HW2 7140   2.560   1.792   3.664
 2081SOL     OW 7141   1.168   6.389   4.037
 2081SOL    HW1 7142   1.110   6.471   4.038
 2081SOL    HW2 7143   1.172   6.350   4.129
 2082SOL     OW 7144   4.840   0.877   2.072
 2082SOL    HW1 7145   4.857   0.821   1.991
 2082SOL    HW2 7146   4.797   0.821   2.143
 2083SOL     OW 7147   4.056   4.173   6.234
 2083SOL    HW1 7148   4.014   4.108   6.170
 2083SOL    HW2 7149   3.986   4.235   6.269
 2084SOL     OW 7150   6.918   2.719   3.158
 2084SOL    HW1 7151   6.835   2.768   3.131
 2084SOL    HW2 7152   6.893   2.635   3.206
 2085SOL     OW 7153   5.987   6.689   6.846
 2085SOL    HW1 7154   6.082   6.702   6.875
 2085SOL    HW2 7155   5.970   6.742   6.763
 2086SOL     OW 7156   3.545   5.041   6.892
 2086SOL    HW1 7157   3.617   5.103   6.924
 2086SOL    HW2 7158   3.573   4.946   6.909
 2087SOL     OW 7159   5.592   5.981   3.426
 2087SOL    HW1 7160   5.648   5.967   3.508
 2087SOL    HW2 7161   5.496   5.966   3.450
 2088SOL     OW 7162   2.605   6.571   1.493
 2088SOL    HW1 7163   2.526   6.593   1.550
 2088SOL    HW2 7164   2.687   6.612   1.533
 2089SOL     OW 7165   2.384   1.119   0.012
 2089SOL    HW1 7166   2.400   1.065   6.952
 2089SOL    HW2 7167   2.419   1.069   0.091
 2090SOL     OW 7168   3.610   3.834   4.019
 2090SOL    HW1 7169   3.545   3.838   3.943
 2090SOL    HW2 7170   3.699   3.869   3.989
 2091SOL     OW 7171   3.030   4.435   0.886
 2091SOL    HW1 7172   3.035   4.516   0.945
 2091SOL    HW2 7173   3.007   4.462   0.793
 2092SOL     OW 7174   0.350   6.591   1.090
 2092SOL    HW1 7175   0.287   6.515   1.103
 2092SOL    HW2 7176   0.422   6.586   1.159
 2093SOL     OW 7177   1.620   2.146   1.516
 2093SOL    HW1 7178   1.666   2.220   1.468
 2093SOL    HW2 7179   1.653   2.058   1.481
 2094SOL     OW 7180   6.418   0.665   1.812
 2094SOL    HW1 7181   6.517   0.661   1.830
 2094SOL    HW2 7182   6.402   0.715   1.727
 2095SOL     OW 7183   6.540   4.671   5.252
 2095SOL    HW1 7184   6.514   4.589   5.302
 2095SOL    HW2 7185   6.492   4.750   5.289
 2096SOL     OW 7186   4.712   4.294   3.874
 2096SOL    HW1 7187   4.745   4.216   3.927
 2096SOL    HW2 7188   4.674   4.363   3.936
 2097SOL     OW 7189   6.559   3.594   6.066
 2097SOL    HW1 7190   6.603   3.569   5.979
 2097SOL    HW2 7191   6.483   3.531   6.083
 2098SOL     OW 7192   4.426   0.322   4.232
 2098SOL    HW1 7193   4.377   0.389   4.288
 2098SOL    HW2 7194   4.524   0.337   4.241
 2099SOL     OW 7195   2.767   2.005   3.560
 2099SOL    HW1 7196   2.821   2.076   3.514
 2099SOL    HW2 7197   2.670   2.029   3.557
 2100SOL     OW 7198   4.229   4.729   6.274
 2100SOL    HW1 7199   4.187   4.760   6.359
 2100SOL    HW2 7200   4.210   4.632   6.260
 2101SOL     OW 7201   6.252   6.934   1.789
 2101SOL    HW1 7202   6.279   6.919   1.883
 2101SOL    HW2 7203   6.301   7.013   1.752
 2102SOL     OW 7204   0.281   5.028   1.382
 2102SOL    HW1 7205   0.377   5.022   1.409
 2102SOL    HW2 7206   0.230   4.953   1.424
 2103SOL     OW 7207   3.655   3.764   6.476
 2103SOL    HW1 7208   3.566   3.766   6.523
 2103SOL    HW2 7209   3.717   3.829   6.521
 2104SOL     OW 7210   1.522   4.710   5.721
 2104SOL    HW1 7211   1.474   4.736   5.805
 2104SOL    HW2 7212   1.457   4.670   5.656
 2105SOL     OW 7213   5.648   6.388   2.021
 2105SOL    HW1 7214   5.560   6.423   1.991
 2105SOL    HW2 7215   5.643   6.289   2.031
 2106SOL     OW 7216   5.658   6.055   6.166
 2106SOL    HW1 7217   5.699   5.985   6.107
 2106SOL    HW2 7218   5.730   6.108   6.211
 2107SOL     OW 7219   2.622   5.096   0.413
 2107SOL    HW1 7220   2.680   5.035   0.359
 2107SOL    HW2 7221   2.643   5.191   0.392
 2108SOL     OW 7222   6.250   4.353   6.472
 2108SOL    HW1 7223   6.150   4.355   6.464
 2108SOL    HW2 7224   6.288   4.438   6.436
 2109SOL     OW 7225   5.657   5.842   2.430
 2109SOL    HW1 7226   5.558   5.855   2.429
 2109SOL    HW2 7227   5.681   5.760   2.379
 2110SOL     OW 7228   1.308   4.893   5.581
 2110SOL    HW1 7229   1.323   4.988   5.608
 2110SOL    HW2 7230   1.213   4.882   5.549
 2111SOL     OW 7231   1.900   1.896   6.737
 2111SOL    HW1 7232   1.992   1.935   6.742
 2111SOL    HW2 7233   1.837   1.962   6.696
 2112SOL     OW 7234   4.867   3.878   0.513
 2112SOL    HW1 7235   4.854   3.781   0.537
 2112SOL    HW2 7236   4.943   3.887   0.450
 2113SOL     OW 7237   6.660   1.787   3.185
 2113SOL    HW1 7238   6.720   1.855   3.227
 2113SOL    HW2 7239   6.569   1.792   3.226
 2114SOL     OW 7240   1.456   3.670   6.944
 2114SOL    HW1 7241   1.513   3.648   0.000
 2114SOL    HW2 7242   1.510   3.662   6.860
 2115SOL     OW 7243   4.056   5.565   2.107
 2115SOL    HW1 7244   4.019   5.619   2.183
 2115SOL    HW2 7245   4.014   5.595   2.021
 2116SOL     OW 7246   0.667   3.736   4.228
 2116SOL    HW1 7247   0.584   3.700   4.271
 2116SOL    HW2 7248   0.725   3.777   4.297
 2117SOL     OW 7249   6.871   5.898   6.069
 2117SOL    HW1 7250   6.886   5.986   6.024
 2117SOL    HW2 7251   6.880   5.908   6.168
 2118SOL     OW 7252   6.955   3.332   2.509
 2118SOL    HW1 7253   6.959   3.232   2.515
 2118SOL    HW2 7254   7.001   3.362   2.426
 2119SOL     OW 7255   4.209   6.368   0.342
 2119SOL    HW1 7256   4.160   6.392   0.426
 2119SOL    HW2 7257   4.308   6.380   0.356
 2120SOL     OW 7258   6.701   3.778   2.018
 2120SOL    HW1 7259   6.694   3.742   2.111
 2120SOL    HW2 7260   6.616   3.758   1.969
 2121SOL     OW 7261   0.401   3.651   5.151
 2121SOL    HW1 7262   0.362   3.684   5.237
 2121SOL    HW2 7263   0.498   3.676   5.147
 2122SOL     OW 7264   4.195   5.047   5.405
 2122SOL    HW1 7265   4.122   5.071   5.469
 2122SOL    HW2 7266   4.188   4.950   5.382
 2123SOL     OW 7267   4.896   5.502   3.568
 2123SOL    HW1 7268   4.905   5.518   3.666
 2123SOL    HW2 7269   4.802   5.474   3.547
 2124SOL     OW 7270   2.847   2.198   1.523
 2124SOL    HW1 7271   2.930   2.223   1.573
 2124SOL    HW2 7272   2.863   2.210   1.425
 2125SOL     OW 7273   5.043   5.973   0.548
 2125SOL    HW1 7274   5.125   5.966   0.605
 2125SOL    HW2 7275   5.059   6.042   0.476
 2126SOL     OW 7276   3.067   1.460   1.540
 2126SOL    HW1 7277   3.048   1.510   1.456
 2126SOL    HW2 7278   3.027   1.369   1.534
 2127SOL     OW 7279   5.555   2.710   4.549
 2127SOL    HW1 7280   5.490   2.660   4.493
 2127SOL    HW2 7281   5.563   2.804   4.516
 2128SOL     OW 7282   0.258   3.848   4.497
 2128SOL    HW1 7283   0.202   3.765   4.487
 2128SOL    HW2 7284   0.266   3.894   4.410
 2129SOL     OW 7285   4.463   2.321   4.900
 2129SOL    HW1 7286   4.418   2.345   4.814
 2129SOL    HW2 7287   4.512   2.234   4.889
 2130SOL     OW 7288   5.121   0.147   3.447
 2130SOL    HW1 7289   5.163   0.237   3.459
 2130SOL    HW2 7290   5.029   0.148   3.486
 2131SOL     OW 7291   5.013   1.983   6.794
 2131SOL    HW1 7292   5.080   2.024   6.855
 2131SOL    HW2 7293   4.983   2.050   6.727
 2132SOL     OW 7294   1.863   3.587   0.775
 2132SOL    HW1 7295   1.834   3.586   0.680
 2132SOL    HW2 7296   1.804   3.526   0.828
 2133SOL     OW 7297   2.346   4.447   6.130
 2133SOL    HW1 7298   2.306   4.498   6.053
 2133SOL    HW2 7299   2.408   4.377   6.094
 2134SOL     OW 7300   0.214   6.792   0.257
 2134SOL    HW1 7301   0.172   6.704   0.236
 2134SOL    HW2 7302   0.298   6.777   0.309
 2135SOL     OW 7303   6.644   5.108   5.419
 2135SOL    HW1 7304   6.620   5.023   5.465
 2135SOL    HW2 7305   6.715   5.155   5.472
 2136SOL     OW 7306   1.315   5.489   6.941
 2136SOL    HW1 7307   1.330   5.580   6.979
 2136SOL    HW2 7308   1.336   5.490   6.843
 2137SOL     OW 7309   1.612   6.449   3.696
 2137SOL    HW1 7310   1.521   6.481   3.724
 2137SOL    HW2 7311   1.668   6.528   3.669
 2138SOL     OW 7312   5.157   2.070   1.884
 2138SOL    HW1 7313   5.125   2.155   1.840
 2138SOL    HW2 7314   5.250   2.050   1.854
 2139SOL     OW 7315   3.201   6.246   5.728
 2139SOL    HW1 7316   3.297   6.267   5.745
 2139SOL    HW2 7317   3.185   6.238   5.630
 2140SOL     OW 7318   2.186   1.930   3.529
 2140SOL    HW1 7319   2.197   2.029   3.543
 2140SOL    HW2 7320   2.192   1.883   3.618
 2141SOL     OW 7321   6.740   3.272   3.394
 2141SOL    HW1 7322   6.773   3.242   3.304
 2141SOL    HW2 7323   6.672   3.206   3.427
 2142SOL     OW 7324   1.830   2.391   2.108
 2142SOL    HW1 7325   1.905   2.426   2.163
 2142SOL    HW2 7326   1.744   2.435   2.137
 2143SOL     OW 7327   6.904   5.594   5.565
 2143SOL    HW1 7328   6.937   5.509   5.606
 2143SOL    HW2 7329   6.808   5.582   5.538
 2144SOL     OW 7330   6.205   4.647   2.887
 2144SOL    HW1 7331   6.127   4.626   2.827
 2144SOL    HW2 7332   6.261   4.719   2.845
 2145SOL     OW 7333   4.019   1.514   2.884
 2145SOL    HW1 7334   4.072   1.445   2.834
 2145SOL    HW2 7335   3.948   1.551   2.824
 2146SOL     OW 7336   1.823   1.781   6.477
 2146SOL    HW1 7337   1.785   1.838   6.404
 2146SOL    HW2 7338   1.839   1.837   6.558
 2147SOL     OW 7339   6.110   6.916   5.116
 2147SOL    HW1 7340   6.068   6.985   5.175
 2147SOL    HW2 7341   6.084   6.933   5.021
 2148SOL     OW 7342   0.904   2.378   4.852
 2148SOL    HW1 7343   0.981   2.317   4.832
 2148SOL    HW2 7344   0.893   2.444   4.777
 2149SOL     OW 7345   0.447   6.474   0.159
 2149SOL    HW1 7346   0.430   6.394   0.101
 2149SOL    HW2 7347   0.468   6.553   0.101
 2150SOL     OW 7348   1.762   2.668   0.761
 2150SOL    HW1 7349   1.699   2.670   0.683
 2150SOL    HW2 7350   1.769   2.575   0.796
 2151SOL     OW 7351   0.611   4.691   6.445
 2151SOL    HW1 7352   0.637   4.678   6.541
 2151SOL    HW2 7353   0.683   4.741   6.397
 2152SOL     OW 7354   5.244   6.096   4.209
 2152SOL    HW1 7355   5.292   6.030   4.266
 2152SOL    HW2 7356   5.167   6.052   4.164
 2153SOL     OW 7357   4.853   6.884   3.681
 2153SOL    HW1 7358   4.760   6.917   3.664
 2153SOL    HW2 7359   4.852   6.815   3.753
 2154SOL     OW 7360   2.740   6.678   2.915
 2154SOL    HW1 7361   2.761   6.597   2.970
 2154SOL    HW2 7362   2.730   6.757   2.974
 2155SOL     OW 7363   4.668   0.907   0.968
 2155SOL    HW1 7364   4.665   0.817   1.011
 2155SOL    HW2 7365   4.611   0.906   0.886
 2156SOL     OW 7366   6.069   2.081   5.398
 2156SOL    HW1 7367   6.099   2.072   5.493
 2156SOL    HW2 7368   5.981   2.034   5.387
 2157SOL     OW 7369   4.351   6.320   4.103
 2157SOL    HW1 7370   4.380   6.279   4.190
 2157SOL    HW2 7371   4.267   6.371   4.118
 2158SOL     OW 7372   2.917   6.513   0.696
 2158SOL    HW1 7373   2.887   6.541   0.787
 2158SOL    HW2 7374   2.885   6.579   0.628
 2159SOL     OW 7375   0.271   1.033   5.761
 2159SOL    HW1 7376   0.199   0.964   5.761
 2159SOL    HW2 7377   0.242   1.112   5.708
 2160SOL     OW 7378   5.639   0.030   6.623
 2160SOL    HW1 7379   5.657   7.016   6.715
 2160SOL    HW2 7380   5.543   0.014   6.599
 2161SOL     OW 7381   1.534   3.739   0.599
 2161SOL    HW1 7382   1.615   3.689   0.570
 2161SOL    HW2 7383   1.562   3.817   0.656
 2162SOL     OW 7384   1.744   0.262   0.736
 2162SOL    HW1 7385   1.682   0.226   0.805
 2162SOL    HW2 7386   1.724   0.359   0.721
 2163SOL     OW 7387   1.086   2.803   4.080
 2163SOL    HW1 7388   1.071   2.731   4.148
 2163SOL    HW2 7389   1.065   2.767   3.989
 2164SOL     OW 7390   2.128   4.034   2.169
 2164SOL    HW1 7391   2.040   4.058   2.129
 2164SOL    HW2 7392   2.187   4.115   2.172
 2165SOL     OW 7393   6.125   1.359   5.079
 2165SOL    HW1 7394   6.036   1.373   5.123
 2165SOL    HW2 7395   6.120   1.281   5.017
 2166SOL     OW 7396   0.237   2.786   1.860
 2166SOL    HW1 7397   0.282   2.699   1.837
 2166SOL    HW2 7398   0.247   2.804   1.957
 2167SOL     OW 7399   1.378   2.261   3.267
 2167SOL    HW1 7400   1.439   2.261   3.346
 2167SOL    HW2 7401   1.325   2.346   3.265
 2168SOL     OW 7402   1.693   2.466   3.279
 2168SOL    HW1 7403   1.793   2.475   3.275
 2168SOL    HW2 7404   1.668   2.416   3.362
 2169SOL     OW 7405   6.868   0.353   1.001
 2169SOL    HW1 7406   6.945   0.413   1.019
 2169SOL    HW2 7407   6.859   0.286   1.075
 2170SOL     OW 7408   1.690   3.020   6.465
 2170SOL    HW1 7409   1.702   2.983   6.372
 2170SOL    HW2 7410   1.617   3.088   6.464
 2171SOL     OW 7411   6.870   5.887   1.532
 2171SOL    HW1 7412   6.792   5.880   1.595
 2171SOL    HW2 7413   6.868   5.976   1.487
 2172SOL     OW 7414   2.712   2.369   4.966
 2172SOL    HW1 7415   2.787   2.406   5.021
 2172SOL    HW2 7416   2.644   2.441   4.951
 2173SOL     OW 7417   4.769   0.443   4.566
 2173SOL    HW1 7418   4.752   0.472   4.659
 2173SOL    HW2 7419   4.738   0.513   4.502
 2174SOL     OW 7420   5.348   0.281   6.255
 2174SOL    HW1 7421   5.385   0.228   6.331
 2174SOL    HW2 7422   5.250   0.263   6.246
 2175SOL     OW 7423   3.748   3.014   6.015
 2175SOL    HW1 7424   3.665   3.010   5.960
 2175SOL    HW2 7425   3.817   3.068   5.967
 2176SOL     OW 7426   6.235   2.046   3.126
 2176SOL    HW1 7427   6.272   2.123   3.177
 2176SOL    HW2 7428   6.200   1.977   3.189
 2177SOL     OW 7429   1.028   0.837   5.596
 2177SOL    HW1 7430   1.112   0.845   5.650
 2177SOL    HW2 7431   1.051   0.812   5.502
 2178SOL     OW 7432   1.911   2.853   2.394
 2178SOL    HW1 7433   1.826   2.824   2.349
 2178SOL    HW2 7434   1.982   2.869   2.325
 2179SOL     OW 7435   1.171   4.170   0.221
 2179SOL    HW1 7436   1.090   4.217   0.186
 2179SOL    HW2 7437   1.147   4.119   0.304
 2180SOL     OW 7438   0.350   5.602   2.950
 2180SOL    HW1 7439   0.379   5.597   3.046
 2180SOL    HW2 7440   0.264   5.550   2.939
 2181SOL     OW 7441   3.761   5.006   4.126
 2181SOL    HW1 7442   3.749   5.034   4.221
 2181SOL    HW2 7443   3.674   4.973   4.090
 2182SOL     OW 7444   0.035   6.342   1.503
 2182SOL    HW1 7445   7.022   6.328   1.596
 2182SOL    HW2 7446   7.020   6.427   1.466
 2183SOL     OW 7447   3.350   3.215   6.770
 2183SOL    HW1 7448   3.374   3.307   6.739
 2183SOL    HW2 7449   3.406   3.147   6.722
 2184SOL     OW 7450   6.328   1.711   0.233
 2184SOL    HW1 7451   6.345   1.790   0.174
 2184SOL    HW2 7452   6.292   1.636   0.177
 2185SOL     OW 7453   0.913   1.730   6.292
 2185SOL    HW1 7454   0.829   1.739   6.238
 2185SOL    HW2 7455   0.985   1.690   6.236
 2186SOL     OW 7456   6.821   6.333   5.325
 2186SOL    HW1 7457   6.735   6.383   5.337
 2186SOL    HW2 7458   6.865   6.319   5.414
 2187SOL     OW 7459   5.836   4.742   1.558
 2187SOL    HW1 7460   5.764   4.804   1.526
 2187SOL    HW2 7461   5.849   4.669   1.491
 2188SOL     OW 7462   3.111   0.901   0.691
 2188SOL    HW1 7463   3.085   0.985   0.642
 2188SOL    HW2 7464   3.116   0.825   0.626
 2189SOL     OW 7465   1.860   0.388   2.439
 2189SOL    HW1 7466   1.798   0.384   2.518
 2189SOL    HW2 7467   1.877   0.483   2.414
 2190SOL     OW 7468   6.428   5.075   2.326
 2190SOL    HW1 7469   6.431   5.018   2.244
 2190SOL    HW2 7470   6.488   5.154   2.313
 2191SOL     OW 7471   3.797   6.598   6.841
 2191SOL    HW1 7472   3.713   6.597   6.786
 2191SOL    HW2 7473   3.787   6.534   6.917
 2192SOL     OW 7474   4.696   2.047   2.016
 2192SOL    HW1 7475   4.711   2.124   1.953
 2192SOL    HW2 7476   4.733   1.963   1.976
 2193SOL     OW 7477   1.424   0.591   4.625
 2193SOL    HW1 7478   1.416   0.595   4.725
 2193SOL    HW2 7479   1.505   0.536   4.601
 2194SOL     OW 7480   0.552   4.537   5.174
 2194SOL    HW1 7481   0.510   4.612   5.226
 2194SOL    HW2 7482   0.638   4.511   5.217
 2195SOL     OW 7483   0.320   3.711   5.414
 2195SOL    HW1 7484   0.263   3.720   5.496
 2195SOL    HW2 7485   0.404   3.662   5.436
 2196SOL     OW 7486   3.908   0.992   6.918
 2196SOL    HW1 7487   3.902   0.951   6.827
 2196SOL    HW2 7488   3.846   0.944   6.980
 2197SOL     OW 7489   3.837   5.180   6.577
 2197SOL    HW1 7490   3.783   5.101   6.550
 2197SOL    HW2 7491   3.777   5.260   6.585
 2198SOL     OW 7492   1.646   1.388   6.663
 2198SOL    HW1 7493   1.577   1.349   6.725
 2198SOL    HW2 7494   1.688   1.314   6.610
 2199SOL     OW 7495   3.883   6.437   4.018
 2199SOL    HW1 7496   3.898   6.464   3.923
 2199SOL    HW2 7497   3.896   6.338   4.027
 2200SOL     OW 7498   2.380   2.419   4.425
 2200SOL    HW1 7499   2.298   2.474   4.439
 2200SOL    HW2 7500   2.454   2.454   4.482
 2201SOL     OW 7501   5.459   3.739   4.887
 2201SOL    HW1 7502   5.421   3.677   4.955
 2201SOL    HW2 7503   5.558   3.723   4.879
 2202SOL     OW 7504   3.584   6.757   4.064
 2202SOL    HW1 7505   3.619   6.743   4.157
 2202SOL    HW2 7506   3.654   6.731   3.998
 2203SOL     OW 7507   2.096   5.477   0.903
 2203SOL    HW1 7508   2.072   5.503   0.810
 2203SOL    HW2 7509   2.142   5.388   0.902
 2204SOL     OW 7510   5.213   2.858   1.093
 2204SOL    HW1 7511   5.149   2.792   1.053
 2204SOL    HW2 7512   5.297   2.811   1.121
 2205SOL     OW 7513   5.887   5.638   1.135
 2205SOL    HW1 7514   5.825   5.595   1.201
 2205SOL    HW2 7515   5.981   5.611   1.154
 2206SOL     OW 7516   3.616   2.833   5.817
 2206SOL    HW1 7517   3.555   2.909   5.843
 2206SOL    HW2 7518   3.679   2.864   5.746
 2207SOL     OW 7519   4.575   5.791   1.767
 2207SOL    HW1 7520   4.547   5.696   1.779
 2207SOL    HW2 7521   4.675   5.796   1.761
 2208SOL     OW 7522   6.689   6.483   2.785
 2208SOL    HW1 7523   6.700   6.446   2.877
 2208SOL    HW2 7524   6.721   6.578   2.784
 2209SOL     OW 7525   2.566   5.229   3.362
 2209SOL    HW1 7526   2.550   5.198   3.268
 2209SOL    HW2 7527   2.585   5.327   3.362
 2210SOL     OW 7528   5.235   6.841   1.812
 2210SOL    HW1 7529   5.197   6.754   1.843
 2210SOL    HW2 7530   5.175   6.916   1.842
 2211SOL     OW 7531   1.390   1.765   1.526
 2211SOL    HW1 7532   1.439   1.679   1.514
 2211SOL    HW2 7533   1.402   1.822   1.445
 2212SOL     OW 7534   2.899   5.645   6.124
 2212SOL    HW1 7535   2.953   5.729   6.130
 2212SOL    HW2 7536   2.938   5.586   6.054
 2213SOL     OW 7537   3.502   1.442   4.502
 2213SOL    HW1 7538   3.464   1.350   4.512
 2213SOL    HW2 7539   3.587   1.449   4.554
 2214SOL     OW 7540   4.412   4.337   6.625
 2214SOL    HW1 7541   4.355   4.263   6.591
 2214SOL    HW2 7542   4.481   4.300   6.688
 2215SOL     OW 7543   5.637   5.430   6.906
 2215SOL    HW1 7544   5.552   5.473   6.873
 2215SOL    HW2 7545   5.705   5.433   6.833
 2216SOL     OW 7546   0.401   5.832   0.075
 2216SOL    HW1 7547   0.341   5.889   0.018
 2216SOL    HW2 7548   0.405   5.740   0.037
 2217SOL     OW 7549   4.098   1.484   3.527
 2217SOL    HW1 7550   4.120   1.562   3.585
 2217SOL    HW2 7551   4.176   1.462   3.468
 2218SOL     OW 7552   6.638   5.583   5.513
 2218SOL    HW1 7553   6.563   5.645   5.488
 2218SOL    HW2 7554   6.642   5.507   5.448
 2219SOL     OW 7555   5.460   2.067   0.596
 2219SOL    HW1 7556   5.531   2.134   0.575
 2219SOL    HW2 7557   5.406   2.100   0.674
 2220SOL     OW 7558   6.889   6.437   4.200
 2220SOL    HW1 7559   6.833   6.491   4.137
 2220SOL    HW2 7560   6.844   6.431   4.289
 2221SOL     OW 7561   5.649   0.869   4.214
 2221SOL    HW1 7562   5.611   0.777   4.221
 2221SOL    HW2 7563   5.574   0.936   4.215
 2222SOL     OW 7564   3.426   1.185   3.543
 2222SOL    HW1 7565   3.342   1.221   3.584
 2222SOL    HW2 7566   3.501   1.249   3.562
 2223SOL     OW 7567   0.903   0.073   5.362
 2223SOL    HW1 7568   0.890   7.004   5.324
 2223SOL    HW2 7569   0.994   0.079   5.403
 2224SOL     OW 7570   5.337   4.313   6.590
 2224SOL    HW1 7571   5.290   4.265   6.665
 2224SOL    HW2 7572   5.292   4.291   6.503
 2225SOL     OW 7573   6.804   6.427   1.027
 2225SOL    HW1 7574   6.844   6.447   1.116
 2225SOL    HW2 7575   6.721   6.372   1.039
 2226SOL     OW 7576   2.512   3.344   7.021
 2226SOL    HW1 7577   2.523   3.324   6.923
 2226SOL    HW2 7578   2.601   3.340   0.043
 2227SOL     OW 7579   4.141   2.251   2.028
 2227SOL    HW1 7580   4.217   2.273   2.090
 2227SOL    HW2 7581   4.073   2.196   2.078
 2228SOL     OW 7582   5.271   6.689   6.612
 2228SOL    HW1 7583   5.209   6.616   6.639
 2228SOL    HW2 7584   5.360   6.650   6.587
 2229SOL     OW 7585   2.982   3.628   4.140
 2229SOL    HW1 7586   3.066   3.629   4.194
 2229SOL    HW2 7587   2.950   3.722   4.126
 2230SOL     OW 7588   6.466   0.723   6.253
 2230SOL    HW1 7589   6.467   0.786   6.331
 2230SOL    HW2 7590   6.559   0.710   6.219
 2231SOL     OW 7591   1.487   0.053   6.330
 2231SOL    HW1 7592   1.463   0.028   6.424
 2231SOL    HW2 7593   1.456   7.004   6.267
 2232SOL     OW 7594   1.866   0.819   6.251
 2232SOL    HW1 7595   1.807   0.749   6.290
 2232SOL    HW2 7596   1.810   0.890   6.208
 2233SOL     OW 7597   2.853   5.007   0.982
 2233SOL    HW1 7598   2.908   5.048   1.056
 2233SOL    HW2 7599   2.913   4.952   0.923
 2234SOL     OW 7600   4.839   2.048   1.610
 2234SOL    HW1 7601   4.782   2.027   1.531
 2234SOL    HW2 7602   4.833   1.974   1.677
 2235SOL     OW 7603   0.718   1.933   2.832
 2235SOL    HW1 7604   0.688   1.839   2.849
 2235SOL    HW2 7605   0.639   1.990   2.813
 2236SOL     OW 7606   2.731   4.809   5.194
 2236SOL    HW1 7607   2.773   4.898   5.177
 2236SOL    HW2 7608   2.774   4.740   5.135
 2237SOL     OW 7609   6.084   6.734   6.195
 2237SOL    HW1 7610   6.150   6.719   6.122
 2237SOL    HW2 7611   6.001   6.775   6.157
 2238SOL     OW 7612   5.890   3.671   2.271
 2238SOL    HW1 7613   5.977   3.630   2.244
 2238SOL    HW2 7614   5.847   3.613   2.341
 2239SOL     OW 7615   4.023   0.181   2.901
 2239SOL    HW1 7616   4.065   0.175   2.992
 2239SOL    HW2 7617   4.028   0.092   2.856
 2240SOL     OW 7618   4.984   5.051   2.276
 2240SOL    HW1 7619   4.944   5.119   2.338
 2240SOL    HW2 7620   5.052   5.095   2.217
 2241SOL     OW 7621   0.818   1.789   3.239
 2241SOL    HW1 7622   0.767   1.715   3.195
 2241SOL    HW2 7623   0.912   1.789   3.204
 2242SOL     OW 7624   5.734   2.592   4.316
 2242SOL    HW1 7625   5.742   2.540   4.401
 2242SOL    HW2 7626   5.721   2.689   4.338
 2243SOL     OW 7627   2.321   0.398   0.375
 2243SOL    HW1 7628   2.416   0.374   0.395
 2243SOL    HW2 7629   2.312   0.418   0.277
 2244SOL     OW 7630   2.973   2.068   1.098
 2244SOL    HW1 7631   3.033   2.073   1.018
 2244SOL    HW2 7632   2.958   2.160   1.134
 2245SOL     OW 7633   0.411   0.800   0.044
 2245SOL    HW1 7634   0.496   0.851   0.056
 2245SOL    HW2 7635   0.423   0.707   0.079
 2246SOL     OW 7636   5.167   1.207   5.856
 2246SOL    HW1 7637   5.186   1.112   5.832
 2246SOL    HW2 7638   5.127   1.211   5.947
 2247SOL     OW 7639   2.893   3.368   1.739
 2247SOL    HW1 7640   2.880   3.269   1.742
 2247SOL    HW2 7641   2.930   3.400   1.826
 2248SOL     OW 7642   4.878   2.904   4.644
 2248SOL    HW1 7643   4.943   2.848   4.695
 2248SOL    HW2 7644   4.817   2.845   4.593
 2249SOL     OW 7645   2.091   6.392   3.952
 2249SOL    HW1 7646   2.067   6.297   3.968
 2249SOL    HW2 7647   2.092   6.411   3.854
 2250SOL     OW 7648   4.472   5.826   6.207
 2250SOL    HW1 7649   4.411   5.823   6.286
 2250SOL    HW2 7650   4.538   5.901   6.219
 2251SOL     OW 7651   4.100   6.901   4.797
 2251SOL    HW1 7652   4.059   6.891   4.707
 2251SOL    HW2 7653   4.116   6.811   4.837
 2252SOL     OW 7654   3.928   1.159   2.558
 2252SOL    HW1 7655   3.843   1.206   2.582
 2252SOL    HW2 7656   3.930   1.069   2.601
 2253SOL     OW 7657   0.660   3.389   2.031
 2253SOL    HW1 7658   0.742   3.388   1.974
 2253SOL    HW2 7659   0.640   3.295   2.061
 2254SOL     OW 7660   3.389   2.882   3.236
 2254SOL    HW1 7661   3.475   2.902   3.284
 2254SOL    HW2 7662   3.400   2.902   3.138
 2255SOL     OW 7663   1.581   2.524   6.139
 2255SOL    HW1 7664   1.643   2.601   6.152
 2255SOL    HW2 7665   1.487   2.554   6.157
 2256SOL     OW 7666   5.336   0.383   1.407
 2256SOL    HW1 7667   5.248   0.423   1.432
 2256SOL    HW2 7668   5.407   0.454   1.408
 2257SOL     OW 7669   0.455   0.225   5.829
 2257SOL    HW1 7670   0.495   0.256   5.742
 2257SOL    HW2 7671   0.464   0.298   5.897
 2258SOL     OW 7672   2.054   6.752   3.573
 2258SOL    HW1 7673   2.077   6.846   3.546
 2258SOL    HW2 7674   2.019   6.751   3.666
 2259SOL     OW 7675   5.880   0.160   4.792
 2259SOL    HW1 7676   5.930   0.246   4.793
 2259SOL    HW2 7677   5.860   0.134   4.697
 2260SOL     OW 7678   1.506   3.817   1.264
 2260SOL    HW1 7679   1.514   3.887   1.192
 2260SOL    HW2 7680   1.568   3.741   1.243
 2261SOL     OW 7681   4.966   4.542   5.977
 2261SOL    HW1 7682   4.917   4.464   5.938
 2261SOL    HW2 7683   4.907   4.588   6.044
 2262SOL     OW 7684   6.969   6.684   3.995
 2262SOL    HW1 7685   6.971   6.710   4.092
 2262SOL    HW2 7686   6.876   6.655   3.971
 2263SOL     OW 7687   2.354   4.664   6.742
 2263SOL    HW1 7688   2.391   4.745   6.788
 2263SOL    HW2 7689   2.316   4.690   6.653
 2264SOL     OW 7690   2.000   0.551   6.693
 2264SOL    HW1 7691   2.098   0.535   6.703
 2264SOL    HW2 7692   1.980   0.585   6.601
 2265SOL     OW 7693   0.185   6.617   3.601
 2265SOL    HW1 7694   0.152   6.557   3.673
 2265SOL    HW2 7695   0.133   6.600   3.517
 2266SOL     OW 7696   4.514   3.527   6.422
 2266SOL    HW1 7697   4.447   3.569   6.483
 2266SOL    HW2 7698   4.599   3.577   6.426
 2267SOL     OW 7699   5.700   2.866   4.322
 2267SOL    HW1 7700   5.787   2.866   4.274
 2267SOL    HW2 7701   5.692   2.950   4.376
 2268SOL     OW 7702   0.937   6.197   5.256
 2268SOL    HW1 7703   0.903   6.111   5.218
 2268SOL    HW2 7704   0.862   6.248   5.298
 2269SOL     OW 7705   2.204   2.504   5.765
 2269SOL    HW1 7706   2.261   2.425   5.788
 2269SOL    HW2 7707   2.254   2.564   5.703
 2270SOL     OW 7708   5.275   2.049   6.209
 2270SOL    HW1 7709   5.227   2.113   6.149
 2270SOL    HW2 7710   5.306   1.971   6.156
 2271SOL     OW 7711   3.976   5.554   5.386
 2271SOL    HW1 7712   4.044   5.543   5.314
 2271SOL    HW2 7713   4.001   5.497   5.464
 2272SOL     OW 7714   5.875   1.414   6.166
 2272SOL    HW1 7715   5.777   1.397   6.156
 2272SOL    HW2 7716   5.891   1.511   6.181
 2273SOL     OW 7717   0.755   2.732   4.117
 2273SOL    HW1 7718   0.712   2.645   4.090
 2273SOL    HW2 7719   0.755   2.795   4.039
 2274SOL     OW 7720   1.187   1.137   0.063
 2274SOL    HW1 7721   1.246   1.187   0.126
 2274SOL    HW2 7722   1.166   1.194   7.006
 2275SOL     OW 7723   5.659   3.671   3.406
 2275SOL    HW1 7724   5.689   3.743   3.343
 2275SOL    HW2 7725   5.734   3.608   3.423
 2276SOL     OW 7726   1.699   1.649   0.958
 2276SOL    HW1 7727   1.778   1.591   0.936
 2276SOL    HW2 7728   1.659   1.684   0.874
 2277SOL     OW 7729   3.541   3.339   3.406
 2277SOL    HW1 7730   3.446   3.305   3.405
 2277SOL    HW2 7731   3.556   3.392   3.489
 2278SOL     OW 7732   6.820   3.107   3.949
 2278SOL    HW1 7733   6.856   3.022   3.988
 2278SOL    HW2 7734   6.781   3.088   3.859
 2279SOL     OW 7735   1.304   4.705   5.952
 2279SOL    HW1 7736   1.255   4.792   5.958
 2279SOL    HW2 7737   1.239   4.630   5.939
 2280SOL     OW 7738   4.923   2.384   5.608
 2280SOL    HW1 7739   4.911   2.455   5.678
 2280SOL    HW2 7740   4.867   2.305   5.632
 2281SOL     OW 7741   5.232   6.873   2.219
 2281SOL    HW1 7742   5.270   6.963   2.198
 2281SOL    HW2 7743   5.230   6.860   2.318
 2282SOL     OW 7744   3.600   5.690   5.892
 2282SOL    HW1 7745   3.617   5.667   5.796
 2282SOL    HW2 7746   3.508   5.729   5.901
 2283SOL     OW 7747   0.053   0.711   4.967
 2283SOL    HW1 7748   0.053   0.620   4.925
 2283SOL    HW2 7749   0.013   0.777   4.904
 2284SOL     OW 7750   1.846   3.665   6.382
 2284SOL    HW1 7751   1.755   3.706   6.377
 2284SOL    HW2 7752   1.887   3.685   6.471
 2285SOL     OW 7753   1.337   4.722   6.461
 2285SOL    HW1 7754   1.416   4.711   6.520
 2285SOL    HW2 7755   1.284   4.637   6.461
 2286SOL     OW 7756   4.542   4.429   2.784
 2286SOL    HW1 7757   4.555   4.428   2.883
 2286SOL    HW2 7758   4.574   4.343   2.745
 2287SOL     OW 7759   1.248   1.547   4.553
 2287SOL    HW1 7760   1.297   1.459   4.553
 2287SOL    HW2 7761   1.313   1.621   4.540
 2288SOL     OW 7762   6.672   5.445   2.614
 2288SOL    HW1 7763   6.636   5.459   2.706
 2288SOL    HW2 7764   6.597   5.452   2.548
 2289SOL     OW 7765   0.662   5.083   0.259
 2289SOL    HW1 7766   0.721   5.045   0.330
 2289SOL    HW2 7767   0.635   5.176   0.285
 2290SOL     OW 7768   0.776   5.634   6.357
 2290SOL    HW1 7769   0.740   5.719   6.397
 2290SOL    HW2 7770   0.762   5.559   6.422
 2291SOL     OW 7771   2.302   1.587   6.950
 2291SOL    HW1 7772   2.306   1.674   6.999
 2291SOL    HW2 7773   2.344   1.598   6.860
 2292SOL     OW 7774   1.979   1.211   4.098
 2292SOL    HW1 7775   1.947   1.296   4.140
 2292SOL    HW2 7776   1.900   1.155   4.071
 2293SOL     OW 7777   5.659   3.817   2.492
 2293SOL    HW1 7778   5.620   3.847   2.405
 2293SOL    HW2 7779   5.634   3.882   2.564
 2294SOL     OW 7780   4.387   6.803   0.492
 2294SOL    HW1 7781   4.437   6.738   0.434
 2294SOL    HW2 7782   4.380   6.891   0.445
 2295SOL     OW 7783   1.061   1.187   1.963
 2295SOL    HW1 7784   1.143   1.131   1.977
 2295SOL    HW2 7785   1.038   1.189   1.866
 2296SOL     OW 7786   3.227   6.274   0.480
 2296SOL    HW1 7787   3.247   6.184   0.519
 2296SOL    HW2 7788   3.162   6.263   0.404
 2297SOL     OW 7789   4.421   6.559   0.012
 2297SOL    HW1 7790   4.477   6.590   6.957
 2297SOL    HW2 7791   4.324   6.570   7.011
 2298SOL     OW 7792   3.909   3.211   6.812
 2298SOL    HW1 7793   3.842   3.181   6.880
 2298SOL    HW2 7794   3.945   3.300   6.838
 2299SOL     OW 7795   4.321   0.267   0.499
 2299SOL    HW1 7796   4.224   0.284   0.517
 2299SOL    HW2 7797   4.331   0.186   0.442
 2300SOL     OW 7798   1.088   4.728   1.222
 2300SOL    HW1 7799   1.074   4.750   1.126
 2300SOL    HW2 7800   1.185   4.733   1.244
 2301SOL     OW 7801   3.803   3.733   1.784
 2301SOL    HW1 7802   3.834   3.817   1.828
 2301SOL    HW2 7803   3.705   3.720   1.801
 2302SOL     OW 7804   2.229   5.245   2.827
 2302SOL    HW1 7805   2.234   5.244   2.927
 2302SOL    HW2 7806   2.167   5.174   2.796
 2303SOL     OW 7807   6.867   2.962   6.116
 2303SOL    HW1 7808   6.815   3.040   6.079
 2303SOL    HW2 7809   6.962   2.989   6.129
 2304SOL     OW 7810   2.131   1.359   4.681
 2304SOL    HW1 7811   2.142   1.386   4.585
 2304SOL    HW2 7812   2.103   1.439   4.735
 2305SOL     OW 7813   4.325   4.680   1.786
 2305SOL    HW1 7814   4.336   4.649   1.880
 2305SOL    HW2 7815   4.305   4.602   1.727
 2306SOL     OW 7816   0.283   4.382   0.385
 2306SOL    HW1 7817   0.225   4.410   0.308
 2306SOL    HW2 7818   0.378   4.402   0.364
 2307SOL     OW 7819   0.626   1.690   2.888
 2307SOL    HW1 7820   0.620   1.629   2.809
 2307SOL    HW2 7821   0.642   1.637   2.971
 2308SOL     OW 7822   1.263   6.853   0.445
 2308SOL    HW1 7823   1.211   6.909   0.509
 2308SOL    HW2 7824   1.357   6.843   0.479
 2309SOL     OW 7825   2.462   5.214   5.919
 2309SOL    HW1 7826   2.419   5.125   5.935
 2309SOL    HW2 7827   2.391   5.281   5.898
 2310SOL     OW 7828   5.657   1.329   3.226
 2310SOL    HW1 7829   5.703   1.277   3.298
 2310SOL    HW2 7830   5.655   1.426   3.250
 2311SOL     OW 7831   2.622   0.513   2.404
 2311SOL    HW1 7832   2.661   0.514   2.312
 2311SOL    HW2 7833   2.685   0.559   2.467
 2312SOL     OW 7834   2.337   1.147   2.452
 2312SOL    HW1 7835   2.426   1.158   2.496
 2312SOL    HW2 7836   2.267   1.192   2.507
 2313SOL     OW 7837   5.096   4.214   1.868
 2313SOL    HW1 7838   5.073   4.119   1.891
 2313SOL    HW2 7839   5.076   4.272   1.946
 2314SOL     OW 7840   6.397   6.744   2.927
 2314SOL    HW1 7841   6.338   6.699   2.860
 2314SOL    HW2 7842   6.477   6.782   2.881
 2315SOL     OW 7843   4.403   6.045   4.891
 2315SOL    HW1 7844   4.414   6.090   4.802
 2315SOL    HW2 7845   4.310   6.009   4.898
 2316SOL     OW 7846   2.884   1.530   5.660
 2316SOL    HW1 7847   2.956   1.587   5.620
 2316SOL    HW2 7848   2.833   1.485   5.587
 2317SOL     OW 7849   7.007   5.362   2.809
 2317SOL    HW1 7850   6.954   5.430   2.860
 2317SOL    HW2 7851   6.965   5.348   2.719
 2318SOL     OW 7852   0.735   4.676   4.169
 2318SOL    HW1 7853   0.673   4.653   4.094
 2318SOL    HW2 7854   0.829   4.670   4.137
 2319SOL     OW 7855   1.688   5.435   3.668
 2319SOL    HW1 7856   1.701   5.460   3.572
 2319SOL    HW2 7857   1.775   5.447   3.717
 2320SOL     OW 7858   0.878   1.809   5.180
 2320SOL    HW1 7859   0.834   1.789   5.268
 2320SOL    HW2 7860   0.848   1.898   5.147
 2321SOL     OW 7861   1.832   4.739   5.311
 2321SOL    HW1 7862   1.920   4.759   5.354
 2321SOL    HW2 7863   1.841   4.742   5.212
 2322SOL     OW 7864   1.751   3.819   1.664
 2322SOL    HW1 7865   1.677   3.788   1.606
 2322SOL    HW2 7866   1.796   3.741   1.707
 2323SOL     OW 7867   2.696   5.079   0.784
 2323SOL    HW1 7868   2.757   5.045   0.855
 2323SOL    HW2 7869   2.602   5.050   0.803
 2324SOL     OW 7870   6.774   5.107   2.374
 2324SOL    HW1 7871   6.711   5.109   2.452
 2324SOL    HW2 7872   6.760   5.021   2.324
 2325SOL     OW 7873   6.169   5.413   2.222
 2325SOL    HW1 7874   6.178   5.513   2.227
 2325SOL    HW2 7875   6.170   5.384   2.126
 2326SOL     OW 7876   1.898   0.406   0.010
 2326SOL    HW1 7877   1.875   0.392   6.937
 2326SOL    HW2 7878   1.927   0.319   0.051
 2327SOL     OW 7879   6.984   6.762   2.384
 2327SOL    HW1 7880   6.949   6.690   2.444
 2327SOL    HW2 7881   7.007   6.722   2.295
 2328SOL     OW 7882   1.902   3.952   2.426
 2328SOL    HW1 7883   1.920   3.886   2.352
 2328SOL    HW2 7884   1.988   3.993   2.455
 2329SOL     OW 7885   0.195   4.811   3.163
 2329SOL    HW1 7886   0.190   4.854   3.253
 2329SOL    HW2 7887   0.262   4.737   3.165
 2330SOL     OW 7888   6.351   3.119   0.959
 2330SOL    HW1 7889   6.341   3.215   0.983
 2330SOL    HW2 7890   6.332   3.108   0.861
 2331SOL     OW 7891   4.899   5.775   1.469
 2331SOL    HW1 7892   4.878   5.861   1.422
 2331SOL    HW2 7893   4.998   5.766   1.479
 2332SOL     OW 7894   5.654   6.992   6.042
 2332SOL    HW1 7895   5.568   6.950   6.069
 2332SOL    HW2 7896   5.674   6.970   5.946
 2333SOL     OW 7897   0.737   4.496   2.398
 2333SOL    HW1 7898   0.745   4.536   2.490
 2333SOL    HW2 7899   0.656   4.438   2.394
 2334SOL     OW 7900   2.908   1.633   6.264
 2334SOL    HW1 7901   2.931   1.656   6.358
 2334SOL    HW2 7902   2.816   1.667   6.243
 2335SOL     OW 7903   6.770   1.595   3.693
 2335SOL    HW1 7904   6.787   1.638   3.781
 2335SOL    HW2 7905   6.718   1.657   3.635
 2336SOL     OW 7906   1.625   1.720   3.722
 2336SOL    HW1 7907   1.561   1.778   3.771
 2336SOL    HW2 7908   1.717   1.760   3.727
 2337SOL     OW 7909   3.882   1.311   1.615
 2337SOL    HW1 7910   3.903   1.408   1.632
 2337SOL    HW2 7911   3.873   1.263   1.702
 2338SOL     OW 7912   6.930   3.782   3.974
 2338SOL    HW1 7913   6.839   3.742   3.980
 2338SOL    HW2 7914   6.992   3.735   4.038
 2339SOL     OW 7915   3.084   3.044   3.646
 2339SOL    HW1 7916   3.115   3.006   3.559
 2339SOL    HW2 7917   3.051   3.138   3.632
 2340SOL     OW 7918   2.315   4.523   6.960
 2340SOL    HW1 7919   2.307   4.584   6.881
 2340SOL    HW2 7920   2.357   4.437   6.932
 2341SOL     OW 7921   2.253   4.394   4.055
 2341SOL    HW1 7922   2.346   4.427   4.073
 2341SOL    HW2 7923   2.187   4.459   4.094
 2342SOL     OW 7924   3.187   1.206   4.051
 2342SOL    HW1 7925   3.261   1.140   4.041
 2342SOL    HW2 7926   3.204   1.264   4.131
 2343SOL     OW 7927   0.898   0.044   1.592
 2343SOL    HW1 7928   0.900   6.995   1.662
 2343SOL    HW2 7929   0.849   0.011   1.512
 2344SOL     OW 7930   5.691   4.254   0.357
 2344SOL    HW1 7931   5.697   4.353   0.348
 2344SOL    HW2 7932   5.732   4.226   0.444
 2345SOL     OW 7933   3.687   5.891   4.598
 2345SOL    HW1 7934   3.611   5.920   4.657
 2345SOL    HW2 7935   3.735   5.971   4.564
 2346SOL     OW 7936   4.787   3.650   0.234
 2346SOL    HW1 7937   4.697   3.692   0.233
 2346SOL    HW2 7938   4.827   3.658   0.326
 2347SOL     OW 7939   2.027   1.846   1.363
 2347SOL    HW1 7940   2.060   1.871   1.454
 2347SOL    HW2 7941   2.084   1.890   1.293
 2348SOL     OW 7942   0.358   5.043   2.249
 2348SOL    HW1 7943   0.389   4.968   2.191
 2348SOL    HW2 7944   0.416   5.123   2.235
 2349SOL     OW 7945   1.016   4.495   5.442
 2349SOL    HW1 7946   1.042   4.400   5.460
 2349SOL    HW2 7947   1.095   4.544   5.406
 2350SOL     OW 7948   5.308   3.380   7.011
 2350SOL    HW1 7949   5.327   3.302   0.048
 2350SOL    HW2 7950   5.326   3.465   0.038
 2351SOL     OW 7951   2.667   5.865   2.120
 2351SOL    HW1 7952   2.617   5.791   2.077
 2351SOL    HW2 7953   2.711   5.832   2.204
 2352SOL     OW 7954   0.227   2.291   3.339
 2352SOL    HW1 7955   0.289   2.369   3.346
 2352SOL    HW2 7956   0.221   2.261   3.244
 2353SOL     OW 7957   3.040   5.185   4.466
 2353SOL    HW1 7958   3.062   5.178   4.564
 2353SOL    HW2 7959   3.006   5.277   4.446
 2354SOL     OW 7960   2.372   2.539   4.134
 2354SOL    HW1 7961   2.272   2.531   4.130
 2354SOL    HW2 7962   2.406   2.495   4.218
 2355SOL     OW 7963   2.352   5.720   5.159
 2355SOL    HW1 7964   2.424   5.755   5.099
 2355SOL    HW2 7965   2.372   5.624   5.182
 2356SOL     OW 7966   6.807   3.046   6.784
 2356SOL    HW1 7967   6.861   3.010   6.708
 2356SOL    HW2 7968   6.749   2.973   6.820
 2357SOL     OW 7969   2.229   6.564   3.108
 2357SOL    HW1 7970   2.156   6.580   3.174
 2357SOL    HW2 7971   2.317   6.556   3.156
 2358SOL     OW 7972   3.512   4.353   6.036
 2358SOL    HW1 7973   3.455   4.271   6.030
 2358SOL    HW2 7974   3.600   4.329   6.078
 2359SOL     OW 7975   1.697   0.084   4.599
 2359SOL    HW1 7976   1.626   0.106   4.532
 2359SOL    HW2 7977   1.684   7.013   4.632
 2360SOL     OW 7978   6.706   4.344   0.140
 2360SOL    HW1 7979   6.655   4.312   0.219
 2360SOL    HW2 7980   6.644   4.352   0.061
 2361SOL     OW 7981   3.104   1.356   0.304
 2361SOL    HW1 7982   3.030   1.290   0.296
 2361SOL    HW2 7983   3.170   1.342   0.230
 2362SOL     OW 7984   2.956   5.911   3.476
 2362SOL    HW1 7985   2.937   5.866   3.390
 2362SOL    HW2 7986   2.956   6.010   3.463
 2363SOL     OW 7987   4.022   0.317   4.299
 2363SOL    HW1 7988   4.051   0.397   4.246
 2363SOL    HW2 7989   3.926   0.297   4.278
 2364SOL     OW 7990   1.124   2.619   1.232
 2364SOL    HW1 7991   1.170   2.621   1.321
 2364SOL    HW2 7992   1.193   2.613   1.160
 2365SOL     OW 7993   5.051   2.319   6.847
 2365SOL    HW1 7994   5.089   2.265   6.922
 2365SOL    HW2 7995   4.999   2.396   6.885
 2366SOL     OW 7996   4.624   5.492   0.652
 2366SOL    HW1 7997   4.540   5.473   0.602
 2366SOL    HW2 7998   4.702   5.481   0.590
 2367SOL     OW 7999   2.378   3.699   5.912
 2367SOL    HW1 8000   2.474   3.712   5.887
 2367SOL    HW2 8001   2.320   3.749   5.848
 2368SOL     OW 8002   6.285   6.174   2.251
 2368SOL    HW1 8003   6.376   6.214   2.239
 2368SOL    HW2 8004   6.293   6.074   2.250
 2369SOL     OW 8005   2.391   0.974   3.467
 2369SOL    HW1 8006   2.347   0.987   3.556
 2369SOL    HW2 8007   2.461   1.043   3.454
 2370SOL     OW 8008   6.195   2.619   6.371
 2370SOL    HW1 8009   6.194   2.658   6.279
 2370SOL    HW2 8010   6.189   2.519   6.365
 2371SOL     OW 8011   2.521   6.230   1.794
 2371SOL    HW1 8012   2.578   6.191   1.867
 2371SOL    HW2 8013   2.536   6.179   1.710
 2372SOL     OW 8014   6.531   2.927   2.688
 2372SOL    HW1 8015   6.460   2.858   2.675
 2372SOL    HW2 8016   6.500   3.014   2.649
 2373SOL     OW 8017   2.724   3.456   6.651
 2373SOL    HW1 8018   2.702   3.515   6.573
 2373SOL    HW2 8019   2.783   3.381   6.619
 2374SOL     OW 8020   5.691   2.976   4.669
 2374SOL    HW1 8021   5.786   2.972   4.701
 2374SOL    HW2 8022   5.648   3.060   4.702
 2375SOL     OW 8023   2.297   6.864   5.467
 2375SOL    HW1 8024   2.346   6.940   5.427
 2375SOL    HW2 8025   2.312   6.863   5.566
 2376SOL     OW 8026   6.323   2.809   4.423
 2376SOL    HW1 8027   6.308   2.751   4.343
 2376SOL    HW2 8028   6.371   2.757   4.494
 2377SOL     OW 8029   3.761   3.018   3.854
 2377SOL    HW1 8030   3.715   2.957   3.919
 2377SOL    HW2 8031   3.772   2.971   3.766
 2378SOL     OW 8032   5.061   2.713   0.678
 2378SOL    HW1 8033   5.144   2.733   0.730
 2378SOL    HW2 8034   5.086   2.674   0.589
 2379SOL     OW 8035   6.881   6.894   6.242
 2379SOL    HW1 8036   6.896   6.993   6.232
 2379SOL    HW2 8037   6.799   6.868   6.190
 2380SOL     OW 8038   6.308   2.120   2.642
 2380SOL    HW1 8039   6.323   2.021   2.635
 2380SOL    HW2 8040   6.292   2.144   2.737
 2381SOL     OW 8041   1.707   6.584   2.940
 2381SOL    HW1 8042   1.769   6.660   2.919
 2381SOL    HW2 8043   1.732   6.544   3.028
 2382SOL     OW 8044   1.755   3.470   5.587
 2382SOL    HW1 8045   1.776   3.410   5.665
 2382SOL    HW2 8046   1.775   3.421   5.502
 2383SOL     OW 8047   5.935   6.091   2.096
 2383SOL    HW1 8048   5.837   6.073   2.087
 2383SOL    HW2 8049   5.966   6.064   2.188
 2384SOL     OW 8050   4.120   1.752   1.732
 2384SOL    HW1 8051   4.156   1.821   1.670
 2384SOL    HW2 8052   4.183   1.739   1.809
 2385SOL     OW 8053   0.536   2.535   0.018
 2385SOL    HW1 8054   0.556   2.465   6.972
 2385SOL    HW2 8055   0.570   2.623   7.008
 2386SOL     OW 8056   4.292   5.141   3.680
 2386SOL    HW1 8057   4.363   5.198   3.721
 2386SOL    HW2 8058   4.242   5.093   3.753
 2387SOL     OW 8059   1.430   1.503   2.853
 2387SOL    HW1 8060   1.497   1.548   2.912
 2387SOL    HW2 8061   1.452   1.521   2.758
 2388SOL     OW 8062   0.068   2.014   3.997
 2388SOL    HW1 8063   7.005   2.036   4.044
 2388SOL    HW2 8064   0.145   2.036   4.056
 2389SOL     OW 8065   3.633   6.462   2.535
 2389SOL    HW1 8066   3.731   6.441   2.528
 2389SOL    HW2 8067   3.616   6.517   2.617
 2390SOL     OW 8068   2.993   4.269   1.453
 2390SOL    HW1 8069   2.960   4.204   1.521
 2390SOL    HW2 8070   3.089   4.291   1.471
 2391SOL     OW 8071   4.134   5.617   5.105
 2391SOL    HW1 8072   4.058   5.617   5.040
 2391SOL    HW2 8073   4.195   5.540   5.086
 2392SOL     OW 8074   3.919   1.270   6.700
 2392SOL    HW1 8075   3.906   1.322   6.616
 2392SOL    HW2 8076   4.009   1.226   6.698
 2393SOL     OW 8077   3.418   5.227   5.372
 2393SOL    HW1 8078   3.509   5.211   5.334
 2393SOL    HW2 8079   3.382   5.142   5.411
 2394SOL     OW 8080   6.879   4.858   5.840
 2394SOL    HW1 8081   6.959   4.834   5.895
 2394SOL    HW2 8082   6.908   4.876   5.746
 2395SOL     OW 8083   4.396   6.818   6.427
 2395SOL    HW1 8084   4.351   6.906   6.410
 2395SOL    HW2 8085   4.362   6.750   6.362
 2396SOL     OW 8086   3.345   5.319   0.583
 2396SOL    HW1 8087   3.288   5.237   0.570
 2396SOL    HW2 8088   3.440   5.291   0.598
 2397SOL     OW 8089   0.013   3.636   4.180
 2397SOL    HW1 8090   0.033   3.660   4.275
 2397SOL    HW2 8091   6.948   3.589   4.175
 2398SOL     OW 8092   4.682   3.985   5.316
 2398SOL    HW1 8093   4.595   3.940   5.293
 2398SOL    HW2 8094   4.706   3.962   5.411
 2399SOL     OW 8095   4.094   2.316   1.746
 2399SOL    HW1 8096   4.043   2.401   1.736
 2399SOL    HW2 8097   4.119   2.303   1.842
 2400SOL     OW 8098   2.001   5.110   0.547
 2400SOL    HW1 8099   1.946   5.169   0.488
 2400SOL    HW2 8100   2.016   5.155   0.635
 2401SOL     OW 8101   7.012   6.286   6.056
 2401SOL    HW1 8102   6.995   6.264   6.152
 2401SOL    HW2 8103   0.071   6.237   6.024
 2402SOL     OW 8104   6.705   6.413   3.796
 2402SOL    HW1 8105   6.789   6.413   3.741
 2402SOL    HW2 8106   6.684   6.320   3.825
 2403SOL     OW 8107   0.569   1.355   5.047
 2403SOL    HW1 8108   0.516   1.282   5.003
 2403SOL    HW2 8109   0.507   1.428   5.076
 2404SOL     OW 8110   1.408   0.919   0.408
 2404SOL    HW1 8111   1.491   0.884   0.365
 2404SOL    HW2 8112   1.366   0.847   0.464
 2405SOL     OW 8113   2.789   3.955   1.424
 2405SOL    HW1 8114   2.766   3.882   1.360
 2405SOL    HW2 8115   2.727   4.032   1.410
 2406SOL     OW 8116   4.636   0.948   1.359
 2406SOL    HW1 8117   4.538   0.965   1.350
 2406SOL    HW2 8118   4.657   0.857   1.324
 2407SOL     OW 8119   5.301   6.954   3.403
 2407SOL    HW1 8120   5.242   0.010   3.422
 2407SOL    HW2 8121   5.283   6.881   3.469
 2408SOL     OW 8122   4.359   4.714   2.284
 2408SOL    HW1 8123   4.364   4.666   2.196
 2408SOL    HW2 8124   4.277   4.686   2.333
 2409SOL     OW 8125   1.237   4.260   0.574
 2409SOL    HW1 8126   1.177   4.210   0.511
 2409SOL    HW2 8127   1.325   4.213   0.580
 2410SOL     OW 8128   3.636   2.953   3.359
 2410SOL    HW1 8129   3.630   3.031   3.422
 2410SOL    HW2 8130   3.723   2.956   3.310
 2411SOL     OW 8131   4.709   0.353   4.214
 2411SOL    HW1 8132   4.773   0.430   4.222
 2411SOL    HW2 8133   4.760   0.268   4.203
 2412SOL     OW 8134   4.121   3.560   1.138
 2412SOL    HW1 8135   4.111   3.610   1.052
 2412SOL    HW2 8136   4.143   3.464   1.118
 2413SOL     OW 8137   4.374   0.313   2.911
 2413SOL    HW1 8138   4.411   0.376   2.842
 2413SOL    HW2 8139   4.448   0.282   2.970
 2414SOL     OW 8140   5.495   3.181   4.157
 2414SOL    HW1 8141   5.420   3.118   4.137
 2414SOL    HW2 8142   5.460   3.259   4.209
 2415SOL     OW 8143   4.277   0.849   3.065
 2415SOL    HW1 8144   4.243   0.841   2.972
 2415SOL    HW2 8145   4.209   0.897   3.121
 2416SOL     OW 8146   5.603   2.036   6.756
 2416SOL    HW1 8147   5.643   1.947   6.734
 2416SOL    HW2 8148   5.653   2.108   6.709
 2417SOL     OW 8149   3.349   4.384   5.501
 2417SOL    HW1 8150   3.396   4.304   5.463
 2417SOL    HW2 8151   3.256   4.387   5.466
 2418SOL     OW 8152   3.364   2.980   2.972
 2418SOL    HW1 8153   3.340   3.076   2.986
 2418SOL    HW2 8154   3.314   2.945   2.892
 2419SOL     OW 8155   0.479   0.514   3.373
 2419SOL    HW1 8156   0.534   0.504   3.456
 2419SOL    HW2 8157   0.383   0.524   3.398
 2420SOL     OW 8158   2.142   0.093   1.971
 2420SOL    HW1 8159   2.045   0.079   1.993
 2420SOL    HW2 8160   2.171   0.023   1.906
 2421SOL     OW 8161   3.436   1.836   3.031
 2421SOL    HW1 8162   3.412   1.882   3.117
 2421SOL    HW2 8163   3.355   1.829   2.973
 2422SOL     OW 8164   4.954   1.742   0.863
 2422SOL    HW1 8165   5.042   1.781   0.834
 2422SOL    HW2 8166   4.882   1.774   0.802
 2423SOL     OW 8167   1.783   5.151   2.609
 2423SOL    HW1 8168   1.843   5.081   2.647
 2423SOL    HW2 8169   1.830   5.240   2.611
 2424SOL     OW 8170   6.474   0.555   0.506
 2424SOL    HW1 8171   6.470   0.588   0.412
 2424SOL    HW2 8172   6.480   0.634   0.568
 2425SOL     OW 8173   6.949   6.813   4.526
 2425SOL    HW1 8174   6.977   6.720   4.548
 2425SOL    HW2 8175   6.850   6.816   4.512
 2426SOL     OW 8176   2.389   4.610   4.226
 2426SOL    HW1 8177   2.474   4.662   4.223
 2426SOL    HW2 8178   2.315   4.669   4.259
 2427SOL     OW 8179   6.141   0.156   5.778
 2427SOL    HW1 8180   6.098   0.084   5.832
 2427SOL    HW2 8181   6.207   0.115   5.715
 2428SOL     OW 8182   5.655   1.031   0.484
 2428SOL    HW1 8183   5.640   1.130   0.481
 2428SOL    HW2 8184   5.714   1.005   0.408
 2429SOL     OW 8185   4.908   5.131   2.543
 2429SOL    HW1 8186   5.007   5.149   2.539
 2429SOL    HW2 8187   4.890   5.040   2.507
 2430SOL     OW 8188   4.784   6.852   2.803
 2430SOL    HW1 8189   4.852   6.807   2.746
 2430SOL    HW2 8190   4.695   6.852   2.756
 2431SOL     OW 8191   4.296   6.784   2.126
 2431SOL    HW1 8192   4.199   6.767   2.141
 2431SOL    HW2 8193   4.346   6.771   2.212
 2432SOL     OW 8194   2.591   6.129   2.366
 2432SOL    HW1 8195   2.689   6.120   2.382
 2432SOL    HW2 8196   2.576   6.197   2.293
 2433SOL     OW 8197   4.784   0.358   0.741
 2433SOL    HW1 8198   4.760   0.451   0.712
 2433SOL    HW2 8199   4.821   0.307   0.664
 2434SOL     OW 8200   3.291   2.936   4.541
 2434SOL    HW1 8201   3.220   3.004   4.526
 2434SOL    HW2 8202   3.295   2.914   4.638
 2435SOL     OW 8203   6.065   6.159   5.991
 2435SOL    HW1 8204   6.089   6.062   5.994
 2435SOL    HW2 8205   6.079   6.200   6.082
 2436SOL     OW 8206   2.746   4.688   0.818
 2436SOL    HW1 8207   2.840   4.724   0.814
 2436SOL    HW2 8208   2.694   4.724   0.740
 2437SOL     OW 8209   6.623   0.801   5.520
 2437SOL    HW1 8210   6.714   0.807   5.481
 2437SOL    HW2 8211   6.630   0.783   5.618
 2438SOL     OW 8212   3.296   3.367   0.695
 2438SOL    HW1 8213   3.345   3.310   0.761
 2438SOL    HW2 8214   3.347   3.451   0.680
 2439SOL     OW 8215   6.117   4.597   6.159
 2439SOL    HW1 8216   6.131   4.538   6.079
 2439SOL    HW2 8217   6.205   4.635   6.188
 2440SOL     OW 8218   5.857   5.072   5.583
 2440SOL    HW1 8219   5.881   5.129   5.504
 2440SOL    HW2 8220   5.938   5.025   5.617
 2441SOL     OW 8221   6.250   2.399   0.613
 2441SOL    HW1 8222   6.256   2.388   0.712
 2441SOL    HW2 8223   6.173   2.345   0.577
 2442SOL     OW 8224   6.893   1.948   4.995
 2442SOL    HW1 8225   6.916   2.040   4.963
 2442SOL    HW2 8226   6.821   1.953   5.064
 2443SOL     OW 8227   2.995   4.955   5.423
 2443SOL    HW1 8228   2.909   4.945   5.473
 2443SOL    HW2 8229   2.988   4.907   5.336
 2444SOL     OW 8230   3.649   2.640   6.199
 2444SOL    HW1 8231   3.739   2.627   6.157
 2444SOL    HW2 8232   3.578   2.630   6.128
 2445SOL     OW 8233   1.241   0.072   0.592
 2445SOL    HW1 8234   1.223   0.157   0.641
 2445SOL    HW2 8235   1.339   0.068   0.569
 2446SOL     OW 8236   4.562   2.865   6.216
 2446SOL    HW1 8237   4.650   2.829   6.247
 2446SOL    HW2 8238   4.565   2.881   6.118
 2447SOL     OW 8239   0.961   3.319   6.487
 2447SOL    HW1 8240   0.890   3.383   6.455
 2447SOL    HW2 8241   1.051   3.362   6.478
 2448SOL     OW 8242   6.929   0.183   4.633
 2448SOL    HW1 8243   6.907   0.278   4.656
 2448SOL    HW2 8244   6.898   0.123   4.707
 2449SOL     OW 8245   0.292   2.840   5.206
 2449SOL    HW1 8246   0.306   2.873   5.299
 2449SOL    HW2 8247   0.379   2.806   5.169
 2450SOL     OW 8248   2.511   3.292   1.429
 2450SOL    HW1 8249   2.508   3.260   1.524
 2450SOL    HW2 8250   2.585   3.359   1.420
 2451SOL     OW 8251   1.956   5.482   3.942
 2451SOL    HW1 8252   2.018   5.544   3.990
 2451SOL    HW2 8253   2.008   5.409   3.898
 2452SOL     OW 8254   2.357   2.413   5.078
 2452SOL    HW1 8255   2.333   2.317   5.062
 2452SOL    HW2 8256   2.276   2.470   5.061
 2453SOL     OW 8257   0.398   3.740   1.111
 2453SOL    HW1 8258   0.406   3.672   1.184
 2453SOL    HW2 8259   0.318   3.720   1.055
 2454SOL     OW 8260   1.329   0.217   2.113
 2454SOL    HW1 8261   1.376   0.263   2.038
 2454SOL    HW2 8262   1.233   0.245   2.116
 2455SOL     OW 8263   5.502   3.514   1.153
 2455SOL    HW1 8264   5.573   3.557   1.097
 2455SOL    HW2 8265   5.542   3.486   1.240
 2456SOL     OW 8266   2.458   6.860   1.235
 2456SOL    HW1 8267   2.464   6.913   1.319
 2456SOL    HW2 8268   2.525   6.787   1.236
 2457SOL     OW 8269   5.808   5.928   1.221
 2457SOL    HW1 8270   5.749   5.927   1.140
 2457SOL    HW2 8271   5.877   5.856   1.212
 2458SOL     OW 8272   0.774   6.387   1.407
 2458SOL    HW1 8273   0.747   6.379   1.503
 2458SOL    HW2 8274   0.816   6.301   1.377
 2459SOL     OW 8275   1.224   1.534   0.325
 2459SOL    HW1 8276   1.251   1.444   0.359
 2459SOL    HW2 8277   1.245   1.540   0.228
 2460SOL     OW 8278   2.631   4.343   1.111
 2460SOL    HW1 8279   2.537   4.358   1.143
 2460SOL    HW2 8280   2.679   4.286   1.177
 2461SOL     OW 8281   4.365   1.611   3.211
 2461SOL    HW1 8282   4.333   1.651   3.297
 2461SOL    HW2 8283   4.354   1.512   3.214
 2462SOL     OW 8284   2.827   4.069   6.002
 2462SOL    HW1 8285   2.917   4.095   6.039
 2462SOL    HW2 8286   2.777   4.151   5.975
 2463SOL     OW 8287   0.965   2.665   5.310
 2463SOL    HW1 8288   0.954   2.726   5.231
 2463SOL    HW2 8289   1.011   2.714   5.384
 2464SOL     OW 8290   0.766   3.441   0.569
 2464SOL    HW1 8291   0.700   3.463   0.641
 2464SOL    HW2 8292   0.851   3.492   0.584
 2465SOL     OW 8293   6.316   4.834   2.727
 2465SOL    HW1 8294   6.249   4.908   2.720
 2465SOL    HW2 8295   6.336   4.798   2.636
 2466SOL     OW 8296   3.399   1.760   1.576
 2466SOL    HW1 8297   3.315   1.812   1.588
 2466SOL    HW2 8298   3.382   1.685   1.512
 2467SOL     OW 8299   0.670   1.008   4.735
 2467SOL    HW1 8300   0.718   1.062   4.667
 2467SOL    HW2 8301   0.717   0.921   4.748
 2468SOL     OW 8302   6.146   5.050   6.603
 2468SOL    HW1 8303   6.157   5.073   6.506
 2468SOL    HW2 8304   6.236   5.049   6.648
 2469SOL     OW 8305   2.980   2.808   6.041
 2469SOL    HW1 8306   2.933   2.724   6.012
 2469SOL    HW2 8307   3.000   2.864   5.961
 2470SOL     OW 8308   5.256   2.915   1.475
 2470SOL    HW1 8309   5.268   2.817   1.464
 2470SOL    HW2 8310   5.198   2.950   1.402
 2471SOL     OW 8311   0.283   1.253   2.811
 2471SOL    HW1 8312   0.361   1.191   2.818
 2471SOL    HW2 8313   0.205   1.213   2.859
 2472SOL     OW 8314   5.999   0.472   3.645
 2472SOL    HW1 8315   5.946   0.461   3.729
 2472SOL    HW2 8316   6.087   0.425   3.654
 2473SOL     OW 8317   0.403   5.803   5.440
 2473SOL    HW1 8318   0.500   5.784   5.425
 2473SOL    HW2 8319   0.380   5.892   5.402
 2474SOL     OW 8320   6.357   6.956   4.601
 2474SOL    HW1 8321   6.285   6.897   4.636
 2474SOL    HW2 8322   6.435   6.955   4.664
 2475SOL     OW 8323   3.967   2.473   6.107
 2475SOL    HW1 8324   3.895   2.443   6.045
 2475SOL    HW2 8325   4.043   2.510   6.054
 2476SOL     OW 8326   0.608   1.562   3.417
 2476SOL    HW1 8327   0.508   1.563   3.415
 2476SOL    HW2 8328   0.640   1.504   3.492
 2477SOL     OW 8329   4.464   4.770   2.553
 2477SOL    HW1 8330   4.397   4.779   2.480
 2477SOL    HW2 8331   4.486   4.861   2.589
 2478SOL     OW 8332   6.803   0.244   2.198
 2478SOL    HW1 8333   6.792   0.272   2.293
 2478SOL    HW2 8334   6.898   0.217   2.182
 2479SOL     OW 8335   1.212   3.318   0.271
 2479SOL    HW1 8336   1.117   3.288   0.272
 2479SOL    HW2 8337   1.236   3.352   0.180
 2480SOL     OW 8338   6.715   5.250   1.263
 2480SOL    HW1 8339   6.617   5.257   1.244
 2480SOL    HW2 8340   6.744   5.327   1.320
 2481SOL     OW 8341   4.105   4.738   2.389
 2481SOL    HW1 8342   4.025   4.726   2.330
 2481SOL    HW2 8343   4.076   4.738   2.485
 2482SOL     OW 8344   4.171   2.284   4.736
 2482SOL    HW1 8345   4.115   2.201   4.730
 2482SOL    HW2 8346   4.167   2.320   4.830
 2483SOL     OW 8347   1.273   3.439   0.024
 2483SOL    HW1 8348   1.204   3.419   6.978
 2483SOL    HW2 8349   1.324   3.521   7.021
 2484SOL     OW 8350   3.861   4.239   5.866
 2484SOL    HW1 8351   3.826   4.230   5.959
 2484SOL    HW2 8352   3.790   4.212   5.801
 2485SOL     OW 8353   0.836   5.806   6.903
 2485SOL    HW1 8354   0.899   5.837   6.831
 2485SOL    HW2 8355   0.771   5.741   6.865
 2486SOL     OW 8356   0.729   5.455   3.377
 2486SOL    HW1 8357   0.697   5.488   3.465
 2486SOL    HW2 8358   0.722   5.528   3.309
 2487SOL     OW 8359   3.391   1.260   1.465
 2487SOL    HW1 8360   3.390   1.299   1.373
 2487SOL    HW2 8361   3.300   1.223   1.486
 2488SOL     OW 8362   3.108   5.800   6.350
 2488SOL    HW1 8363   3.187   5.777   6.406
 2488SOL    HW2 8364   3.034   5.734   6.368
 2489SOL     OW 8365   6.850   5.466   4.589
 2489SOL    HW1 8366   6.821   5.372   4.606
 2489SOL    HW2 8367   6.773   5.521   4.558
 2490SOL     OW 8368   5.804   3.059   1.459
 2490SOL    HW1 8369   5.850   3.099   1.379
 2490SOL    HW2 8370   5.705   3.070   1.448
 2491SOL     OW 8371   6.579   4.154   2.783
 2491SOL    HW1 8372   6.641   4.210   2.728
 2491SOL    HW2 8373   6.631   4.104   2.853
 2492SOL     OW 8374   4.138   1.581   6.859
 2492SOL    HW1 8375   4.185   1.516   6.919
 2492SOL    HW2 8376   4.151   1.674   6.894
 2493SOL     OW 8377   6.182   0.426   5.457
 2493SOL    HW1 8378   6.090   0.449   5.425
 2493SOL    HW2 8379   6.179   0.408   5.556
 2494SOL     OW 8380   5.090   5.259   0.709
 2494SOL    HW1 8381   5.114   5.189   0.777
 2494SOL    HW2 8382   5.002   5.235   0.667
 2495SOL     OW 8383   0.331   1.368   2.414
 2495SOL    HW1 8384   0.348   1.323   2.326
 2495SOL    HW2 8385   0.378   1.317   2.486
 2496SOL     OW 8386   1.976   4.845   0.623
 2496SOL    HW1 8387   1.997   4.937   0.591
 2496SOL    HW2 8388   2.060   4.793   0.635
 2497SOL     OW 8389   5.993   0.800   6.486
 2497SOL    HW1 8390   6.078   0.831   6.529
 2497SOL    HW2 8391   5.918   0.859   6.514
 2498SOL     OW 8392   0.561   3.210   4.560
 2498SOL    HW1 8393   0.573   3.305   4.532
 2498SOL    HW2 8394   0.584   3.149   4.483
 2499SOL     OW 8395   5.138   0.958   0.078
 2499SOL    HW1 8396   5.195   1.040   0.086
 2499SOL    HW2 8397   5.171   0.888   0.141
 2500SOL     OW 8398   5.140   3.455   6.020
 2500SOL    HW1 8399   5.143   3.534   5.958
 2500SOL    HW2 8400   5.046   3.437   6.047
 2501SOL     OW 8401   6.893   4.690   0.904
 2501SOL    HW1 8402   6.898   4.777   0.954
 2501SOL    HW2 8403   6.885   4.709   0.806
 2502SOL     OW 8404   1.043   6.915   3.327
 2502SOL    HW1 8405   1.047   6.992   3.264
 2502SOL    HW2 8406   1.075   6.832   3.281
 2503SOL     OW 8407   5.454   6.601   4.631
 2503SOL    HW1 8408   5.529   6.603   4.563
 2503SOL    HW2 8409   5.385   6.535   4.602
 2504SOL     OW 8410   2.609   4.826   3.158
 2504SOL    HW1 8411   2.520   4.812   3.202
 2504SOL    HW2 8412   2.614   4.769   3.075
 2505SOL     OW 8413   5.085   4.168   4.705
 2505SOL    HW1 8414   5.169   4.176   4.651
 2505SOL    HW2 8415   5.020   4.108   4.657
 2506SOL     OW 8416   0.669   0.730   0.417
 2506SOL    HW1 8417   0.608   0.652   0.429
 2506SOL    HW2 8418   0.743   0.726   0.485
 2507SOL     OW 8419   6.487   6.542   0.290
 2507SOL    HW1 8420   6.514   6.622   0.342
 2507SOL    HW2 8421   6.536   6.462   0.324
 2508SOL     OW 8422   1.712   1.871   1.957
 2508SOL    HW1 8423   1.686   1.880   2.053
 2508SOL    HW2 8424   1.640   1.907   1.898
 2509SOL     OW 8425   6.144   0.003   3.873
 2509SOL    HW1 8426   6.134   6.957   3.801
 2509SOL    HW2 8427   6.178   6.981   3.956
 2510SOL     OW 8428   3.991   5.911   2.485
 2510SOL    HW1 8429   3.923   5.980   2.460
 2510SOL    HW2 8430   4.022   5.927   2.579
 2511SOL     OW 8431   0.807   6.004   3.675
 2511SOL    HW1 8432   0.731   6.069   3.675
 2511SOL    HW2 8433   0.883   6.040   3.730
 2512SOL     OW 8434   5.738   3.496   4.465
 2512SOL    HW1 8435   5.763   3.447   4.548
 2512SOL    HW2 8436   5.646   3.535   4.475
 2513SOL     OW 8437   7.017   5.150   1.010
 2513SOL    HW1 8438   0.053   5.158   1.091
 2513SOL    HW2 8439   0.051   5.157   0.928
 2514SOL     OW 8440   6.808   1.959   3.993
 2514SOL    HW1 8441   6.847   1.992   3.907
 2514SOL    HW2 8442   6.737   2.023   4.023
 2515SOL     OW 8443   1.196   4.344   6.654
 2515SOL    HW1 8444   1.142   4.299   6.725
 2515SOL    HW2 8445   1.158   4.435   6.637
 2516SOL     OW 8446   4.584   6.762   3.961
 2516SOL    HW1 8447   4.570   6.823   4.038
 2516SOL    HW2 8448   4.680   6.762   3.934
 2517SOL     OW 8449   2.514   5.475   0.822
 2517SOL    HW1 8450   2.499   5.574   0.827
 2517SOL    HW2 8451   2.578   5.455   0.748
 2518SOL     OW 8452   2.241   1.842   0.168
 2518SOL    HW1 8453   2.282   1.887   0.089
 2518SOL    HW2 8454   2.143   1.830   0.153
 2519SOL     OW 8455   5.996   4.289   4.518
 2519SOL    HW1 8456   5.935   4.368   4.520
 2519SOL    HW2 8457   6.076   4.306   4.575
 2520SOL     OW 8458   3.894   5.499   0.681
 2520SOL    HW1 8459   3.848   5.431   0.625
 2520SOL    HW2 8460   3.989   5.508   0.651
 2521SOL     OW 8461   5.805   6.661   5.860
 2521SOL    HW1 8462   5.738   6.733   5.843
 2521SOL    HW2 8463   5.894   6.703   5.876
 2522SOL     OW 8464   2.370   4.764   5.054
 2522SOL    HW1 8465   2.412   4.850   5.084
 2522SOL    HW2 8466   2.405   4.689   5.110
 2523SOL     OW 8467   0.716   2.107   6.319
 2523SOL    HW1 8468   0.686   2.087   6.226
 2523SOL    HW2 8469   0.753   2.200   6.323
 2524SOL     OW 8470   1.492   0.107   4.438
 2524SOL    HW1 8471   1.424   0.057   4.490
 2524SOL    HW2 8472   1.460   0.121   4.344
 2525SOL     OW 8473   2.697   4.654   2.140
 2525SOL    HW1 8474   2.771   4.643   2.074
 2525SOL    HW2 8475   2.647   4.739   2.121
 2526SOL     OW 8476   1.808   2.829   4.479
 2526SOL    HW1 8477   1.877   2.804   4.411
 2526SOL    HW2 8478   1.849   2.829   4.570
 2527SOL     OW 8479   0.105   6.516   3.834
 2527SOL    HW1 8480   0.039   6.565   3.891
 2527SOL    HW2 8481   0.069   6.425   3.813
 2528SOL     OW 8482   5.465   5.238   1.069
 2528SOL    HW1 8483   5.553   5.212   1.110
 2528SOL    HW2 8484   5.452   5.337   1.077
 2529SOL     OW 8485   5.352   4.368   5.063
 2529SOL    HW1 8486   5.330   4.279   5.103
 2529SOL    HW2 8487   5.381   4.431   5.135
 2530SOL     OW 8488   1.360   6.307   3.127
 2530SOL    HW1 8489   1.300   6.235   3.092
 2530SOL    HW2 8490   1.453   6.292   3.093
 2531SOL     OW 8491   5.675   2.097   6.431
 2531SOL    HW1 8492   5.582   2.129   6.413
 2531SOL    HW2 8493   5.716   2.154   6.502
 2532SOL     OW 8494   0.757   5.859   6.093
 2532SOL    HW1 8495   0.799   5.799   6.026
 2532SOL    HW2 8496   0.743   5.809   6.179
 2533SOL     OW 8497   5.522   0.670   4.776
 2533SOL    HW1 8498   5.597   0.606   4.758
 2533SOL    HW2 8499   5.446   0.650   4.714
 2534SOL     OW 8500   6.499   1.079   3.269
 2534SOL    HW1 8501   6.484   0.981   3.254
 2534SOL    HW2 8502   6.412   1.128   3.260
 2535SOL     OW 8503   2.746   0.791   1.997
 2535SOL    HW1 8504   2.825   0.733   1.978
 2535SOL    HW2 8505   2.759   0.837   2.085
 2536SOL     OW 8506   0.953   0.357   3.330
 2536SOL    HW1 8507   1.043   0.330   3.295
 2536SOL    HW2 8508   0.962   0.390   3.424
 2537SOL     OW 8509   2.501   6.320   2.127
 2537SOL    HW1 8510   2.546   6.392   2.178
 2537SOL    HW2 8511   2.402   6.331   2.132
 2538SOL     OW 8512   0.042   5.445   5.106
 2538SOL    HW1 8513   0.091   5.526   5.139
 2538SOL    HW2 8514   0.083   5.414   5.020
 2539SOL     OW 8515   1.304   0.276   5.355
 2539SOL    HW1 8516   1.302   0.321   5.266
 2539SOL    HW2 8517   1.382   0.309   5.407
 2540SOL     OW 8518   5.116   2.140   2.151
 2540SOL    HW1 8519   5.043   2.207   2.141
 2540SOL    HW2 8520   5.162   2.128   2.063
 2541SOL     OW 8521   1.463   1.268   0.136
 2541SOL    HW1 8522   1.485   1.173   0.115
 2541SOL    HW2 8523   1.434   1.315   0.053
 2542SOL     OW 8524   4.105   1.962   2.597
 2542SOL    HW1 8525   4.052   1.926   2.674
 2542SOL    HW2 8526   4.119   1.890   2.530
 2543SOL     OW 8527   6.225   6.927   5.406
 2543SOL    HW1 8528   6.276   6.846   5.377
 2543SOL    HW2 8529   6.232   6.998   5.336
 2544SOL     OW 8530   0.111   6.986   0.435
 2544SOL    HW1 8531   0.130   6.913   0.369
 2544SOL    HW2 8532   0.151   0.049   0.401
 2545SOL     OW 8533   6.738   1.788   0.330
 2545SOL    HW1 8534   6.750   1.792   0.429
 2545SOL    HW2 8535   6.773   1.700   0.296
 2546SOL     OW 8536   6.102   3.495   2.497
 2546SOL    HW1 8537   6.045   3.452   2.427
 2546SOL    HW2 8538   6.061   3.582   2.525
 2547SOL     OW 8539   5.657   3.671   0.986
 2547SOL    HW1 8540   5.577   3.693   0.930
 2547SOL    HW2 8541   5.702   3.756   1.014
 2548SOL     OW 8542   6.456   0.488   5.443
 2548SOL    HW1 8543   6.362   0.462   5.421
 2548SOL    HW2 8544   6.474   0.472   5.540
 2549SOL     OW 8545   2.860   5.326   7.010
 2549SOL    HW1 8546   2.926   5.277   6.952
 2549SOL    HW2 8547   2.771   5.281   7.004
 2550SOL     OW 8548   3.982   0.473   0.823
 2550SOL    HW1 8549   3.899   0.492   0.876
 2550SOL    HW2 8550   4.062   0.493   0.878
 2551SOL     OW 8551   3.768   4.393   1.290
 2551SOL    HW1 8552   3.723   4.342   1.364
 2551SOL    HW2 8553   3.709   4.466   1.259
 2552SOL     OW 8554   2.774   5.141   1.703
 2552SOL    HW1 8555   2.848   5.145   1.636
 2552SOL    HW2 8556   2.708   5.213   1.685
 2553SOL     OW 8557   4.496   1.745   0.550
 2553SOL    HW1 8558   4.518   1.648   0.543
 2553SOL    HW2 8559   4.412   1.757   0.603
 2554SOL     OW 8560   1.075   6.046   0.677
 2554SOL    HW1 8561   1.143   6.118   0.684
 2554SOL    HW2 8562   0.984   6.087   0.670
 2555SOL     OW 8563   1.005   6.519   5.485
 2555SOL    HW1 8564   1.083   6.477   5.440
 2555SOL    HW2 8565   0.921   6.492   5.438
 2556SOL     OW 8566   5.816   0.425   1.028
 2556SOL    HW1 8567   5.864   0.397   1.111
 2556SOL    HW2 8568   5.753   0.352   1.001
 2557SOL     OW 8569   2.767   1.228   0.020
 2557SOL    HW1 8570   2.821   1.304   7.007
 2557SOL    HW2 8571   2.670   1.244   0.001
 2558SOL     OW 8572   5.794   2.819   1.031
 2558SOL    HW1 8573   5.781   2.897   1.092
 2558SOL    HW2 8574   5.889   2.788   1.036
 2559SOL     OW 8575   6.046   4.998   3.829
 2559SOL    HW1 8576   6.057   5.053   3.912
 2559SOL    HW2 8577   6.137   4.977   3.791
 2560SOL     OW 8578   4.261   2.801   1.641
 2560SOL    HW1 8579   4.165   2.830   1.640
 2560SOL    HW2 8580   4.274   2.729   1.709
 2561SOL     OW 8581   3.413   0.136   4.453
 2561SOL    HW1 8582   3.392   0.233   4.470
 2561SOL    HW2 8583   3.359   0.080   4.515
 2562SOL     OW 8584   1.683   6.374   4.839
 2562SOL    HW1 8585   1.586   6.352   4.836
 2562SOL    HW2 8586   1.735   6.293   4.867
 2563SOL     OW 8587   4.061   2.840   6.278
 2563SOL    HW1 8588   4.087   2.935   6.292
 2563SOL    HW2 8589   3.987   2.835   6.211
 2564SOL     OW 8590   1.714   1.468   1.339
 2564SOL    HW1 8591   1.754   1.390   1.387
 2564SOL    HW2 8592   1.699   1.444   1.243
 2565SOL     OW 8593   0.011   0.681   0.860
 2565SOL    HW1 8594   6.968   0.705   0.931
 2565SOL    HW2 8595   0.046   0.764   0.817
 2566SOL     OW 8596   2.620   1.374   0.471
 2566SOL    HW1 8597   2.559   1.308   0.428
 2566SOL    HW2 8598   2.681   1.327   0.534
 2567SOL     OW 8599   2.505   0.959   6.311
 2567SOL    HW1 8600   2.545   0.918   6.393
 2567SOL    HW2 8601   2.555   1.041   6.286
 2568SOL     OW 8602   2.815   6.202   0.732
 2568SOL    HW1 8603   2.832   6.300   0.718
 2568SOL    HW2 8604   2.888   6.164   0.790
 2569SOL     OW 8605   2.555   6.197   6.642
 2569SOL    HW1 8606   2.492   6.164   6.571
 2569SOL    HW2 8607   2.576   6.122   6.704
 2570SOL     OW 8608   0.157   6.871   3.355
 2570SOL    HW1 8609   0.128   6.900   3.447
 2570SOL    HW2 8610   0.190   6.950   3.304
 2571SOL     OW 8611   3.642   3.237   2.956
 2571SOL    HW1 8612   3.659   3.284   3.043
 2571SOL    HW2 8613   3.596   3.300   2.893
 2572SOL     OW 8614   2.768   5.924   2.411
 2572SOL    HW1 8615   2.822   5.915   2.327
 2572SOL    HW2 8616   2.748   5.833   2.447
 2573SOL     OW 8617   6.572   0.797   2.921
 2573SOL    HW1 8618   6.587   0.882   2.870
 2573SOL    HW2 8619   6.521   0.733   2.864
 2574SOL     OW 8620   0.184   4.185   2.208
 2574SOL    HW1 8621   0.172   4.182   2.109
 2574SOL    HW2 8622   0.199   4.279   2.238
 2575SOL     OW 8623   4.518   3.575   5.339
 2575SOL    HW1 8624   4.474   3.664   5.326
 2575SOL    HW2 8625   4.570   3.551   5.258
 2576SOL     OW 8626   0.356   0.539   2.693
 2576SOL    HW1 8627   0.390   0.455   2.735
 2576SOL    HW2 8628   0.424   0.612   2.703
 2577SOL     OW 8629   1.729   4.461   0.677
 2577SOL    HW1 8630   1.829   4.457   0.680
 2577SOL    HW2 8631   1.698   4.468   0.582
 2578SOL     OW 8632   4.450   2.292   4.616
 2578SOL    HW1 8633   4.355   2.276   4.642
 2578SOL    HW2 8634   4.501   2.206   4.621
 2579SOL     OW 8635   7.013   1.519   6.588
 2579SOL    HW1 8636   0.086   1.491   6.577
 2579SOL    HW2 8637   6.978   1.482   6.674
 2580SOL     OW 8638   1.946   1.852   5.641
 2580SOL    HW1 8639   2.040   1.826   5.663
 2580SOL    HW2 8640   1.889   1.846   5.723
 2581SOL     OW 8641   5.388   6.776   4.065
 2581SOL    HW1 8642   5.440   6.806   4.144
 2581SOL    HW2 8643   5.358   6.681   4.078
 2582SOL     OW 8644   6.288   4.047   3.189
 2582SOL    HW1 8645   6.286   3.948   3.174
 2582SOL    HW2 8646   6.207   4.089   3.147
 2583SOL     OW 8647   2.453   0.831   0.122
 2583SOL    HW1 8648   2.531   0.870   0.073
 2583SOL    HW2 8649   2.484   0.798   0.212
 2584SOL     OW 8650   3.977   0.326   3.208
 2584SOL    HW1 8651   4.055   0.363   3.158
 2584SOL    HW2 8652   3.895   0.330   3.150
 2585SOL     OW 8653   4.076   0.652   2.462
 2585SOL    HW1 8654   4.050   0.747   2.450
 2585SOL    HW2 8655   4.005   0.593   2.425
 2586SOL     OW 8656   1.022   1.551   4.426
 2586SOL    HW1 8657   1.105   1.566   4.480
 2586SOL    HW2 8658   0.947   1.525   4.486
 2587SOL     OW 8659   6.505   5.031   3.019
 2587SOL    HW1 8660   6.521   4.965   3.092
 2587SOL    HW2 8661   6.562   5.008   2.940
 2588SOL     OW 8662   3.445   0.066   3.116
 2588SOL    HW1 8663   3.424   0.155   3.076
 2588SOL    HW2 8664   3.544   0.049   3.108
 2589SOL     OW 8665   4.630   6.723   1.949
 2589SOL    HW1 8666   4.708   6.772   1.989
 2589SOL    HW2 8667   4.577   6.681   2.022
 2590SOL     OW 8668   4.263   5.769   3.763
 2590SOL    HW1 8669   4.320   5.711   3.822
 2590SOL    HW2 8670   4.253   5.859   3.805
 2591SOL     OW 8671   6.106   0.473   1.273
 2591SOL    HW1 8672   6.164   0.446   1.196
 2591SOL    HW2 8673   6.150   0.548   1.322
 2592SOL     OW 8674   2.822   4.794   1.743
 2592SOL    HW1 8675   2.890   4.806   1.670
 2592SOL    HW2 8676   2.842   4.711   1.794
 2593SOL     OW 8677   2.771   0.021   3.358
 2593SOL    HW1 8678   2.816   0.086   3.296
 2593SOL    HW2 8679   2.737   0.070   3.438
 2594SOL     OW 8680   2.235   6.111   6.695
 2594SOL    HW1 8681   2.266   6.205   6.708
 2594SOL    HW2 8682   2.259   6.080   6.603
 2595SOL     OW 8683   6.542   2.985   4.423
 2595SOL    HW1 8684   6.463   2.925   4.430
 2595SOL    HW2 8685   6.623   2.931   4.400
 2596SOL     OW 8686   4.483   1.593   1.093
 2596SOL    HW1 8687   4.506   1.688   1.069
 2596SOL    HW2 8688   4.474   1.586   1.192
 2597SOL     OW 8689   2.561   2.301   6.189
 2597SOL    HW1 8690   2.526   2.268   6.102
 2597SOL    HW2 8691   2.487   2.344   6.241
 2598SOL     OW 8692   6.556   1.031   2.753
 2598SOL    HW1 8693   6.531   1.028   2.656
 2598SOL    HW2 8694   6.627   1.101   2.766
 2599SOL     OW 8695   5.012   5.787   6.490
 2599SOL    HW1 8696   4.933   5.786   6.428
 2599SOL    HW2 8697   5.059   5.875   6.482
 2600SOL     OW 8698   0.513   2.809   4.699
 2600SOL    HW1 8699   0.502   2.715   4.667
 2600SOL    HW2 8700   0.444   2.867   4.657
 2601SOL     OW 8701   3.957   4.294   5.520
 2601SOL    HW1 8702   4.019   4.302   5.442
 2601SOL    HW2 8703   4.007   4.264   5.601
 2602SOL     OW 8704   5.830   6.657   6.496
 2602SOL    HW1 8705   5.913   6.694   6.537
 2602SOL    HW2 8706   5.784   6.728   6.443
 2603SOL     OW 8707   1.797   1.738   6.934
 2603SOL    HW1 8708   1.857   1.773   7.005
 2603SOL    HW2 8709   1.833   1.765   6.844
 2604SOL     OW 8710   5.213   1.930   0.892
 2604SOL    HW1 8711   5.178   1.906   0.982
 2604SOL    HW2 8712   5.310   1.950   0.898
 2605SOL     OW 8713   5.404   3.039   4.837
 2605SOL    HW1 8714   5.388   2.995   4.749
 2605SOL    HW2 8715   5.470   2.985   4.890
 2606SOL     OW 8716   6.661   4.656   1.627
 2606SOL    HW1 8717   6.610   4.636   1.544
 2606SOL    HW2 8718   6.756   4.677   1.604
 2607SOL     OW 8719   1.139   1.383   3.802
 2607SOL    HW1 8720   1.112   1.421   3.713
 2607SOL    HW2 8721   1.187   1.296   3.788
 2608SOL     OW 8722   4.529   0.830   0.081
 2608SOL    HW1 8723   4.515   0.814   0.178
 2608SOL    HW2 8724   4.577   0.752   0.041
 2609SOL     OW 8725   0.729   3.633   3.343
 2609SOL    HW1 8726   0.681   3.600   3.262
 2609SOL    HW2 8727   0.826   3.611   3.335
 2610SOL     OW 8728   4.810   5.468   4.577
 2610SOL    HW1 8729   4.801   5.472   4.677
 2610SOL    HW2 8730   4.898   5.427   4.554
 2611SOL     OW 8731   2.941   5.955   2.204
 2611SOL    HW1 8732   2.931   5.980   2.108
 2611SOL    HW2 8733   2.996   5.872   2.211
 2612SOL     OW 8734   0.794   6.866   5.223
 2612SOL    HW1 8735   0.827   6.873   5.128
 2612SOL    HW2 8736   0.695   6.873   5.224
 2613SOL     OW 8737   3.479   1.315   0.161
 2613SOL    HW1 8738   3.577   1.296   0.161
 2613SOL    HW2 8739   3.429   1.231   0.140
 2614SOL     OW 8740   6.251   6.661   6.644
 2614SOL    HW1 8741   6.322   6.638   6.711
 2614SOL    HW2 8742   6.295   6.695   6.561
 2615SOL     OW 8743   6.917   4.317   1.258
 2615SOL    HW1 8744   6.912   4.333   1.357
 2615SOL    HW2 8745   6.860   4.384   1.210
 2616SOL     OW 8746   3.870   3.975   1.875
 2616SOL    HW1 8747   3.802   4.046   1.859
 2616SOL    HW2 8748   3.944   3.984   1.808
 2617SOL     OW 8749   2.166   6.697   1.272
 2617SOL    HW1 8750   2.095   6.627   1.270
 2617SOL    HW2 8751   2.251   6.657   1.308
 2618SOL     OW 8752   0.713   6.143   0.336
 2618SOL    HW1 8753   0.685   6.229   0.294
 2618SOL    HW2 8754   0.644   6.073   0.317
 2619SOL     OW 8755   6.306   1.611   1.992
 2619SOL    HW1 8756   6.217   1.597   1.949
 2619SOL    HW2 8757   6.309   1.701   2.035
 2620SOL     OW 8758   1.406   5.511   3.859
 2620SOL    HW1 8759   1.459   5.521   3.943
 2620SOL    HW2 8760   1.467   5.484   3.784
 2621SOL     OW 8761   0.984   6.353   4.649
 2621SOL    HW1 8762   1.024   6.338   4.739
 2621SOL    HW2 8763   0.953   6.448   4.641
 2622SOL     OW 8764   2.566   2.541   4.613
 2622SOL    HW1 8765   2.525   2.533   4.703
 2622SOL    HW2 8766   2.610   2.630   4.604
 2623SOL     OW 8767   3.201   0.007   6.306
 2623SOL    HW1 8768   3.206   0.062   6.222
 2623SOL    HW2 8769   3.258   6.948   6.296
 2624SOL     OW 8770   5.421   2.014   4.598
 2624SOL    HW1 8771   5.403   2.073   4.676
 2624SOL    HW2 8772   5.335   1.978   4.562
 2625SOL     OW 8773   2.664   6.618   6.230
 2625SOL    HW1 8774   2.617   6.648   6.148
 2625SOL    HW2 8775   2.604   6.556   6.282
 2626SOL     OW 8776   2.506   6.832   3.146
 2626SOL    HW1 8777   2.427   6.879   3.106
 2626SOL    HW2 8778   2.590   6.880   3.120
 2627SOL     OW 8779   1.035   6.882   4.357
 2627SOL    HW1 8780   1.029   6.854   4.453
 2627SOL    HW2 8781   0.945   6.911   4.325
 2628SOL     OW 8782   4.677   5.429   0.195
 2628SOL    HW1 8783   4.662   5.520   0.234
 2628SOL    HW2 8784   4.716   5.438   0.103
 2629SOL     OW 8785   2.983   3.504   1.957
 2629SOL    HW1 8786   3.016   3.417   1.994
 2629SOL    HW2 8787   3.016   3.579   2.015
 2630SOL     OW 8788   3.383   2.108   2.389
 2630SOL    HW1 8789   3.393   2.097   2.290
 2630SOL    HW2 8790   3.292   2.141   2.411
 2631SOL     OW 8791   3.254   6.501   4.327
 2631SOL    HW1 8792   3.171   6.495   4.383
 2631SOL    HW2 8793   3.273   6.412   4.286
 2632SOL     OW 8794   4.303   1.381   1.479
 2632SOL    HW1 8795   4.214   1.337   1.472
 2632SOL    HW2 8796   4.359   1.335   1.548
 2633SOL     OW 8797   6.763   2.615   0.023
 2633SOL    HW1 8798   6.733   2.579   6.958
 2633SOL    HW2 8799   6.713   2.571   0.097
 2634SOL     OW 8800   2.831   4.999   0.250
 2634SOL    HW1 8801   2.820   4.920   0.190
 2634SOL    HW2 8802   2.926   5.029   0.248
 2635SOL     OW 8803   6.159   4.423   3.523
 2635SOL    HW1 8804   6.108   4.339   3.506
 2635SOL    HW2 8805   6.256   4.401   3.535
 2636SOL     OW 8806   5.240   5.692   5.060
 2636SOL    HW1 8807   5.304   5.673   5.135
 2636SOL    HW2 8808   5.160   5.740   5.095
 2637SOL     OW 8809   5.329   5.777   2.915
 2637SOL    HW1 8810   5.290   5.800   2.826
 2637SOL    HW2 8811   5.411   5.722   2.903
 2638SOL     OW 8812   5.224   5.504   0.774
 2638SOL    HW1 8813   5.142   5.554   0.745
 2638SOL    HW2 8814   5.211   5.407   0.759
 2639SOL     OW 8815   6.805   7.012   6.867
 2639SOL    HW1 8816   6.836   6.926   6.828
 2639SOL    HW2 8817   6.764   6.995   6.957
 2640SOL     OW 8818   6.869   6.311   6.928
 2640SOL    HW1 8819   6.803   6.342   6.860
 2640SOL    HW2 8820   6.923   6.389   6.960
 2641SOL     OW 8821   0.080   5.636   0.894
 2641SOL    HW1 8822   7.004   5.642   0.906
 2641SOL    HW2 8823   0.113   5.546   0.923
 2642SOL     OW 8824   6.570   0.220   4.282
 2642SOL    HW1 8825   6.477   0.219   4.247
 2642SOL    HW2 8826   6.634   0.198   4.209
 2643SOL     OW 8827   2.198   0.192   2.341
 2643SOL    HW1 8828   2.242   0.116   2.292
 2643SOL    HW2 8829   2.262   0.229   2.409
 2644SOL     OW 8830   6.255   6.424   4.682
 2644SOL    HW1 8831   6.297   6.340   4.648
 2644SOL    HW2 8832   6.251   6.492   4.609
 2645SOL     OW 8833   5.183   6.108   0.118
 2645SOL    HW1 8834   5.266   6.053   0.128
 2645SOL    HW2 8835   5.127   6.098   0.200
 2646SOL     OW 8836   5.687   5.977   5.787
 2646SOL    HW1 8837   5.731   6.066   5.802
 2646SOL    HW2 8838   5.716   5.914   5.859
 2647SOL     OW 8839   3.276   3.909   0.565
 2647SOL    HW1 8840   3.269   3.827   0.509
 2647SOL    HW2 8841   3.211   3.904   0.641
 2648SOL     OW 8842   4.202   1.226   3.465
 2648SOL    HW1 8843   4.258   1.232   3.548
 2648SOL    HW2 8844   4.110   1.194   3.488
 2649SOL     OW 8845   3.113   4.113   5.368
 2649SOL    HW1 8846   3.025   4.072   5.342
 2649SOL    HW2 8847   3.148   4.066   5.449
 2650SOL     OW 8848   0.818   6.880   2.705
 2650SOL    HW1 8849   0.784   6.973   2.715
 2650SOL    HW2 8850   0.871   6.855   2.787
 2651SOL     OW 8851   1.064   0.041   3.083
 2651SOL    HW1 8852   1.155   0.024   3.045
 2651SOL    HW2 8853   1.041   0.138   3.074
 2652SOL     OW 8854   3.110   3.204   2.638
 2652SOL    HW1 8855   3.156   3.121   2.672
 2652SOL    HW2 8856   3.034   3.227   2.697
 2653SOL     OW 8857   6.933   6.107   1.019
 2653SOL    HW1 8858   6.913   6.029   0.959
 2653SOL    HW2 8859   6.918   6.192   0.969
 2654SOL     OW 8860   6.678   2.497   5.783
 2654SOL    HW1 8861   6.630   2.454   5.707
 2654SOL    HW2 8862   6.775   2.504   5.762
 2655SOL     OW 8863   5.653   5.368   4.321
 2655SOL    HW1 8864   5.614   5.417   4.399
 2655SOL    HW2 8865   5.727   5.308   4.353
 2656SOL     OW 8866   6.028   3.210   4.975
 2656SOL    HW1 8867   6.091   3.203   5.053
 2656SOL    HW2 8868   5.936   3.183   5.004
 2657SOL     OW 8869   3.998   2.431   5.498
 2657SOL    HW1 8870   4.034   2.433   5.591
 2657SOL    HW2 8871   3.979   2.525   5.468
 2658SOL     OW 8872   6.726   3.950   5.249
 2658SOL    HW1 8873   6.779   3.897   5.314
 2658SOL    HW2 8874   6.737   4.048   5.269
 2659SOL     OW 8875   6.621   1.317   3.904
 2659SOL    HW1 8876   6.547   1.254   3.880
 2659SOL    HW2 8877   6.708   1.280   3.871
 2660SOL     OW 8878   0.950   2.259   3.892
 2660SOL    HW1 8879   0.856   2.284   3.917
 2660SOL    HW2 8880   0.951   2.226   3.798
 2661SOL     OW 8881   3.746   6.854   3.278
 2661SOL    HW1 8882   3.738   6.851   3.377
 2661SOL    HW2 8883   3.699   6.776   3.238
 2662SOL     OW 8884   3.617   1.178   3.926
 2662SOL    HW1 8885   3.572   1.243   3.864
 2662SOL    HW2 8886   3.601   1.206   4.020
 2663SOL     OW 8887   1.069   4.613   2.933
 2663SOL    HW1 8888   1.107   4.619   3.025
 2663SOL    HW2 8889   1.098   4.528   2.890
 2664SOL     OW 8890   4.597   4.409   1.720
 2664SOL    HW1 8891   4.525   4.359   1.768
 2664SOL    HW2 8892   4.684   4.362   1.731
 2665SOL     OW 8893   4.717   0.611   4.769
 2665SOL    HW1 8894   4.676   0.701   4.777
 2665SOL    HW2 8895   4.801   0.607   4.824
 2666SOL     OW 8896   5.165   5.791   1.561
 2666SOL    HW1 8897   5.149   5.854   1.637
 2666SOL    HW2 8898   5.210   5.708   1.595
 2667SOL     OW 8899   2.217   4.548   2.879
 2667SOL    HW1 8900   2.277   4.486   2.930
 2667SOL    HW2 8901   2.164   4.496   2.812
 2668SOL     OW 8902   6.780   2.413   5.376
 2668SOL    HW1 8903   6.738   2.504   5.369
 2668SOL    HW2 8904   6.859   2.418   5.437
 2669SOL     OW 8905   3.957   6.064   4.726
 2669SOL    HW1 8906   4.037   6.036   4.673
 2669SOL    HW2 8907   3.894   6.114   4.666
 2670SOL     OW 8908   2.292   6.299   4.170
 2670SOL    HW1 8909   2.228   6.342   4.106
 2670SOL    HW2 8910   2.261   6.315   4.263
 2671SOL     OW 8911   3.015   3.843   0.009
 2671SOL    HW1 8912   3.051   3.846   0.102
 2671SOL    HW2 8913   3.069   3.777   6.978
 2672SOL     OW 8914   0.596   4.373   0.176
 2672SOL    HW1 8915   0.679   4.361   0.230
 2672SOL    HW2 8916   0.538   4.292   0.186
 2673SOL     OW 8917   3.761   2.003   2.744
 2673SOL    HW1 8918   3.663   2.004   2.722
 2673SOL    HW2 8919   3.780   2.075   2.810
 2674SOL     OW 8920   4.992   5.796   5.161
 2674SOL    HW1 8921   4.910   5.827   5.112
 2674SOL    HW2 8922   4.968   5.721   5.222
 2675SOL     OW 8923   0.259   5.056   5.588
 2675SOL    HW1 8924   0.349   5.049   5.632
 2675SOL    HW2 8925   0.214   5.139   5.618
 2676SOL     OW 8926   4.363   0.724   1.852
 2676SOL    HW1 8927   4.394   0.703   1.945
 2676SOL    HW2 8928   4.345   0.822   1.845
 2677SOL     OW 8929   2.318   4.519   2.139
 2677SOL    HW1 8930   2.371   4.497   2.221
 2677SOL    HW2 8931   2.379   4.543   2.064
 2678SOL     OW 8932   0.577   6.583   6.491
 2678SOL    HW1 8933   0.653   6.520   6.506
 2678SOL    HW2 8934   0.557   6.589   6.393
 2679SOL     OW 8935   2.431   5.168   2.031
 2679SOL    HW1 8936   2.387   5.079   2.026
 2679SOL    HW2 8937   2.435   5.198   2.127
 2680SOL     OW 8938   0.334   2.223   1.140
 2680SOL    HW1 8939   0.428   2.255   1.151
 2680SOL    HW2 8940   0.279   2.296   1.099
 2681SOL     OW 8941   2.410   2.109   1.503
 2681SOL    HW1 8942   2.391   2.047   1.427
 2681SOL    HW2 8943   2.462   2.060   1.574
 2682SOL     OW 8944   0.393   2.602   3.651
 2682SOL    HW1 8945   0.356   2.513   3.624
 2682SOL    HW2 8946   0.355   2.628   3.739
 2683SOL     OW 8947   1.749   6.862   0.275
 2683SOL    HW1 8948   1.787   6.800   0.206
 2683SOL    HW2 8949   1.716   6.809   0.353
 2684SOL     OW 8950   2.205   5.520   2.761
 2684SOL    HW1 8951   2.248   5.525   2.671
 2684SOL    HW2 8952   2.208   5.426   2.795
 2685SOL     OW 8953   5.584   5.390   5.590
 2685SOL    HW1 8954   5.599   5.359   5.496
 2685SOL    HW2 8955   5.590   5.312   5.652
 2686SOL     OW 8956   0.874   3.289   5.041
 2686SOL    HW1 8957   0.919   3.334   5.118
 2686SOL    HW2 8958   0.917   3.319   4.955
 2687SOL     OW 8959   4.631   5.439   3.426
 2687SOL    HW1 8960   4.659   5.469   3.335
 2687SOL    HW2 8961   4.589   5.349   3.420
 2688SOL     OW 8962   3.439   4.651   5.541
 2688SOL    HW1 8963   3.428   4.556   5.511
 2688SOL    HW2 8964   3.357   4.703   5.518
 2689SOL     OW 8965   6.071   2.196   4.089
 2689SOL    HW1 8966   6.098   2.282   4.132
 2689SOL    HW2 8967   6.123   2.121   4.130
 2690SOL     OW 8968   3.512   4.155   3.886
 2690SOL    HW1 8969   3.457   4.222   3.835
 2690SOL    HW2 8970   3.547   4.086   3.822
 2691SOL     OW 8971   1.328   6.095   1.634
 2691SOL    HW1 8972   1.347   6.005   1.674
 2691SOL    HW2 8973   1.341   6.090   1.535
 2692SOL     OW 8974   6.791   4.181   3.732
 2692SOL    HW1 8975   6.803   4.207   3.828
 2692SOL    HW2 8976   6.869   4.212   3.679
 2693SOL     OW 8977   1.824   3.525   2.752
 2693SOL    HW1 8978   1.919   3.497   2.769
 2693SOL    HW2 8979   1.766   3.444   2.750
 2694SOL     OW 8980   2.143   1.787   2.642
 2694SOL    HW1 8981   2.050   1.751   2.650
 2694SOL    HW2 8982   2.188   1.747   2.562
 2695SOL     OW 8983   4.020   1.917   2.291
 2695SOL    HW1 8984   3.949   1.897   2.358
 2695SOL    HW2 8985   3.994   1.997   2.237
 2696SOL     OW 8986   3.893   3.525   6.161
 2696SOL    HW1 8987   3.805   3.508   6.204
 2696SOL    HW2 8988   3.891   3.493   6.066
 2697SOL     OW 8989   2.779   0.979   5.251
 2697SOL    HW1 8990   2.819   0.908   5.309
 2697SOL    HW2 8991   2.694   1.011   5.292
 2698SOL     OW 8992   1.398   1.642   6.826
 2698SOL    HW1 8993   1.346   1.727   6.838
 2698SOL    HW2 8994   1.435   1.638   6.733
 2699SOL     OW 8995   1.474   4.961   3.795
 2699SOL    HW1 8996   1.394   4.913   3.760
 2699SOL    HW2 8997   1.449   5.055   3.818
 2700SOL     OW 8998   2.316   4.222   2.784
 2700SOL    HW1 8999   2.348   4.260   2.697
 2700SOL    HW2 9000   2.367   4.265   2.859
 2701SOL     OW 9001   2.580   0.617   5.051
 2701SOL    HW1 9002   2.535   0.577   4.971
 2701SOL    HW2 9003   2.595   0.715   5.034
 2702SOL     OW 9004   6.074   6.498   3.002
 2702SOL    HW1 9005   6.094   6.471   2.907
 2702SOL    HW2 9006   6.012   6.432   3.043
 2703SOL     OW 9007   1.633   2.160   3.130
 2703SOL    HW1 9008   1.727   2.195   3.134
 2703SOL    HW2 9009   1.573   2.228   3.089
 2704SOL     OW 9010   1.336   6.584   0.347
 2704SOL    HW1 9011   1.242   6.611   0.366
 2704SOL    HW2 9012   1.357   6.602   0.251
 2705SOL     OW 9013   0.074   3.387   2.731
 2705SOL    HW1 9014   0.017   3.413   2.808
 2705SOL    HW2 9015   0.025   3.402   2.645
 2706SOL     OW 9016   6.514   2.737   3.882
 2706SOL    HW1 9017   6.602   2.741   3.835
 2706SOL    HW2 9018   6.519   2.792   3.966
 2707SOL     OW 9019   3.287   1.360   6.753
 2707SOL    HW1 9020   3.380   1.353   6.788
 2707SOL    HW2 9021   3.256   1.455   6.759
 2708SOL     OW 9022   1.217   4.827   6.883
 2708SOL    HW1 9023   1.210   4.862   6.977
 2708SOL    HW2 9024   1.278   4.886   6.830
 2709SOL     OW 9025   4.479   6.807   1.747
 2709SOL    HW1 9026   4.414   6.877   1.776
 2709SOL    HW2 9027   4.542   6.787   1.822
 2710SOL     OW 9028   6.325   4.298   2.848
 2710SOL    HW1 9029   6.237   4.302   2.800
 2710SOL    HW2 9030   6.396   4.269   2.784
 2711SOL     OW 9031   1.509   6.703   2.166
 2711SOL    HW1 9032   1.429   6.711   2.226
 2711SOL    HW2 9033   1.548   6.794   2.151
 2712SOL     OW 9034   3.103   5.533   2.909
 2712SOL    HW1 9035   3.117   5.447   2.958
 2712SOL    HW2 9036   3.007   5.539   2.880
 2713SOL     OW 9037   1.824   2.837   5.568
 2713SOL    HW1 9038   1.775   2.924   5.570
 2713SOL    HW2 9039   1.907   2.847   5.512
 2714SOL     OW 9040   5.504   0.341   7.019
 2714SOL    HW1 9041   5.496   0.427   6.970
 2714SOL    HW2 9042   5.449   0.344   0.080
 2715SOL     OW 9043   6.133   0.901   0.317
 2715SOL    HW1 9044   6.087   0.990   0.323
 2715SOL    HW2 9045   6.189   0.888   0.399
 2716SOL     OW 9046   6.043   6.541   1.901
 2716SOL    HW1 9047   5.962   6.513   1.851
 2716SOL    HW2 9048   6.069   6.471   1.967
 2717SOL     OW 9049   0.450   6.642   3.063
 2717SOL    HW1 9050   0.448   6.612   2.967
 2717SOL    HW2 9051   0.533   6.609   3.106
 2718SOL     OW 9052   0.015   3.726   3.269
 2718SOL    HW1 9053   0.013   3.821   3.238
 2718SOL    HW2 9054   0.103   3.706   3.310
 2719SOL     OW 9055   3.872   4.988   3.106
 2719SOL    HW1 9056   3.933   4.911   3.090
 2719SOL    HW2 9057   3.878   5.052   3.030
 2720SOL     OW 9058   0.588   6.273   4.540
 2720SOL    HW1 9059   0.610   6.294   4.636
 2720SOL    HW2 9060   0.632   6.188   4.513
 2721SOL     OW 9061   5.348   6.387   3.618
 2721SOL    HW1 9062   5.355   6.342   3.529
 2721SOL    HW2 9063   5.437   6.425   3.643
 2722SOL     OW 9064   0.610   5.566   2.117
 2722SOL    HW1 9065   0.627   5.575   2.216
 2722SOL    HW2 9066   0.659   5.638   2.068
 2723SOL     OW 9067   1.910   2.090   4.509
 2723SOL    HW1 9068   1.873   2.181   4.491
 2723SOL    HW2 9069   1.840   2.034   4.553
 2724SOL     OW 9070   4.601   5.702   5.984
 2724SOL    HW1 9071   4.540   5.741   6.054
 2724SOL    HW2 9072   4.690   5.683   6.024
 2725SOL     OW 9073   2.604   4.533   3.551
 2725SOL    HW1 9074   2.667   4.548   3.628
 2725SOL    HW2 9075   2.547   4.614   3.539
 2726SOL     OW 9076   4.224   6.175   2.723
 2726SOL    HW1 9077   4.169   6.093   2.709
 2726SOL    HW2 9078   4.189   6.249   2.666
 2727SOL     OW 9079   2.065   5.539   4.233
 2727SOL    HW1 9080   2.068   5.564   4.330
 2727SOL    HW2 9081   2.024   5.449   4.223
 2728SOL     OW 9082   2.741   6.854   5.455
 2728SOL    HW1 9083   2.822   6.904   5.486
 2728SOL    HW2 9084   2.717   6.785   5.524
 2729SOL     OW 9085   0.448   4.716   2.735
 2729SOL    HW1 9086   0.442   4.814   2.754
 2729SOL    HW2 9087   0.397   4.694   2.653
 2730SOL     OW 9088   1.459   4.198   1.241
 2730SOL    HW1 9089   1.504   4.139   1.174
 2730SOL    HW2 9090   1.454   4.291   1.206
 2731SOL     OW 9091   2.272   3.570   0.190
 2731SOL    HW1 9092   2.247   3.655   0.145
 2731SOL    HW2 9093   2.360   3.581   0.237
 2732SOL     OW 9094   5.382   3.374   4.302
 2732SOL    HW1 9095   5.419   3.457   4.344
 2732SOL    HW2 9096   5.315   3.333   4.364
 2733SOL     OW 9097   2.161   0.529   0.016
 2733SOL    HW1 9098   2.221   0.452   0.034
 2733SOL    HW2 9099   2.066   0.496   0.007
 2734SOL     OW 9100   1.568   6.888   4.259
 2734SOL    HW1 9101   1.565   6.795   4.297
 2734SOL    HW2 9102   1.507   6.947   4.312
 2735SOL     OW 9103   1.974   5.373   1.355
 2735SOL    HW1 9104   1.898   5.308   1.357
 2735SOL    HW2 9105   1.970   5.427   1.271
 2736SOL     OW 9106   4.195   7.017   6.695
 2736SOL    HW1 9107   4.251   6.935   6.705
 2736SOL    HW2 9108   4.106   6.992   6.657
 2737SOL     OW 9109   4.059   3.992   5.523
 2737SOL    HW1 9110   4.002   3.996   5.440
 2737SOL    HW2 9111   4.140   4.050   5.510
 2738SOL     OW 9112   6.399   4.076   4.051
 2738SOL    HW1 9113   6.459   4.012   4.100
 2738SOL    HW2 9114   6.426   4.170   4.073
 2739SOL     OW 9115   4.409   3.976   6.966
 2739SOL    HW1 9116   4.358   4.026   6.896
 2739SOL    HW2 9117   4.417   3.880   6.940
 2740SOL     OW 9118   6.067   2.663   4.217
 2740SOL    HW1 9119   6.020   2.744   4.182
 2740SOL    HW2 9120   6.155   2.654   4.170
 2741SOL     OW 9121   1.884   3.187   5.605
 2741SOL    HW1 9122   1.811   3.208   5.670
 2741SOL    HW2 9123   1.949   3.125   5.648
 2742SOL     OW 9124   2.737   6.262   5.645
 2742SOL    HW1 9125   2.727   6.220   5.735
 2742SOL    HW2 9126   2.799   6.207   5.589
 2743SOL     OW 9127   5.977   4.449   6.366
 2743SOL    HW1 9128   6.030   4.480   6.286
 2743SOL    HW2 9129   5.932   4.527   6.409
 2744SOL     OW 9130   4.983   7.020   1.019
 2744SOL    HW1 9131   4.997   6.934   1.068
 2744SOL    HW2 9132   4.902   7.012   0.960
 2745SOL     OW 9133   3.228   6.150   2.081
 2745SOL    HW1 9134   3.226   6.053   2.060
 2745SOL    HW2 9135   3.300   6.194   2.027
 2746SOL     OW 9136   1.168   2.257   6.572
 2746SOL    HW1 9137   1.200   2.166   6.594
 2746SOL    HW2 9138   1.228   2.299   6.504
 2747SOL     OW 9139   5.056   6.044   3.702
 2747SOL    HW1 9140   4.967   6.053   3.747
 2747SOL    HW2 9141   5.058   5.958   3.651
 2748SOL     OW 9142   5.435   1.098   4.875
 2748SOL    HW1 9143   5.508   1.114   4.809
 2748SOL    HW2 9144   5.457   1.145   4.961
 2749SOL     OW 9145   5.666   4.676   3.076
 2749SOL    HW1 9146   5.744   4.733   3.052
 2749SOL    HW2 9147   5.658   4.601   3.010
 2750SOL     OW 9148   1.172   6.919   0.019
 2750SOL    HW1 9149   1.129   6.985   6.980
 2750SOL    HW2 9150   1.104   6.855   0.052
 2751SOL     OW 9151   1.593   0.405   6.531
 2751SOL    HW1 9152   1.666   0.350   6.573
 2751SOL    HW2 9153   1.550   0.351   6.458
 2752SOL     OW 9154   0.618   6.969   6.253
 2752SOL    HW1 9155   0.690   6.948   6.187
 2752SOL    HW2 9156   0.603   0.045   6.256
 2753SOL     OW 9157   3.115   5.177   4.743
 2753SOL    HW1 9158   3.142   5.082   4.754
 2753SOL    HW2 9159   3.134   5.227   4.828
 2754SOL     OW 9160   1.133   5.672   4.199
 2754SOL    HW1 9161   1.106   5.696   4.293
 2754SOL    HW2 9162   1.207   5.606   4.201
 2755SOL     OW 9163   4.605   6.541   2.813
 2755SOL    HW1 9164   4.648   6.610   2.872
 2755SOL    HW2 9165   4.643   6.451   2.833
 2756SOL     OW 9166   0.044   2.723   5.139
 2756SOL    HW1 9167   0.137   2.760   5.135
 2756SOL    HW2 9168   0.043   2.640   5.196
 2757SOL     OW 9169   5.342   3.856   5.662
 2757SOL    HW1 9170   5.305   3.947   5.643
 2757SOL    HW2 9171   5.381   3.818   5.578
 2758SOL     OW 9172   0.439   6.396   1.765
 2758SOL    HW1 9173   0.391   6.326   1.817
 2758SOL    HW2 9174   0.374   6.466   1.734
 2759SOL     OW 9175   3.512   3.580   5.152
 2759SOL    HW1 9176   3.497   3.676   5.174
 2759SOL    HW2 9177   3.610   3.562   5.146
 2760SOL     OW 9178   5.196   5.281   2.934
 2760SOL    HW1 9179   5.260   5.273   3.010
 2760SOL    HW2 9180   5.188   5.193   2.887
 2761SOL     OW 9181   1.564   3.484   4.138
 2761SOL    HW1 9182   1.640   3.529   4.092
 2761SOL    HW2 9183   1.494   3.551   4.162
 2762SOL     OW 9184   4.526   1.356   2.238
 2762SOL    HW1 9185   4.484   1.446   2.246
 2762SOL    HW2 9186   4.513   1.305   2.323
 2763SOL     OW 9187   5.471   1.077   4.270
 2763SOL    HW1 9188   5.487   1.064   4.172
 2763SOL    HW2 9189   5.377   1.108   4.284
 2764SOL     OW 9190   6.724   2.082   3.352
 2764SOL    HW1 9191   6.649   2.103   3.415
 2764SOL    HW2 9192   6.810   2.113   3.392
 2765SOL     OW 9193   0.544   6.731   6.740
 2765SOL    HW1 9194   0.463   6.790   6.740
 2765SOL    HW2 9195   0.549   6.680   6.654
 2766SOL     OW 9196   4.911   0.292   0.513
 2766SOL    HW1 9197   4.939   0.206   0.470
 2766SOL    HW2 9198   4.835   0.331   0.462
 2767SOL     OW 9199   0.500   6.448   5.858
 2767SOL    HW1 9200   0.462   6.434   5.949
 2767SOL    HW2 9201   0.441   6.404   5.790
 2768SOL     OW 9202   4.094   6.728   1.656
 2768SOL    HW1 9203   4.073   6.794   1.729
 2768SOL    HW2 9204   4.143   6.651   1.695
 2769SOL     OW 9205   0.492   4.784   5.944
 2769SOL    HW1 9206   0.396   4.755   5.951
 2769SOL    HW2 9207   0.497   4.884   5.946
 2770SOL     OW 9208   2.412   6.502   1.115
 2770SOL    HW1 9209   2.346   6.539   1.049
 2770SOL    HW2 9210   2.408   6.402   1.114
 2771SOL     OW 9211   4.352   6.890   5.599
 2771SOL    HW1 9212   4.253   6.891   5.593
 2771SOL    HW2 9213   4.392   6.913   5.510
 2772SOL     OW 9214   5.991   1.605   3.276
 2772SOL    HW1 9215   5.962   1.599   3.180
 2772SOL    HW2 9216   5.990   1.514   3.317
 2773SOL     OW 9217   5.248   1.615   6.330
 2773SOL    HW1 9218   5.270   1.678   6.405
 2773SOL    HW2 9219   5.281   1.523   6.353
 2774SOL     OW 9220   6.625   0.256   3.527
 2774SOL    HW1 9221   6.651   0.281   3.621
 2774SOL    HW2 9222   6.536   0.296   3.505
 2775SOL     OW 9223   6.636   2.204   4.349
 2775SOL    HW1 9224   6.693   2.221   4.430
 2775SOL    HW2 9225   6.633   2.106   4.332
 2776SOL     OW 9226   4.909   3.850   5.711
 2776SOL    HW1 9227   4.952   3.838   5.621
 2776SOL    HW2 9228   4.921   3.945   5.741
 2777SOL     OW 9229   1.489   1.568   0.179
 2777SOL    HW1 9230   1.507   1.504   0.254
 2777SOL    HW2 9231   1.541   1.540   0.099
 2778SOL     OW 9232   2.544   0.030   5.831
 2778SOL    HW1 9233   2.458   0.082   5.836
 2778SOL    HW2 9234   2.619   0.086   5.867
 2779SOL     OW 9235   5.180   0.944   3.101
 2779SOL    HW1 9236   5.174   1.041   3.078
 2779SOL    HW2 9237   5.272   0.924   3.136
 2780SOL     OW 9238   0.991   0.868   5.198
 2780SOL    HW1 9239   0.964   0.957   5.235
 2780SOL    HW2 9240   0.997   0.873   5.099
 2781SOL     OW 9241   6.984   0.320   2.662
 2781SOL    HW1 9242   0.045   0.266   2.648
 2781SOL    HW2 9243   7.004   0.397   2.723
 2782SOL     OW 9244   6.001   6.922   4.846
 2782SOL    HW1 9245   5.961   7.013   4.833
 2782SOL    HW2 9246   6.088   6.916   4.797
 2783SOL     OW 9247   6.160   3.034   1.885
 2783SOL    HW1 9248   6.110   2.956   1.847
 2783SOL    HW2 9249   6.258   3.022   1.867
 2784SOL     OW 9250   0.868   2.426   1.808
 2784SOL    HW1 9251   0.846   2.472   1.894
 2784SOL    HW2 9252   0.896   2.493   1.740
 2785SOL     OW 9253   5.580   3.827   3.633
 2785SOL    HW1 9254   5.529   3.912   3.649
 2785SOL    HW2 9255   5.598   3.817   3.535
 2786SOL     OW 9256   0.220   5.398   0.588
 2786SOL    HW1 9257   0.241   5.496   0.587
 2786SOL    HW2 9258   0.130   5.383   0.548
 2787SOL     OW 9259   0.793   6.871   6.082
 2787SOL    HW1 9260   0.761   6.843   5.991
 2787SOL    HW2 9261   0.888   6.842   6.093
 2788SOL     OW 9262   2.773   6.385   0.356
 2788SOL    HW1 9263   2.708   6.400   0.430
 2788SOL    HW2 9264   2.734   6.421   0.271
 2789SOL     OW 9265   1.826   1.886   3.740
 2789SOL    HW1 9266   1.897   1.819   3.764
 2789SOL    HW2 9267   1.869   1.975   3.725
 2790SOL     OW 9268   0.214   5.206   1.639
 2790SOL    HW1 9269   0.210   5.142   1.563
 2790SOL    HW2 9270   0.136   5.191   1.700
 2791SOL     OW 9271   0.310   3.309   5.275
 2791SOL    HW1 9272   0.358   3.344   5.195
 2791SOL    HW2 9273   0.356   3.340   5.358
 2792SOL     OW 9274   3.105   2.356   6.562
 2792SOL    HW1 9275   3.160   2.437   6.543
 2792SOL    HW2 9276   3.101   2.341   6.661
 2793SOL     OW 9277   3.784   3.541   6.551
 2793SOL    HW1 9278   3.769   3.452   6.507
 2793SOL    HW2 9279   3.714   3.606   6.521
 2794SOL     OW 9280   1.500   1.898   6.535
 2794SOL    HW1 9281   1.529   1.911   6.440
 2794SOL    HW2 9282   1.483   1.801   6.552
 2795SOL     OW 9283   0.978   0.005   0.525
 2795SOL    HW1 9284   1.074   0.027   0.542
 2795SOL    HW2 9285   0.941   6.977   0.603
 2796SOL     OW 9286   3.195   6.333   6.856
 2796SOL    HW1 9287   3.131   6.261   6.830
 2796SOL    HW2 9288   3.197   6.343   6.955
 2797SOL     OW 9289   5.000   4.278   4.470
 2797SOL    HW1 9290   5.095   4.251   4.491
 2797SOL    HW2 9291   5.001   4.357   4.409
 2798SOL     OW 9292   5.351   2.541   1.759
 2798SOL    HW1 9293   5.431   2.566   1.704
 2798SOL    HW2 9294   5.307   2.624   1.793
 2799SOL     OW 9295   2.934   0.041   4.466
 2799SOL    HW1 9296   2.975   6.987   4.418
 2799SOL    HW2 9297   2.853   0.010   4.517
 2800SOL     OW 9298   4.669   1.348   6.578
 2800SOL    HW1 9299   4.669   1.349   6.478
 2800SOL    HW2 9300   4.742   1.289   6.611
 2801SOL     OW 9301   7.014   4.122   3.513
 2801SOL    HW1 9302   6.975   4.208   3.478
 2801SOL    HW2 9303   0.041   4.076   3.440
 2802SOL     OW 9304   1.415   4.138   4.278
 2802SOL    HW1 9305   1.423   4.152   4.179
 2802SOL    HW2 9306   1.369   4.216   4.319
 2803SOL     OW 9307   3.688   2.952   6.879
 2803SOL    HW1 9308   3.778   2.912   6.863
 2803SOL    HW2 9309   3.696   3.023   6.949
 2804SOL     OW 9310   5.982   2.514   3.513
 2804SOL    HW1 9311   6.051   2.496   3.443
 2804SOL    HW2 9312   5.897   2.467   3.489
 2805SOL     OW 9313   4.046   5.202   0.331
 2805SOL    HW1 9314   3.998   5.286   0.357
 2805SOL    HW2 9315   4.116   5.181   0.398
 2806SOL     OW 9316   0.309   2.927   4.574
 2806SOL    HW1 9317   0.294   3.025   4.559
 2806SOL    HW2 9318   0.303   2.879   4.486
 2807SOL     OW 9319   4.303   1.528   3.937
 2807SOL    HW1 9320   4.221   1.519   3.993
 2807SOL    HW2 9321   4.350   1.440   3.933
 2808SOL     OW 9322   1.138   6.108   6.699
 2808SOL    HW1 9323   1.105   6.034   6.640
 2808SOL    HW2 9324   1.172   6.183   6.642
 2809SOL     OW 9325   1.277   6.250   0.772
 2809SOL    HW1 9326   1.340   6.176   0.795
 2809SOL    HW2 9327   1.300   6.331   0.826
 2810SOL     OW 9328   0.828   6.018   2.712
 2810SOL    HW1 9329   0.827   6.100   2.655
 2810SOL    HW2 9330   0.776   5.945   2.667
 2811SOL     OW 9331   1.009   0.534   0.779
 2811SOL    HW1 9332   1.046   0.456   0.730
 2811SOL    HW2 9333   0.920   0.510   0.817
 2812SOL     OW 9334   1.906   1.142   1.132
 2812SOL    HW1 9335   1.831   1.209   1.129
 2812SOL    HW2 9336   1.889   1.078   1.207
 2813SOL     OW 9337   6.453   2.425   1.078
 2813SOL    HW1 9338   6.498   2.498   1.027
 2813SOL    HW2 9339   6.519   2.354   1.100
 2814SOL     OW 9340   2.474   4.282   6.886
 2814SOL    HW1 9341   2.396   4.228   6.855
 2814SOL    HW2 9342   2.532   4.226   6.945
 2815SOL     OW 9343   6.565   6.246   4.926
 2815SOL    HW1 9344   6.477   6.277   4.961
 2815SOL    HW2 9345   6.606   6.318   4.871
 2816SOL     OW 9346   0.703   4.976   4.648
 2816SOL    HW1 9347   0.619   4.958   4.701
 2816SOL    HW2 9348   0.753   4.891   4.635
 2817SOL     OW 9349   2.344   0.652   1.714
 2817SOL    HW1 9350   2.302   0.611   1.795
 2817SOL    HW2 9351   2.275   0.704   1.664
 2818SOL     OW 9352   1.896   1.036   0.451
 2818SOL    HW1 9353   1.980   1.072   0.491
 2818SOL    HW2 9354   1.915   0.948   0.408
 2819SOL     OW 9355   6.336   0.070   6.627
 2819SOL    HW1 9356   6.427   0.078   6.668
 2819SOL    HW2 9357   6.272   0.131   6.673
 2820SOL     OW 9358   1.801   1.646   0.226
 2820SOL    HW1 9359   1.897   1.617   0.230
 2820SOL    HW2 9360   1.742   1.565   0.225
 2821SOL     OW 9361   3.460   1.866   5.990
 2821SOL    HW1 9362   3.467   1.935   6.062
 2821SOL    HW2 9363   3.533   1.799   6.001
 2822SOL     OW 9364   4.229   2.693   1.200
 2822SOL    HW1 9365   4.155   2.627   1.205
 2822SOL    HW2 9366   4.310   2.651   1.159
 2823SOL     OW 9367   5.633   4.241   2.717
 2823SOL    HW1 9368   5.549   4.230   2.772
 2823SOL    HW2 9369   5.608   4.261   2.622
 2824SOL     OW 9370   0.767   4.210   5.079
 2824SOL    HW1 9371   0.709   4.128   5.079
 2824SOL    HW2 9372   0.738   4.271   5.005
 2825SOL     OW 9373   5.148   2.319   5.432
 2825SOL    HW1 9374   5.076   2.365   5.483
 2825SOL    HW2 9375   5.202   2.262   5.493
 2826SOL     OW 9376   2.878   3.323   6.973
 2826SOL    HW1 9377   2.971   3.288   6.977
 2826SOL    HW2 9378   2.829   3.300   0.035
 2827SOL     OW 9379   6.598   1.761   0.107
 2827SOL    HW1 9380   6.638   1.778   0.197
 2827SOL    HW2 9381   6.557   1.670   0.106
 2828SOL     OW 9382   1.504   4.538   0.135
 2828SOL    HW1 9383   1.426   4.492   0.177
 2828SOL    HW2 9384   1.540   4.480   0.061
 2829SOL     OW 9385   3.616   4.260   1.465
 2829SOL    HW1 9386   3.523   4.260   1.427
 2829SOL    HW2 9387   3.611   4.264   1.565
 2830SOL     OW 9388   2.804   5.627   4.724
 2830SOL    HW1 9389   2.830   5.721   4.703
 2830SOL    HW2 9390   2.871   5.565   4.683
 2831SOL     OW 9391   6.416   1.836   2.135
 2831SOL    HW1 9392   6.392   1.922   2.180
 2831SOL    HW2 9393   6.457   1.774   2.202
 2832SOL     OW 9394   1.624   4.186   1.531
 2832SOL    HW1 9395   1.603   4.097   1.490
 2832SOL    HW2 9396   1.642   4.252   1.458
 2833SOL     OW 9397   6.630   2.787   3.401
 2833SOL    HW1 9398   6.659   2.782   3.305
 2833SOL    HW2 9399   6.567   2.711   3.420
 2834SOL     OW 9400   3.146   0.611   4.238
 2834SOL    HW1 9401   3.067   0.653   4.192
 2834SOL    HW2 9402   3.117   0.574   4.326
 2835SOL     OW 9403   6.623   1.822   0.575
 2835SOL    HW1 9404   6.594   1.793   0.666
 2835SOL    HW2 9405   6.543   1.839   0.518
 2836SOL     OW 9406   3.250   5.961   1.513
 2836SOL    HW1 9407   3.263   5.882   1.573
 2836SOL    HW2 9408   3.336   6.013   1.507
 2837SOL     OW 9409   5.464   4.243   2.992
 2837SOL    HW1 9410   5.389   4.199   2.942
 2837SOL    HW2 9411   5.517   4.173   3.041
 2838SOL     OW 9412   7.003   3.851   5.745
 2838SOL    HW1 9413   7.003   3.865   5.844
 2838SOL    HW2 9414   0.074   3.853   5.711
 2839SOL     OW 9415   5.638   2.482   6.303
 2839SOL    HW1 9416   5.680   2.519   6.385
 2839SOL    HW2 9417   5.540   2.503   6.303
 2840SOL     OW 9418   6.347   6.404   4.985
 2840SOL    HW1 9419   6.314   6.393   4.892
 2840SOL    HW2 9420   6.282   6.361   5.048
 2841SOL     OW 9421   5.519   3.568   2.953
 2841SOL    HW1 9422   5.605   3.537   2.994
 2841SOL    HW2 9423   5.500   3.661   2.983
 2842SOL     OW 9424   0.874   6.365   3.605
 2842SOL    HW1 9425   0.781   6.391   3.632
 2842SOL    HW2 9426   0.931   6.447   3.601
 2843SOL     OW 9427   1.258   3.012   4.210
 2843SOL    HW1 9428   1.329   2.977   4.271
 2843SOL    HW2 9429   1.197   2.937   4.183
 2844SOL     OW 9430   5.368   4.042   0.074
 2844SOL    HW1 9431   5.399   3.988   7.018
 2844SOL    HW2 9432   5.269   4.030   0.086
 2845SOL     OW 9433   3.685   1.900   1.267
 2845SOL    HW1 9434   3.724   1.882   1.357
 2845SOL    HW2 9435   3.706   1.995   1.240
 2846SOL     OW 9436   5.087   0.081   6.574
 2846SOL    HW1 9437   4.993   0.089   6.605
 2846SOL    HW2 9438   5.090   0.029   6.488
 2847SOL     OW 9439   5.805   4.925   2.175
 2847SOL    HW1 9440   5.811   4.868   2.093
 2847SOL    HW2 9441   5.837   5.017   2.154
 2848SOL     OW 9442   0.481   3.378   0.231
 2848SOL    HW1 9443   0.458   3.440   0.156
 2848SOL    HW2 9444   0.476   3.428   0.318
 2849SOL     OW 9445   5.404   0.625   1.323
 2849SOL    HW1 9446   5.493   0.660   1.291
 2849SOL    HW2 9447   5.332   0.690   1.299
 2850SOL     OW 9448   0.489   1.047   0.812
 2850SOL    HW1 9449   0.468   1.012   0.720
 2850SOL    HW2 9450   0.529   1.138   0.804
 2851SOL     OW 9451   3.549   3.754   2.150
 2851SOL    HW1 9452   3.599   3.840   2.157
 2851SOL    HW2 9453   3.524   3.722   2.242
 2852SOL     OW 9454   0.487   4.842   4.760
 2852SOL    HW1 9455   0.461   4.844   4.663
 2852SOL    HW2 9456   0.454   4.757   4.801
 2853SOL     OW 9457   0.213   4.357   5.959
 2853SOL    HW1 9458   0.304   4.344   5.998
 2853SOL    HW2 9459   0.210   4.317   5.867
 2854SOL     OW 9460   2.998   0.249   6.815
 2854SOL    HW1 9461   2.969   0.157   6.789
 2854SOL    HW2 9462   3.089   0.267   6.776
 2855SOL     OW 9463   2.679   2.175   4.206
 2855SOL    HW1 9464   2.602   2.237   4.224
 2855SOL    HW2 9465   2.649   2.080   4.218
 2856SOL     OW 9466   1.394   5.351   4.801
 2856SOL    HW1 9467   1.350   5.278   4.854
 2856SOL    HW2 9468   1.460   5.311   4.737
 2857SOL     OW 9469   0.502   4.571   0.002
 2857SOL    HW1 9470   0.436   4.616   0.062
 2857SOL    HW2 9471   0.564   4.515   0.056
 2858SOL     OW 9472   5.430   4.743   4.105
 2858SOL    HW1 9473   5.476   4.816   4.155
 2858SOL    HW2 9474   5.428   4.766   4.007
 2859SOL     OW 9475   6.859   5.008   2.065
 2859SOL    HW1 9476   6.904   5.097   2.074
 2859SOL    HW2 9477   6.836   4.992   1.969
 2860SOL     OW 9478   1.206   6.785   3.109
 2860SOL    HW1 9479   1.231   6.853   3.041
 2860SOL    HW2 9480   1.141   6.719   3.069
 2861SOL     OW 9481   5.496   3.330   5.233
 2861SOL    HW1 9482   5.479   3.269   5.155
 2861SOL    HW2 9483   5.418   3.327   5.295
 2862SOL     OW 9484   4.711   1.296   0.280
 2862SOL    HW1 9485   4.748   1.245   0.202
 2862SOL    HW2 9486   4.748   1.259   0.365
 2863SOL     OW 9487   5.390   1.772   6.135
 2863SOL    HW1 9488   5.342   1.689   6.166
 2863SOL    HW2 9489   5.472   1.786   6.191
 2864SOL     OW 9490   4.267   4.838   0.959
 2864SOL    HW1 9491   4.254   4.747   0.999
 2864SOL    HW2 9492   4.344   4.883   1.004
 2865SOL     OW 9493   5.436   4.761   6.328
 2865SOL    HW1 9494   5.514   4.701   6.310
 2865SOL    HW2 9495   5.361   4.709   6.369
 2866SOL     OW 9496   4.426   5.833   0.991
 2866SOL    HW1 9497   4.385   5.748   1.024
 2866SOL    HW2 9498   4.432   5.831   0.891
 2867SOL     OW 9499   0.701   6.170   2.956
 2867SOL    HW1 9500   0.727   6.098   2.891
 2867SOL    HW2 9501   0.683   6.130   3.045
 2868SOL     OW 9502   6.738   0.298   5.527
 2868SOL    HW1 9503   6.788   0.331   5.448
 2868SOL    HW2 9504   6.715   0.374   5.587
 2869SOL     OW 9505   5.475   4.590   5.266
 2869SOL    HW1 9506   5.461   4.654   5.190
 2869SOL    HW2 9507   5.568   4.555   5.263
 2870SOL     OW 9508   0.321   1.281   1.376
 2870SOL    HW1 9509   0.302   1.195   1.423
 2870SOL    HW2 9510   0.243   1.306   1.319
 2871SOL     OW 9511   4.596   1.180   3.399
 2871SOL    HW1 9512   4.636   1.264   3.437
 2871SOL    HW2 9513   4.578   1.194   3.301
 2872SOL     OW 9514   3.458   1.591   2.592
 2872SOL    HW1 9515   3.376   1.647   2.601
 2872SOL    HW2 9516   3.493   1.568   2.683
 2873SOL     OW 9517   0.255   0.134   2.843
 2873SOL    HW1 9518   0.171   0.089   2.873
 2873SOL    HW2 9519   0.246   0.164   2.748
 2874SOL     OW 9520   1.918   1.174   2.542
 2874SOL    HW1 9521   1.886   1.255   2.592
 2874SOL    HW2 9522   1.870   1.093   2.576
 2875SOL     OW 9523   2.845   0.674   2.599
 2875SOL    HW1 9524   2.876   0.648   2.508
 2875SOL    HW2 9525   2.859   0.772   2.613
 2876SOL     OW 9526   1.292   7.010   0.965
 2876SOL    HW1 9527   1.234   0.046   1.022
 2876SOL    HW2 9528   1.320   6.930   1.018
 2877SOL     OW 9529   1.645   3.455   6.594
 2877SOL    HW1 9530   1.556   3.441   6.637
 2877SOL    HW2 9531   1.641   3.425   6.499
 2878SOL     OW 9532   3.390   3.564   4.766
 2878SOL    HW1 9533   3.345   3.475   4.778
 2878SOL    HW2 9534   3.357   3.628   4.835
 2879SOL     OW 9535   6.201   5.748   0.645
 2879SOL    HW1 9536   6.223   5.828   0.700
 2879SOL    HW2 9537   6.263   5.673   0.667
 2880SOL     OW 9538   1.736   1.825   2.859
 2880SOL    HW1 9539   1.642   1.850   2.838
 2880SOL    HW2 9540   1.747   1.817   2.958
 2881SOL     OW 9541   4.945   4.744   6.864
 2881SOL    HW1 9542   4.996   4.672   6.817
 2881SOL    HW2 9543   4.959   4.831   6.817
 2882SOL     OW 9544   5.198   6.597   0.021
 2882SOL    HW1 9545   5.118   6.605   0.081
 2882SOL    HW2 9546   5.207   6.680   6.989
 2883SOL     OW 9547   5.097   6.059   2.998
 2883SOL    HW1 9548   5.138   6.127   2.938
 2883SOL    HW2 9549   5.067   6.103   3.083
 2884SOL     OW 9550   6.123   5.195   3.302
 2884SOL    HW1 9551   6.176   5.113   3.326
 2884SOL    HW2 9552   6.039   5.168   3.255
 2885SOL     OW 9553   0.228   3.596   3.359
 2885SOL    HW1 9554   0.149   3.559   3.408
 2885SOL    HW2 9555   0.266   3.526   3.299
 2886SOL     OW 9556   2.112   4.160   4.885
 2886SOL    HW1 9557   2.137   4.161   4.788
 2886SOL    HW2 9558   2.169   4.094   4.933
 2887SOL     OW 9559   7.015   4.749   3.022
 2887SOL    HW1 9560   7.005   4.828   2.961
 2887SOL    HW2 9561   0.062   4.768   3.091
 2888SOL     OW 9562   4.349   5.895   6.446
 2888SOL    HW1 9563   4.325   5.992   6.440
 2888SOL    HW2 9564   4.431   5.883   6.502
 2889SOL     OW 9565   4.151   5.533   4.332
 2889SOL    HW1 9566   4.111   5.494   4.250
 2889SOL    HW2 9567   4.216   5.467   4.372
 2890SOL     OW 9568   1.524   2.235   1.017
 2890SOL    HW1 9569   1.474   2.163   0.970
 2890SOL    HW2 9570   1.575   2.290   0.950
 2891SOL     OW 9571   1.892   1.628   5.392
 2891SOL    HW1 9572   1.829   1.553   5.372
 2891SOL    HW2 9573   1.939   1.609   5.479
 2892SOL     OW 9574   5.590   4.203   2.111
 2892SOL    HW1 9575   5.686   4.213   2.086
 2892SOL    HW2 9576   5.564   4.106   2.105
 2893SOL     OW 9577   6.891   5.905   5.359
 2893SOL    HW1 9578   6.974   5.961   5.360
 2893SOL    HW2 9579   6.839   5.921   5.443
 2894SOL     OW 9580   1.901   5.534   1.152
 2894SOL    HW1 9581   1.994   5.566   1.130
 2894SOL    HW2 9582   1.854   5.605   1.204
 2895SOL     OW 9583   5.053   6.778   6.428
 2895SOL    HW1 9584   5.124   6.757   6.494
 2895SOL    HW2 9585   5.043   6.701   6.365
 2896SOL     OW 9586   6.541   0.213   5.924
 2896SOL    HW1 9587   6.488   0.163   5.993
 2896SOL    HW2 9588   6.611   0.153   5.886
 2897SOL     OW 9589   3.325   5.954   3.425
 2897SOL    HW1 9590   3.418   5.923   3.446
 2897SOL    HW2 9591   3.265   5.935   3.503
 2898SOL     OW 9592   5.218   2.279   2.503
 2898SOL    HW1 9593   5.126   2.307   2.475
 2898SOL    HW2 9594   5.211   2.204   2.569
 2899SOL     OW 9595   6.564   2.674   1.043
 2899SOL    HW1 9596   6.649   2.722   1.065
 2899SOL    HW2 9597   6.486   2.729   1.073
 2900SOL     OW 9598   3.183   2.951   5.170
 2900SOL    HW1 9599   3.185   2.905   5.259
 2900SOL    HW2 9600   3.089   2.977   5.148
 2901SOL     OW 9601   1.551   3.478   1.460
 2901SOL    HW1 9602   1.513   3.566   1.486
 2901SOL    HW2 9603   1.478   3.420   1.424
 2902SOL     OW 9604   5.626   6.217   3.287
 2902SOL    HW1 9605   5.662   6.267   3.366
 2902SOL    HW2 9606   5.632   6.119   3.304
 2903SOL     OW 9607   0.701   5.751   0.960
 2903SOL    HW1 9608   0.665   5.679   0.900
 2903SOL    HW2 9609   0.801   5.747   0.961
 2904SOL     OW 9610   2.767   4.865   4.562
 2904SOL    HW1 9611   2.820   4.850   4.645
 2904SOL    HW2 9612   2.673   4.833   4.577
 2905SOL     OW 9613   1.481   4.619   1.636
 2905SOL    HW1 9614   1.509   4.689   1.571
 2905SOL    HW2 9615   1.545   4.616   1.713
 2906SOL     OW 9616   6.660   6.285   6.238
 2906SOL    HW1 9617   6.619   6.294   6.329
 2906SOL    HW2 9618   6.599   6.235   6.178
 2907SOL     OW 9619   6.399   0.800   5.990
 2907SOL    HW1 9620   6.392   0.806   6.089
 2907SOL    HW2 9621   6.482   0.749   5.965
 2908SOL     OW 9622   4.057   6.063   3.723
 2908SOL    HW1 9623   4.084   6.098   3.813
 2908SOL    HW2 9624   3.989   5.991   3.735
 2909SOL     OW 9625   0.388   6.881   0.944
 2909SOL    HW1 9626   0.291   6.887   0.969
 2909SOL    HW2 9627   0.400   6.809   0.876
 2910SOL     OW 9628   1.311   0.968   4.376
 2910SOL    HW1 9629   1.247   1.014   4.315
 2910SOL    HW2 9630   1.262   0.904   4.435
 2911SOL     OW 9631   6.360   3.610   3.719
 2911SOL    HW1 9632   6.363   3.510   3.719
 2911SOL    HW2 9633   6.453   3.647   3.710
 2912SOL     OW 9634   0.504   1.222   2.618
 2912SOL    HW1 9635   0.561   1.261   2.690
 2912SOL    HW2 9636   0.474   1.130   2.644
 2913SOL     OW 9637   1.131   6.330   4.303
 2913SOL    HW1 9638   1.058   6.274   4.343
 2913SOL    HW2 9639   1.120   6.425   4.333
 2914SOL     OW 9640   3.683   4.440   0.935
 2914SOL    HW1 9641   3.596   4.488   0.929
 2914SOL    HW2 9642   3.693   4.379   0.856
 2915SOL     OW 9643   2.483   0.685   3.567
 2915SOL    HW1 9644   2.401   0.741   3.568
 2915SOL    HW2 9645   2.513   0.668   3.661
 2916SOL     OW 9646   0.152   5.900   6.136
 2916SOL    HW1 9647   0.215   5.832   6.175
 2916SOL    HW2 9648   0.107   5.862   6.056
 2917SOL     OW 9649   1.877   0.917   3.441
 2917SOL    HW1 9650   1.831   0.994   3.397
 2917SOL    HW2 9651   1.973   0.916   3.415
 2918SOL     OW 9652   4.930   2.070   1.235
 2918SOL    HW1 9653   4.889   1.991   1.191
 2918SOL    HW2 9654   4.882   2.089   1.321
 2919SOL     OW 9655   0.601   6.066   5.057
 2919SOL    HW1 9656   0.646   6.020   5.133
 2919SOL    HW2 9657   0.555   5.999   4.999
 2920SOL     OW 9658   2.762   2.205   1.786
 2920SOL    HW1 9659   2.811   2.260   1.854
 2920SOL    HW2 9660   2.807   2.214   1.697
 2921SOL     OW 9661   0.101   5.520   3.452
 2921SOL    HW1 9662   0.134   5.448   3.513
 2921SOL    HW2 9663   0.172   5.590   3.441
 2922SOL     OW 9664   3.880   5.085   3.362
 2922SOL    HW1 9665   3.958   5.132   3.405
 2922SOL    HW2 9666   3.890   5.090   3.263
 2923SOL     OW 9667   1.256   5.011   4.035
 2923SOL    HW1 9668   1.215   5.022   4.125
 2923SOL    HW2 9669   1.198   5.054   3.966
 2924SOL     OW 9670   5.173   1.384   6.936
 2924SOL    HW1 9671   5.166   1.453   6.864
 2924SOL    HW2 9672   5.244   1.318   6.912
 2925SOL     OW 9673   5.426   7.008   4.501
 2925SOL    HW1 9674   5.475   6.965   4.577
 2925SOL    HW2 9675   5.437   0.085   4.507
 2926SOL     OW 9676   6.447   2.698   4.620
 2926SOL    HW1 9677   6.435   2.777   4.680
 2926SOL    HW2 9678   6.514   2.635   4.660
 2927SOL     OW 9679   1.160   2.445   2.655
 2927SOL    HW1 9680   1.188   2.442   2.751
 2927SOL    HW2 9681   1.128   2.354   2.627
 2928SOL     OW 9682   5.043   4.664   0.290
 2928SOL    HW1 9683   5.128   4.651   0.240
 2928SOL    HW2 9684   4.965   4.655   0.228
 2929SOL     OW 9685   1.948   2.306   3.222
 2929SOL    HW1 9686   1.956   2.293   3.123
 2929SOL    HW2 9687   2.032   2.275   3.267
 2930SOL     OW 9688   0.631   3.075   4.311
 2930SOL    HW1 9689   0.676   3.123   4.236
 2930SOL    HW2 9690   0.692   3.005   4.347
 2931SOL     OW 9691   6.308   3.956   5.875
 2931SOL    HW1 9692   6.208   3.956   5.879
 2931SOL    HW2 9693   6.344   4.021   5.942
 2932SOL     OW 9694   6.944   6.343   0.792
 2932SOL    HW1 9695   0.018   6.363   0.776
 2932SOL    HW2 9696   6.911   6.399   0.868
 2933SOL     OW 9697   0.773   0.168   0.087
 2933SOL    HW1 9698   0.862   0.205   0.060
 2933SOL    HW2 9699   0.786   0.081   0.135
 2934SOL     OW 9700   5.623   4.776   2.341
 2934SOL    HW1 9701   5.674   4.857   2.313
 2934SOL    HW2 9702   5.544   4.763   2.280
 2935SOL     OW 9703   0.847   3.889   5.694
 2935SOL    HW1 9704   0.847   3.862   5.790
 2935SOL    HW2 9705   0.916   3.837   5.644
 2936SOL     OW 9706   4.142   6.351   2.511
 2936SOL    HW1 9707   4.108   6.289   2.441
 2936SOL    HW2 9708   4.195   6.424   2.468
 2937SOL     OW 9709   6.159   3.336   3.351
 2937SOL    HW1 9710   6.244   3.285   3.343
 2937SOL    HW2 9711   6.116   3.344   3.261
 2938SOL     OW 9712   0.629   4.994   1.136
 2938SOL    HW1 9713   0.638   4.902   1.173
 2938SOL    HW2 9714   0.612   5.059   1.211
 2939SOL     OW 9715   5.827   6.453   1.799
 2939SOL    HW1 9716   5.818   6.372   1.741
 2939SOL    HW2 9717   5.772   6.441   1.882
 2940SOL     OW 9718   4.813   6.072   3.897
 2940SOL    HW1 9719   4.763   6.135   3.956
 2940SOL    HW2 9720   4.768   6.065   3.809
 2941SOL     OW 9721   2.510   4.943   2.806
 2941SOL    HW1 9722   2.466   4.932   2.717
 2941SOL    HW2 9723   2.605   4.972   2.792
 2942SOL     OW 9724   3.398   1.951   1.313
 2942SOL    HW1 9725   3.487   1.913   1.338
 2942SOL    HW2 9726   3.385   2.039   1.358
 2943SOL     OW 9727   0.624   3.778   3.552
 2943SOL    HW1 9728   0.719   3.803   3.567
 2943SOL    HW2 9729   0.616   3.722   3.469
 2944SOL     OW 9730   1.170   5.507   3.205
 2944SOL    HW1 9731   1.105   5.451   3.154
 2944SOL    HW2 9732   1.195   5.460   3.290
 2945SOL     OW 9733   5.786   4.180   0.600
 2945SOL    HW1 9734   5.861   4.247   0.600
 2945SOL    HW2 9735   5.823   4.089   0.584
 2946SOL     OW 9736   3.746   4.133   4.716
 2946SOL    HW1 9737   3.650   4.153   4.736
 2946SOL    HW2 9738   3.768   4.167   4.624
 2947SOL     OW 9739   6.341   6.091   0.114
 2947SOL    HW1 9740   6.325   6.155   0.188
 2947SOL    HW2 9741   6.419   6.122   0.059
 2948SOL     OW 9742   6.360   4.509   0.686
 2948SOL    HW1 9743   6.378   4.423   0.639
 2948SOL    HW2 9744   6.287   4.496   0.753
 2949SOL     OW 9745   2.037   6.094   0.738
 2949SOL    HW1 9746   1.938   6.086   0.734
 2949SOL    HW2 9747   2.073   6.115   0.647
 2950SOL     OW 9748   5.614   5.286   2.205
 2950SOL    HW1 9749   5.542   5.329   2.260
 2950SOL    HW2 9750   5.670   5.227   2.264
 2951SOL     OW 9751   0.615   2.275   1.183
 2951SOL    HW1 9752   0.602   2.191   1.235
 2951SOL    HW2 9753   0.702   2.272   1.134
 2952SOL     OW 9754   0.661   1.800   4.475
 2952SOL    HW1 9755   0.595   1.828   4.406
 2952SOL    HW2 9756   0.617   1.798   4.565
 2953SOL     OW 9757   1.862   5.806   3.171
 2953SOL    HW1 9758   1.931   5.759   3.117
 2953SOL    HW2 9759   1.864   5.904   3.151
 2954SOL     OW 9760   0.697   4.242   6.347
 2954SOL    HW1 9761   0.668   4.216   6.439
 2954SOL    HW2 9762   0.767   4.178   6.315
 2955SOL     OW 9763   2.057   4.710   6.442
 2955SOL    HW1 9764   1.978   4.677   6.493
 2955SOL    HW2 9765   2.089   4.796   6.482
 2956SOL     OW 9766   5.718   3.712   4.697
 2956SOL    HW1 9767   5.812   3.676   4.696
 2956SOL    HW2 9768   5.667   3.675   4.619
 2957SOL     OW 9769   1.503   5.101   2.706
 2957SOL    HW1 9770   1.515   5.006   2.734
 2957SOL    HW2 9771   1.586   5.133   2.661
 2958SOL     OW 9772   1.726   4.224   1.068
 2958SOL    HW1 9773   1.718   4.245   0.970
 2958SOL    HW2 9774   1.721   4.125   1.081
 2959SOL     OW 9775   0.121   4.460   4.118
 2959SOL    HW1 9776   0.063   4.423   4.191
 2959SOL    HW2 9777   0.109   4.560   4.114
 2960SOL     OW 9778   5.115   6.283   0.819
 2960SOL    HW1 9779   5.103   6.382   0.810
 2960SOL    HW2 9780   5.107   6.257   0.916
 2961SOL     OW 9781   5.603   2.263   1.313
 2961SOL    HW1 9782   5.649   2.181   1.280
 2961SOL    HW2 9783   5.670   2.335   1.329
 2962SOL     OW 9784   0.155   0.132   3.751
 2962SOL    HW1 9785   0.253   0.147   3.737
 2962SOL    HW2 9786   0.126   0.178   3.834
 2963SOL     OW 9787   2.167   2.220   5.540
 2963SOL    HW1 9788   2.202   2.129   5.518
 2963SOL    HW2 9789   2.078   2.232   5.497
 2964SOL     OW 9790   1.421   1.229   5.875
 2964SOL    HW1 9791   1.332   1.184   5.863
 2964SOL    HW2 9792   1.435   1.295   5.801
 2965SOL     OW 9793   6.177   0.375   6.430
 2965SOL    HW1 9794   6.227   0.295   6.465
 2965SOL    HW2 9795   6.146   0.431   6.507
 2966SOL     OW 9796   3.495   6.355   2.964
 2966SOL    HW1 9797   3.401   6.348   2.932
 2966SOL    HW2 9798   3.532   6.264   2.979
 2967SOL     OW 9799   6.201   0.160   4.920
 2967SOL    HW1 9800   6.250   0.086   4.964
 2967SOL    HW2 9801   6.214   0.155   4.821
 2968SOL     OW 9802   1.521   3.834   1.859
 2968SOL    HW1 9803   1.565   3.855   1.772
 2968SOL    HW2 9804   1.586   3.847   1.933
 2969SOL     OW 9805   4.745   2.426   4.733
 2969SOL    HW1 9806   4.706   2.498   4.789
 2969SOL    HW2 9807   4.695   2.341   4.747
 2970SOL     OW 9808   3.195   2.364   5.937
 2970SOL    HW1 9809   3.234   2.433   5.876
 2970SOL    HW2 9810   3.172   2.282   5.885
 2971SOL     OW 9811   4.394   3.542   6.131
 2971SOL    HW1 9812   4.433   3.541   6.223
 2971SOL    HW2 9813   4.295   3.535   6.137
 2972SOL     OW 9814   0.454   6.180   6.287
 2972SOL    HW1 9815   0.553   6.176   6.300
 2972SOL    HW2 9816   0.417   6.260   6.334
 2973SOL     OW 9817   5.858   0.390   3.910
 2973SOL    HW1 9818   5.902   0.435   3.988
 2973SOL    HW2 9819   5.899   0.299   3.897
 2974SOL     OW 9820   5.280   6.133   2.663
 2974SOL    HW1 9821   5.303   6.228   2.643
 2974SOL    HW2 9822   5.317   6.108   2.753
 2975SOL     OW 9823   6.647   3.829   4.795
 2975SOL    HW1 9824   6.579   3.888   4.839
 2975SOL    HW2 9825   6.605   3.781   4.718
 2976SOL     OW 9826   3.855   0.317   1.361
 2976SOL    HW1 9827   3.935   0.345   1.308
 2976SOL    HW2 9828   3.774   0.364   1.327
 2977SOL     OW 9829   1.678   1.236   2.400
 2977SOL    HW1 9830   1.712   1.200   2.314
 2977SOL    HW2 9831   1.674   1.163   2.468
 2978SOL     OW 9832   3.715   5.875   0.025
 2978SOL    HW1 9833   3.674   5.913   6.965
 2978SOL    HW2 9834   3.702   5.940   0.101
 2979SOL     OW 9835   2.629   1.361   5.756
 2979SOL    HW1 9836   2.634   1.449   5.802
 2979SOL    HW2 9837   2.674   1.367   5.667
 2980SOL     OW 9838   3.315   2.921   4.133
 2980SOL    HW1 9839   3.235   2.956   4.183
 2980SOL    HW2 9840   3.285   2.857   4.062
 2981SOL     OW 9841   2.936   1.976   1.675
 2981SOL    HW1 9842   2.906   2.036   1.601
 2981SOL    HW2 9843   2.866   1.974   1.747
 2982SOL     OW 9844   1.338   0.667   1.689
 2982SOL    HW1 9845   1.387   0.753   1.677
 2982SOL    HW2 9846   1.262   0.663   1.623
 2983SOL     OW 9847   6.492   2.601   6.510
 2983SOL    HW1 9848   6.441   2.640   6.433
 2983SOL    HW2 9849   6.585   2.578   6.479
 2984SOL     OW 9850   0.728   6.597   1.022
 2984SOL    HW1 9851   0.686   6.571   1.109
 2984SOL    HW2 9852   0.802   6.534   1.000
 2985SOL     OW 9853   7.021   0.161   5.606
 2985SOL    HW1 9854   7.004   0.258   5.623
 2985SOL    HW2 9855   6.996   0.108   5.686
 2986SOL     OW 9856   4.142   3.406   3.098
 2986SOL    HW1 9857   4.237   3.397   3.128
 2986SOL    HW2 9858   4.129   3.351   3.015
 2987SOL     OW 9859   2.314   6.093   5.213
 2987SOL    HW1 9860   2.389   6.147   5.251
 2987SOL    HW2 9861   2.341   5.997   5.207
 2988SOL     OW 9862   0.924   1.881   6.718
 2988SOL    HW1 9863   0.940   1.782   6.719
 2988SOL    HW2 9864   0.926   1.914   6.624
 2989SOL     OW 9865   5.790   3.896   5.997
 2989SOL    HW1 9866   5.805   3.880   6.095
 2989SOL    HW2 9867   5.736   3.979   5.985
 2990SOL     OW 9868   4.744   1.043   4.878
 2990SOL    HW1 9869   4.821   0.993   4.838
 2990SOL    HW2 9870   4.697   1.094   4.806
 2991SOL     OW 9871   6.498   3.151   0.281
 2991SOL    HW1 9872   6.569   3.210   0.242
 2991SOL    HW2 9873   6.445   3.202   0.349
 2992SOL     OW 9874   1.644   4.081   5.174
 2992SOL    HW1 9875   1.553   4.091   5.214
 2992SOL    HW2 9876   1.645   4.003   5.112
 2993SOL     OW 9877   3.694   4.666   6.538
 2993SOL    HW1 9878   3.722   4.746   6.590
 2993SOL    HW2 9879   3.753   4.588   6.563
 2994SOL     OW 9880   2.767   5.126   4.564
 2994SOL    HW1 9881   2.778   5.029   4.543
 2994SOL    HW2 9882   2.836   5.154   4.631
 2995SOL     OW 9883   5.062   0.014   1.895
 2995SOL    HW1 9884   5.023   0.020   1.987
 2995SOL    HW2 9885   5.087   0.106   1.863
 2996SOL     OW 9886   0.097   0.558   3.992
 2996SOL    HW1 9887   0.060   0.622   4.059
 2996SOL    HW2 9888   0.121   0.607   3.909
 2997SOL     OW 9889   4.654   5.907   4.118
 2997SOL    HW1 9890   4.741   5.871   4.151
 2997SOL    HW2 9891   4.667   5.999   4.082
 2998SOL     OW 9892   2.547   0.120   2.389
 2998SOL    HW1 9893   2.556   0.186   2.315
 2998SOL    HW2 9894   2.637   0.080   2.409
 2999SOL     OW 9895   1.985   5.147   0.084
 2999SOL    HW1 9896   1.971   5.179   7.013
 2999SOL    HW2 9897   1.985   5.047   0.086
 3000SOL     OW 9898   1.837   3.967   6.121
 3000SOL    HW1 9899   1.787   3.885   6.094
 3000SOL    HW2 9900   1.905   3.989   6.052
 3001SOL     OW 9901   3.728   0.429   6.597
 3001SOL    HW1 9902   3.684   0.363   6.536
 3001SOL    HW2 9903   3.671   0.440   6.679
 3002SOL     OW 9904   1.275   2.282   2.081
 3002SOL    HW1 9905   1.272   2.381   2.065
 3002SOL    HW2 9906   1.293   2.265   2.178
 3003SOL     OW 9907   1.595   6.088   0.481
 3003SOL    HW1 9908   1.536   6.009   0.492
 3003SOL    HW2 9909   1.542   6.172   0.494
 3004SOL     OW 9910   2.732   0.173   4.256
 3004SOL    HW1 9911   2.750   0.269   4.238
 3004SOL    HW2 9912   2.662   0.164   4.327
 3005SOL     OW 9913   2.748   1.944   0.269
 3005SOL    HW1 9914   2.834   1.933   0.320
 3005SOL    HW2 9915   2.675   1.896   0.316
 3006SOL     OW 9916   5.593   0.972   5.959
 3006SOL    HW1 9917   5.531   0.894   5.956
 3006SOL    HW2 9918   5.670   0.950   6.019
 3007SOL     OW 9919   6.128   5.747   5.565
 3007SOL    HW1 9920   6.123   5.650   5.540
 3007SOL    HW2 9921   6.224   5.772   5.580
 3008SOL     OW 9922   5.491   3.868   5.428
 3008SOL    HW1 9923   5.465   3.780   5.388
 3008SOL    HW2 9924   5.588   3.868   5.450
 3009SOL     OW 9925   5.542   3.588   1.822
 3009SOL    HW1 9926   5.480   3.554   1.893
 3009SOL    HW2 9927   5.513   3.553   1.733
 3010SOL     OW 9928   4.288   4.758   1.284
 3010SOL    HW1 9929   4.272   4.720   1.193
 3010SOL    HW2 9930   4.249   4.850   1.289
 3011SOL     OW 9931   5.802   6.925   0.497
 3011SOL    HW1 9932   5.791   6.987   0.419
 3011SOL    HW2 9933   5.726   6.938   0.561
 3012SOL     OW 9934   2.745   1.134   4.947
 3012SOL    HW1 9935   2.811   1.117   4.874
 3012SOL    HW2 9936   2.681   1.057   4.953
 3013SOL     OW 9937   0.423   5.415   5.235
 3013SOL    HW1 9938   0.521   5.395   5.241
 3013SOL    HW2 9939   0.373   5.333   5.209
 3014SOL     OW 9940   4.249   0.500   0.110
 3014SOL    HW1 9941   4.195   0.576   0.146
 3014SOL    HW2 9942   4.334   0.492   0.161
 3015SOL     OW 9943   2.358   6.479   6.511
 3015SOL    HW1 9944   2.358   6.577   6.490
 3015SOL    HW2 9945   2.297   6.462   6.589
 3016SOL     OW 9946   3.389   0.862   4.361
 3016SOL    HW1 9947   3.376   0.857   4.460
 3016SOL    HW2 9948   3.302   0.845   4.315
 3017SOL     OW 9949   1.365   5.925   0.419
 3017SOL    HW1 9950   1.443   5.864   0.407
 3017SOL    HW2 9951   1.326   5.912   0.510
 3018SOL     OW 9952   2.635   2.563   1.743
 3018SOL    HW1 9953   2.625   2.500   1.666
 3018SOL    HW2 9954   2.568   2.539   1.814
 3019SOL     OW 9955   1.343   0.877   5.674
 3019SOL    HW1 9956   1.439   0.905   5.670
 3019SOL    HW2 9957   1.322   0.842   5.765
 3020SOL     OW 9958   5.001   4.117   6.464
 3020SOL    HW1 9959   4.984   4.032   6.413
 3020SOL    HW2 9960   4.980   4.101   6.561
 3021SOL     OW 9961   4.490   6.515   4.422
 3021SOL    HW1 9962   4.574   6.547   4.379
 3021SOL    HW2 9963   4.432   6.593   4.444
 3022SOL     OW 9964   4.013   6.841   3.237
 3022SOL    HW1 9965   3.914   6.853   3.239
 3022SOL    HW2 9966   4.057   6.926   3.209
 3023SOL     OW 9967   5.402   4.415   4.731
 3023SOL    HW1 9968   5.322   4.463   4.766
 3023SOL    HW2 9969   5.407   4.323   4.771
 3024SOL     OW 9970   6.257   1.313   6.837
 3024SOL    HW1 9971   6.268   1.411   6.819
 3024SOL    HW2 9972   6.347   1.270   6.846
 3025SOL     OW 9973   4.136   5.381   0.626
 3025SOL    HW1 9974   4.161   5.307   0.688
 3025SOL    HW2 9975   4.218   5.416   0.581
 3026SOL     OW 9976   0.194   0.189   2.592
 3026SOL    HW1 9977   0.230   0.267   2.541
 3026SOL    HW2 9978   0.150   0.125   2.529
 3027SOL     OW 9979   4.530   0.465   0.592
 3027SOL    HW1 9980   4.510   0.557   0.625
 3027SOL    HW2 9981   4.445   0.419   0.568
 3028SOL     OW 9982   4.074   3.273   4.005
 3028SOL    HW1 9983   4.035   3.352   3.958
 3028SOL    HW2 9984   4.076   3.194   3.943
 3029SOL     OW 9985   6.770   2.428   4.202
 3029SOL    HW1 9986   6.866   2.441   4.177
 3029SOL    HW2 9987   6.763   2.351   4.265
 3030SOL     OW 9988   0.379   3.795   6.444
 3030SOL    HW1 9989   0.325   3.861   6.393
 3030SOL    HW2 9990   0.476   3.816   6.434
 3031SOL     OW 9991   0.125   4.873   6.971
 3031SOL    HW1 9992   0.125   4.773   6.962
 3031SOL    HW2 9993   0.050   4.912   6.918
 3032SOL     OW 9994   3.462   0.007   3.994
 3032SOL    HW1 9995   3.421   0.010   4.085
 3032SOL    HW2 9996   3.509   6.942   3.981
 3033SOL     OW 9997   2.343   0.940   6.537
 3033SOL    HW1 9998   2.279   1.017   6.533
 3033SOL    HW2 9999   2.400   0.941   6.455
 3034SOL     OW10000   5.622   3.233   3.199
 3034SOL    HW110001   5.629   3.229   3.298
 3034SOL    HW210002   5.530   3.203   3.171
 3035SOL     OW10003   6.705   4.387   5.981
 3035SOL    HW110004   6.803   4.400   5.997
 3035SOL    HW210005   6.678   4.439   5.899
 3036SOL     OW10006   3.329   2.447   6.207
 3036SOL    HW110007   3.418   2.402   6.213
 3036SOL    HW210008   3.284   2.421   6.122
 3037SOL     OW10009   0.303   5.518   5.859
 3037SOL    HW110010   0.241   5.508   5.937
 3037SOL    HW210011   0.390   5.556   5.890
 3038SOL     OW10012   5.869   4.775   5.376
 3038SOL    HW110013   5.815   4.847   5.332
 3038SOL    HW210014   5.830   4.686   5.354
 3039SOL     OW10015   6.048   3.248   6.700
 3039SOL    HW110016   6.059   3.296   6.613
 3039SOL    HW210017   6.137   3.230   6.741
 3040SOL     OW10018   4.254   6.148   6.487
 3040SOL    HW110019   4.271   6.133   6.584
 3040SOL    HW210020   4.299   6.233   6.458
 3041SOL     OW10021   2.413   6.073   6.436
 3041SOL    HW110022   2.481   6.077   6.362
 3041SOL    HW210023   2.328   6.034   6.402
 3042SOL     OW10024   0.400   5.588   3.792
 3042SOL    HW110025   0.415   5.626   3.883
 3042SOL    HW210026   0.311   5.542   3.789
 3043SOL     OW10027   2.402   3.828   1.265
 3043SOL    HW110028   2.378   3.774   1.346
 3043SOL    HW210029   2.498   3.812   1.242
 3044SOL     OW10030   3.853   3.439   4.716
 3044SOL    HW110031   3.835   3.390   4.631
 3044SOL    HW210032   3.943   3.412   4.752
 3045SOL     OW10033   5.777   0.349   2.927
 3045SOL    HW110034   5.848   0.287   2.958
 3045SOL    HW210035   5.705   0.355   2.996
 3046SOL     OW10036   6.632   5.799   1.190
 3046SOL    HW110037   6.600   5.891   1.213
 3046SOL    HW210038   6.562   5.753   1.135
 3047SOL     OW10039   4.505   1.727   3.478
 3047SOL    HW110040   4.519   1.667   3.399
 3047SOL    HW210041   4.587   1.783   3.492
 3048SOL     OW10042   4.376   5.210   0.967
 3048SOL    HW110043   4.282   5.236   0.944
 3048SOL    HW210044   4.430   5.204   0.883
 3049SOL     OW10045   0.302   0.664   1.203
 3049SOL    HW110046   0.335   0.649   1.110
 3049SOL    HW210047   0.368   0.624   1.268
 3050SOL     OW10048   3.857   2.445   5.774
 3050SOL    HW110049   3.883   2.365   5.828
 3050SOL    HW210050   3.763   2.434   5.742
 3051SOL     OW10051   1.952   4.372   5.947
 3051SOL    HW110052   1.951   4.273   5.959
 3051SOL    HW210053   1.937   4.417   6.035
 3052SOL     OW10054   6.077   6.035   4.007
 3052SOL    HW110055   6.042   5.943   4.028
 3052SOL    HW210056   6.126   6.033   3.921
 3053SOL     OW10057   0.395   5.836   6.262
 3053SOL    HW110058   0.345   5.919   6.236
 3053SOL    HW210059   0.487   5.861   6.293
 3054SOL     OW10060   6.138   6.529   3.577
 3054SOL    HW110061   6.209   6.563   3.515
 3054SOL    HW210062   6.067   6.598   3.588
 3055SOL     OW10063   5.113   6.508   0.524
 3055SOL    HW110064   5.073   6.533   0.612
 3055SOL    HW210065   5.196   6.454   0.539
 3056SOL     OW10066   4.251   1.767   0.702
 3056SOL    HW110067   4.193   1.785   0.623
 3056SOL    HW210068   4.215   1.814   0.782
 3057SOL     OW10069   6.710   2.893   3.141
 3057SOL    HW110070   6.633   2.933   3.091
 3057SOL    HW210071   6.789   2.954   3.136
 3058SOL     OW10072   5.865   3.815   6.289
 3058SOL    HW110073   5.929   3.806   6.365
 3058SOL    HW210074   5.856   3.726   6.243
 3059SOL     OW10075   1.620   2.644   3.640
 3059SOL    HW110076   1.714   2.656   3.674
 3059SOL    HW210077   1.596   2.721   3.581
 3060SOL     OW10078   5.682   3.377   4.023
 3060SOL    HW110079   5.651   3.282   4.016
 3060SOL    HW210080   5.630   3.434   3.959
 3061SOL     OW10081   5.363   6.587   2.588
 3061SOL    HW110082   5.324   6.527   2.659
 3061SOL    HW210083   5.450   6.549   2.557
 3062SOL     OW10084   3.652   5.249   0.265
 3062SOL    HW110085   3.692   5.200   0.187
 3062SOL    HW210086   3.625   5.341   0.235
 3063SOL     OW10087   6.573   5.272   0.495
 3063SOL    HW110088   6.601   5.237   0.585
 3063SOL    HW210089   6.547   5.368   0.503
 3064SOL     OW10090   4.856   0.940   5.734
 3064SOL    HW110091   4.898   0.985   5.656
 3064SOL    HW210092   4.857   1.002   5.813
 3065SOL     OW10093   4.942   0.713   6.606
 3065SOL    HW110094   4.906   0.781   6.670
 3065SOL    HW210095   4.982   0.637   6.656
 3066SOL     OW10096   5.090   6.747   5.527
 3066SOL    HW110097   5.125   6.679   5.463
 3066SOL    HW210098   5.162   6.811   5.551
 3067SOL     OW10099   1.584   2.290   4.522
 3067SOL    HW110100   1.488   2.267   4.539
 3067SOL    HW210101   1.618   2.348   4.597
 3068SOL     OW10102   5.630   0.120   0.624
 3068SOL    HW110103   5.596   0.033   0.658
 3068SOL    HW210104   5.703   0.153   0.683
 3069SOL     OW10105   5.779   5.940   3.624
 3069SOL    HW110106   5.834   5.863   3.655
 3069SOL    HW210107   5.775   6.009   3.696
 3070SOL     OW10108   2.643   1.512   1.080
 3070SOL    HW110109   2.681   1.557   1.161
 3070SOL    HW210110   2.709   1.519   1.005
 3071SOL     OW10111   5.623   4.662   4.782
 3071SOL    HW110112   5.627   4.648   4.683
 3071SOL    HW210113   5.604   4.574   4.827
 3072SOL     OW10114   1.887   6.261   5.184
 3072SOL    HW110115   1.929   6.311   5.109
 3072SOL    HW210116   1.916   6.165   5.180
 3073SOL     OW10117   0.096   5.104   3.218
 3073SOL    HW110118   0.131   5.196   3.199
 3073SOL    HW210119   0.155   5.060   3.286
 3074SOL     OW10120   3.389   3.218   2.218
 3074SOL    HW110121   3.478   3.238   2.259
 3074SOL    HW210122   3.375   3.119   2.214
 3075SOL     OW10123   3.683   4.845   0.453
 3075SOL    HW110124   3.702   4.775   0.383
 3075SOL    HW210125   3.618   4.912   0.416
 3076SOL     OW10126   1.850   1.495   4.157
 3076SOL    HW110127   1.945   1.508   4.128
 3076SOL    HW210128   1.789   1.544   4.094
 3077SOL     OW10129   0.051   3.715   2.892
 3077SOL    HW110130   0.149   3.723   2.912
 3077SOL    HW210131   7.022   3.771   2.957
 3078SOL     OW10132   6.226   4.466   1.186
 3078SOL    HW110133   6.215   4.542   1.122
 3078SOL    HW210134   6.161   4.393   1.162
 3079SOL     OW10135   0.292   3.990   3.065
 3079SOL    HW110136   0.346   3.913   3.099
 3079SOL    HW210137   0.201   3.987   3.105
 3080SOL     OW10138   3.813   4.668   1.659
 3080SOL    HW110139   3.883   4.598   1.670
 3080SOL    HW210140   3.735   4.647   1.718
 3081SOL     OW10141   1.746   2.912   6.223
 3081SOL    HW110142   1.757   2.825   6.175
 3081SOL    HW210143   1.679   2.968   6.175
 3082SOL     OW10144   5.993   3.903   4.907
 3082SOL    HW110145   6.073   3.954   4.937
 3082SOL    HW210146   5.963   3.937   4.818
 3083SOL     OW10147   3.798   5.994   1.306
 3083SOL    HW110148   3.756   6.077   1.268
 3083SOL    HW210149   3.788   5.919   1.241
 3084SOL     OW10150   6.733   5.222   4.201
 3084SOL    HW110151   6.744   5.265   4.111
 3084SOL    HW210152   6.754   5.125   4.195
 3085SOL     OW10153   6.581   5.518   6.242
 3085SOL    HW110154   6.499   5.565   6.275
 3085SOL    HW210155   6.627   5.576   6.174
 3086SOL     OW10156   6.117   6.320   6.224
 3086SOL    HW110157   6.046   6.390   6.230
 3086SOL    HW210158   6.205   6.359   6.251
 3087SOL     OW10159   2.913   0.245   1.729
 3087SOL    HW110160   3.009   0.271   1.743
 3087SOL    HW210161   2.889   0.256   1.633
 3088SOL     OW10162   2.317   3.303   5.292
 3088SOL    HW110163   2.254   3.274   5.365
 3088SOL    HW210164   2.357   3.222   5.250
 3089SOL     OW10165   3.927   6.900   0.213
 3089SOL    HW110166   3.956   6.836   0.285
 3089SOL    HW210167   3.848   6.952   0.245
 3090SOL     OW10168   1.673   2.756   2.310
 3090SOL    HW110169   1.619   2.735   2.392
 3090SOL    HW210170   1.664   2.681   2.244
 3091SOL     OW10171   1.463   2.616   6.432
 3091SOL    HW110172   1.529   2.541   6.422
 3091SOL    HW210173   1.502   2.687   6.490
 3092SOL     OW10174   4.796   1.890   3.418
 3092SOL    HW110175   4.760   1.981   3.442
 3092SOL    HW210176   4.789   1.878   3.319
 3093SOL     OW10177   6.190   5.399   6.896
 3093SOL    HW110178   6.287   5.377   6.901
 3093SOL    HW210179   6.175   5.491   6.932
 3094SOL     OW10180   2.557   0.965   5.575
 3094SOL    HW110181   2.552   1.028   5.498
 3094SOL    HW210182   2.469   0.961   5.621
 3095SOL     OW10183   2.205   3.544   6.044
 3095SOL    HW110184   2.281   3.588   5.997
 3095SOL    HW210185   2.163   3.608   6.108
 3096SOL     OW10186   1.828   3.191   3.936
 3096SOL    HW110187   1.862   3.199   3.842
 3096SOL    HW210188   1.730   3.210   3.938
 3097SOL     OW10189   5.468   2.534   5.948
 3097SOL    HW110190   5.555   2.489   5.927
 3097SOL    HW210191   5.482   2.633   5.955
 3098SOL     OW10192   1.468   3.660   2.457
 3098SOL    HW110193   1.517   3.630   2.539
 3098SOL    HW210194   1.438   3.755   2.470
 3099SOL     OW10195   0.568   6.997   5.881
 3099SOL    HW110196   0.646   7.011   5.820
 3099SOL    HW210197   0.510   0.055   5.881
 3100SOL     OW10198   6.379   4.016   2.467
 3100SOL    HW110199   6.336   3.933   2.502
 3100SOL    HW210200   6.472   3.994   2.436
 3101SOL     OW10201   5.461   1.001   4.022
 3101SOL    HW110202   5.463   0.901   4.025
 3101SOL    HW210203   5.533   1.033   3.960
 3102SOL     OW10204   5.943   3.682   3.095
 3102SOL    HW110205   5.889   3.598   3.088
 3102SOL    HW210206   6.021   3.677   3.033
 3103SOL     OW10207   1.083   0.920   2.429
 3103SOL    HW110208   1.039   1.005   2.457
 3103SOL    HW210209   1.125   0.876   2.508
 3104SOL     OW10210   5.546   1.849   6.359
 3104SOL    HW110211   5.555   1.769   6.419
 3104SOL    HW210212   5.619   1.914   6.378
 3105SOL     OW10213   5.626   4.323   0.779
 3105SOL    HW110214   5.675   4.267   0.713
 3105SOL    HW210215   5.547   4.366   0.734
 3106SOL     OW10216   5.459   2.036   5.436
 3106SOL    HW110217   5.457   2.093   5.353
 3106SOL    HW210218   5.455   1.940   5.410
 3107SOL     OW10219   4.003   2.071   4.682
 3107SOL    HW110220   4.010   2.028   4.592
 3107SOL    HW210221   3.912   2.054   4.719
 3108SOL     OW10222   1.919   4.073   3.879
 3108SOL    HW110223   1.933   4.091   3.976
 3108SOL    HW210224   1.999   4.104   3.827
 3109SOL     OW10225   0.197   5.406   3.671
 3109SOL    HW110226   0.107   5.436   3.702
 3109SOL    HW210227   0.204   5.307   3.677
 3110SOL     OW10228   1.318   5.484   4.158
 3110SOL    HW110229   1.320   5.394   4.115
 3110SOL    HW210230   1.407   5.502   4.201
 3111SOL     OW10231   6.601   3.929   4.178
 3111SOL    HW110232   6.617   3.831   4.173
 3111SOL    HW210233   6.633   3.965   4.265
 3112SOL     OW10234   4.545   0.596   0.989
 3112SOL    HW110235   4.485   0.619   0.913
 3112SOL    HW210236   4.501   0.622   1.075
 3113SOL     OW10237   1.367   6.718   4.134
 3113SOL    HW110238   1.399   6.633   4.093
 3113SOL    HW210239   1.439   6.756   4.193
 3114SOL     OW10240   4.821   5.844   5.598
 3114SOL    HW110241   4.725   5.835   5.623
 3114SOL    HW210242   4.873   5.882   5.674
 3115SOL     OW10243   4.784   6.213   4.832
 3115SOL    HW110244   4.748   6.159   4.756
 3115SOL    HW210245   4.881   6.233   4.816
 3116SOL     OW10246   0.920   2.444   6.543
 3116SOL    HW110247   1.004   2.498   6.541
 3116SOL    HW210248   0.940   2.351   6.574
 3117SOL     OW10249   4.482   0.187   1.680
 3117SOL    HW110250   4.469   0.286   1.681
 3117SOL    HW210251   4.568   0.164   1.726
 3118SOL     OW10252   1.063   2.175   3.274
 3118SOL    HW110253   1.026   2.263   3.243
 3118SOL    HW210254   1.151   2.159   3.229
 3119SOL     OW10255   4.654   6.448   3.893
 3119SOL    HW110256   4.627   6.541   3.918
 3119SOL    HW210257   4.573   6.395   3.870
 3120SOL     OW10258   3.572   6.177   6.527
 3120SOL    HW110259   3.654   6.205   6.577
 3120SOL    HW210260   3.526   6.258   6.490
 3121SOL     OW10261   3.364   2.150   3.078
 3121SOL    HW110262   3.443   2.209   3.093
 3121SOL    HW210263   3.341   2.103   3.164
 3122SOL     OW10264   5.413   3.508   6.021
 3122SOL    HW110265   5.480   3.493   6.094
 3122SOL    HW210266   5.326   3.466   6.047
 3123SOL     OW10267   2.074   3.188   2.415
 3123SOL    HW110268   1.977   3.183   2.392
 3123SOL    HW210269   2.121   3.244   2.347
 3124SOL     OW10270   4.847   6.727   5.939
 3124SOL    HW110271   4.938   6.759   5.965
 3124SOL    HW210272   4.848   6.627   5.931
 3125SOL     OW10273   1.507   1.928   5.205
 3125SOL    HW110274   1.493   1.858   5.136
 3125SOL    HW210275   1.552   1.888   5.285
 3126SOL     OW10276   4.849   4.540   5.405
 3126SOL    HW110277   4.765   4.487   5.416
 3126SOL    HW210278   4.846   4.590   5.318
 3127SOL     OW10279   6.183   1.914   5.962
 3127SOL    HW110280   6.165   1.904   6.060
 3127SOL    HW210281   6.216   1.828   5.924
 3128SOL     OW10282   4.184   1.128   1.081
 3128SOL    HW110283   4.123   1.153   1.005
 3128SOL    HW210284   4.256   1.196   1.089
 3129SOL     OW10285   4.494   4.925   0.090
 3129SOL    HW110286   4.434   4.988   0.041
 3129SOL    HW210287   4.582   4.920   0.043
 3130SOL     OW10288   6.973   5.774   2.271
 3130SOL    HW110289   6.997   5.746   2.178
 3130SOL    HW210290   0.034   5.796   2.322
 3131SOL     OW10291   6.912   2.359   3.126
 3131SOL    HW110292   6.884   2.412   3.205
 3131SOL    HW210293   6.979   2.290   3.155
 3132SOL     OW10294   4.372   3.843   6.623
 3132SOL    HW110295   4.320   3.793   6.553
 3132SOL    HW210296   4.431   3.779   6.672
 3133SOL     OW10297   5.839   6.099   3.824
 3133SOL    HW110298   5.839   6.193   3.790
 3133SOL    HW210299   5.896   6.094   3.906
 3134SOL     OW10300   4.615   4.923   2.897
 3134SOL    HW110301   4.674   4.987   2.847
 3134SOL    HW210302   4.628   4.831   2.860
 3135SOL     OW10303   3.676   0.801   6.615
 3135SOL    HW110304   3.722   0.889   6.626
 3135SOL    HW210305   3.723   0.748   6.545
 3136SOL     OW10306   6.386   6.463   2.137
 3136SOL    HW110307   6.290   6.491   2.147
 3136SOL    HW210308   6.442   6.543   2.118
 3137SOL     OW10309   5.156   4.147   6.746
 3137SOL    HW110310   5.167   4.058   6.791
 3137SOL    HW210311   5.061   4.176   6.752
 3138SOL     OW10312   6.923   6.435   4.748
 3138SOL    HW110313   6.949   6.345   4.782
 3138SOL    HW210314   6.992   6.468   4.684
 3139SOL     OW10315   1.288   4.653   2.014
 3139SOL    HW110316   1.259   4.649   2.109
 3139SOL    HW210317   1.373   4.704   2.007
 3140SOL     OW10318   4.931   5.922   0.178
 3140SOL    HW110319   4.961   5.885   0.266
 3140SOL    HW210320   4.949   5.855   0.105
 3141SOL     OW10321   5.875   2.057   0.286
 3141SOL    HW110322   5.952   2.015   0.238
 3141SOL    HW210323   5.834   2.126   0.227
 3142SOL     OW10324   4.454   0.809   3.921
 3142SOL    HW110325   4.372   0.838   3.970
 3142SOL    HW210326   4.470   0.712   3.937
 3143SOL     OW10327   6.262   1.701   0.763
 3143SOL    HW110328   6.315   1.654   0.693
 3143SOL    HW210329   6.249   1.641   0.842
 3144SOL     OW10330   3.855   4.902   6.664
 3144SOL    HW110331   3.891   4.980   6.715
 3144SOL    HW210332   3.854   4.923   6.567
 3145SOL     OW10333   1.017   6.072   5.537
 3145SOL    HW110334   1.001   6.101   5.443
 3145SOL    HW210335   1.106   6.106   5.568
 3146SOL     OW10336   6.472   1.842   4.496
 3146SOL    HW110337   6.381   1.868   4.466
 3146SOL    HW210338   6.537   1.854   4.422
 3147SOL     OW10339   4.504   6.768   0.734
 3147SOL    HW110340   4.517   6.848   0.793
 3147SOL    HW210341   4.448   6.793   0.655
 3148SOL     OW10342   5.721   4.893   0.323
 3148SOL    HW110343   5.774   4.811   0.303
 3148SOL    HW210344   5.780   4.974   0.318
 3149SOL     OW10345   3.808   3.450   0.072
 3149SOL    HW110346   3.837   3.402   0.155
 3149SOL    HW210347   3.864   3.532   0.060
 3150SOL     OW10348   0.674   0.219   5.345
 3150SOL    HW110349   0.674   0.303   5.290
 3150SOL    HW210350   0.764   0.177   5.341
 3151SOL     OW10351   0.188   1.223   6.253
 3151SOL    HW110352   0.245   1.266   6.183
 3151SOL    HW210353   0.208   1.264   6.342
 3152SOL     OW10354   2.954   1.990   5.724
 3152SOL    HW110355   2.916   1.970   5.634
 3152SOL    HW210356   3.037   2.046   5.714
 3153SOL     OW10357   6.111   5.774   1.851
 3153SOL    HW110358   6.065   5.784   1.939
 3153SOL    HW210359   6.172   5.695   1.854
 3154SOL     OW10360   3.394   2.138   0.651
 3154SOL    HW110361   3.401   2.147   0.750
 3154SOL    HW210362   3.353   2.221   0.613
 3155SOL     OW10363   0.540   5.844   6.682
 3155SOL    HW110364   0.567   5.763   6.734
 3155SOL    HW210365   0.555   5.926   6.737
 3156SOL     OW10366   3.068   4.040   1.088
 3156SOL    HW110367   3.116   3.995   1.013
 3156SOL    HW210368   3.011   4.114   1.053
 3157SOL     OW10369   1.474   1.356   3.967
 3157SOL    HW110370   1.481   1.455   3.960
 3157SOL    HW210371   1.390   1.324   3.923
 3158SOL     OW10372   2.544   0.558   6.316
 3158SOL    HW110373   2.637   0.543   6.350
 3158SOL    HW210374   2.500   0.629   6.370
 3159SOL     OW10375   4.646   6.276   1.416
 3159SOL    HW110376   4.558   6.235   1.393
 3159SOL    HW210377   4.647   6.298   1.514
 3160SOL     OW10378   2.549   1.127   5.361
 3160SOL    HW110379   2.492   1.101   5.283
 3160SOL    HW210380   2.535   1.224   5.382
 3161SOL     OW10381   1.730   2.561   1.642
 3161SOL    HW110382   1.682   2.492   1.697
 3161SOL    HW210383   1.776   2.626   1.703
 3162SOL     OW10384   1.231   5.756   1.782
 3162SOL    HW110385   1.317   5.716   1.815
 3162SOL    HW210386   1.179   5.790   1.860
 3163SOL     OW10387   5.216   4.418   1.139
 3163SOL    HW110388   5.232   4.340   1.078
 3163SOL    HW210389   5.250   4.502   1.095
 3164SOL     OW10390   2.478   0.368   3.783
 3164SOL    HW110391   2.435   0.361   3.693
 3164SOL    HW210392   2.492   0.276   3.821
 3165SOL     OW10393   0.633   5.609   6.792
 3165SOL    HW110394   0.586   5.569   6.712
 3165SOL    HW210395   0.683   5.537   6.840
 3166SOL     OW10396   3.850   1.741   4.716
 3166SOL    HW110397   3.825   1.837   4.722
 3166SOL    HW210398   3.933   1.724   4.768
 3167SOL     OW10399   6.509   3.214   2.096
 3167SOL    HW110400   6.472   3.306   2.110
 3167SOL    HW210401   6.467   3.174   2.014
 3168SOL     OW10402   5.187   1.299   0.891
 3168SOL    HW110403   5.144   1.286   0.980
 3168SOL    HW210404   5.218   1.394   0.882
 3169SOL     OW10405   0.658   2.772   1.931
 3169SOL    HW110406   0.713   2.689   1.928
 3169SOL    HW210407   0.629   2.795   1.838
 3170SOL     OW10408   2.180   4.224   3.850
 3170SOL    HW110409   2.198   4.269   3.937
 3170SOL    HW210410   2.132   4.287   3.789
 3171SOL     OW10411   5.382   1.458   4.941
 3171SOL    HW110412   5.443   1.521   4.989
 3171SOL    HW210413   5.393   1.469   4.842
 3172SOL     OW10414   6.161   4.204   1.445
 3172SOL    HW110415   6.079   4.147   1.446
 3172SOL    HW210416   6.170   4.251   1.533
 3173SOL     OW10417   5.154   3.700   0.288
 3173SOL    HW110418   5.144   3.795   0.318
 3173SOL    HW210419   5.121   3.692   0.194
 3174SOL     OW10420   3.035   2.955   6.683
 3174SOL    HW110421   3.121   2.990   6.644
 3174SOL    HW210422   3.010   2.871   6.636
 3175SOL     OW10423   5.966   5.726   5.309
 3175SOL    HW110424   5.990   5.630   5.298
 3175SOL    HW210425   6.009   5.762   5.393
 3176SOL     OW10426   0.281   5.129   3.666
 3176SOL    HW110427   0.285   5.117   3.765
 3176SOL    HW210428   0.368   5.167   3.634
 3177SOL     OW10429   5.177   2.532   2.154
 3177SOL    HW110430   5.226   2.450   2.184
 3177SOL    HW210431   5.085   2.508   2.125
 3178SOL     OW10432   0.967   0.680   2.943
 3178SOL    HW110433   0.996   0.650   2.852
 3178SOL    HW210434   1.018   0.630   3.013
 3179SOL     OW10435   1.082   3.630   2.651
 3179SOL    HW110436   1.132   3.544   2.658
 3179SOL    HW210437   1.076   3.657   2.555
 3180SOL     OW10438   6.180   0.264   6.713
 3180SOL    HW110439   6.227   0.334   6.768
 3180SOL    HW210440   6.084   0.258   6.741
 3181SOL     OW10441   0.315   6.514   4.958
 3181SOL    HW110442   0.296   6.483   5.052
 3181SOL    HW210443   0.309   6.437   4.896
 3182SOL     OW10444   1.458   0.188   1.355
 3182SOL    HW110445   1.439   0.114   1.419
 3182SOL    HW210446   1.499   0.151   1.272
 3183SOL     OW10447   4.427   4.177   0.346
 3183SOL    HW110448   4.329   4.159   0.352
 3183SOL    HW210449   4.477   4.097   0.379
 3184SOL     OW10450   6.213   0.964   4.058
 3184SOL    HW110451   6.161   1.034   4.107
 3184SOL    HW210452   6.151   0.894   4.024
 3185SOL     OW10453   1.737   0.039   5.854
 3185SOL    HW110454   1.768   7.014   5.936
 3185SOL    HW210455   1.808   0.102   5.823
 3186SOL     OW10456   0.399   1.959   5.549
 3186SOL    HW110457   0.336   1.882   5.562
 3186SOL    HW210458   0.346   2.044   5.544
 3187SOL     OW10459   5.189   0.123   2.983
 3187SOL    HW110460   5.103   0.175   2.992
 3187SOL    HW210461   5.257   0.180   2.936
 3188SOL     OW10462   1.602   5.944   1.434
 3188SOL    HW110463   1.685   5.890   1.417
 3188SOL    HW210464   1.536   5.889   1.484
 3189SOL     OW10465   2.515   1.445   6.151
 3189SOL    HW110466   2.562   1.445   6.239
 3189SOL    HW210467   2.418   1.428   6.166
 3190SOL     OW10468   6.000   6.468   4.850
 3190SOL    HW110469   6.052   6.548   4.881
 3190SOL    HW210470   6.058   6.413   4.790
 3191SOL     OW10471   4.166   5.001   1.266
 3191SOL    HW110472   4.108   4.977   1.188
 3191SOL    HW210473   4.216   5.085   1.246
 3192SOL     OW10474   5.616   0.421   3.134
 3192SOL    HW110475   5.646   0.480   3.209
 3192SOL    HW210476   5.516   0.422   3.129
 3193SOL     OW10477   3.513   5.439   4.878
 3193SOL    HW110478   3.479   5.490   4.957
 3193SOL    HW210479   3.502   5.496   4.796
 3194SOL     OW10480   2.338   6.747   4.964
 3194SOL    HW110481   2.257   6.695   4.938
 3194SOL    HW210482   2.356   6.734   5.062
 3195SOL     OW10483   0.462   5.855   0.664
 3195SOL    HW110484   0.524   5.881   0.737
 3195SOL    HW210485   0.468   5.921   0.589
 3196SOL     OW10486   6.006   6.937   2.663
 3196SOL    HW110487   5.944   7.015   2.657
 3196SOL    HW210488   6.097   6.964   2.632
 3197SOL     OW10489   2.930   0.787   0.089
 3197SOL    HW110490   2.905   0.694   0.115
 3197SOL    HW210491   2.987   0.828   0.160
 3198SOL     OW10492   5.128   3.830   3.647
 3198SOL    HW110493   5.074   3.832   3.731
 3198SOL    HW210494   5.218   3.791   3.667
 3199SOL     OW10495   4.927   3.583   3.661
 3199SOL    HW110496   4.938   3.496   3.709
 3199SOL    HW210497   4.930   3.658   3.726
 3200SOL     OW10498   6.050   3.462   4.876
 3200SOL    HW110499   6.063   3.370   4.911
 3200SOL    HW210500   5.968   3.503   4.916
 3201SOL     OW10501   6.549   3.497   2.632
 3201SOL    HW110502   6.501   3.563   2.690
 3201SOL    HW210503   6.626   3.542   2.587
 3202SOL     OW10504   2.883   2.495   6.308
 3202SOL    HW110505   2.881   2.465   6.213
 3202SOL    HW210506   2.947   2.571   6.318
 3203SOL     OW10507   3.397   6.600   1.723
 3203SOL    HW110508   3.376   6.671   1.656
 3203SOL    HW210509   3.496   6.585   1.725
 3204SOL     OW10510   4.911   0.721   3.885
 3204SOL    HW110511   4.847   0.775   3.830
 3204SOL    HW210512   5.005   0.745   3.860
 3205SOL     OW10513   4.639   3.037   0.026
 3205SOL    HW110514   4.652   3.003   0.119
 3205SOL    HW210515   4.720   3.018   6.994
 3206SOL     OW10516   3.006   4.812   0.458
 3206SOL    HW110517   2.911   4.839   0.438
 3206SOL    HW210518   3.061   4.819   0.374
 3207SOL     OW10519   1.950   6.502   3.540
 3207SOL    HW110520   2.009   6.450   3.602
 3207SOL    HW210521   1.985   6.596   3.534
 3208SOL     OW10522   6.961   3.963   6.934
 3208SOL    HW110523   0.036   3.986   6.931
 3208SOL    HW210524   6.950   3.869   6.968
 3209SOL     OW10525   4.931   0.057   5.410
 3209SOL    HW110526   4.962   0.152   5.412
 3209SOL    HW210527   4.837   0.052   5.443
 3210SOL     OW10528   5.251   5.026   2.057
 3210SOL    HW110529   5.271   5.047   2.153
 3210SOL    HW210530   5.215   4.933   2.050
 3211SOL     OW10531   2.605   6.569   6.861
 3211SOL    HW110532   2.601   6.523   6.772
 3211SOL    HW210533   2.512   6.587   6.893
 3212SOL     OW10534   3.314   6.765   4.391
 3212SOL    HW110535   3.290   6.668   4.386
 3212SOL    HW210536   3.367   6.782   4.474
 3213SOL     OW10537   1.752   0.358   5.785
 3213SOL    HW110538   1.663   0.380   5.826
 3213SOL    HW210539   1.825   0.376   5.852
 3214SOL     OW10540   3.048   0.527   2.723
 3214SOL    HW110541   3.121   0.592   2.744
 3214SOL    HW210542   2.965   0.577   2.697
 3215SOL     OW10543   2.187   3.080   1.879
 3215SOL    HW110544   2.104   3.026   1.865
 3215SOL    HW210545   2.169   3.175   1.853
 3216SOL     OW10546   6.041   4.689   0.443
 3216SOL    HW110547   6.140   4.700   0.440
 3216SOL    HW210548   6.004   4.688   0.350
 3217SOL     OW10549   6.507   6.532   3.305
 3217SOL    HW110550   6.497   6.511   3.403
 3217SOL    HW210551   6.431   6.492   3.254
 3218SOL     OW10552   5.815   1.195   3.425
 3218SOL    HW110553   5.887   1.142   3.381
 3218SOL    HW210554   5.856   1.273   3.473
 3219SOL     OW10555   5.364   2.123   4.262
 3219SOL    HW110556   5.304   2.133   4.182
 3219SOL    HW210557   5.332   2.047   4.318
 3220SOL     OW10558   6.909   3.607   5.532
 3220SOL    HW110559   6.942   3.701   5.534
 3220SOL    HW210560   6.911   3.573   5.438
 3221SOL     OW10561   3.947   1.088   2.244
 3221SOL    HW110562   4.012   1.158   2.217
 3221SOL    HW210563   3.865   1.132   2.283
 3222SOL     OW10564   2.967   0.861   3.864
 3222SOL    HW110565   2.970   0.929   3.937
 3222SOL    HW210566   2.878   0.866   3.818
 3223SOL     OW10567   1.691   5.809   0.702
 3223SOL    HW110568   1.749   5.787   0.780
 3223SOL    HW210569   1.747   5.850   0.630
 3224SOL     OW10570   4.500   2.513   4.101
 3224SOL    HW110571   4.422   2.501   4.163
 3224SOL    HW210572   4.473   2.491   4.008
 3225SOL     OW10573   4.501   1.428   4.644
 3225SOL    HW110574   4.463   1.521   4.651
 3225SOL    HW210575   4.469   1.385   4.560
 3226SOL     OW10576   5.902   1.000   0.640
 3226SOL    HW110577   5.805   0.985   0.625
 3226SOL    HW210578   5.950   0.999   0.553
 3227SOL     OW10579   5.883   4.454   5.821
 3227SOL    HW110580   5.825   4.425   5.897
 3227SOL    HW210581   5.836   4.434   5.735
 3228SOL     OW10582   2.096   4.447   0.554
 3228SOL    HW110583   2.084   4.409   0.646
 3228SOL    HW210584   2.185   4.493   0.548
 3229SOL     OW10585   1.269   1.383   1.301
 3229SOL    HW110586   1.175   1.351   1.296
 3229SOL    HW210587   1.331   1.313   1.265
 3230SOL     OW10588   3.237   6.473   4.986
 3230SOL    HW110589   3.142   6.483   5.015
 3230SOL    HW210590   3.240   6.416   4.904
 3231SOL     OW10591   2.569   2.497   2.628
 3231SOL    HW110592   2.565   2.526   2.724
 3231SOL    HW210593   2.480   2.511   2.585
 3232SOL     OW10594   2.789   4.713   3.343
 3232SOL    HW110595   2.718   4.753   3.285
 3232SOL    HW210596   2.750   4.641   3.400
 3233SOL     OW10597   2.757   0.292   6.181
 3233SOL    HW110598   2.716   0.216   6.232
 3233SOL    HW210599   2.832   0.332   6.235
 3234SOL     OW10600   3.461   3.727   0.878
 3234SOL    HW110601   3.452   3.679   0.966
 3234SOL    HW210602   3.552   3.768   0.872
 3235SOL     OW10603   0.157   1.648   2.724
 3235SOL    HW110604   0.096   1.575   2.756
 3235SOL    HW210605   0.105   1.713   2.668
 3236SOL     OW10606   5.626   0.167   0.349
 3236SOL    HW110607   5.544   0.215   0.316
 3236SOL    HW210608   5.632   0.176   0.448
 3237SOL     OW10609   6.069   1.116   5.600
 3237SOL    HW110610   6.035   1.196   5.551
 3237SOL    HW210611   6.039   1.032   5.554
 3238SOL     OW10612   0.145   5.226   0.773
 3238SOL    HW110613   0.191   5.281   0.703
 3238SOL    HW210614   0.056   5.196   0.739
 3239SOL     OW10615   6.309   0.366   5.017
 3239SOL    HW110616   6.405   0.344   5.035
 3239SOL    HW210617   6.263   0.285   4.979
 3240SOL     OW10618   1.120   1.912   1.856
 3240SOL    HW110619   1.043   1.935   1.795
 3240SOL    HW210620   1.150   1.818   1.837
 3241SOL     OW10621   0.197   2.716   5.862
 3241SOL    HW110622   0.149   2.680   5.942
 3241SOL    HW210623   0.242   2.802   5.885
 3242SOL     OW10624   6.847   4.872   5.326
 3242SOL    HW110625   6.792   4.817   5.388
 3242SOL    HW210626   6.860   4.823   5.240
 3243SOL     OW10627   5.946   5.629   4.411
 3243SOL    HW110628   6.002   5.665   4.336
 3243SOL    HW210629   5.856   5.672   4.409
 3244SOL     OW10630   4.633   0.058   6.757
 3244SOL    HW110631   4.536   0.067   6.781
 3244SOL    HW210632   4.642   7.018   6.680
 3245SOL     OW10633   2.806   5.928   4.201
 3245SOL    HW110634   2.744   5.965   4.132
 3245SOL    HW210635   2.862   5.856   4.161
 3246SOL     OW10636   6.596   5.623   3.265
 3246SOL    HW110637   6.548   5.549   3.217
 3246SOL    HW210638   6.687   5.591   3.292
 3247SOL     OW10639   2.028   4.230   4.112
 3247SOL    HW110640   1.995   4.291   4.041
 3247SOL    HW210641   2.008   4.269   4.202
 3248SOL     OW10642   6.195   2.698   3.200
 3248SOL    HW110643   6.272   2.690   3.136
 3248SOL    HW210644   6.208   2.779   3.257
 3249SOL     OW10645   4.027   3.891   4.532
 3249SOL    HW110646   3.928   3.901   4.541
 3249SOL    HW210647   4.072   3.938   4.608
 3250SOL     OW10648   4.716   6.053   3.627
 3250SOL    HW110649   4.630   6.074   3.580
 3250SOL    HW210650   4.793   6.085   3.572
 3251SOL     OW10651   2.568   2.001   2.533
 3251SOL    HW110652   2.472   2.003   2.560
 3251SOL    HW210653   2.606   2.093   2.539
 3252SOL     OW10654   1.867   1.713   2.618
 3252SOL    HW110655   1.833   1.669   2.534
 3252SOL    HW210656   1.789   1.751   2.668
 3253SOL     OW10657   6.695   4.045   0.898
 3253SOL    HW110658   6.656   4.136   0.908
 3253SOL    HW210659   6.791   4.046   0.924
 3254SOL     OW10660   6.020   6.781   0.517
 3254SOL    HW110661   5.933   6.829   0.510
 3254SOL    HW210662   6.076   6.824   0.589
 3255SOL     OW10663   3.520   5.283   2.654
 3255SOL    HW110664   3.462   5.249   2.580
 3255SOL    HW210665   3.530   5.212   2.724
 3256SOL     OW10666   5.711   2.558   1.575
 3256SOL    HW110667   5.617   2.583   1.551
 3256SOL    HW210668   5.762   2.536   1.493
 3257SOL     OW10669   2.225   1.180   3.142
 3257SOL    HW110670   2.155   1.247   3.170
 3257SOL    HW210671   2.315   1.222   3.150
 3258SOL     OW10672   0.759   5.259   3.763
 3258SOL    HW110673   0.773   5.234   3.859
 3258SOL    HW210674   0.806   5.345   3.744
 3259SOL     OW10675   5.805   5.322   3.948
 3259SOL    HW110676   5.795   5.223   3.949
 3259SOL    HW210677   5.872   5.350   4.016
 3260SOL     OW10678   1.621   4.312   3.568
 3260SOL    HW110679   1.672   4.379   3.513
 3260SOL    HW210680   1.685   4.249   3.612
 3261SOL     OW10681   6.196   6.567   3.966
 3261SOL    HW110682   6.245   6.642   4.010
 3261SOL    HW210683   6.215   6.482   4.014
 3262SOL     OW10684   2.994   2.147   3.036
 3262SOL    HW110685   2.954   2.166   2.947
 3262SOL    HW210686   3.080   2.197   3.045
 3263SOL     OW10687   5.821   0.141   1.753
 3263SOL    HW110688   5.785   0.072   1.816
 3263SOL    HW210689   5.905   0.106   1.711
 3264SOL     OW10690   0.969   4.670   6.344
 3264SOL    HW110691   0.905   4.746   6.356
 3264SOL    HW210692   1.014   4.678   6.255
 3265SOL     OW10693   0.211   6.116   5.993
 3265SOL    HW110694   0.213   6.036   6.053
 3265SOL    HW210695   0.214   6.087   5.897
 3266SOL     OW10696   3.448   4.641   6.178
 3266SOL    HW110697   3.368   4.607   6.227
 3266SOL    HW210698   3.432   4.634   6.079
 3267SOL     OW10699   3.348   0.306   1.007
 3267SOL    HW110700   3.375   0.287   1.102
 3267SOL    HW210701   3.430   0.320   0.952
 3268SOL     OW10702   5.197   4.513   2.053
 3268SOL    HW110703   5.107   4.475   2.073
 3268SOL    HW210704   5.199   4.546   1.958
 3269SOL     OW10705   2.298   4.946   1.287
 3269SOL    HW110706   2.302   4.915   1.382
 3269SOL    HW210707   2.210   4.992   1.271
 3270SOL     OW10708   1.652   3.351   6.327
 3270SOL    HW110709   1.660   3.391   6.236
 3270SOL    HW210710   1.698   3.262   6.328
 3271SOL     OW10711   1.012   3.442   1.300
 3271SOL    HW110712   1.081   3.486   1.357
 3271SOL    HW210713   1.033   3.458   1.203
 3272SOL     OW10714   3.933   0.157   1.087
 3272SOL    HW110715   3.975   0.084   1.032
 3272SOL    HW210716   4.004   0.205   1.137
 3273SOL     OW10717   4.082   3.974   6.787
 3273SOL    HW110718   4.065   4.013   6.878
 3273SOL    HW210719   4.153   3.904   6.794
 3274SOL     OW10720   4.244   0.300   1.880
 3274SOL    HW110721   4.285   0.317   1.791
 3274SOL    HW210722   4.172   0.231   1.871
 3275SOL     OW10723   5.532   0.705   2.013
 3275SOL    HW110724   5.455   0.651   2.047
 3275SOL    HW210725   5.502   0.799   1.996
 3276SOL     OW10726   5.651   5.348   0.323
 3276SOL    HW110727   5.624   5.308   0.236
 3276SOL    HW210728   5.571   5.389   0.367
 3277SOL     OW10729   3.390   1.325   2.513
 3277SOL    HW110730   3.291   1.336   2.523
 3277SOL    HW210731   3.434   1.414   2.520
 3278SOL     OW10732   5.166   1.722   6.678
 3278SOL    HW110733   5.167   1.821   6.666
 3278SOL    HW210734   5.090   1.684   6.624
 3279SOL     OW10735   4.257   0.515   2.277
 3279SOL    HW110736   4.188   0.576   2.316
 3279SOL    HW210737   4.328   0.498   2.345
 3280SOL     OW10738   6.887   2.820   4.094
 3280SOL    HW110739   6.974   2.803   4.139
 3280SOL    HW210740   6.824   2.745   4.115
 3281SOL     OW10741   5.842   2.433   1.909
 3281SOL    HW110742   5.768   2.415   1.974
 3281SOL    HW210743   5.815   2.507   1.847
 3282SOL     OW10744   6.106   4.262   5.008
 3282SOL    HW110745   6.120   4.290   5.103
 3282SOL    HW210746   6.178   4.198   4.981
 3283SOL     OW10747   2.881   1.545   0.595
 3283SOL    HW110748   2.787   1.577   0.605
 3283SOL    HW210749   2.935   1.615   0.547
 3284SOL     OW10750   2.324   0.620   5.194
 3284SOL    HW110751   2.353   0.645   5.287
 3284SOL    HW210752   2.397   0.645   5.130
 3285SOL     OW10753   3.793   2.110   3.913
 3285SOL    HW110754   3.832   2.019   3.905
 3285SOL    HW210755   3.699   2.103   3.947
 3286SOL     OW10756   1.401   3.528   3.054
 3286SOL    HW110757   1.420   3.572   3.141
 3286SOL    HW210758   1.452   3.442   3.048
 3287SOL     OW10759   2.474   1.192   0.366
 3287SOL    HW110760   2.384   1.235   0.359
 3287SOL    HW210761   2.464   1.093   0.375
 3288SOL     OW10762   3.152   5.480   1.958
 3288SOL    HW110763   3.177   5.478   1.861
 3288SOL    HW210764   3.149   5.386   1.993
 3289SOL     OW10765   4.852   0.648   7.001
 3289SOL    HW110766   4.883   0.586   0.050
 3289SOL    HW210767   4.756   0.629   6.981
 3290SOL     OW10768   0.737   5.220   6.757
 3290SOL    HW110769   0.647   5.244   6.720
 3290SOL    HW210770   0.756   5.124   6.736
 3291SOL     OW10771   5.089   6.180   5.712
 3291SOL    HW110772   5.157   6.146   5.778
 3291SOL    HW210773   5.122   6.265   5.671
 3292SOL     OW10774   0.278   3.373   0.519
 3292SOL    HW110775   0.289   3.276   0.537
 3292SOL    HW210776   0.211   3.386   0.446
 3293SOL     OW10777   6.670   4.438   2.614
 3293SOL    HW110778   6.655   4.493   2.532
 3293SOL    HW210779   6.640   4.490   2.695
 3294SOL     OW10780   3.950   2.766   5.456
 3294SOL    HW110781   3.950   2.830   5.533
 3294SOL    HW210782   4.038   2.721   5.450
 3295SOL     OW10783   1.424   3.118   3.464
 3295SOL    HW110784   1.352   3.051   3.449
 3295SOL    HW210785   1.384   3.206   3.490
 3296SOL     OW10786   2.378   0.677   6.904
 3296SOL    HW110787   2.371   0.757   6.964
 3296SOL    HW210788   2.319   0.604   6.939
 3297SOL     OW10789   3.552   0.533   5.819
 3297SOL    HW110790   3.519   0.448   5.859
 3297SOL    HW210791   3.616   0.577   5.882
 3298SOL     OW10792   3.747   4.240   6.124
 3298SOL    HW110793   3.727   4.149   6.161
 3298SOL    HW210794   3.800   4.293   6.191
 3299SOL     OW10795   2.319   6.948   4.380
 3299SOL    HW110796   2.278   7.000   4.306
 3299SOL    HW210797   2.256   6.942   4.457
 3300SOL     OW10798   1.635   1.297   3.479
 3300SOL    HW110799   1.562   1.329   3.418
 3300SOL    HW210800   1.624   1.340   3.569
 3301SOL     OW10801   1.403   1.133   2.269
 3301SOL    HW110802   1.426   1.223   2.306
 3301SOL    HW210803   1.407   1.065   2.342
 3302SOL     OW10804   1.347   4.525   5.133
 3302SOL    HW110805   1.289   4.445   5.118
 3302SOL    HW210806   1.424   4.522   5.069
 3303SOL     OW10807   4.067   3.686   0.523
 3303SOL    HW110808   4.133   3.755   0.553
 3303SOL    HW210809   4.006   3.663   0.599
 3304SOL     OW10810   2.343   3.604   0.999
 3304SOL    HW110811   2.373   3.665   1.072
 3304SOL    HW210812   2.245   3.617   0.983
 3305SOL     OW10813   3.037   2.807   6.944
 3305SOL    HW110814   2.994   2.890   6.908
 3305SOL    HW210815   3.132   2.826   6.968
 3306SOL     OW10816   2.742   0.514   1.108
 3306SOL    HW110817   2.694   0.510   1.020
 3306SOL    HW210818   2.674   0.515   1.182
 3307SOL     OW10819   2.338   5.723   4.831
 3307SOL    HW110820   2.242   5.724   4.860
 3307SOL    HW210821   2.342   5.719   4.731
 3308SOL     OW10822   4.587   5.501   1.059
 3308SOL    HW110823   4.623   5.508   1.152
 3308SOL    HW210824   4.659   5.527   0.993
 3309SOL     OW10825   5.710   3.724   3.847
 3309SOL    HW110826   5.719   3.769   3.936
 3309SOL    HW210827   5.663   3.785   3.783
 3310SOL     OW10828   6.605   4.510   6.464
 3310SOL    HW110829   6.639   4.595   6.423
 3310SOL    HW210830   6.678   4.441   6.461
 3311SOL     OW10831   2.155   2.556   0.019
 3311SOL    HW110832   2.158   2.617   6.963
 3311SOL    HW210833   2.214   2.592   0.091
 3312SOL     OW10834   4.861   3.611   0.529
 3312SOL    HW110835   4.887   3.515   0.515
 3312SOL    HW210836   4.773   3.614   0.577
 3313SOL     OW10837   0.547   6.997   3.841
 3313SOL    HW110838   0.512   0.005   3.930
 3313SOL    HW210839   0.568   6.899   3.845
 3314SOL     OW10840   3.290   6.298   3.462
 3314SOL    HW110841   3.347   6.216   3.463
 3314SOL    HW210842   3.326   6.363   3.394
 3315SOL     OW10843   1.002   6.644   4.031
 3315SOL    HW110844   1.032   6.737   4.050
 3315SOL    HW210845   0.908   6.644   3.998
 3316SOL     OW10846   3.338   1.914   0.443
 3316SOL    HW110847   3.388   1.906   0.357
 3316SOL    HW210848   3.397   1.955   0.513
 3317SOL     OW10849   5.780   2.544   1.292
 3317SOL    HW110850   5.804   2.519   1.198
 3317SOL    HW210851   5.863   2.567   1.343
 3318SOL     OW10852   3.942   3.265   0.672
 3318SOL    HW110853   3.936   3.268   0.771
 3318SOL    HW210854   3.978   3.175   0.644
 3319SOL     OW10855   6.702   6.577   4.023
 3319SOL    HW110856   6.735   6.527   3.944
 3319SOL    HW210857   6.630   6.524   4.068
 3320SOL     OW10858   6.299   0.267   2.116
 3320SOL    HW110859   6.363   0.235   2.186
 3320SOL    HW210860   6.345   0.332   2.056
 3321SOL     OW10861   4.634   1.976   6.825
 3321SOL    HW110862   4.658   2.034   6.903
 3321SOL    HW210863   4.683   1.889   6.831
 3322SOL     OW10864   5.935   3.528   1.270
 3322SOL    HW110865   6.021   3.532   1.320
 3322SOL    HW210866   5.864   3.490   1.328
 3323SOL     OW10867   1.499   0.971   2.063
 3323SOL    HW110868   1.546   0.909   2.126
 3323SOL    HW210869   1.448   1.039   2.115
 3324SOL     OW10870   6.186   5.127   5.664
 3324SOL    HW110871   6.271   5.160   5.623
 3324SOL    HW210872   6.136   5.205   5.702
 3325SOL     OW10873   2.997   5.468   5.888
 3325SOL    HW110874   2.932   5.454   5.814
 3325SOL    HW210875   3.060   5.390   5.892
 3326SOL     OW10876   3.592   1.972   2.052
 3326SOL    HW110877   3.637   1.908   1.989
 3326SOL    HW210878   3.628   2.064   2.036
 3327SOL     OW10879   1.879   6.125   5.935
 3327SOL    HW110880   1.899   6.116   5.837
 3327SOL    HW210881   1.960   6.101   5.988
 3328SOL     OW10882   4.612   3.042   5.325
 3328SOL    HW110883   4.637   3.138   5.319
 3328SOL    HW210884   4.689   2.990   5.363
 3329SOL     OW10885   0.044   6.398   5.786
 3329SOL    HW110886   0.058   6.493   5.812
 3329SOL    HW210887   0.005   6.347   5.863
 3330SOL     OW10888   6.849   2.499   2.920
 3330SOL    HW110889   6.887   2.450   2.998
 3330SOL    HW210890   6.834   2.434   2.845
 3331SOL     OW10891   1.846   2.855   0.535
 3331SOL    HW110892   1.916   2.784   0.533
 3331SOL    HW210893   1.775   2.834   0.467
 3332SOL     OW10894   0.416   3.962   1.786
 3332SOL    HW110895   0.380   4.049   1.820
 3332SOL    HW210896   0.446   3.906   1.863
 3333SOL     OW10897   3.196   6.172   5.462
 3333SOL    HW110898   3.202   6.217   5.373
 3333SOL    HW210899   3.276   6.113   5.476
 3334SOL     OW10900   1.395   2.955   1.216
 3334SOL    HW110901   1.377   2.863   1.180
 3334SOL    HW210902   1.453   2.949   1.297
 3335SOL     OW10903   5.422   4.550   4.506
 3335SOL    HW110904   5.417   4.477   4.575
 3335SOL    HW210905   5.512   4.593   4.510
 3336SOL     OW10906   3.610   6.522   5.647
 3336SOL    HW110907   3.638   6.482   5.560
 3336SOL    HW210908   3.593   6.619   5.635
 3337SOL     OW10909   3.776   1.700   0.659
 3337SOL    HW110910   3.794   1.701   0.757
 3337SOL    HW210911   3.731   1.614   0.634
 3338SOL     OW10912   6.769   5.116   6.913
 3338SOL    HW110913   6.716   5.134   6.995
 3338SOL    HW210914   6.740   5.178   6.840
 3339SOL     OW10915   0.763   4.841   6.304
 3339SOL    HW110916   0.774   4.937   6.331
 3339SOL    HW210917   0.753   4.836   6.205
 3340SOL     OW10918   4.047   0.284   1.589
 3340SOL    HW110919   4.007   0.331   1.668
 3340SOL    HW210920   4.065   0.350   1.516
 3341SOL     OW10921   0.968   0.298   0.455
 3341SOL    HW110922   0.949   0.200   0.462
 3341SOL    HW210923   0.906   0.348   0.516
 3342SOL     OW10924   2.425   0.101   5.280
 3342SOL    HW110925   2.485   0.124   5.203
 3342SOL    HW210926   2.333   0.135   5.260
 3343SOL     OW10927   0.013   2.377   1.354
 3343SOL    HW110928   0.056   2.290   1.330
 3343SOL    HW210929   0.058   2.451   1.304
 3344SOL     OW10930   1.343   2.643   6.185
 3344SOL    HW110931   1.385   2.644   6.276
 3344SOL    HW210932   1.262   2.585   6.186
 3345SOL     OW10933   2.841   3.334   5.730
 3345SOL    HW110934   2.746   3.343   5.697
 3345SOL    HW210935   2.847   3.258   5.794
 3346SOL     OW10936   2.008   6.068   2.424
 3346SOL    HW110937   1.991   5.978   2.384
 3346SOL    HW210938   2.085   6.111   2.376
 3347SOL     OW10939   5.980   3.817   3.692
 3347SOL    HW110940   5.900   3.757   3.699
 3347SOL    HW210941   6.001   3.854   3.782
 3348SOL     OW10942   3.333   3.927   3.207
 3348SOL    HW110943   3.345   3.857   3.278
 3348SOL    HW210944   3.354   4.017   3.244
 3349SOL     OW10945   4.975   2.795   6.934
 3349SOL    HW110946   5.043   2.862   6.904
 3349SOL    HW210947   4.883   2.831   6.916
 3350SOL     OW10948   2.200   2.726   1.302
 3350SOL    HW110949   2.222   2.655   1.369
 3350SOL    HW210950   2.199   2.815   1.346
 3351SOL     OW10951   5.964   2.934   0.487
 3351SOL    HW110952   5.948   3.002   0.559
 3351SOL    HW210953   5.910   2.852   0.506
 3352SOL     OW10954   6.923   3.428   0.036
 3352SOL    HW110955   6.835   3.383   0.018
 3352SOL    HW210956   6.989   3.361   0.069
 3353SOL     OW10957   1.505   6.497   6.175
 3353SOL    HW110958   1.427   6.456   6.127
 3353SOL    HW210959   1.481   6.510   6.271
 3354SOL     OW10960   0.789   0.432   1.898
 3354SOL    HW110961   0.870   0.385   1.863
 3354SOL    HW210962   0.765   0.394   1.988
 3355SOL     OW10963   6.180   0.824   2.628
 3355SOL    HW110964   6.190   0.915   2.668
 3355SOL    HW210965   6.124   0.767   2.689
 3356SOL     OW10966   1.348   3.981   6.624
 3356SOL    HW110967   1.335   3.895   6.575
 3356SOL    HW210968   1.350   3.962   6.723
 3357SOL     OW10969   2.600   5.510   2.430
 3357SOL    HW110970   2.615   5.474   2.522
 3357SOL    HW210971   2.546   5.444   2.377
 3358SOL     OW10972   6.771   3.975   3.235
 3358SOL    HW110973   6.752   4.072   3.221
 3358SOL    HW210974   6.690   3.930   3.272
 3359SOL     OW10975   2.218   1.654   1.678
 3359SOL    HW110976   2.222   1.658   1.578
 3359SOL    HW210977   2.160   1.577   1.706
 3360SOL     OW10978   2.747   0.787   6.035
 3360SOL    HW110979   2.799   0.838   6.103
 3360SOL    HW210980   2.676   0.733   6.080
 3361SOL     OW10981   2.957   1.130   3.142
 3361SOL    HW110982   2.858   1.140   3.137
 3361SOL    HW210983   2.985   1.116   3.237
 3362SOL     OW10984   2.970   1.715   4.633
 3362SOL    HW110985   3.021   1.743   4.715
 3362SOL    HW210986   2.920   1.631   4.651
 3363SOL     OW10987   6.575   0.755   6.924
 3363SOL    HW110988   6.660   0.717   6.961
 3363SOL    HW210989   6.498   0.725   6.980
 3364SOL     OW10990   2.108   5.400   5.268
 3364SOL    HW110991   2.055   5.335   5.214
 3364SOL    HW210992   2.177   5.443   5.210
 3365SOL     OW10993   6.382   2.877   5.208
 3365SOL    HW110994   6.480   2.885   5.191
 3365SOL    HW210995   6.340   2.824   5.135
 3366SOL     OW10996   5.557   0.820   0.155
 3366SOL    HW110997   5.459   0.802   0.153
 3366SOL    HW210998   5.607   0.736   0.133
 3367SOL     OW10999   1.961   0.035   2.686
 3367SOL    HW111000   2.054   0.004   2.709
 3367SOL    HW211001   1.931   7.013   2.602
 3368SOL     OW11002   6.462   1.388   4.685
 3368SOL    HW111003   6.453   1.301   4.637
 3368SOL    HW211004   6.384   1.400   4.746
 3369SOL     OW11005   3.606   5.689   6.526
 3369SOL    HW111006   3.690   5.741   6.543
 3369SOL    HW211007   3.555   5.732   6.451
 3370SOL     OW11008   5.971   0.272   5.060
 3370SOL    HW111009   5.935   0.193   5.109
 3370SOL    HW211010   6.055   0.246   5.013
 3371SOL     OW11011   7.012   4.877   1.245
 3371SOL    HW111012   0.070   4.935   1.238
 3371SOL    HW211013   6.933   4.931   1.275
 3372SOL     OW11014   1.316   2.382   2.918
 3372SOL    HW111015   1.344   2.411   3.009
 3372SOL    HW211016   1.224   2.342   2.922
 3373SOL     OW11017   0.801   2.787   6.606
 3373SOL    HW111018   0.701   2.788   6.616
 3373SOL    HW211019   0.825   2.781   6.509
 3374SOL     OW11020   3.656   6.386   5.095
 3374SOL    HW111021   3.643   6.287   5.100
 3374SOL    HW211022   3.587   6.426   5.033
 3375SOL     OW11023   3.540   3.900   4.844
 3375SOL    HW111024   3.517   3.995   4.822
 3375SOL    HW211025   3.532   3.844   4.761
 3376SOL     OW11026   3.294   3.390   1.781
 3376SOL    HW111027   3.251   3.479   1.765
 3376SOL    HW211028   3.278   3.361   1.875
 3377SOL     OW11029   3.218   5.577   5.542
 3377SOL    HW111030   3.140   5.533   5.499
 3377SOL    HW211031   3.298   5.570   5.482
 3378SOL     OW11032   0.289   1.139   0.580
 3378SOL    HW111033   0.269   1.229   0.618
 3378SOL    HW211034   0.220   1.114   0.512
 3379SOL     OW11035   5.898   5.261   5.223
 3379SOL    HW111036   5.968   5.207   5.269
 3379SOL    HW211037   5.869   5.213   5.140
 3380SOL     OW11038   0.551   3.629   5.539
 3380SOL    HW111039   0.545   3.708   5.600
 3380SOL    HW211040   0.647   3.608   5.521
 3381SOL     OW11041   3.309   2.486   1.632
 3381SOL    HW111042   3.252   2.554   1.677
 3381SOL    HW211043   3.406   2.506   1.651
 3382SOL     OW11044   0.254   6.465   0.539
 3382SOL    HW111045   0.323   6.532   0.512
 3382SOL    HW211046   0.173   6.512   0.575
 3383SOL     OW11047   0.749   3.669   1.340
 3383SOL    HW111048   0.823   3.684   1.406
 3383SOL    HW211049   0.663   3.659   1.390
 3384SOL     OW11050   3.182   3.320   4.084
 3384SOL    HW111051   3.278   3.346   4.088
 3384SOL    HW211052   3.174   3.229   4.044
 3385SOL     OW11053   0.019   4.037   4.224
 3385SOL    HW111054   0.087   3.967   4.202
 3385SOL    HW211055   6.962   4.025   4.165
 3386SOL     OW11056   5.722   4.372   4.398
 3386SOL    HW111057   5.733   4.276   4.376
 3386SOL    HW211058   5.789   4.426   4.347
 3387SOL     OW11059   3.287   1.842   2.633
 3387SOL    HW111060   3.252   1.829   2.726
 3387SOL    HW211061   3.378   1.883   2.637
 3388SOL     OW11062   5.423   2.132   1.486
 3388SOL    HW111063   5.464   2.175   1.406
 3388SOL    HW211064   5.362   2.197   1.531
 3389SOL     OW11065   4.327   5.674   2.839
 3389SOL    HW111066   4.401   5.714   2.785
 3389SOL    HW211067   4.252   5.741   2.847
 3390SOL     OW11068   4.613   1.426   5.313
 3390SOL    HW111069   4.626   1.454   5.218
 3390SOL    HW211070   4.638   1.329   5.323
 3391SOL     OW11071   3.535   2.132   4.048
 3391SOL    HW111072   3.502   2.152   4.141
 3391SOL    HW211073   3.457   2.125   3.986
 3392SOL     OW11074   5.249   6.112   3.307
 3392SOL    HW111075   5.301   6.194   3.331
 3392SOL    HW211076   5.311   6.036   3.289
 3393SOL     OW11077   0.255   0.183   6.820
 3393SOL    HW111078   0.260   0.221   6.728
 3393SOL    HW211079   0.238   0.256   6.886
 3394SOL     OW11080   5.737   1.205   2.546
 3394SOL    HW111081   5.643   1.171   2.542
 3394SOL    HW211082   5.737   1.294   2.591
 3395SOL     OW11083   1.486   3.707   4.900
 3395SOL    HW111084   1.392   3.737   4.910
 3395SOL    HW211085   1.508   3.639   4.970
 3396SOL     OW11086   6.529   3.672   4.151
 3396SOL    HW111087   6.461   3.720   4.095
 3396SOL    HW211088   6.501   3.577   4.163
 3397SOL     OW11089   3.781   5.525   6.314
 3397SOL    HW111090   3.771   5.549   6.217
 3397SOL    HW211091   3.697   5.550   6.363
 3398SOL     OW11092   0.496   0.987   3.285
 3398SOL    HW111093   0.591   0.990   3.314
 3398SOL    HW211094   0.463   1.081   3.270
 3399SOL     OW11095   4.470   5.887   4.616
 3399SOL    HW111096   4.388   5.835   4.640
 3399SOL    HW211097   4.536   5.827   4.572
 3400SOL     OW11098   5.088   2.586   0.421
 3400SOL    HW111099   5.098   2.505   0.479
 3400SOL    HW211100   5.127   2.569   0.331
 3401SOL     OW11101   0.160   4.411   6.293
 3401SOL    HW111102   0.103   4.374   6.219
 3401SOL    HW211103   0.250   4.434   6.256
 3402SOL     OW11104   5.323   5.093   2.322
 3402SOL    HW111105   5.371   5.180   2.328
 3402SOL    HW211106   5.371   5.025   2.378
 3403SOL     OW11107   3.623   1.353   5.425
 3403SOL    HW111108   3.573   1.439   5.436
 3403SOL    HW211109   3.621   1.325   5.330
 3404SOL     OW11110   4.671   6.375   1.695
 3404SOL    HW111111   4.672   6.302   1.764
 3404SOL    HW211112   4.741   6.443   1.719
 3405SOL     OW11113   6.265   4.656   6.938
 3405SOL    HW111114   6.286   4.753   6.925
 3405SOL    HW211115   6.290   4.629   0.008
 3406SOL     OW11116   1.290   3.900   1.651
 3406SOL    HW111117   1.257   3.975   1.594
 3406SOL    HW211118   1.220   3.876   1.718
 3407SOL     OW11119   1.223   5.057   2.530
 3407SOL    HW111120   1.281   4.993   2.479
 3407SOL    HW211121   1.270   5.082   2.615
 3408SOL     OW11122   5.325   3.343   2.906
 3408SOL    HW111123   5.391   3.414   2.931
 3408SOL    HW211124   5.300   3.290   2.987
 3409SOL     OW11125   2.875   0.859   6.290
 3409SOL    HW111126   2.835   0.945   6.322
 3409SOL    HW211127   2.968   0.875   6.259
 3410SOL     OW11128   0.043   2.158   0.315
 3410SOL    HW111129   0.046   2.167   0.216
 3410SOL    HW211130   6.995   2.219   0.352
 3411SOL     OW11131   4.395   2.074   2.548
 3411SOL    HW111132   4.307   2.037   2.579
 3411SOL    HW211133   4.458   1.999   2.529
 3412SOL     OW11134   4.754   5.755   6.810
 3412SOL    HW111135   4.839   5.760   6.862
 3412SOL    HW211136   4.697   5.680   6.845
 3413SOL     OW11137   5.160   1.275   2.557
 3413SOL    HW111138   5.093   1.299   2.487
 3413SOL    HW211139   5.125   1.302   2.647
 3414SOL     OW11140   3.914   0.495   5.677
 3414SOL    HW111141   4.003   0.451   5.667
 3414SOL    HW211142   3.925   0.580   5.728
 3415SOL     OW11143   1.009   5.162   4.227
 3415SOL    HW111144   0.955   5.237   4.189
 3415SOL    HW211145   1.068   5.197   4.300
 3416SOL     OW11146   2.185   4.577   5.892
 3416SOL    HW111147   2.143   4.642   5.829
 3416SOL    HW211148   2.114   4.519   5.932
 3417SOL     OW11149   5.202   0.789   1.254
 3417SOL    HW111150   5.116   0.774   1.302
 3417SOL    HW211151   5.188   0.777   1.155
 3418SOL     OW11152   3.185   3.024   6.445
 3418SOL    HW111153   3.118   2.997   6.377
 3418SOL    HW211154   3.161   3.114   6.482
 3419SOL     OW11155   4.885   3.442   6.406
 3419SOL    HW111156   4.828   3.389   6.468
 3419SOL    HW211157   4.959   3.385   6.371
 3420SOL     OW11158   4.177   1.725   4.303
 3420SOL    HW111159   4.110   1.683   4.364
 3420SOL    HW211160   4.129   1.769   4.227
 3421SOL     OW11161   0.272   6.274   2.501
 3421SOL    HW111162   0.334   6.199   2.526
 3421SOL    HW211163   0.179   6.238   2.490
 3422SOL     OW11164   3.089   2.111   2.664
 3422SOL    HW111165   3.166   2.144   2.719
 3422SOL    HW211166   3.111   2.121   2.567
 3423SOL     OW11167   3.261   0.581   1.624
 3423SOL    HW111168   3.249   0.483   1.636
 3423SOL    HW211169   3.175   0.628   1.645
 3424SOL     OW11170   4.077   1.227   1.463
 3424SOL    HW111171   4.088   1.129   1.478
 3424SOL    HW211172   3.994   1.259   1.509
 3425SOL     OW11173   4.035   3.928   1.652
 3425SOL    HW111174   4.035   3.908   1.554
 3425SOL    HW211175   4.117   3.889   1.694
 3426SOL     OW11176   4.718   4.103   1.017
 3426SOL    HW111177   4.799   4.121   1.073
 3426SOL    HW211178   4.747   4.088   0.922
 3427SOL     OW11179   0.834   1.776   0.977
 3427SOL    HW111180   0.870   1.684   0.963
 3427SOL    HW211181   0.752   1.789   0.921
 3428SOL     OW11182   4.249   4.968   3.323
 3428SOL    HW111183   4.344   4.984   3.351
 3428SOL    HW211184   4.209   5.053   3.290
 3429SOL     OW11185   0.523   3.061   0.517
 3429SOL    HW111186   0.575   3.140   0.487
 3429SOL    HW211187   0.575   3.011   0.586
 3430SOL     OW11188   1.324   5.274   6.379
 3430SOL    HW111189   1.280   5.346   6.433
 3430SOL    HW211190   1.266   5.193   6.378
 3431SOL     OW11191   1.710   6.066   6.838
 3431SOL    HW111192   1.802   6.075   6.799
 3431SOL    HW211193   1.704   6.121   6.921
 3432SOL     OW11194   3.459   1.617   6.669
 3432SOL    HW111195   3.371   1.635   6.712
 3432SOL    HW211196   3.484   1.521   6.683
 3433SOL     OW11197   5.153   0.960   4.540
 3433SOL    HW111198   5.248   0.930   4.546
 3433SOL    HW211199   5.095   0.883   4.513
 3434SOL     OW11200   4.227   1.786   3.402
 3434SOL    HW111201   4.299   1.844   3.364
 3434SOL    HW211202   4.252   1.757   3.494
 3435SOL     OW11203   0.946   1.515   0.379
 3435SOL    HW111204   0.954   1.416   0.385
 3435SOL    HW211205   1.022   1.552   0.324
 3436SOL     OW11206   4.543   6.839   2.661
 3436SOL    HW111207   4.543   6.878   2.569
 3436SOL    HW211208   4.474   6.884   2.717
 3437SOL     OW11209   4.400   0.625   6.471
 3437SOL    HW111210   4.416   0.658   6.378
 3437SOL    HW211211   4.476   0.653   6.530
 3438SOL     OW11212   1.073   5.630   6.312
 3438SOL    HW111213   1.074   5.725   6.341
 3438SOL    HW211214   0.979   5.597   6.310
 3439SOL     OW11215   2.555   0.164   3.961
 3439SOL    HW111216   2.551   0.247   4.018
 3439SOL    HW211217   2.639   0.114   3.981
 3440SOL     OW11218   3.095   2.050   0.407
 3440SOL    HW111219   3.187   2.013   0.421
 3440SOL    HW211220   3.102   2.148   0.389
 3441SOL     OW11221   4.940   0.513   4.174
 3441SOL    HW111222   5.036   0.493   4.152
 3441SOL    HW211223   4.884   0.497   4.093
 3442SOL     OW11224   1.173   5.078   2.977
 3442SOL    HW111225   1.174   5.085   3.077
 3442SOL    HW211226   1.230   5.151   2.939
 3443SOL     OW11227   6.070   6.507   4.410
 3443SOL    HW111228   6.012   6.542   4.484
 3443SOL    HW211229   6.019   6.441   4.356
 3444SOL     OW11230   4.268   5.223   0.171
 3444SOL    HW111231   4.312   5.138   0.200
 3444SOL    HW211232   4.175   5.226   0.207
 3445SOL     OW11233   5.600   5.155   4.863
 3445SOL    HW111234   5.503   5.179   4.869
 3445SOL    HW211235   5.619   5.120   4.771
 3446SOL     OW11236   2.851   6.521   2.267
 3446SOL    HW111237   2.864   6.425   2.293
 3446SOL    HW211238   2.754   6.544   2.272
 3447SOL     OW11239   6.374   4.871   5.313
 3447SOL    HW111240   6.404   4.925   5.234
 3447SOL    HW211241   6.274   4.862   5.310
 3448SOL     OW11242   3.718   3.463   0.578
 3448SOL    HW111243   3.759   3.401   0.644
 3448SOL    HW211244   3.777   3.542   0.565
 3449SOL     OW11245   6.942   6.235   2.810
 3449SOL    HW111246   7.006   6.310   2.829
 3449SOL    HW211247   6.937   6.175   2.890
 3450SOL     OW11248   0.952   2.031   1.665
 3450SOL    HW111249   0.886   2.077   1.605
 3450SOL    HW211250   0.964   1.936   1.634
 3451SOL     OW11251   1.611   4.341   4.360
 3451SOL    HW111252   1.659   4.385   4.436
 3451SOL    HW211253   1.566   4.411   4.305
 3452SOL     OW11254   6.777   2.026   0.655
 3452SOL    HW111255   6.725   1.943   0.633
 3452SOL    HW211256   6.726   2.106   0.623
 3453SOL     OW11257   5.532   6.032   5.414
 3453SOL    HW111258   5.475   6.015   5.333
 3453SOL    HW211259   5.628   6.028   5.388
 3454SOL     OW11260   0.812   1.001   0.784
 3454SOL    HW111261   0.740   1.070   0.794
 3454SOL    HW211262   0.895   1.044   0.749
 3455SOL     OW11263   1.647   2.910   3.933
 3455SOL    HW111264   1.733   2.868   3.905
 3455SOL    HW211265   1.596   2.939   3.853
 3456SOL     OW11266   6.891   0.186   0.507
 3456SOL    HW111267   6.935   0.236   0.433
 3456SOL    HW211268   6.956   0.122   0.548
 3457SOL     OW11269   2.116   6.331   3.683
 3457SOL    HW111270   2.101   6.233   3.669
 3457SOL    HW211271   2.212   6.353   3.669
 3458SOL     OW11272   5.327   4.922   0.471
 3458SOL    HW111273   5.402   4.967   0.520
 3458SOL    HW211274   5.353   4.909   0.375
 3459SOL     OW11275   6.178   6.737   3.094
 3459SOL    HW111276   6.255   6.744   3.031
 3459SOL    HW211277   6.121   6.659   3.068
 3460SOL     OW11278   4.004   2.593   6.790
 3460SOL    HW111279   3.991   2.494   6.793
 3460SOL    HW211280   4.090   2.617   6.834
 3461SOL     OW11281   2.494   5.665   2.736
 3461SOL    HW111282   2.488   5.683   2.834
 3461SOL    HW211283   2.544   5.580   2.720
 3462SOL     OW11284   5.231   2.809   2.523
 3462SOL    HW111285   5.150   2.752   2.533
 3462SOL    HW211286   5.224   2.889   2.582
 3463SOL     OW11287   1.333   3.324   1.328
 3463SOL    HW111288   1.405   3.256   1.314
 3463SOL    HW211289   1.320   3.377   1.244
 3464SOL     OW11290   5.119   1.848   5.704
 3464SOL    HW111291   5.212   1.866   5.735
 3464SOL    HW211292   5.094   1.913   5.632
 3465SOL     OW11293   1.867   4.890   1.564
 3465SOL    HW111294   1.932   4.818   1.539
 3465SOL    HW211295   1.884   4.919   1.658
 3466SOL     OW11296   6.117   4.109   4.230
 3466SOL    HW111297   6.139   4.114   4.328
 3466SOL    HW211298   6.198   4.130   4.177
 3467SOL     OW11299   3.655   2.736   0.928
 3467SOL    HW111300   3.648   2.793   0.846
 3467SOL    HW211301   3.595   2.657   0.920
 3468SOL     OW11302   3.689   1.594   1.181
 3468SOL    HW111303   3.720   1.517   1.236
 3468SOL    HW211304   3.706   1.680   1.230
 3469SOL     OW11305   4.111   5.383   4.952
 3469SOL    HW111306   4.011   5.391   4.955
 3469SOL    HW211307   4.144   5.348   5.040
 3470SOL     OW11308   1.085   2.211   2.562
 3470SOL    HW111309   1.037   2.149   2.625
 3470SOL    HW211310   1.077   2.176   2.469
 3471SOL     OW11311   4.769   2.912   4.910
 3471SOL    HW111312   4.817   2.928   4.824
 3471SOL    HW211313   4.768   2.997   4.964
 3472SOL     OW11314   4.737   2.016   2.773
 3472SOL    HW111315   4.766   2.001   2.678
 3472SOL    HW211316   4.783   2.096   2.810
 3473SOL     OW11317   6.106   5.039   1.867
 3473SOL    HW111318   6.018   4.991   1.859
 3473SOL    HW211319   6.172   4.998   1.804
 3474SOL     OW11320   4.685   4.714   3.808
 3474SOL    HW111321   4.735   4.748   3.888
 3474SOL    HW211322   4.748   4.663   3.749
 3475SOL     OW11323   0.025   4.281   4.376
 3475SOL    HW111324   0.018   4.201   4.315
 3475SOL    HW211325   0.121   4.304   4.389
 3476SOL     OW11326   1.931   1.678   3.123
 3476SOL    HW111327   1.974   1.698   3.211
 3476SOL    HW211328   1.843   1.726   3.117
 3477SOL     OW11329   0.992   3.829   1.791
 3477SOL    HW111330   0.928   3.801   1.720
 3477SOL    HW211331   0.996   3.929   1.796
 3478SOL     OW11332   2.244   0.548   0.873
 3478SOL    HW111333   2.159   0.498   0.855
 3478SOL    HW211334   2.224   0.645   0.883
 3479SOL     OW11335   0.689   4.352   5.346
 3479SOL    HW111336   0.749   4.329   5.423
 3479SOL    HW211337   0.714   4.297   5.267
 3480SOL     OW11338   1.654   4.704   6.212
 3480SOL    HW111339   1.599   4.734   6.291
 3480SOL    HW211340   1.662   4.605   6.213
 3481SOL     OW11341   6.029   0.403   4.757
 3481SOL    HW111342   6.073   0.441   4.839
 3481SOL    HW211343   6.080   0.322   4.727
 3482SOL     OW11344   6.304   3.721   6.593
 3482SOL    HW111345   6.296   3.636   6.645
 3482SOL    HW211346   6.213   3.749   6.562
 3483SOL     OW11347   5.501   2.645   5.227
 3483SOL    HW111348   5.422   2.628   5.287
 3483SOL    HW211349   5.481   2.722   5.167
 3484SOL     OW11350   1.027   3.349   4.788
 3484SOL    HW111351   1.021   3.289   4.709
 3484SOL    HW211352   0.970   3.430   4.772
 3485SOL     OW11353   0.315   3.220   6.893
 3485SOL    HW111354   0.251   3.164   6.840
 3485SOL    HW211355   0.356   3.164   6.965
 3486SOL     OW11356   1.791   6.475   5.586
 3486SOL    HW111357   1.754   6.533   5.514
 3486SOL    HW211358   1.849   6.404   5.546
 3487SOL     OW11359   4.487   1.529   7.020
 3487SOL    HW111360   4.487   1.510   6.921
 3487SOL    HW211361   4.430   1.609   0.016
 3488SOL     OW11362   5.692   6.529   5.097
 3488SOL    HW111363   5.755   6.595   5.138
 3488SOL    HW211364   5.615   6.577   5.056
 3489SOL     OW11365   3.294   5.687   0.825
 3489SOL    HW111366   3.221   5.704   0.758
 3489SOL    HW211367   3.310   5.588   0.832
 3490SOL     OW11368   3.654   6.463   0.866
 3490SOL    HW111369   3.670   6.526   0.790
 3490SOL    HW211370   3.657   6.513   0.952
 3491SOL     OW11371   4.350   4.655   5.962
 3491SOL    HW111372   4.390   4.601   6.037
 3491SOL    HW211373   4.348   4.599   5.879
 3492SOL     OW11374   5.863   4.105   3.303
 3492SOL    HW111375   5.913   4.189   3.283
 3492SOL    HW211376   5.887   4.073   3.395
 3493SOL     OW11377   6.718   3.176   5.799
 3493SOL    HW111378   6.756   3.094   5.755
 3493SOL    HW211379   6.748   3.257   5.748
 3494SOL     OW11380   3.767   1.618   1.918
 3494SOL    HW111381   3.705   1.687   1.881
 3494SOL    HW211382   3.803   1.648   2.006
 3495SOL     OW11383   1.390   3.851   3.208
 3495SOL    HW111384   1.432   3.914   3.273
 3495SOL    HW211385   1.403   3.757   3.239
 3496SOL     OW11386   6.413   5.062   1.336
 3496SOL    HW111387   6.338   4.996   1.342
 3496SOL    HW211388   6.414   5.120   1.418
 3497SOL     OW11389   3.272   0.176   1.923
 3497SOL    HW111390   3.237   0.160   2.015
 3497SOL    HW211391   3.363   0.218   1.928
 3498SOL     OW11392   2.247   2.574   1.530
 3498SOL    HW111393   2.278   2.479   1.534
 3498SOL    HW211394   2.322   2.635   1.557
 3499SOL     OW11395   5.853   6.659   4.592
 3499SOL    HW111396   5.806   6.654   4.680
 3499SOL    HW211397   5.786   6.679   4.520
 3500SOL     OW11398   2.720   2.398   3.997
 3500SOL    HW111399   2.755   2.378   3.905
 3500SOL    HW211400   2.796   2.393   4.062
 3501SOL     OW11401   1.368   6.979   6.074
 3501SOL    HW111402   1.294   7.020   6.020
 3501SOL    HW211403   1.382   6.884   6.046
 3502SOL     OW11404   4.549   2.296   2.399
 3502SOL    HW111405   4.480   2.227   2.422
 3502SOL    HW211406   4.581   2.340   2.483
 3503SOL     OW11407   0.162   6.044   6.473
 3503SOL    HW111408   0.205   5.953   6.477
 3503SOL    HW211409   0.124   6.059   6.382
 3504SOL     OW11410   1.832   0.763   0.070
 3504SOL    HW111411   1.846   0.730   6.999
 3504SOL    HW211412   1.861   0.858   0.076
 3505SOL     OW11413   4.664   3.408   5.787
 3505SOL    HW111414   4.693   3.361   5.703
 3505SOL    HW211415   4.674   3.506   5.775
 3506SOL     OW11416   4.365   4.820   5.050
 3506SOL    HW111417   4.398   4.812   5.144
 3506SOL    HW211418   4.359   4.729   5.009
 3507SOL     OW11419   3.374   1.005   0.648
 3507SOL    HW111420   3.299   0.968   0.703
 3507SOL    HW211421   3.429   0.930   0.611
 3508SOL     OW11422   3.395   1.539   5.448
 3508SOL    HW111423   3.342   1.616   5.483
 3508SOL    HW211424   3.357   1.510   5.360
 3509SOL     OW11425   4.169   5.668   6.447
 3509SOL    HW111426   4.136   5.637   6.537
 3509SOL    HW211427   4.224   5.751   6.459
 3510SOL     OW11428   2.688   1.960   1.340
 3510SOL    HW111429   2.724   1.899   1.410
 3510SOL    HW211430   2.677   2.052   1.378
 3511SOL     OW11431   2.734   4.351   1.649
 3511SOL    HW111432   2.766   4.256   1.641
 3511SOL    HW211433   2.788   4.399   1.718
 3512SOL     OW11434   6.865   5.202   5.611
 3512SOL    HW111435   6.963   5.183   5.606
 3512SOL    HW211436   6.823   5.143   5.680
 3513SOL     OW11437   5.672   2.139   0.936
 3513SOL    HW111438   5.742   2.210   0.924
 3513SOL    HW211439   5.678   2.073   0.861
 3514SOL     OW11440   3.149   1.825   1.703
 3514SOL    HW111441   3.114   1.746   1.753
 3514SOL    HW211442   3.076   1.891   1.688
 3515SOL     OW11443   0.183   4.877   4.569
 3515SOL    HW111444   0.092   4.870   4.527
 3515SOL    HW211445   0.173   4.876   4.669
 3516SOL     OW11446   4.886   0.415   0.998
 3516SOL    HW111447   4.907   0.385   0.905
 3516SOL    HW211448   4.787   0.416   1.011
 3517SOL     OW11449   5.110   0.501   1.531
 3517SOL    HW111450   5.055   0.574   1.490
 3517SOL    HW211451   5.157   0.537   1.612
 3518SOL     OW11452   5.385   0.827   5.026
 3518SOL    HW111453   5.480   0.817   4.997
 3518SOL    HW211454   5.357   0.922   5.017
 3519SOL     OW11455   3.108   1.282   1.072
 3519SOL    HW111456   3.162   1.319   1.148
 3519SOL    HW211457   3.140   1.322   0.986
 3520SOL     OW11458   2.688   5.917   4.432
 3520SOL    HW111459   2.647   5.826   4.437
 3520SOL    HW211460   2.747   5.922   4.351
 3521SOL     OW11461   2.740   2.986   6.503
 3521SOL    HW111462   2.643   3.006   6.492
 3521SOL    HW211463   2.781   2.965   6.414
 3522SOL     OW11464   0.779   6.336   6.461
 3522SOL    HW111465   0.809   6.349   6.556
 3522SOL    HW211466   0.840   6.386   6.400
 3523SOL     OW11467   3.463   6.472   0.142
 3523SOL    HW111468   3.378   6.461   0.193
 3523SOL    HW211469   3.463   6.561   0.096
 3524SOL     OW11470   4.766   1.159   4.062
 3524SOL    HW111471   4.805   1.109   4.139
 3524SOL    HW211472   4.708   1.097   4.008
 3525SOL     OW11473   0.066   3.004   3.312
 3525SOL    HW111474   0.115   3.079   3.355
 3525SOL    HW211475   0.117   2.971   3.233
 3526SOL     OW11476   0.534   6.658   1.982
 3526SOL    HW111477   0.473   6.601   2.037
 3526SOL    HW211478   0.611   6.688   2.038
 3527SOL     OW11479   6.898   3.262   6.591
 3527SOL    HW111480   6.849   3.217   6.665
 3527SOL    HW211481   6.968   3.322   6.630
 3528SOL     OW11482   2.307   5.254   4.460
 3528SOL    HW111483   2.368   5.333   4.468
 3528SOL    HW211484   2.360   5.174   4.434
 3529SOL     OW11485   4.001   4.977   0.725
 3529SOL    HW111486   4.014   4.899   0.664
 3529SOL    HW211487   3.968   4.945   0.814
 3530SOL     OW11488   6.255   6.888   0.706
 3530SOL    HW111489   6.320   6.816   0.729
 3530SOL    HW211490   6.216   6.925   0.791
 3531SOL     OW11491   4.581   2.366   0.376
 3531SOL    HW111492   4.557   2.403   0.286
 3531SOL    HW211493   4.635   2.282   0.364
 3532SOL     OW11494   1.622   0.803   1.682
 3532SOL    HW111495   1.678   0.724   1.708
 3532SOL    HW211496   1.648   0.882   1.737
 3533SOL     OW11497   0.958   1.730   3.499
 3533SOL    HW111498   0.894   1.757   3.427
 3533SOL    HW211499   1.014   1.809   3.525
 3534SOL     OW11500   0.406   0.682   0.949
 3534SOL    HW111501   0.478   0.668   0.881
 3534SOL    HW211502   0.328   0.728   0.906
 3535SOL     OW11503   3.450   6.082   4.278
 3535SOL    HW111504   3.396   6.134   4.344
 3535SOL    HW211505   3.421   6.105   4.185
 3536SOL     OW11506   3.879   1.805   3.057
 3536SOL    HW111507   3.942   1.733   3.086
 3536SOL    HW211508   3.787   1.767   3.048
 3537SOL     OW11509   1.640   0.081   3.610
 3537SOL    HW111510   1.711   0.070   3.541
 3537SOL    HW211511   1.617   7.015   3.650
 3538SOL     OW11512   2.782   5.309   2.198
 3538SOL    HW111513   2.790   5.210   2.200
 3538SOL    HW211514   2.701   5.335   2.145
 3539SOL     OW11515   3.519   3.888   4.527
 3539SOL    HW111516   3.452   3.962   4.523
 3539SOL    HW211517   3.604   3.918   4.482
 3540SOL     OW11518   1.388   2.320   3.823
 3540SOL    HW111519   1.414   2.310   3.919
 3540SOL    HW211520   1.444   2.259   3.767
 3541SOL     OW11521   4.044   3.494   4.457
 3541SOL    HW111522   4.098   3.495   4.541
 3541SOL    HW211523   4.059   3.407   4.409
 3542SOL     OW11524   6.449   5.289   1.033
 3542SOL    HW111525   6.486   5.327   1.117
 3542SOL    HW211526   6.392   5.209   1.054
 3543SOL     OW11527   5.306   2.514   4.471
 3543SOL    HW111528   5.231   2.568   4.510
 3543SOL    HW211529   5.282   2.486   4.378
 3544SOL     OW11530   2.583   6.764   0.246
 3544SOL    HW111531   2.611   6.829   0.316
 3544SOL    HW211532   2.499   6.718   0.276
 3545SOL     OW11533   3.314   4.887   0.698
 3545SOL    HW111534   3.383   4.893   0.770
 3545SOL    HW211535   3.251   4.964   0.706
 3546SOL     OW11536   0.238   4.675   2.249
 3546SOL    HW111537   0.145   4.703   2.224
 3546SOL    HW211538   0.301   4.750   2.232
 3547SOL     OW11539   5.284   4.643   4.294
 3547SOL    HW111540   5.336   4.612   4.374
 3547SOL    HW211541   5.346   4.673   4.223
 3548SOL     OW11542   5.168   3.670   5.842
 3548SOL    HW111543   5.235   3.707   5.778
 3548SOL    HW211544   5.077   3.700   5.816
 3549SOL     OW11545   4.954   3.446   2.602
 3549SOL    HW111546   4.953   3.376   2.530
 3549SOL    HW211547   4.918   3.532   2.566
 3550SOL     OW11548   4.748   1.383   3.498
 3550SOL    HW111549   4.747   1.373   3.597
 3550SOL    HW211550   4.750   1.480   3.473
 3551SOL     OW11551   2.456   6.326   2.746
 3551SOL    HW111552   2.472   6.289   2.837
 3551SOL    HW211553   2.358   6.343   2.733
 3552SOL     OW11554   6.764   4.655   2.863
 3552SOL    HW111555   6.668   4.631   2.879
 3552SOL    HW211556   6.818   4.626   2.943
 3553SOL     OW11557   5.855   1.809   3.412
 3553SOL    HW111558   5.920   1.738   3.384
 3553SOL    HW211559   5.906   1.893   3.433
 3554SOL     OW11560   4.339   5.677   0.105
 3554SOL    HW111561   4.352   5.578   0.104
 3554SOL    HW211562   4.243   5.699   0.090
 3555SOL     OW11563   0.961   2.282   3.578
 3555SOL    HW111564   0.895   2.221   3.535
 3555SOL    HW211565   1.054   2.253   3.554
 3556SOL     OW11566   4.176   1.475   6.615
 3556SOL    HW111567   4.150   1.522   6.700
 3556SOL    HW211568   4.181   1.541   6.540
 3557SOL     OW11569   1.002   0.321   4.297
 3557SOL    HW111570   1.067   0.250   4.322
 3557SOL    HW211571   0.989   0.384   4.373
 3558SOL     OW11572   0.338   6.565   1.472
 3558SOL    HW111573   0.368   6.614   1.553
 3558SOL    HW211574   0.258   6.612   1.433
 3559SOL     OW11575   1.318   0.454   5.729
 3559SOL    HW111576   1.374   0.449   5.812
 3559SOL    HW211577   1.301   0.361   5.696
 3560SOL     OW11578   6.868   6.705   1.492
 3560SOL    HW111579   6.785   6.650   1.484
 3560SOL    HW211580   6.901   6.702   1.586
 3561SOL     OW11581   4.974   4.408   3.784
 3561SOL    HW111582   4.927   4.474   3.725
 3561SOL    HW211583   4.907   4.365   3.845
 3562SOL     OW11584   3.896   2.125   2.933
 3562SOL    HW111585   3.891   2.148   3.030
 3562SOL    HW211586   3.966   2.056   2.919
 3563SOL     OW11587   4.877   6.533   1.517
 3563SOL    HW111588   4.878   6.609   1.452
 3563SOL    HW211589   4.812   6.553   1.590
 3564SOL     OW11590   6.756   4.251   3.139
 3564SOL    HW111591   6.661   4.282   3.133
 3564SOL    HW211592   6.817   4.327   3.115
 3565SOL     OW11593   1.693   1.135   5.234
 3565SOL    HW111594   1.716   1.150   5.137
 3565SOL    HW211595   1.685   1.037   5.251
 3566SOL     OW11596   0.955   4.342   5.768
 3566SOL    HW111597   0.856   4.335   5.779
 3566SOL    HW211598   0.993   4.250   5.756
 3567SOL     OW11599   0.002   2.441   1.611
 3567SOL    HW111600   0.015   2.430   1.512
 3567SOL    HW211601   0.041   2.528   1.640
 3568SOL     OW11602   4.687   4.275   3.606
 3568SOL    HW111603   4.633   4.354   3.575
 3568SOL    HW211604   4.700   4.280   3.705
 3569SOL     OW11605   3.990   3.619   3.591
 3569SOL    HW111606   3.997   3.669   3.678
 3569SOL    HW211607   4.022   3.525   3.604
 3570SOL     OW11608   0.195   2.001   5.097
 3570SOL    HW111609   0.101   2.025   5.121
 3570SOL    HW211610   0.228   1.930   5.160
 3571SOL     OW11611   2.569   6.828   4.283
 3571SOL    HW111612   2.657   6.875   4.293
 3571SOL    HW211613   2.498   6.878   4.331
 3572SOL     OW11614   5.122   4.108   2.314
 3572SOL    HW111615   5.057   4.136   2.385
 3572SOL    HW211616   5.213   4.097   2.354
 3573SOL     OW11617   0.047   4.498   3.671
 3573SOL    HW111618   0.105   4.570   3.707
 3573SOL    HW211619   0.100   4.414   3.659
 3574SOL     OW11620   2.158   1.793   5.788
 3574SOL    HW111621   2.124   1.706   5.824
 3574SOL    HW211622   2.222   1.833   5.854
 3575SOL     OW11623   5.100   0.481   6.427
 3575SOL    HW111624   5.103   0.426   6.510
 3575SOL    HW211625   5.134   0.573   6.447
 3576SOL     OW11626   1.107   2.870   0.633
 3576SOL    HW111627   1.158   2.946   0.593
 3576SOL    HW211628   1.035   2.841   0.569
 3577SOL     OW11629   1.291   3.081   4.776
 3577SOL    HW111630   1.309   3.134   4.858
 3577SOL    HW211631   1.361   3.010   4.766
 3578SOL     OW11632   3.891   2.971   0.166
 3578SOL    HW111633   3.964   3.003   0.225
 3578SOL    HW211634   3.893   3.020   0.079
 3579SOL     OW11635   1.455   3.730   1.520
 3579SOL    HW111636   1.391   3.784   1.575
 3579SOL    HW211637   1.459   3.768   1.428
 3580SOL     OW11638   7.012   3.826   2.085
 3580SOL    HW111639   6.913   3.812   2.085
 3580SOL    HW211640   0.017   3.864   2.173
 3581SOL     OW11641   1.728   0.763   2.555
 3581SOL    HW111642   1.662   0.688   2.567
 3581SOL    HW211643   1.792   0.763   2.632
 3582SOL     OW11644   4.141   5.912   6.726
 3582SOL    HW111645   4.072   5.866   6.783
 3582SOL    HW211646   4.188   5.844   6.670
 3583SOL     OW11647   1.812   5.728   1.341
 3583SOL    HW111648   1.846   5.821   1.327
 3583SOL    HW211649   1.809   5.708   1.439
 3584SOL     OW11650   6.036   5.035   4.903
 3584SOL    HW111651   6.000   4.951   4.943
 3584SOL    HW211652   6.115   5.066   4.956
 3585SOL     OW11653   3.450   2.029   3.720
 3585SOL    HW111654   3.364   2.069   3.755
 3585SOL    HW211655   3.434   1.991   3.629
 3586SOL     OW11656   6.584   2.352   5.576
 3586SOL    HW111657   6.648   2.331   5.502
 3586SOL    HW211658   6.525   2.273   5.592
 3587SOL     OW11659   2.983   0.663   5.906
 3587SOL    HW111660   2.889   0.694   5.917
 3587SOL    HW211661   3.026   0.654   5.996
 3588SOL     OW11662   5.506   4.472   4.116
 3588SOL    HW111663   5.602   4.451   4.100
 3588SOL    HW211664   5.486   4.565   4.087
 3589SOL     OW11665   0.898   0.733   6.162
 3589SOL    HW111666   0.917   0.829   6.181
 3589SOL    HW211667   0.888   0.683   6.249
 3590SOL     OW11668   6.214   5.136   5.074
 3590SOL    HW111669   6.284   5.206   5.059
 3590SOL    HW211670   6.194   5.130   5.172
 3591SOL     OW11671   4.751   1.855   0.724
 3591SOL    HW111672   4.799   1.931   0.680
 3591SOL    HW211673   4.688   1.813   0.658
 3592SOL     OW11674   1.297   6.034   1.114
 3592SOL    HW111675   1.372   6.067   1.056
 3592SOL    HW211676   1.320   6.047   1.210
 3593SOL     OW11677   4.077   3.129   6.055
 3593SOL    HW111678   4.048   3.224   6.046
 3593SOL    HW211679   4.107   3.112   6.149
 3594SOL     OW11680   4.554   4.600   5.155
 3594SOL    HW111681   4.503   4.637   5.233
 3594SOL    HW211682   4.495   4.536   5.105
 3595SOL     OW11683   4.820   6.582   4.597
 3595SOL    HW111684   4.794   6.490   4.568
 3595SOL    HW211685   4.814   6.589   4.697
 3596SOL     OW11686   3.690   2.098   2.292
 3596SOL    HW111687   3.646   2.029   2.235
 3596SOL    HW211688   3.624   2.168   2.318
 3597SOL     OW11689   3.764   4.263   5.285
 3597SOL    HW111690   3.810   4.273   5.374
 3597SOL    HW211691   3.832   4.250   5.213
 3598SOL     OW11692   6.971   5.915   4.983
 3598SOL    HW111693   6.913   5.875   4.912
 3598SOL    HW211694   6.920   5.987   5.031
 3599SOL     OW11695   2.562   1.315   5.021
 3599SOL    HW111696   2.481   1.306   4.963
 3599SOL    HW211697   2.624   1.238   5.005
 3600SOL     OW11698   2.928   4.146   0.418
 3600SOL    HW111699   2.929   4.171   0.515
 3600SOL    HW211700   2.943   4.228   0.362
 3601SOL     OW11701   3.953   0.678   5.486
 3601SOL    HW111702   3.952   0.620   5.568
 3601SOL    HW211703   4.002   0.763   5.506
 3602SOL     OW11704   1.556   2.514   1.131
 3602SOL    HW111705   1.528   2.418   1.128
 3602SOL    HW211706   1.579   2.539   1.225
 3603SOL     OW11707   1.977   0.293   6.023
 3603SOL    HW111708   2.058   0.235   6.029
 3603SOL    HW211709   1.897   0.242   6.054
 3604SOL     OW11710   6.627   0.805   3.410
 3604SOL    HW111711   6.685   0.776   3.487
 3604SOL    HW211712   6.532   0.806   3.439
 3605SOL     OW11713   1.314   0.371   5.095
 3605SOL    HW111714   1.379   0.300   5.067
 3605SOL    HW211715   1.315   0.446   5.028
 3606SOL     OW11716   2.455   6.749   2.817
 3606SOL    HW111717   2.543   6.728   2.861
 3606SOL    HW211718   2.392   6.784   2.886
 3607SOL     OW11719   6.288   1.014   3.681
 3607SOL    HW111720   6.300   1.088   3.748
 3607SOL    HW211721   6.198   1.023   3.637
 3608SOL     OW11722   3.664   1.642   5.696
 3608SOL    HW111723   3.678   1.544   5.679
 3608SOL    HW211724   3.746   1.681   5.736
 3609SOL     OW11725   3.225   6.994   5.148
 3609SOL    HW111726   3.183   0.049   5.195
 3609SOL    HW211727   3.251   7.022   5.055
 3610SOL     OW11728   1.904   0.451   5.581
 3610SOL    HW111729   1.833   0.416   5.642
 3610SOL    HW211730   1.987   0.397   5.592
 3611SOL     OW11731   5.403   4.052   3.391
 3611SOL    HW111732   5.360   3.989   3.327
 3611SOL    HW211733   5.388   4.020   3.485
 3612SOL     OW11734   4.886   1.716   0.328
 3612SOL    HW111735   4.936   1.682   0.408
 3612SOL    HW211736   4.942   1.701   0.246
 3613SOL     OW11737   3.667   0.183   2.714
 3613SOL    HW111738   3.710   0.096   2.738
 3613SOL    HW211739   3.737   0.248   2.687
 3614SOL     OW11740   3.868   5.558   0.198
 3614SOL    HW111741   3.848   5.643   0.248
 3614SOL    HW211742   3.807   5.485   0.231
 3615SOL     OW11743   5.370   2.994   5.171
 3615SOL    HW111744   5.451   2.992   5.113
 3615SOL    HW211745   5.335   2.901   5.184
 3616SOL     OW11746   1.476   1.800   0.796
 3616SOL    HW111747   1.505   1.896   0.797
 3616SOL    HW211748   1.391   1.790   0.848
 3617SOL     OW11749   4.061   5.112   5.140
 3617SOL    HW111750   4.127   5.113   5.215
 3617SOL    HW211751   3.970   5.128   5.176
 3618SOL     OW11752   1.005   5.392   4.547
 3618SOL    HW111753   0.935   5.340   4.597
 3618SOL    HW211754   1.058   5.330   4.489
 3619SOL     OW11755   6.381   1.871   2.599
 3619SOL    HW111756   6.470   1.889   2.559
 3619SOL    HW211757   6.320   1.834   2.528
 3620SOL     OW11758   4.907   6.088   5.491
 3620SOL    HW111759   4.984   6.108   5.552
 3620SOL    HW211760   4.870   5.998   5.514
 3621SOL     OW11761   3.552   2.889   3.994
 3621SOL    HW111762   3.586   2.823   4.060
 3621SOL    HW211763   3.478   2.942   4.036
 3622SOL     OW11764   2.329   5.719   6.149
 3622SOL    HW111765   2.300   5.814   6.135
 3622SOL    HW211766   2.429   5.714   6.146
 3623SOL     OW11767   1.649   5.906   5.893
 3623SOL    HW111768   1.626   5.923   5.797
 3623SOL    HW211769   1.720   5.970   5.922
 3624SOL     OW11770   2.655   1.490   2.751
 3624SOL    HW111771   2.566   1.472   2.793
 3624SOL    HW211772   2.661   1.587   2.726
 3625SOL     OW11773   5.971   2.609   1.480
 3625SOL    HW111774   5.981   2.569   1.571
 3625SOL    HW211775   6.062   2.631   1.444
 3626SOL     OW11776   1.475   2.853   6.035
 3626SOL    HW111777   1.488   2.926   6.102
 3626SOL    HW211778   1.425   2.777   6.078
 3627SOL     OW11779   3.115   1.301   2.510
 3627SOL    HW111780   3.080   1.249   2.588
 3627SOL    HW211781   3.040   1.320   2.446
 3628SOL     OW11782   6.676   1.325   1.302
 3628SOL    HW111783   6.588   1.327   1.254
 3628SOL    HW211784   6.748   1.303   1.237
 3629SOL     OW11785   1.818   0.880   4.395
 3629SOL    HW111786   1.759   0.810   4.434
 3629SOL    HW211787   1.762   0.954   4.358
 3630SOL     OW11788   6.749   2.384   2.689
 3630SOL    HW111789   6.672   2.332   2.652
 3630SOL    HW211790   6.774   2.457   2.625
 3631SOL     OW11791   2.258   5.509   2.510
 3631SOL    HW111792   2.178   5.463   2.472
 3631SOL    HW211793   2.264   5.602   2.475
 3632SOL     OW11794   4.869   3.415   2.210
 3632SOL    HW111795   4.881   3.347   2.282
 3632SOL    HW211796   4.858   3.368   2.122
 3633SOL     OW11797   4.444   4.827   6.614
 3633SOL    HW111798   4.485   4.836   6.705
 3633SOL    HW211799   4.419   4.732   6.598
 3634SOL     OW11800   3.335   5.491   6.076
 3634SOL    HW111801   3.286   5.408   6.048
 3634SOL    HW211802   3.307   5.567   6.017
 3635SOL     OW11803   1.635   0.012   2.997
 3635SOL    HW111804   1.653   0.081   3.067
 3635SOL    HW211805   1.608   6.949   3.041
 3636SOL     OW11806   6.885   6.037   4.643
 3636SOL    HW111807   6.949   6.067   4.573
 3636SOL    HW211808   6.816   5.978   4.603
 3637SOL     OW11809   5.526   2.399   6.589
 3637SOL    HW111810   5.508   2.346   6.672
 3637SOL    HW211811   5.511   2.342   6.509
 3638SOL     OW11812   0.617   2.738   3.202
 3638SOL    HW111813   0.663   2.734   3.290
 3638SOL    HW211814   0.559   2.657   3.191
 3639SOL     OW11815   4.070   3.287   4.278
 3639SOL    HW111816   4.086   3.299   4.180
 3639SOL    HW211817   4.045   3.192   4.297
 3640SOL     OW11818   4.789   1.471   2.524
 3640SOL    HW111819   4.753   1.525   2.448
 3640SOL    HW211820   4.856   1.405   2.488
 3641SOL     OW11821   6.919   3.390   1.652
 3641SOL    HW111822   6.948   3.473   1.604
 3641SOL    HW211823   6.973   3.378   1.735
 3642SOL     OW11824   4.654   4.276   6.341
 3642SOL    HW111825   4.752   4.259   6.342
 3642SOL    HW211826   4.635   4.367   6.378
 3643SOL     OW11827   4.071   6.280   4.848
 3643SOL    HW111828   4.023   6.192   4.840
 3643SOL    HW211829   4.118   6.284   4.935
 3644SOL     OW11830   2.765   1.148   2.303
 3644SOL    HW111831   2.702   1.196   2.242
 3644SOL    HW211832   2.767   1.194   2.393
 3645SOL     OW11833   2.209   4.154   3.224
 3645SOL    HW111834   2.150   4.234   3.217
 3645SOL    HW211835   2.190   4.092   3.148
 3646SOL     OW11836   2.125   5.176   5.433
 3646SOL    HW111837   2.104   5.268   5.402
 3646SOL    HW211838   2.175   5.127   5.361
 3647SOL     OW11839   3.783   6.803   0.852
 3647SOL    HW111840   3.818   6.716   0.816
 3647SOL    HW211841   3.747   6.857   0.776
 3648SOL     OW11842   5.213   4.800   3.530
 3648SOL    HW111843   5.234   4.833   3.437
 3648SOL    HW211844   5.251   4.864   3.597
 3649SOL     OW11845   5.114   2.442   0.154
 3649SOL    HW111846   5.064   2.498   0.088
 3649SOL    HW211847   5.070   2.353   0.163
 3650SOL     OW11848   5.337   6.376   6.458
 3650SOL    HW111849   5.398   6.327   6.396
 3650SOL    HW211850   5.368   6.363   6.553
 3651SOL     OW11851   1.170   1.978   6.347
 3651SOL    HW111852   1.110   1.988   6.427
 3651SOL    HW211853   1.113   1.967   6.265
 3652SOL     OW11854   5.665   2.081   2.429
 3652SOL    HW111855   5.697   2.033   2.348
 3652SOL    HW211856   5.589   2.141   2.405
 3653SOL     OW11857   2.133   1.077   0.545
 3653SOL    HW111858   2.151   1.088   0.643
 3653SOL    HW211859   2.208   1.028   0.502
 3654SOL     OW11860   4.243   6.460   1.600
 3654SOL    HW111861   4.336   6.497   1.590
 3654SOL    HW211862   4.207   6.437   1.510
 3655SOL     OW11863   1.417   0.660   4.284
 3655SOL    HW111864   1.351   0.689   4.215
 3655SOL    HW211865   1.405   0.713   4.368
 3656SOL     OW11866   0.256   0.185   0.472
 3656SOL    HW111867   0.275   0.103   0.525
 3656SOL    HW211868   0.247   0.263   0.533
 3657SOL     OW11869   6.026   4.800   6.299
 3657SOL    HW111870   5.941   4.849   6.280
 3657SOL    HW211871   6.040   4.730   6.229
 3658SOL     OW11872   1.737   4.346   5.049
 3658SOL    HW111873   1.743   4.396   5.135
 3658SOL    HW211874   1.696   4.257   5.065
 3659SOL     OW11875   0.890   2.161   6.902
 3659SOL    HW111876   0.894   2.147   6.803
 3659SOL    HW211877   0.818   2.104   6.941
 3660SOL     OW11878   3.996   4.870   4.976
 3660SOL    HW111879   4.049   4.828   4.902
 3660SOL    HW211880   4.039   4.954   5.005
 3661SOL     OW11881   1.036   1.573   5.061
 3661SOL    HW111882   0.971   1.649   5.051
 3661SOL    HW211883   1.127   1.605   5.035
 3662SOL     OW11884   3.743   2.097   5.641
 3662SOL    HW111885   3.727   2.183   5.688
 3662SOL    HW211886   3.765   2.114   5.545
 3663SOL     OW11887   1.791   2.165   5.804
 3663SOL    HW111888   1.752   2.248   5.763
 3663SOL    HW211889   1.721   2.116   5.854
 3664SOL     OW11890   2.432   1.522   0.860
 3664SOL    HW111891   2.488   1.445   0.892
 3664SOL    HW211892   2.336   1.496   0.863
 3665SOL     OW11893   0.217   6.321   4.726
 3665SOL    HW111894   0.153   6.270   4.784
 3665SOL    HW211895   0.265   6.258   4.665
 3666SOL     OW11896   2.133   3.547   4.904
 3666SOL    HW111897   2.130   3.635   4.858
 3666SOL    HW211898   2.185   3.556   4.989
 3667SOL     OW11899   2.206   6.840   1.506
 3667SOL    HW111900   2.268   6.767   1.535
 3667SOL    HW211901   2.178   6.825   1.412
 3668SOL     OW11902   4.912   1.514   0.677
 3668SOL    HW111903   4.823   1.538   0.716
 3668SOL    HW211904   4.922   1.414   0.676
 3669SOL     OW11905   6.694   0.953   1.776
 3669SOL    HW111906   6.749   0.870   1.789
 3669SOL    HW211907   6.715   0.992   1.686
 3670SOL     OW11908   1.928   6.965   2.428
 3670SOL    HW111909   1.986   6.897   2.382
 3670SOL    HW211910   1.925   0.026   2.375
 3671SOL     OW11911   0.483   0.643   5.511
 3671SOL    HW111912   0.559   0.702   5.538
 3671SOL    HW211913   0.401   0.699   5.497
 3672SOL     OW11914   3.632   0.595   3.611
 3672SOL    HW111915   3.545   0.569   3.654
 3672SOL    HW211916   3.617   0.609   3.513
 3673SOL     OW11917   3.547   1.352   1.751
 3673SOL    HW111918   3.521   1.380   1.658
 3673SOL    HW211919   3.491   1.401   1.818
 3674SOL     OW11920   6.949   4.702   6.092
 3674SOL    HW111921   6.852   4.724   6.078
 3674SOL    HW211922   6.976   4.727   6.185
 3675SOL     OW11923   6.315   0.724   5.127
 3675SOL    HW111924   6.328   0.777   5.210
 3675SOL    HW211925   6.370   0.641   5.131
 3676SOL     OW11926   2.266   0.738   5.653
 3676SOL    HW111927   2.256   0.642   5.680
 3676SOL    HW211928   2.177   0.773   5.624
 3677SOL     OW11929   1.335   0.899   4.792
 3677SOL    HW111930   1.305   0.923   4.884
 3677SOL    HW211931   1.434   0.911   4.785
 3678SOL     OW11932   2.887   0.512   3.359
 3678SOL    HW111933   2.951   0.439   3.381
 3678SOL    HW211934   2.937   0.590   3.321
 3679SOL     OW11935   3.144   1.137   1.904
 3679SOL    HW111936   3.230   1.086   1.895
 3679SOL    HW211937   3.087   1.094   1.973
 3680SOL     OW11938   4.205   2.065   4.085
 3680SOL    HW111939   4.299   2.059   4.120
 3680SOL    HW211940   4.184   2.160   4.062
 3681SOL     OW11941   1.224   5.707   3.782
 3681SOL    HW111942   1.271   5.631   3.827
 3681SOL    HW211943   1.231   5.788   3.839
 3682SOL     OW11944   5.253   1.427   1.782
 3682SOL    HW111945   5.168   1.480   1.795
 3682SOL    HW211946   5.232   1.341   1.735
 3683SOL     OW11947   6.421   1.822   1.074
 3683SOL    HW111948   6.484   1.898   1.087
 3683SOL    HW211949   6.459   1.759   1.006
 3684SOL     OW11950   2.656   5.900   5.504
 3684SOL    HW111951   2.697   5.811   5.524
 3684SOL    HW211952   2.633   5.945   5.590
 3685SOL     OW11953   2.189   0.122   3.153
 3685SOL    HW111954   2.283   0.157   3.160
 3685SOL    HW211955   2.137   0.152   3.233
 3686SOL     OW11956   0.646   4.496   0.659
 3686SOL    HW111957   0.704   4.422   0.692
 3686SOL    HW211958   0.636   4.566   0.730
 3687SOL     OW11959   6.719   4.625   4.444
 3687SOL    HW111960   6.690   4.615   4.539
 3687SOL    HW211961   6.712   4.536   4.398
 3688SOL     OW11962   6.734   3.212   1.736
 3688SOL    HW111963   6.788   3.284   1.693
 3688SOL    HW211964   6.643   3.208   1.694
 3689SOL     OW11965   1.977   1.595   5.047
 3689SOL    HW111966   2.021   1.654   5.115
 3689SOL    HW211967   1.891   1.559   5.084
 3690SOL     OW11968   6.563   5.351   1.970
 3690SOL    HW111969   6.513   5.419   1.915
 3690SOL    HW211970   6.656   5.343   1.934
 3691SOL     OW11971   2.078   2.113   0.426
 3691SOL    HW111972   2.177   2.105   0.436
 3691SOL    HW211973   2.041   2.171   0.499
 3692SOL     OW11974   0.783   3.061   5.674
 3692SOL    HW111975   0.869   3.031   5.632
 3692SOL    HW211976   0.721   3.093   5.603
 3693SOL     OW11977   0.423   1.940   2.638
 3693SOL    HW111978   0.398   1.881   2.715
 3693SOL    HW211979   0.430   2.035   2.669
 3694SOL     OW11980   0.026   6.613   2.066
 3694SOL    HW111981   0.107   6.557   2.084
 3694SOL    HW211982   0.056   6.706   2.041
 3695SOL     OW11983   5.904   3.517   3.798
 3695SOL    HW111984   5.976   3.539   3.864
 3695SOL    HW211985   5.819   3.561   3.827
 3696SOL     OW11986   4.415   6.987   4.114
 3696SOL    HW111987   4.325   6.947   4.130
 3696SOL    HW211988   4.480   6.949   4.180
 3697SOL     OW11989   5.989   4.970   3.178
 3697SOL    HW111990   6.065   4.916   3.142
 3697SOL    HW211991   5.982   4.956   3.277
 3698SOL     OW11992   1.132   0.081   3.931
 3698SOL    HW111993   1.090   0.019   3.997
 3698SOL    HW211994   1.229   0.061   3.923
 3699SOL     OW11995   3.030   1.875   3.067
 3699SOL    HW111996   3.017   1.869   3.166
 3699SOL    HW211997   3.018   1.969   3.038
 3700SOL     OW11998   0.474   5.185   4.176
 3700SOL    HW111999   0.527   5.257   4.221
 3700SOL    HW212000   0.377   5.197   4.198
 3701SOL     OW12001   6.428   0.426   1.921
 3701SOL    HW112002   6.423   0.521   1.892
 3701SOL    HW212003   6.522   0.393   1.912
 3702SOL     OW12004   6.424   4.768   3.693
 3702SOL    HW112005   6.440   4.848   3.636
 3702SOL    HW212006   6.495   4.763   3.763
 3703SOL     OW12007   0.606   2.307   3.563
 3703SOL    HW112008   0.654   2.220   3.553
 3703SOL    HW212009   0.508   2.291   3.577
 3704SOL     OW12010   6.548   6.726   1.059
 3704SOL    HW112011   6.521   6.716   0.964
 3704SOL    HW212012   6.636   6.773   1.064
 3705SOL     OW12013   6.532   4.105   3.636
 3705SOL    HW112014   6.470   4.090   3.713
 3705SOL    HW212015   6.620   4.138   3.670
 3706SOL     OW12016   0.638   5.888   6.399
 3706SOL    HW112017   0.654   5.981   6.369
 3706SOL    HW212018   0.602   5.888   6.493
 3707SOL     OW12019   0.504   4.353   3.265
 3707SOL    HW112020   0.462   4.316   3.347
 3707SOL    HW212021   0.548   4.440   3.286
 3708SOL     OW12022   1.600   5.787   0.353
 3708SOL    HW112023   1.681   5.834   0.387
 3708SOL    HW212024   1.599   5.791   0.253
 3709SOL     OW12025   0.962   1.755   1.589
 3709SOL    HW112026   0.906   1.695   1.646
 3709SOL    HW212027   1.021   1.700   1.530
 3710SOL     OW12028   2.107   3.877   5.372
 3710SOL    HW112029   2.170   3.953   5.359
 3710SOL    HW212030   2.082   3.840   5.282
 3711SOL     OW12031   1.832   4.808   5.025
 3711SOL    HW112032   1.745   4.804   4.976
 3711SOL    HW212033   1.902   4.759   4.973
 3712SOL     OW12034   3.002   4.856   3.942
 3712SOL    HW112035   3.089   4.810   3.926
 3712SOL    HW212036   3.019   4.941   3.992
 3713SOL     OW12037   5.916   0.326   5.713
 3713SOL    HW112038   5.996   0.283   5.754
 3713SOL    HW212039   5.833   0.281   5.747
 3714SOL     OW12040   0.548   5.119   0.575
 3714SOL    HW112041   0.488   5.096   0.652
 3714SOL    HW212042   0.494   5.159   0.502
 3715SOL     OW12043   6.017   4.649   2.686
 3715SOL    HW112044   5.950   4.575   2.687
 3715SOL    HW212045   6.077   4.638   2.607
 3716SOL     OW12046   5.411   5.592   5.291
 3716SOL    HW112047   5.510   5.605   5.286
 3716SOL    HW212048   5.384   5.582   5.387
 3717SOL     OW12049   4.661   0.111   1.135
 3717SOL    HW112050   4.701   0.179   1.196
 3717SOL    HW212051   4.641   0.153   1.046
 3718SOL     OW12052   5.585   6.671   6.283
 3718SOL    HW112053   5.593   6.614   6.201
 3718SOL    HW212054   5.491   6.668   6.317
 3719SOL     OW12055   2.725   4.405   0.092
 3719SOL    HW112056   2.804   4.429   0.149
 3719SOL    HW212057   2.740   4.438   7.022
 3720SOL     OW12058   0.618   2.073   0.610
 3720SOL    HW112059   0.657   2.008   0.675
 3720SOL    HW212060   0.658   2.164   0.625
 3721SOL     OW12061   6.356   0.033   6.076
 3721SOL    HW112062   6.358   6.998   5.994
 3721SOL    HW212063   6.280   0.004   6.135
 3722SOL     OW12064   5.718   6.402   1.133
 3722SOL    HW112065   5.777   6.328   1.166
 3722SOL    HW212066   5.687   6.456   1.211
 3723SOL     OW12067   4.543   4.193   5.854
 3723SOL    HW112068   4.583   4.117   5.905
 3723SOL    HW212069   4.446   4.202   5.876
 3724SOL     OW12070   6.405   4.647   4.992
 3724SOL    HW112071   6.343   4.720   5.018
 3724SOL    HW212072   6.456   4.615   5.072
 3725SOL     OW12073   0.205   6.525   0.835
 3725SOL    HW112074   0.244   6.510   0.926
 3725SOL    HW212075   0.238   6.455   0.772
 3726SOL     OW12076   5.899   3.487   5.361
 3726SOL    HW112077   5.973   3.528   5.308
 3726SOL    HW212078   5.848   3.423   5.303
 3727SOL     OW12079   6.834   1.765   4.400
 3727SOL    HW112080   6.881   1.741   4.314
 3727SOL    HW212081   6.862   1.701   4.472
 3728SOL     OW12082   1.804   4.703   0.420
 3728SOL    HW112083   1.869   4.749   0.481
 3728SOL    HW212084   1.855   4.649   0.353
 3729SOL     OW12085   6.885   0.265   6.253
 3729SOL    HW112086   6.944   0.263   6.334
 3729SOL    HW212087   6.804   0.208   6.270
 3730SOL     OW12088   5.188   4.486   4.882
 3730SOL    HW112089   5.230   4.441   4.960
 3730SOL    HW212090   5.097   4.449   4.867
 3731SOL     OW12091   6.738   1.901   1.333
 3731SOL    HW112092   6.642   1.885   1.357
 3731SOL    HW212093   6.791   1.919   1.416
 3732SOL     OW12094   3.782   2.589   0.368
 3732SOL    HW112095   3.849   2.589   0.441
 3732SOL    HW212096   3.808   2.521   0.299
 3733SOL     OW12097   1.429   1.148   3.249
 3733SOL    HW112098   1.336   1.158   3.214
 3733SOL    HW212099   1.493   1.182   3.181
 3734SOL     OW12100   3.792   0.953   1.629
 3734SOL    HW112101   3.889   0.950   1.603
 3734SOL    HW212102   3.777   0.892   1.707
 3735SOL     OW12103   4.166   1.322   2.725
 3735SOL    HW112104   4.145   1.225   2.737
 3735SOL    HW212105   4.157   1.346   2.629
 3736SOL     OW12106   0.958   1.909   0.433
 3736SOL    HW112107   1.012   1.992   0.447
 3736SOL    HW212108   0.865   1.934   0.405
 3737SOL     OW12109   5.207   2.154   4.046
 3737SOL    HW112110   5.153   2.084   4.092
 3737SOL    HW212111   5.161   2.182   3.962
 3738SOL     OW12112   0.476   0.893   0.578
 3738SOL    HW112113   0.391   0.891   0.527
 3738SOL    HW212114   0.553   0.879   0.516
 3739SOL     OW12115   3.091   4.805   6.773
 3739SOL    HW112116   3.064   4.734   6.838
 3739SOL    HW212117   3.132   4.882   6.821
 3740SOL     OW12118   5.979   6.475   7.021
 3740SOL    HW112119   6.071   6.445   6.996
 3740SOL    HW212120   5.946   6.543   6.956
 3741SOL     OW12121   6.538   4.453   6.960
 3741SOL    HW112122   6.596   4.472   6.881
 3741SOL    HW212123   6.494   4.537   6.991
 3742SOL     OW12124   4.883   5.125   1.524
 3742SOL    HW112125   4.869   5.026   1.531
 3742SOL    HW212126   4.894   5.150   1.428
 3743SOL     OW12127   2.267   3.952   1.025
 3743SOL    HW112128   2.182   3.910   0.994
 3743SOL    HW212129   2.293   3.914   1.113
 3744SOL     OW12130   6.672   5.965   2.780
 3744SOL    HW112131   6.678   6.061   2.752
 3744SOL    HW212132   6.651   5.909   2.700
 3745SOL     OW12133   5.770   1.646   2.603
 3745SOL    HW112134   5.837   1.720   2.605
 3745SOL    HW212135   5.678   1.684   2.603
 3746SOL     OW12136   5.092   6.756   5.190
 3746SOL    HW112137   5.139   6.821   5.250
 3746SOL    HW212138   5.009   6.798   5.154
 3747SOL     OW12139   2.033   5.850   5.535
 3747SOL    HW112140   2.105   5.871   5.601
 3747SOL    HW212141   2.002   5.756   5.548
 3748SOL     OW12142   5.175   2.133   3.238
 3748SOL    HW112143   5.249   2.140   3.172
 3748SOL    HW212144   5.176   2.042   3.279
 3749SOL     OW12145   5.862   6.358   1.413
 3749SOL    HW112146   5.861   6.300   1.494
 3749SOL    HW212147   5.928   6.322   1.347
 3750SOL     OW12148   5.701   3.980   1.633
 3750SOL    HW112149   5.682   4.015   1.725
 3750SOL    HW212150   5.790   3.935   1.633
 3751SOL     OW12151   1.602   4.864   0.533
 3751SOL    HW112152   1.521   4.806   0.526
 3751SOL    HW212153   1.684   4.809   0.516
 3752SOL     OW12154   1.150   7.022   5.906
 3752SOL    HW112155   1.061   0.042   5.921
 3752SOL    HW212156   1.137   6.928   5.872
 3753SOL     OW12157   1.084   1.197   5.952
 3753SOL    HW112158   1.012   1.265   5.935
 3753SOL    HW212159   1.098   1.143   5.869
 3754SOL     OW12160   6.698   6.192   1.655
 3754SOL    HW112161   6.739   6.281   1.673
 3754SOL    HW212162   6.604   6.191   1.689
 3755SOL     OW12163   4.667   2.627   2.847
 3755SOL    HW112164   4.754   2.582   2.826
 3755SOL    HW212165   4.607   2.562   2.894
 3756SOL     OW12166   3.262   0.125   0.671
 3756SOL    HW112167   3.316   0.209   0.659
 3756SOL    HW212168   3.192   0.141   0.741
 3757SOL     OW12169   3.167   4.445   5.882
 3757SOL    HW112170   3.110   4.466   5.803
 3757SOL    HW212171   3.242   4.510   5.888
 3758SOL     OW12172   6.906   0.783   1.854
 3758SOL    HW112173   6.980   0.845   1.831
 3758SOL    HW212174   6.918   0.750   1.948
 3759SOL     OW12175   4.791   4.291   0.793
 3759SOL    HW112176   4.853   4.343   0.852
 3759SOL    HW212177   4.832   4.203   0.770
 3760SOL     OW12178   1.984   1.566   5.847
 3760SOL    HW112179   2.051   1.495   5.871
 3760SOL    HW212180   1.892   1.526   5.849
 3761SOL     OW12181   6.454   6.129   4.139
 3761SOL    HW112182   6.431   6.160   4.047
 3761SOL    HW212183   6.389   6.168   4.204
 3762SOL     OW12184   0.499   3.541   0.436
 3762SOL    HW112185   0.584   3.540   0.489
 3762SOL    HW212186   0.421   3.542   0.499
 3763SOL     OW12187   6.811   3.216   4.493
 3763SOL    HW112188   6.827   3.138   4.554
 3763SOL    HW212189   6.845   3.194   4.402
 3764SOL     OW12190   1.878   0.085   3.897
 3764SOL    HW112191   1.922   0.095   3.808
 3764SOL    HW212192   1.825   0.167   3.918
 3765SOL     OW12193   6.371   0.772   3.541
 3765SOL    HW112194   6.284   0.743   3.499
 3765SOL    HW212195   6.353   0.840   3.611
 3766SOL     OW12196   2.360   1.078   5.124
 3766SOL    HW112197   2.339   1.164   5.076
 3766SOL    HW212198   2.275   1.033   5.150
 3767SOL     OW12199   0.281   4.795   0.826
 3767SOL    HW112200   0.285   4.735   0.906
 3767SOL    HW212201   0.304   4.744   0.744
 3768SOL     OW12202   4.434   6.454   1.145
 3768SOL    HW112203   4.426   6.388   1.219
 3768SOL    HW212204   4.519   6.506   1.155
 3769SOL     OW12205   4.160   6.653   4.868
 3769SOL    HW112206   4.111   6.630   4.952
 3769SOL    HW212207   4.256   6.629   4.879
 3770SOL     OW12208   1.846   2.474   0.482
 3770SOL    HW112209   1.776   2.534   0.443
 3770SOL    HW212210   1.927   2.528   0.505
 3771SOL     OW12211   4.291   1.391   5.896
 3771SOL    HW112212   4.311   1.470   5.838
 3771SOL    HW212213   4.193   1.372   5.893
 3772SOL     OW12214   5.144   0.769   2.626
 3772SOL    HW112215   5.138   0.869   2.633
 3772SOL    HW212216   5.111   0.728   2.711
 3773SOL     OW12217   6.521   2.845   0.807
 3773SOL    HW112218   6.426   2.868   0.787
 3773SOL    HW212219   6.526   2.749   0.837
 3774SOL     OW12220   1.411   1.772   1.836
 3774SOL    HW112221   1.468   1.853   1.823
 3774SOL    HW212222   1.369   1.746   1.748
 3775SOL     OW12223   5.197   2.664   3.366
 3775SOL    HW112224   5.169   2.672   3.270
 3775SOL    HW212225   5.276   2.604   3.373
 3776SOL     OW12226   3.101   1.986   6.471
 3776SOL    HW112227   3.035   2.058   6.449
 3776SOL    HW212228   3.058   1.920   6.533
 3777SOL     OW12229   1.088   4.161   3.098
 3777SOL    HW112230   1.090   4.061   3.104
 3777SOL    HW212231   1.176   4.194   3.063
 3778SOL     OW12232   2.005   0.814   1.902
 3778SOL    HW112233   1.978   0.767   1.986
 3778SOL    HW212234   2.017   0.912   1.921
 3779SOL     OW12235   1.676   5.187   6.860
 3779SOL    HW112236   1.760   5.137   6.842
 3779SOL    HW212237   1.680   5.277   6.816
 3780SOL     OW12238   1.835   6.956   4.181
 3780SOL    HW112239   1.742   6.993   4.189
 3780SOL    HW212240   1.869   6.971   4.088
 3781SOL     OW12241   2.819   5.218   4.879
 3781SOL    HW112242   2.746   5.280   4.849
 3781SOL    HW212243   2.892   5.271   4.923
 3782SOL     OW12244   2.564   1.482   2.242
 3782SOL    HW112245   2.612   1.411   2.189
 3782SOL    HW212246   2.622   1.563   2.247
 3783SOL     OW12247   5.233   4.691   4.677
 3783SOL    HW112248   5.216   4.646   4.765
 3783SOL    HW212249   5.302   4.639   4.626
 3784SOL     OW12250   5.079   2.283   4.458
 3784SOL    HW112251   5.165   2.333   4.453
 3784SOL    HW212252   5.003   2.347   4.470
 3785SOL     OW12253   0.644   0.219   2.038
 3785SOL    HW112254   0.687   0.280   2.104
 3785SOL    HW212255   0.545   0.221   2.050
 3786SOL     OW12256   2.890   6.226   1.723
 3786SOL    HW112257   2.936   6.314   1.714
 3786SOL    HW212258   2.828   6.213   1.646
 3787SOL     OW12259   4.854   0.919   3.712
 3787SOL    HW112260   4.897   1.007   3.732
 3787SOL    HW212261   4.861   0.900   3.614
 3788SOL     OW12262   6.348   3.442   2.376
 3788SOL    HW112263   6.392   3.484   2.456
 3788SOL    HW212264   6.249   3.438   2.391
 3789SOL     OW12265   1.812   5.137   2.080
 3789SOL    HW112266   1.883   5.195   2.040
 3789SOL    HW212267   1.766   5.186   2.154
 3790SOL     OW12268   1.762   3.268   2.470
 3790SOL    HW112269   1.686   3.255   2.406
 3790SOL    HW212270   1.808   3.355   2.451
 3791SOL     OW12271   6.439   0.639   2.736
 3791SOL    HW112272   6.341   0.634   2.751
 3791SOL    HW212273   6.460   0.615   2.641
 3792SOL     OW12274   1.162   5.882   6.482
 3792SOL    HW112275   1.216   5.951   6.433
 3792SOL    HW212276   1.223   5.807   6.510
 3793SOL     OW12277   0.575   5.278   2.650
 3793SOL    HW112278   0.578   5.362   2.704
 3793SOL    HW212279   0.480   5.256   2.628
 3794SOL     OW12280   4.553   0.148   3.959
 3794SOL    HW112281   4.528   0.084   4.032
 3794SOL    HW212282   4.470   0.187   3.920
 3795SOL     OW12283   5.600   0.393   0.655
 3795SOL    HW112284   5.610   0.295   0.640
 3795SOL    HW212285   5.540   0.408   0.734
 3796SOL     OW12286   6.894   2.629   1.066
 3796SOL    HW112287   6.855   2.692   1.133
 3796SOL    HW212288   6.985   2.600   1.096
 3797SOL     OW12289   0.209   5.316   2.967
 3797SOL    HW112290   0.129   5.326   2.908
 3797SOL    HW212291   0.184   5.338   3.061
 3798SOL     OW12292   1.233   4.526   0.205
 3798SOL    HW112293   1.297   4.579   0.260
 3798SOL    HW212294   1.184   4.461   0.264
 3799SOL     OW12295   1.696   0.805   5.290
 3799SOL    HW112296   1.763   0.731   5.291
 3799SOL    HW212297   1.604   0.766   5.280
 3800SOL     OW12298   5.221   2.563   4.936
 3800SOL    HW112299   5.136   2.542   4.889
 3800SOL    HW212300   5.297   2.565   4.870
 3801SOL     OW12301   6.671   0.461   5.977
 3801SOL    HW112302   6.618   0.379   5.998
 3801SOL    HW212303   6.768   0.445   5.994
 3802SOL     OW12304   1.752   2.442   5.291
 3802SOL    HW112305   1.806   2.455   5.208
 3802SOL    HW212306   1.751   2.527   5.344
 3803SOL     OW12307   3.928   1.288   1.178
 3803SOL    HW112308   3.894   1.226   1.107
 3803SOL    HW212309   4.008   1.247   1.221
 3804SOL     OW12310   5.085   3.710   4.995
 3804SOL    HW112311   5.132   3.712   5.083
 3804SOL    HW212312   4.993   3.674   5.007
 3805SOL     OW12313   1.759   3.684   1.218
 3805SOL    HW112314   1.806   3.666   1.304
 3805SOL    HW212315   1.813   3.748   1.164
 3806SOL     OW12316   3.509   1.011   0.328
 3806SOL    HW112317   3.599   1.046   0.357
 3806SOL    HW212318   3.474   0.949   0.397
 3807SOL     OW12319   1.537   6.905   2.797
 3807SOL    HW112320   1.575   6.955   2.875
 3807SOL    HW212321   1.608   6.894   2.727
 3808SOL     OW12322   3.766   1.072   0.432
 3808SOL    HW112323   3.794   1.167   0.445
 3808SOL    HW212324   3.787   1.019   0.515
 3809SOL     OW12325   4.257   1.095   0.133
 3809SOL    HW112326   4.263   1.024   0.063
 3809SOL    HW212327   4.334   1.158   0.125
 3810SOL     OW12328   1.974   3.917   6.720
 3810SOL    HW112329   1.895   3.872   6.677
 3810SOL    HW212330   1.977   3.895   6.817
 3811SOL     OW12331   0.047   0.773   6.381
 3811SOL    HW112332   0.026   0.679   6.352
 3811SOL    HW212333   0.144   0.791   6.366
 3812SOL     OW12334   4.401   0.685   5.694
 3812SOL    HW112335   4.406   0.785   5.689
 3812SOL    HW212336   4.331   0.658   5.760
 3813SOL     OW12337   3.654   4.933   2.260
 3813SOL    HW112338   3.740   4.899   2.221
 3813SOL    HW212339   3.584   4.936   2.188
 3814SOL     OW12340   2.177   0.980   1.465
 3814SOL    HW112341   2.161   1.048   1.537
 3814SOL    HW212342   2.197   1.026   1.379
 3815SOL     OW12343   5.452   2.346   2.118
 3815SOL    HW112344   5.520   2.288   2.073
 3815SOL    HW212345   5.430   2.309   2.208
 3816SOL     OW12346   6.994   6.542   0.005
 3816SOL    HW112347   0.015   6.527   0.093
 3816SOL    HW212348   0.039   6.575   6.962
 3817SOL     OW12349   5.493   2.177   5.202
 3817SOL    HW112350   5.587   2.146   5.188
 3817SOL    HW212351   5.470   2.248   5.136
 3818SOL     OW12352   3.687   5.684   2.732
 3818SOL    HW112353   3.728   5.606   2.685
 3818SOL    HW212354   3.612   5.652   2.790
 3819SOL     OW12355   5.568   3.752   6.216
 3819SOL    HW112356   5.481   3.721   6.179
 3819SOL    HW212357   5.636   3.754   6.143
 3820SOL     OW12358   4.330   6.214   3.169
 3820SOL    HW112359   4.261   6.158   3.122
 3820SOL    HW212360   4.304   6.225   3.265
 3821SOL     OW12361   0.178   4.772   1.546
 3821SOL    HW112362   0.269   4.757   1.584
 3821SOL    HW212363   0.181   4.762   1.447
 3822SOL     OW12364   0.941   3.760   1.146
 3822SOL    HW112365   1.026   3.799   1.182
 3822SOL    HW212366   0.885   3.726   1.221
 3823SOL     OW12367   2.841   3.631   5.480
 3823SOL    HW112368   2.808   3.578   5.402
 3823SOL    HW212369   2.774   3.624   5.555
 3824SOL     OW12370   0.551   2.016   6.071
 3824SOL    HW112371   0.514   2.012   5.978
 3824SOL    HW212372   0.499   1.954   6.130
 3825SOL     OW12373   0.252   6.690   6.101
 3825SOL    HW112374   0.333   6.737   6.066
 3825SOL    HW212375   0.276   6.637   6.182
 3826SOL     OW12376   6.397   2.079   1.513
 3826SOL    HW112377   6.421   1.988   1.479
 3826SOL    HW212378   6.478   2.138   1.511
 3827SOL     OW12379   5.271   1.799   2.217
 3827SOL    HW112380   5.190   1.743   2.197
 3827SOL    HW212381   5.344   1.740   2.250
 3828SOL     OW12382   3.528   1.051   1.724
 3828SOL    HW112383   3.536   1.147   1.751
 3828SOL    HW212384   3.615   1.020   1.684
 3829SOL     OW12385   0.896   4.820   3.564
 3829SOL    HW112386   0.823   4.752   3.567
 3829SOL    HW212387   0.857   4.912   3.572
 3830SOL     OW12388   2.717   0.539   5.274
 3830SOL    HW112389   2.697   0.600   5.197
 3830SOL    HW212390   2.679   0.449   5.256
 3831SOL     OW12391   4.684   1.634   2.322
 3831SOL    HW112392   4.588   1.607   2.313
 3831SOL    HW212393   4.723   1.650   2.232
 3832SOL     OW12394   6.112   6.977   2.212
 3832SOL    HW112395   6.027   6.927   2.230
 3832SOL    HW212396   6.091   0.041   2.168
 3833SOL     OW12397   1.809   6.408   2.403
 3833SOL    HW112398   1.752   6.488   2.418
 3833SOL    HW212399   1.905   6.431   2.421
 3834SOL     OW12400   3.125   2.827   0.280
 3834SOL    HW112401   3.026   2.823   0.264
 3834SOL    HW212402   3.173   2.784   0.204
 3835SOL     OW12403   3.136   4.862   2.914
 3835SOL    HW112404   3.231   4.851   2.944
 3835SOL    HW212405   3.076   4.809   2.973
 3836SOL     OW12406   1.200   3.032   5.745
 3836SOL    HW112407   1.194   2.971   5.666
 3836SOL    HW212408   1.294   3.065   5.755
 3837SOL     OW12409   3.095   4.350   6.564
 3837SOL    HW112410   3.148   4.432   6.581
 3837SOL    HW212411   3.155   4.270   6.567
 3838SOL     OW12412   6.234   3.588   4.350
 3838SOL    HW112413   6.161   3.558   4.412
 3838SOL    HW212414   6.208   3.675   4.309
 3839SOL     OW12415   0.502   6.139   6.688
 3839SOL    HW112416   0.417   6.112   6.732
 3839SOL    HW212417   0.483   6.204   6.614
 3840SOL     OW12418   2.714   2.359   3.309
 3840SOL    HW112419   2.787   2.345   3.376
 3840SOL    HW212420   2.754   2.383   3.221
 3841SOL     OW12421   0.845   2.944   3.712
 3841SOL    HW112422   0.790   2.956   3.794
 3841SOL    HW212423   0.785   2.929   3.633
 3842SOL     OW12424   1.345   5.024   6.733
 3842SOL    HW112425   1.349   5.093   6.804
 3842SOL    HW212426   1.417   5.041   6.665
 3843SOL     OW12427   6.664   4.533   6.732
 3843SOL    HW112428   6.638   4.524   6.635
 3843SOL    HW212429   6.747   4.480   6.749
 3844SOL     OW12430   2.639   4.532   5.734
 3844SOL    HW112431   2.701   4.608   5.716
 3844SOL    HW212432   2.692   4.448   5.748
 3845SOL     OW12433   3.106   3.121   4.652
 3845SOL    HW112434   3.027   3.176   4.680
 3845SOL    HW212435   3.147   3.077   4.733
 3846SOL     OW12436   0.023   4.480   5.076
 3846SOL    HW112437   7.011   4.393   5.041
 3846SOL    HW212438   0.119   4.490   5.051
 3847SOL     OW12439   1.441   6.855   0.731
 3847SOL    HW112440   1.347   6.833   0.755
 3847SOL    HW212441   1.444   6.943   0.684
 3848SOL     OW12442   2.989   6.460   1.702
 3848SOL    HW112443   3.032   6.512   1.628
 3848SOL    HW212444   3.018   6.500   1.790
 3849SOL     OW12445   2.707   1.774   5.605
 3849SOL    HW112446   2.658   1.817   5.682
 3849SOL    HW212447   2.736   1.682   5.632
 3850SOL     OW12448   1.101   3.225   1.424
 3850SOL    HW112449   1.193   3.248   1.393
 3850SOL    HW212450   1.038   3.297   1.396
 3851SOL     OW12451   2.426   2.808   1.098
 3851SOL    HW112452   2.372   2.734   1.139
 3851SOL    HW212453   2.465   2.864   1.171
 3852SOL     OW12454   4.721   1.190   5.294
 3852SOL    HW112455   4.682   1.178   5.202
 3852SOL    HW212456   4.767   1.106   5.322
 3853SOL     OW12457   0.459   3.807   2.309
 3853SOL    HW112458   0.382   3.748   2.333
 3853SOL    HW212459   0.510   3.767   2.232
 3854SOL     OW12460   1.533   3.240   4.347
 3854SOL    HW112461   1.526   3.319   4.285
 3854SOL    HW212462   1.625   3.201   4.341
 3855SOL     OW12463   0.004   1.630   5.246
 3855SOL    HW112464   6.937   1.655   5.210
 3855SOL    HW212465   0.016   1.531   5.240
 3856SOL     OW12466   1.250   6.350   6.090
 3856SOL    HW112467   1.231   6.399   6.175
 3856SOL    HW212468   1.184   6.276   6.078
 3857SOL     OW12469   0.404   0.621   6.565
 3857SOL    HW112470   0.360   0.531   6.570
 3857SOL    HW212471   0.392   0.669   6.652
 3858SOL     OW12472   3.786   4.726   6.881
 3858SOL    HW112473   3.689   4.701   6.875
 3858SOL    HW212474   3.806   4.797   6.814
 3859SOL     OW12475   6.234   2.687   2.302
 3859SOL    HW112476   6.256   2.778   2.335
 3859SOL    HW212477   6.211   2.627   2.379
 3860SOL     OW12478   2.572   5.785   4.980
 3860SOL    HW112479   2.614   5.867   4.942
 3860SOL    HW212480   2.508   5.746   4.913
 3861SOL     OW12481   2.892   4.465   6.717
 3861SOL    HW112482   2.874   4.549   6.666
 3861SOL    HW212483   2.958   4.410   6.668
 3862SOL     OW12484   1.004   5.783   5.893
 3862SOL    HW112485   1.068   5.810   5.964
 3862SOL    HW212486   1.049   5.786   5.804
 3863SOL     OW12487   2.226   2.941   0.213
 3863SOL    HW112488   2.262   3.018   0.161
 3863SOL    HW212489   2.194   2.974   0.303
 3864SOL     OW12490   3.433   1.919   1.047
 3864SOL    HW112491   3.434   1.935   1.146
 3864SOL    HW212492   3.527   1.911   1.014
 3865SOL     OW12493   3.930   0.805   2.293
 3865SOL    HW112494   3.949   0.903   2.294
 3865SOL    HW212495   3.869   0.784   2.217
 3866SOL     OW12496   4.149   6.482   0.053
 3866SOL    HW112497   4.127   6.474   6.978
 3866SOL    HW212498   4.227   6.424   0.075
 3867SOL     OW12499   1.827   5.136   3.222
 3867SOL    HW112500   1.762   5.204   3.186
 3867SOL    HW212501   1.904   5.128   3.159
 3868SOL     OW12502   1.963   5.515   3.029
 3868SOL    HW112503   1.895   5.485   3.095
 3868SOL    HW212504   2.046   5.461   3.039
 3869SOL     OW12505   0.823   1.628   4.023
 3869SOL    HW112506   0.909   1.657   4.065
 3869SOL    HW212507   0.816   1.528   4.028
 3870SOL     OW12508   3.637   3.977   0.336
 3870SOL    HW112509   3.651   3.880   0.355
 3870SOL    HW212510   3.618   4.025   0.422
 3871SOL     OW12511   3.385   0.756   4.082
 3871SOL    HW112512   3.334   0.712   4.156
 3871SOL    HW212513   3.450   0.691   4.042
 3872SOL     OW12514   4.543   4.205   0.787
 3872SOL    HW112515   4.554   4.121   0.840
 3872SOL    HW212516   4.626   4.260   0.794
 3873SOL     OW12517   6.506   4.934   2.066
 3873SOL    HW112518   6.537   4.919   1.972
 3873SOL    HW212519   6.407   4.921   2.070
 3874SOL     OW12520   5.454   6.408   5.893
 3874SOL    HW112521   5.534   6.415   5.954
 3874SOL    HW212522   5.481   6.431   5.800
 3875SOL     OW12523   2.732   3.335   0.190
 3875SOL    HW112524   2.710   3.256   0.248
 3875SOL    HW212525   2.779   3.404   0.243
 3876SOL     OW12526   5.962   3.910   2.295
 3876SOL    HW112527   5.874   3.956   2.287
 3876SOL    HW212528   5.950   3.812   2.283
 3877SOL     OW12529   4.356   2.063   1.787
 3877SOL    HW112530   4.365   2.031   1.881
 3877SOL    HW212531   4.272   2.116   1.777
 3878SOL     OW12532   4.779   5.769   4.467
 3878SOL    HW112533   4.771   5.672   4.487
 3878SOL    HW212534   4.797   5.820   4.551
 3879SOL     OW12535   2.475   5.747   0.820
 3879SOL    HW112536   2.490   5.821   0.886
 3879SOL    HW212537   2.478   5.784   0.727
 3880SOL     OW12538   6.378   1.160   4.518
 3880SOL    HW112539   6.397   1.070   4.478
 3880SOL    HW212540   6.294   1.196   4.479
 3881SOL     OW12541   0.046   5.771   5.931
 3881SOL    HW112542   6.976   5.776   5.971
 3881SOL    HW212543   0.045   5.815   5.841
 3882SOL     OW12544   0.007   6.584   6.652
 3882SOL    HW112545   0.082   6.608   6.713
 3882SOL    HW212546   0.024   6.494   6.612
 3883SOL     OW12547   4.288   2.196   0.259
 3883SOL    HW112548   4.371   2.160   0.217
 3883SOL    HW212549   4.304   2.211   0.356
 3884SOL     OW12550   3.035   5.820   5.666
 3884SOL    HW112551   3.047   5.908   5.713
 3884SOL    HW212552   3.125   5.783   5.642
 3885SOL     OW12553   6.988   0.649   3.606
 3885SOL    HW112554   0.026   0.687   3.675
 3885SOL    HW212555   6.980   0.550   3.619
 3886SOL     OW12556   6.911   6.030   4.237
 3886SOL    HW112557   6.931   6.110   4.180
 3886SOL    HW212558   6.948   6.045   4.329
 3887SOL     OW12559   6.628   3.001   4.940
 3887SOL    HW112560   6.632   2.959   5.031
 3887SOL    HW212561   6.712   3.052   4.922
 3888SOL     OW12562   5.159   1.225   3.137
 3888SOL    HW112563   5.080   1.226   3.198
 3888SOL    HW212564   5.225   1.293   3.166
 3889SOL     OW12565   6.664   5.967   6.969
 3889SOL    HW112566   6.709   5.985   0.033
 3889SOL    HW212567   6.715   6.009   6.894
 3890SOL     OW12568   6.209   3.359   3.074
 3890SOL    HW112569   6.276   3.425   3.040
 3890SOL    HW212570   6.126   3.364   3.018
 3891SOL     OW12571   4.072   4.184   5.733
 3891SOL    HW112572   3.984   4.191   5.781
 3891SOL    HW212573   4.117   4.098   5.758
 3892SOL     OW12574   5.656   5.961   3.982
 3892SOL    HW112575   5.570   5.920   3.950
 3892SOL    HW212576   5.700   6.009   3.906
 3893SOL     OW12577   2.311   6.347   4.518
 3893SOL    HW112578   2.286   6.428   4.571
 3893SOL    HW212579   2.283   6.265   4.567
 3894SOL     OW12580   5.996   5.792   6.285
 3894SOL    HW112581   5.981   5.703   6.328
 3894SOL    HW212582   6.042   5.853   6.349
 3895SOL     OW12583   1.434   2.170   6.054
 3895SOL    HW112584   1.409   2.096   5.992
 3895SOL    HW212585   1.352   2.220   6.080
 3896SOL     OW12586   6.406   2.891   0.511
 3896SOL    HW112587   6.503   2.868   0.499
 3896SOL    HW212588   6.350   2.812   0.486
 3897SOL     OW12589   2.959   6.861   3.429
 3897SOL    HW112590   2.885   6.915   3.388
 3897SOL    HW212591   3.027   6.922   3.470
 3898SOL     OW12592   2.901   3.759   3.706
 3898SOL    HW112593   2.819   3.721   3.748
 3898SOL    HW212594   2.878   3.845   3.660
 3899SOL     OW12595   4.669   2.032   6.398
 3899SOL    HW112596   4.702   1.939   6.413
 3899SOL    HW212597   4.670   2.082   6.485
 3900SOL     OW12598   0.974   2.626   3.892
 3900SOL    HW112599   0.886   2.589   3.921
 3900SOL    HW212600   1.038   2.551   3.875
 3901SOL     OW12601   3.583   6.286   4.806
 3901SOL    HW112602   3.542   6.372   4.835
 3901SOL    HW212603   3.682   6.291   4.816
 3902SOL     OW12604   3.013   5.096   2.853
 3902SOL    HW112605   3.056   5.008   2.873
 3902SOL    HW212606   3.078   5.169   2.873
 3903SOL     OW12607   3.046   3.655   6.592
 3903SOL    HW112608   2.984   3.633   6.668
 3903SOL    HW212609   2.994   3.657   6.507
 3904SOL     OW12610   2.874   5.973   0.973
 3904SOL    HW112611   2.839   5.883   0.998
 3904SOL    HW212612   2.968   5.964   0.939
 3905SOL     OW12613   4.114   0.339   5.605
 3905SOL    HW112614   4.086   0.245   5.621
 3905SOL    HW212615   4.173   0.370   5.679
 3906SOL     OW12616   6.532   5.869   4.122
 3906SOL    HW112617   6.452   5.819   4.089
 3906SOL    HW212618   6.504   5.960   4.153
 3907SOL     OW12619   0.901   1.755   4.861
 3907SOL    HW112620   0.922   1.792   4.770
 3907SOL    HW212621   0.803   1.738   4.868
 3908SOL     OW12622   2.187   2.074   4.756
 3908SOL    HW112623   2.215   1.978   4.756
 3908SOL    HW212624   2.233   2.123   4.682
 3909SOL     OW12625   6.104   3.583   2.163
 3909SOL    HW112626   6.128   3.521   2.088
 3909SOL    HW212627   6.183   3.639   2.187
 3910SOL     OW12628   2.242   2.492   0.392
 3910SOL    HW112629   2.259   2.470   0.488
 3910SOL    HW212630   2.264   2.412   0.336
 3911SOL     OW12631   5.876   1.407   1.522
 3911SOL    HW112632   5.808   1.391   1.593
 3911SOL    HW212633   5.958   1.449   1.562
 3912SOL     OW12634   5.073   4.322   0.460
 3912SOL    HW112635   5.112   4.403   0.417
 3912SOL    HW212636   5.015   4.274   0.393
 3913SOL     OW12637   4.172   4.347   1.198
 3913SOL    HW112638   4.231   4.266   1.205
 3913SOL    HW212639   4.081   4.319   1.169
 3914SOL     OW12640   0.350   0.810   0.329
 3914SOL    HW112641   0.327   0.851   0.241
 3914SOL    HW212642   0.416   0.737   0.316
 3915SOL     OW12643   5.046   0.210   4.694
 3915SOL    HW112644   5.118   0.255   4.748
 3915SOL    HW212645   5.088   0.142   4.634
 3916SOL     OW12646   2.106   2.631   1.829
 3916SOL    HW112647   2.169   2.700   1.865
 3916SOL    HW212648   2.134   2.540   1.859
 3917SOL     OW12649   4.457   5.562   2.096
 3917SOL    HW112650   4.446   5.660   2.110
 3917SOL    HW212651   4.520   5.546   2.020
 3918SOL     OW12652   3.897   6.808   1.107
 3918SOL    HW112653   3.995   6.809   1.089
 3918SOL    HW212654   3.847   6.805   1.020
 3919SOL     OW12655   4.982   4.884   3.225
 3919SOL    HW112656   4.933   4.800   3.207
 3919SOL    HW212657   4.958   4.918   3.316
 3920SOL     OW12658   4.602   1.020   6.078
 3920SOL    HW112659   4.643   0.967   6.003
 3920SOL    HW212660   4.517   1.063   6.046
 3921SOL     OW12661   1.050   3.161   5.963
 3921SOL    HW112662   1.082   3.100   5.890
 3921SOL    HW212663   0.953   3.143   5.981
 3922SOL     OW12664   5.433   1.983   3.764
 3922SOL    HW112665   5.376   1.901   3.764
 3922SOL    HW212666   5.505   1.974   3.833
 3923SOL     OW12667   5.488   0.992   1.080
 3923SOL    HW112668   5.409   1.006   1.021
 3923SOL    HW212669   5.538   0.910   1.049
 3924SOL     OW12670   5.324   4.931   3.732
 3924SOL    HW112671   5.330   5.021   3.689
 3924SOL    HW212672   5.295   4.941   3.827
 3925SOL     OW12673   3.661   4.336   1.728
 3925SOL    HW112674   3.630   4.425   1.762
 3925SOL    HW212675   3.758   4.342   1.703
 3926SOL     OW12676   1.264   5.824   5.293
 3926SOL    HW112677   1.310   5.898   5.342
 3926SOL    HW212678   1.319   5.741   5.298
 3927SOL     OW12679   6.143   6.510   5.328
 3927SOL    HW112680   6.085   6.515   5.409
 3927SOL    HW212681   6.163   6.415   5.306
 3928SOL     OW12682   4.623   5.383   2.731
 3928SOL    HW112683   4.529   5.382   2.700
 3928SOL    HW212684   4.682   5.422   2.660
 3929SOL     OW12685   2.319   0.919   5.407
 3929SOL    HW112686   2.383   0.850   5.439
 3929SOL    HW212687   2.305   0.909   5.308
 3930SOL     OW12688   2.296   5.413   4.136
 3930SOL    HW112689   2.209   5.463   4.140
 3930SOL    HW212690   2.330   5.398   4.229
 3931SOL     OW12691   0.598   2.135   0.210
 3931SOL    HW112692   0.511   2.147   0.162
 3931SOL    HW212693   0.636   2.224   0.234
 3932SOL     OW12694   2.093   4.458   2.478
 3932SOL    HW112695   2.038   4.393   2.531
 3932SOL    HW212696   2.048   4.475   2.391
 3933SOL     OW12697   1.368   6.770   1.128
 3933SOL    HW112698   1.330   6.795   1.217
 3933SOL    HW212699   1.342   6.676   1.106
 3934SOL     OW12700   1.934   6.810   2.133
 3934SOL    HW112701   2.003   6.839   2.198
 3934SOL    HW212702   1.920   6.882   2.065
 3935SOL     OW12703   0.153   1.264   5.096
 3935SOL    HW112704   0.241   1.216   5.093
 3935SOL    HW212705   0.121   1.280   5.003
 3936SOL     OW12706   6.588   4.691   3.918
 3936SOL    HW112707   6.513   4.726   3.974
 3936SOL    HW212708   6.654   4.645   3.977
 3937SOL     OW12709   1.314   6.167   0.305
 3937SOL    HW112710   1.357   6.189   0.217
 3937SOL    HW212711   1.363   6.090   0.347
 3938SOL     OW12712   0.344   4.625   6.463
 3938SOL    HW112713   0.350   4.605   6.561
 3938SOL    HW212714   0.436   4.642   6.427
 3939SOL     OW12715   2.081   6.125   4.269
 3939SOL    HW112716   2.042   6.118   4.177
 3939SOL    HW212717   2.071   6.219   4.301
 3940SOL     OW12718   2.980   6.212   6.992
 3940SOL    HW112719   2.983   6.304   0.007
 3940SOL    HW212720   3.036   6.151   0.025
 3941SOL     OW12721   5.761   5.632   2.273
 3941SOL    HW112722   5.838   5.671   2.224
 3941SOL    HW212723   5.784   5.540   2.305
 3942SOL     OW12724   0.714   6.333   6.973
 3942SOL    HW112725   0.733   6.431   6.960
 3942SOL    HW212726   0.620   6.314   6.943
 3943SOL     OW12727   0.817   5.352   0.442
 3943SOL    HW112728   0.750   5.423   0.463
 3943SOL    HW212729   0.817   5.283   0.514
 3944SOL     OW12730   4.803   2.699   0.726
 3944SOL    HW112731   4.790   2.695   0.825
 3944SOL    HW212732   4.900   2.712   0.705
 3945SOL     OW12733   6.861   0.753   2.295
 3945SOL    HW112734   6.835   0.833   2.351
 3945SOL    HW212735   6.846   0.774   2.198
 3946SOL     OW12736   5.129   1.840   1.162
 3946SOL    HW112737   5.155   1.877   1.251
 3946SOL    HW212738   5.030   1.836   1.156
 3947SOL     OW12739   5.075   0.296   1.875
 3947SOL    HW112740   5.161   0.305   1.824
 3947SOL    HW212741   5.088   0.330   1.968
 3948SOL     OW12742   1.715   1.765   4.307
 3948SOL    HW112743   1.644   1.836   4.306
 3948SOL    HW212744   1.778   1.779   4.231
 3949SOL     OW12745   5.964   0.189   2.654
 3949SOL    HW112746   5.999   0.278   2.683
 3949SOL    HW212747   6.011   0.161   2.571
 3950SOL     OW12748   2.569   4.709   1.737
 3950SOL    HW112749   2.524   4.709   1.648
 3950SOL    HW212750   2.659   4.751   1.729
 3951SOL     OW12751   6.713   2.663   3.699
 3951SOL    HW112752   6.698   2.564   3.696
 3951SOL    HW212753   6.723   2.698   3.606
 3952SOL     OW12754   5.761   5.152   6.796
 3952SOL    HW112755   5.828   5.079   6.784
 3952SOL    HW212756   5.669   5.113   6.804
 3953SOL     OW12757   3.458   2.934   5.139
 3953SOL    HW112758   3.497   2.846   5.165
 3953SOL    HW212759   3.359   2.924   5.124
 3954SOL     OW12760   0.794   4.571   5.620
 3954SOL    HW112761   0.867   4.546   5.556
 3954SOL    HW212762   0.761   4.489   5.666
 3955SOL     OW12763   5.685   3.334   0.042
 3955SOL    HW112764   5.640   3.340   6.976
 3955SOL    HW212765   5.784   3.328   0.030
 3956SOL     OW12766   6.672   2.892   5.196
 3956SOL    HW112767   6.638   2.923   5.285
 3956SOL    HW212768   6.771   2.904   5.192
 3957SOL     OW12769   1.953   2.766   1.600
 3957SOL    HW112770   2.044   2.729   1.579
 3957SOL    HW212771   1.915   2.808   1.518
 3958SOL     OW12772   5.556   5.733   1.641
 3958SOL    HW112773   5.506   5.805   1.688
 3958SOL    HW212774   5.498   5.652   1.632
 3959SOL     OW12775   3.271   4.947   1.155
 3959SOL    HW112776   3.273   4.901   1.244
 3959SOL    HW212777   3.353   5.004   1.146
 3960SOL     OW12778   5.867   3.191   1.202
 3960SOL    HW112779   5.851   3.254   1.126
 3960SOL    HW212780   5.951   3.217   1.250
 3961SOL     OW12781   6.958   1.376   0.934
 3961SOL    HW112782   6.944   1.458   0.879
 3961SOL    HW212783   0.033   1.364   0.952
 3962SOL     OW12784   0.279   6.615   6.376
 3962SOL    HW112785   0.221   6.696   6.372
 3962SOL    HW212786   0.375   6.643   6.381
 3963SOL     OW12787   5.290   3.752   4.677
 3963SOL    HW112788   5.250   3.662   4.695
 3963SOL    HW212789   5.353   3.775   4.751
 3964SOL     OW12790   6.011   4.573   6.762
 3964SOL    HW112791   6.086   4.571   6.829
 3964SOL    HW212792   6.042   4.620   6.679
 3965SOL     OW12793   2.253   4.250   1.645
 3965SOL    HW112794   2.322   4.314   1.680
 3965SOL    HW212795   2.270   4.233   1.548
 3966SOL     OW12796   6.917   3.048   5.632
 3966SOL    HW112797   6.911   3.131   5.576
 3966SOL    HW212798   6.962   2.976   5.580
 3967SOL     OW12799   1.945   0.190   0.563
 3967SOL    HW112800   1.884   0.224   0.635
 3967SOL    HW212801   1.891   0.147   0.491
 3968SOL     OW12802   4.541   2.862   0.846
 3968SOL    HW112803   4.520   2.937   0.783
 3968SOL    HW212804   4.614   2.805   0.808
 3969SOL     OW12805   6.258   6.239   1.242
 3969SOL    HW112806   6.165   6.270   1.262
 3969SOL    HW212807   6.321   6.275   1.311
 3970SOL     OW12808   5.524   4.126   4.009
 3970SOL    HW112809   5.430   4.112   3.977
 3970SOL    HW212810   5.559   4.212   3.974
 3971SOL     OW12811   0.054   5.945   3.942
 3971SOL    HW112812   0.057   5.938   3.842
 3971SOL    HW212813   6.986   5.919   3.975
 3972SOL     OW12814   0.973   0.695   6.650
 3972SOL    HW112815   1.018   0.612   6.616
 3972SOL    HW212816   0.875   0.690   6.629
 3973SOL     OW12817   3.995   3.106   2.011
 3973SOL    HW112818   3.913   3.164   2.013
 3973SOL    HW212819   4.039   3.114   1.922
 3974SOL     OW12820   5.252   1.129   6.671
 3974SOL    HW112821   5.333   1.076   6.694
 3974SOL    HW212822   5.178   1.106   6.734
 3975SOL     OW12823   6.734   5.993   3.755
 3975SOL    HW112824   6.670   6.000   3.678
 3975SOL    HW212825   6.822   5.961   3.722
 3976SOL     OW12826   0.445   2.919   5.474
 3976SOL    HW112827   0.494   2.977   5.409
 3976SOL    HW212828   0.505   2.847   5.507
 3977SOL     OW12829   2.470   4.944   5.873
 3977SOL    HW112830   2.567   4.960   5.856
 3977SOL    HW212831   2.454   4.845   5.880
 3978SOL     OW12832   4.902   2.583   5.794
 3978SOL    HW112833   4.846   2.575   5.876
 3978SOL    HW212834   4.866   2.657   5.736
 3979SOL     OW12835   0.827   5.332   2.815
 3979SOL    HW112836   0.770   5.271   2.760
 3979SOL    HW212837   0.771   5.408   2.850
 3980SOL     OW12838   5.156   4.101   3.934
 3980SOL    HW112839   5.151   4.142   4.025
 3980SOL    HW212840   5.221   4.153   3.878
 3981SOL     OW12841   6.993   0.869   6.626
 3981SOL    HW112842   6.894   0.882   6.628
 3981SOL    HW212843   7.022   0.847   6.533
 3982SOL     OW12844   2.192   3.103   4.567
 3982SOL    HW112845   2.192   3.196   4.604
 3982SOL    HW212846   2.188   3.037   4.643
 3983SOL     OW12847   2.810   0.788   3.505
 3983SOL    HW112848   2.908   0.795   3.526
 3983SOL    HW212849   2.795   0.714   3.440
 3984SOL     OW12850   1.399   5.920   2.056
 3984SOL    HW112851   1.452   5.985   2.001
 3984SOL    HW212852   1.303   5.946   2.053
 3985SOL     OW12853   1.775   2.559   1.375
 3985SOL    HW112854   1.710   2.550   1.451
 3985SOL    HW212855   1.852   2.617   1.403
 3986SOL     OW12856   0.609   1.582   3.149
 3986SOL    HW112857   0.583   1.493   3.112
 3986SOL    HW212858   0.606   1.579   3.249
 3987SOL     OW12859   0.996   4.183   5.429
 3987SOL    HW112860   1.063   4.175   5.504
 3987SOL    HW212861   0.911   4.137   5.455
 3988SOL     OW12862   5.144   6.607   1.874
 3988SOL    HW112863   5.222   6.573   1.927
 3988SOL    HW212864   5.069   6.628   1.936
 3989SOL     OW12865   4.250   0.528   6.021
 3989SOL    HW112866   4.279   0.487   5.935
 3989SOL    HW212867   4.197   0.461   6.074
 3990SOL     OW12868   6.171   0.285   3.900
 3990SOL    HW112869   6.239   0.319   3.834
 3990SOL    HW212870   6.166   0.185   3.894
 3991SOL     OW12871   6.484   2.126   3.475
 3991SOL    HW112872   6.452   2.062   3.545
 3991SOL    HW212873   6.426   2.119   3.395
 3992SOL     OW12874   5.823   3.513   5.871
 3992SOL    HW112875   5.861   3.592   5.824
 3992SOL    HW212876   5.745   3.477   5.819
 3993SOL     OW12877   1.557   1.028   4.317
 3993SOL    HW112878   1.553   1.128   4.316
 3993SOL    HW212879   1.470   0.991   4.349
 3994SOL     OW12880   3.158   2.124   3.686
 3994SOL    HW112881   3.163   2.133   3.586
 3994SOL    HW212882   3.069   2.086   3.711
 3995SOL     OW12883   1.599   3.222   1.834
 3995SOL    HW112884   1.605   3.320   1.854
 3995SOL    HW212885   1.535   3.207   1.759
 3996SOL     OW12886   0.467   6.278   5.174
 3996SOL    HW112887   0.483   6.275   5.273
 3996SOL    HW212888   0.511   6.200   5.131
 3997SOL     OW12889   5.615   3.376   4.853
 3997SOL    HW112890   5.691   3.358   4.791
 3997SOL    HW212891   5.634   3.459   4.906
 3998SOL     OW12892   3.697   2.153   3.649
 3998SOL    HW112893   3.738   2.148   3.740
 3998SOL    HW212894   3.598   2.142   3.656
 3999SOL     OW12895   4.901   3.657   0.855
 3999SOL    HW112896   4.915   3.747   0.896
 3999SOL    HW212897   4.818   3.658   0.799
 4000SOL     OW12898   2.285   4.913   2.952
 4000SOL    HW112899   2.234   4.827   2.938
 4000SOL    HW212900   2.371   4.908   2.902
 4001SOL     OW12901   0.790   6.024   4.681
 4001SOL    HW112902   0.721   6.002   4.612
 4001SOL    HW212903   0.809   5.944   4.736
 4002SOL     OW12904   3.994   3.896   5.072
 4002SOL    HW112905   4.029   3.984   5.038
 4002SOL    HW212906   4.023   3.823   5.011
 4003SOL     OW12907   2.728   1.132   4.515
 4003SOL    HW112908   2.637   1.091   4.509
 4003SOL    HW212909   2.730   1.217   4.461
 4004SOL     OW12910   1.588   3.516   5.059
 4004SOL    HW112911   1.679   3.543   5.091
 4004SOL    HW212912   1.597   3.454   4.981
 4005SOL     OW12913   5.661   3.035   1.198
 4005SOL    HW112914   5.571   3.077   1.206
 4005SOL    HW212915   5.731   3.106   1.189
 4006SOL     OW12916   0.187   5.976   1.965
 4006SOL    HW112917   0.239   5.973   1.880
 4006SOL    HW212918   0.244   5.944   2.040
 4007SOL     OW12919   0.614   1.122   1.222
 4007SOL    HW112920   0.522   1.158   1.234
 4007SOL    HW212921   0.615   1.060   1.143
 4008SOL     OW12922   4.092   0.964   1.552
 4008SOL    HW112923   4.160   0.932   1.486
 4008SOL    HW212924   4.124   0.944   1.645
 4009SOL     OW12925   3.570   2.446   1.306
 4009SOL    HW112926   3.602   2.354   1.329
 4009SOL    HW212927   3.601   2.511   1.376
 4010SOL     OW12928   1.552   4.818   0.896
 4010SOL    HW112929   1.574   4.896   0.955
 4010SOL    HW212930   1.457   4.825   0.866
 4011SOL     OW12931   5.863   6.882   6.147
 4011SOL    HW112932   5.783   6.898   6.089
 4011SOL    HW212933   5.841   6.903   6.242
 4012SOL     OW12934   5.219   5.098   1.602
 4012SOL    HW112935   5.285   5.119   1.531
 4012SOL    HW212936   5.146   5.042   1.564
 4013SOL     OW12937   0.047   1.968   6.885
 4013SOL    HW112938   0.044   1.879   6.840
 4013SOL    HW212939   0.095   2.034   6.827
 4014SOL     OW12940   2.957   6.134   2.517
 4014SOL    HW112941   2.892   6.201   2.554
 4014SOL    HW212942   2.907   6.062   2.469
 4015SOL     OW12943   3.957   6.557   5.018
 4015SOL    HW112944   3.932   6.535   4.923
 4015SOL    HW212945   3.971   6.473   5.069
 4016SOL     OW12946   4.834   5.168   4.571
 4016SOL    HW112947   4.854   5.114   4.653
 4016SOL    HW212948   4.919   5.207   4.536
 4017SOL     OW12949   2.114   6.153   6.097
 4017SOL    HW112950   2.107   6.122   6.191
 4017SOL    HW212951   2.143   6.249   6.095
 4018SOL     OW12952   5.231   5.202   0.465
 4018SOL    HW112953   5.279   5.114   0.470
 4018SOL    HW212954   5.198   5.227   0.557
 4019SOL     OW12955   0.622   2.336   3.289
 4019SOL    HW112956   0.616   2.327   3.388
 4019SOL    HW212957   0.697   2.281   3.254
 4020SOL     OW12958   6.640   5.689   3.875
 4020SOL    HW112959   6.581   5.752   3.926
 4020SOL    HW212960   6.728   5.681   3.921
 4021SOL     OW12961   4.872   5.330   5.916
 4021SOL    HW112962   4.830   5.252   5.964
 4021SOL    HW212963   4.931   5.296   5.843
 4022SOL     OW12964   3.487   0.033   1.596
 4022SOL    HW112965   3.563   0.095   1.578
 4022SOL    HW212966   3.494   7.021   1.690
 4023SOL     OW12967   0.896   1.895   4.554
 4023SOL    HW112968   0.958   1.917   4.479
 4023SOL    HW212969   0.812   1.855   4.517
 4024SOL     OW12970   1.216   6.785   6.304
 4024SOL    HW112971   1.311   6.761   6.326
 4024SOL    HW212972   1.186   6.861   6.363
 4025SOL     OW12973   0.311   3.905   4.767
 4025SOL    HW112974   0.284   3.999   4.788
 4025SOL    HW212975   0.300   3.888   4.669
 4026SOL     OW12976   0.712   6.506   4.382
 4026SOL    HW112977   0.631   6.452   4.403
 4026SOL    HW212978   0.745   6.483   4.291
 4027SOL     OW12979   2.785   5.223   5.400
 4027SOL    HW112980   2.743   5.154   5.460
 4027SOL    HW212981   2.822   5.179   5.319
 4028SOL     OW12982   5.036   1.534   4.585
 4028SOL    HW112983   4.964   1.602   4.598
 4028SOL    HW212984   5.041   1.475   4.665
 4029SOL     OW12985   1.767   6.312   0.502
 4029SOL    HW112986   1.811   6.393   0.539
 4029SOL    HW212987   1.667   6.323   0.508
 4030SOL     OW12988   1.087   1.339   1.670
 4030SOL    HW112989   1.065   1.381   1.583
 4030SOL    HW212990   1.014   1.276   1.696
 4031SOL     OW12991   5.782   5.765   0.686
 4031SOL    HW112992   5.750   5.722   0.602
 4031SOL    HW212993   5.707   5.814   0.729
 4032SOL     OW12994   4.973   1.894   1.998
 4032SOL    HW112995   5.036   1.953   1.946
 4032SOL    HW212996   5.025   1.831   2.055
 4033SOL     OW12997   1.763   3.129   2.710
 4033SOL    HW112998   1.817   3.044   2.710
 4033SOL    HW212999   1.758   3.164   2.616
 4034SOL     OW13000   2.153   2.418   4.777
 4034SOL    HW113001   2.242   2.384   4.746
 4034SOL    HW213002   2.127   2.371   4.862
 4035SOL     OW13003   3.789   2.340   1.630
 4035SOL    HW113004   3.732   2.319   1.709
 4035SOL    HW213005   3.863   2.402   1.657
 4036SOL     OW13006   3.943   6.288   3.534
 4036SOL    HW113007   3.968   6.266   3.440
 4036SOL    HW213008   3.986   6.223   3.596
 4037SOL     OW13009   1.834   1.291   6.322
 4037SOL    HW113010   1.816   1.223   6.251
 4037SOL    HW213011   1.778   1.372   6.306
 4038SOL     OW13012   3.924   4.584   5.822
 4038SOL    HW113013   3.920   4.661   5.885
 4038SOL    HW213014   3.834   4.571   5.779
 4039SOL     OW13015   6.183   4.609   1.405
 4039SOL    HW113016   6.194   4.568   1.315
 4039SOL    HW213017   6.272   4.632   1.443
 4040SOL     OW13018   2.549   0.228   5.076
 4040SOL    HW113019   2.639   0.270   5.089
 4040SOL    HW213020   2.497   0.280   5.008
 4041SOL     OW13021   1.525   6.330   1.636
 4041SOL    HW113022   1.441   6.286   1.604
 4041SOL    HW213023   1.603   6.270   1.618
 4042SOL     OW13024   0.484   1.347   3.824
 4042SOL    HW113025   0.388   1.373   3.829
 4042SOL    HW213026   0.505   1.313   3.732
 4043SOL     OW13027   4.072   2.244   6.190
 4043SOL    HW113028   4.049   2.333   6.152
 4043SOL    HW213029   4.108   2.256   6.283
 4044SOL     OW13030   4.621   4.381   3.327
 4044SOL    HW113031   4.632   4.343   3.235
 4044SOL    HW213032   4.526   4.411   3.339
 4045SOL     OW13033   4.221   1.080   4.927
 4045SOL    HW113034   4.286   1.023   4.976
 4045SOL    HW213035   4.265   1.165   4.900
 4046SOL     OW13036   5.004   1.303   4.124
 4046SOL    HW113037   4.987   1.383   4.182
 4046SOL    HW213038   4.916   1.263   4.097
 4047SOL     OW13039   2.923   2.222   6.387
 4047SOL    HW113040   2.830   2.255   6.406
 4047SOL    HW213041   2.989   2.273   6.443
 4048SOL     OW13042   4.773   2.360   3.474
 4048SOL    HW113043   4.724   2.408   3.400
 4048SOL    HW213044   4.871   2.375   3.464
 4049SOL     OW13045   4.273   4.004   1.425
 4049SOL    HW113046   4.243   3.909   1.424
 4049SOL    HW213047   4.346   4.016   1.493
 4050SOL     OW13048   6.771   4.797   3.289
 4050SOL    HW113049   6.826   4.865   3.241
 4050SOL    HW213050   6.827   4.751   3.357
 4051SOL     OW13051   6.082   1.138   4.268
 4051SOL    HW113052   6.036   1.063   4.316
 4051SOL    HW213053   6.094   1.214   4.332
 4052SOL     OW13054   4.711   1.893   4.260
 4052SOL    HW113055   4.732   1.834   4.182
 4052SOL    HW213056   4.720   1.989   4.232
 4053SOL     OW13057   0.601   4.899   3.896
 4053SOL    HW113058   0.653   4.950   3.965
 4053SOL    HW213059   0.508   4.936   3.891
 4054SOL     OW13060   4.895   4.144   1.225
 4054SOL    HW113061   4.976   4.152   1.283
 4054SOL    HW213062   4.813   4.145   1.281
 4055SOL     OW13063   0.099   4.477   0.168
 4055SOL    HW113064   0.124   4.427   0.085
 4055SOL    HW213065   0.003   4.504   0.163
 4056SOL     OW13066   5.042   3.651   0.039
 4056SOL    HW113067   4.955   3.669   7.016
 4056SOL    HW213068   5.037   3.564   0.087
 4057SOL     OW13069   7.006   4.121   5.980
 4057SOL    HW113070   6.919   4.128   5.931
 4057SOL    HW213071   0.007   4.211   6.018
 4058SOL     OW13072   3.969   0.934   4.123
 4058SOL    HW113073   3.951   1.019   4.073
 4058SOL    HW213074   3.934   0.942   4.217
 4059SOL     OW13075   1.150   1.430   4.082
 4059SOL    HW113076   1.078   1.386   4.135
 4059SOL    HW213077   1.151   1.391   3.989
 4060SOL     OW13078   0.092   6.361   4.338
 4060SOL    HW113079   0.024   6.389   4.270
 4060SOL    HW213080   0.166   6.312   4.293
 4061SOL     OW13081   1.005   4.568   2.015
 4061SOL    HW113082   0.999   4.474   2.046
 4061SOL    HW213083   1.100   4.593   2.000
 4062SOL     OW13084   2.312   4.601   0.411
 4062SOL    HW113085   2.336   4.643   0.499
 4062SOL    HW213086   2.372   4.523   0.394
 4063SOL     OW13087   3.741   0.775   0.868
 4063SOL    HW113088   3.800   0.737   0.939
 4063SOL    HW213089   3.645   0.766   0.895
 4064SOL     OW13090   2.367   0.628   4.876
 4064SOL    HW113091   2.387   0.655   4.781
 4064SOL    HW213092   2.282   0.672   4.905
 4065SOL     OW13093   2.267   1.652   1.409
 4065SOL    HW113094   2.281   1.571   1.352
 4065SOL    HW213095   2.305   1.732   1.363
 4066SOL     OW13096   0.447   3.670   4.387
 4066SOL    HW113097   0.402   3.721   4.460
 4066SOL    HW213098   0.378   3.618   4.336
 4067SOL     OW13099   6.482   4.761   0.785
 4067SOL    HW113100   6.384   4.782   0.784
 4067SOL    HW213101   6.498   4.673   0.740
 4068SOL     OW13102   1.745   2.651   5.765
 4068SOL    HW113103   1.806   2.577   5.740
 4068SOL    HW213104   1.755   2.727   5.701
 4069SOL     OW13105   4.796   6.907   5.701
 4069SOL    HW113106   4.838   6.821   5.731
 4069SOL    HW213107   4.850   6.984   5.735
 4070SOL     OW13108   1.846   3.337   4.501
 4070SOL    HW113109   1.844   3.285   4.416
 4070SOL    HW213110   1.861   3.434   4.481
 4071SOL     OW13111   1.670   0.638   4.949
 4071SOL    HW113112   1.741   0.696   4.987
 4071SOL    HW213113   1.710   0.549   4.924
 4072SOL     OW13114   2.954   6.756   2.779
 4072SOL    HW113115   2.860   6.734   2.804
 4072SOL    HW213116   2.956   6.841   2.726
 4073SOL     OW13117   4.248   5.238   6.590
 4073SOL    HW113118   4.172   5.277   6.642
 4073SOL    HW213119   4.222   5.231   6.494
 4074SOL     OW13120   1.572   6.058   2.235
 4074SOL    HW113121   1.507   5.995   2.191
 4074SOL    HW213122   1.551   6.064   2.333
 4075SOL     OW13123   5.995   0.795   0.082
 4075SOL    HW113124   6.051   0.822   0.160
 4075SOL    HW213125   5.966   0.876   0.032
 4076SOL     OW13126   1.751   5.854   4.013
 4076SOL    HW113127   1.732   5.828   3.918
 4076SOL    HW213128   1.831   5.803   4.045
 4077SOL     OW13129   2.593   2.025   1.658
 4077SOL    HW113130   2.644   2.095   1.709
 4077SOL    HW213131   2.591   1.940   1.711
 4078SOL     OW13132   4.301   5.330   2.132
 4078SOL    HW113133   4.270   5.352   2.225
 4078SOL    HW213134   4.344   5.411   2.092
 4079SOL     OW13135   0.345   1.689   4.195
 4079SOL    HW113136   0.379   1.679   4.102
 4079SOL    HW213137   0.395   1.762   4.241
 4080SOL     OW13138   6.091   2.388   4.269
 4080SOL    HW113139   6.141   2.373   4.354
 4080SOL    HW213140   6.061   2.483   4.264
 4081SOL     OW13141   6.874   3.839   3.028
 4081SOL    HW113142   6.862   3.869   3.123
 4081SOL    HW213143   6.845   3.912   2.967
 4082SOL     OW13144   0.351   3.102   0.212
 4082SOL    HW113145   0.365   3.137   0.305
 4082SOL    HW213146   0.437   3.105   0.162
 4083SOL     OW13147   6.443   3.190   4.916
 4083SOL    HW113148   6.505   3.115   4.939
 4083SOL    HW213149   6.362   3.154   4.870
 4084SOL     OW13150   5.655   0.843   4.580
 4084SOL    HW113151   5.660   0.767   4.645
 4084SOL    HW213152   5.561   0.852   4.546
 4085SOL     OW13153   3.334   5.796   6.517
 4085SOL    HW113154   3.394   5.772   6.593
 4085SOL    HW213155   3.381   5.778   6.431
 4086SOL     OW13156   0.642   3.003   1.571
 4086SOL    HW113157   0.734   2.980   1.604
 4086SOL    HW213158   0.640   3.000   1.471
 4087SOL     OW13159   2.122   0.949   3.348
 4087SOL    HW113160   2.196   0.931   3.412
 4087SOL    HW213161   2.146   1.025   3.288
 4088SOL     OW13162   6.867   2.164   6.890
 4088SOL    HW113163   6.901   2.071   6.879
 4088SOL    HW213164   6.793   2.165   6.957
 4089SOL     OW13165   0.559   1.020   5.790
 4089SOL    HW113166   0.471   0.995   5.750
 4089SOL    HW213167   0.544   1.053   5.883
 4090SOL     OW13168   3.554   5.294   6.374
 4090SOL    HW113169   3.596   5.252   6.293
 4090SOL    HW213170   3.523   5.222   6.437
 4091SOL     OW13171   4.889   6.781   1.383
 4091SOL    HW113172   4.805   6.820   1.347
 4091SOL    HW213173   4.945   6.852   1.424
 4092SOL     OW13174   0.654   1.308   4.338
 4092SOL    HW113175   0.596   1.347   4.410
 4092SOL    HW213176   0.600   1.298   4.254
 4093SOL     OW13177   5.246   0.031   4.188
 4093SOL    HW113178   5.308   6.985   4.150
 4093SOL    HW213179   5.159   7.011   4.212
 4094SOL     OW13180   3.570   3.739   6.084
 4094SOL    HW113181   3.553   3.648   6.122
 4094SOL    HW213182   3.500   3.761   6.017
 4095SOL     OW13183   1.703   3.735   6.047
 4095SOL    HW113184   1.719   3.644   6.084
 4095SOL    HW213185   1.728   3.738   5.950
 4096SOL     OW13186   4.522   4.863   1.778
 4096SOL    HW113187   4.474   4.780   1.806
 4096SOL    HW213188   4.511   4.876   1.679
 4097SOL     OW13189   3.382   4.172   3.345
 4097SOL    HW113190   3.365   4.269   3.326
 4097SOL    HW213191   3.454   4.164   3.414
 4098SOL     OW13192   0.917   3.178   1.901
 4098SOL    HW113193   0.923   3.156   1.804
 4098SOL    HW213194   0.853   3.114   1.945
 4099SOL     OW13195   2.871   6.016   1.928
 4099SOL    HW113196   2.791   6.064   1.962
 4099SOL    HW213197   2.900   6.057   1.841
 4100SOL     OW13198   3.769   0.327   3.052
 4100SOL    HW113199   3.828   0.329   2.972
 4100SOL    HW213200   3.673   0.331   3.023
 4101SOL     OW13201   4.489   1.705   6.436
 4101SOL    HW113202   4.405   1.654   6.420
 4101SOL    HW213203   4.487   1.743   6.529
 4102SOL     OW13204   4.215   1.616   6.368
 4102SOL    HW113205   4.210   1.527   6.322
 4102SOL    HW213206   4.145   1.677   6.330
 4103SOL     OW13207   0.111   0.476   1.725
 4103SOL    HW113208   0.101   0.527   1.640
 4103SOL    HW213209   0.115   0.539   1.802
 4104SOL     OW13210   2.182   4.757   2.483
 4104SOL    HW113211   2.186   4.660   2.507
 4104SOL    HW213212   2.145   4.766   2.391
 4105SOL     OW13213   5.905   5.456   0.266
 4105SOL    HW113214   5.937   5.422   0.354
 4105SOL    HW213215   5.810   5.428   0.251
 4106SOL     OW13216   6.496   3.766   4.553
 4106SOL    HW113217   6.509   3.865   4.560
 4106SOL    HW213218   6.432   3.747   4.478
 4107SOL     OW13219   0.227   0.597   0.712
 4107SOL    HW113220   0.152   0.622   0.772
 4107SOL    HW213221   0.252   0.501   0.728
 4108SOL     OW13222   6.257   2.388   5.161
 4108SOL    HW113223   6.250   2.359   5.066
 4108SOL    HW213224   6.177   2.357   5.212
 4109SOL     OW13225   2.466   6.111   3.804
 4109SOL    HW113226   2.553   6.087   3.761
 4109SOL    HW213227   2.434   6.199   3.769
 4110SOL     OW13228   4.727   3.315   5.267
 4110SOL    HW113229   4.723   3.403   5.220
 4110SOL    HW213230   4.815   3.271   5.248
 4111SOL     OW13231   3.726   2.836   6.515
 4111SOL    HW113232   3.760   2.751   6.556
 4111SOL    HW213233   3.681   2.816   6.428
 4112SOL     OW13234   4.138   0.208   5.957
 4112SOL    HW113235   4.072   0.260   6.013
 4112SOL    HW213236   4.107   0.113   5.949
 4113SOL     OW13237   3.752   5.092   4.879
 4113SOL    HW113238   3.803   5.064   4.797
 4113SOL    HW213239   3.750   5.017   4.944
 4114SOL     OW13240   3.962   1.847   2.775
 4114SOL    HW113241   3.876   1.899   2.769
 4114SOL    HW213242   3.984   1.832   2.872
 4115SOL     OW13243   4.851   3.948   2.854
 4115SOL    HW113244   4.788   3.999   2.912
 4115SOL    HW213245   4.868   3.858   2.894
 4116SOL     OW13246   2.801   0.846   2.264
 4116SOL    HW113247   2.860   0.778   2.307
 4116SOL    HW213248   2.788   0.923   2.326
 4117SOL     OW13249   0.911   6.144   1.242
 4117SOL    HW113250   0.949   6.054   1.262
 4117SOL    HW213251   0.960   6.185   1.165
 4118SOL     OW13252   1.728   0.176   6.668
 4118SOL    HW113253   1.661   0.194   6.741
 4118SOL    HW213254   1.733   0.078   6.651
 4119SOL     OW13255   5.016   1.541   3.549
 4119SOL    HW113256   5.024   1.442   3.564
 4119SOL    HW213257   5.029   1.589   3.636
 4120SOL     OW13258   5.427   1.241   2.458
 4120SOL    HW113259   5.335   1.246   2.497
 4120SOL    HW213260   5.429   1.171   2.387
 4121SOL     OW13261   6.149   2.393   3.783
 4121SOL    HW113262   6.087   2.356   3.714
 4121SOL    HW213263   6.138   2.342   3.869
 4122SOL     OW13264   2.072   5.525   0.148
 4122SOL    HW113265   2.151   5.473   0.181
 4122SOL    HW213266   2.061   5.512   0.050
 4123SOL     OW13267   4.208   3.398   5.506
 4123SOL    HW113268   4.307   3.389   5.504
 4123SOL    HW213269   4.171   3.384   5.414
 4124SOL     OW13270   4.181   6.020   3.468
 4124SOL    HW113271   4.136   6.054   3.550
 4124SOL    HW213272   4.162   5.922   3.457
 4125SOL     OW13273   4.524   1.069   1.923
 4125SOL    HW113274   4.564   1.160   1.937
 4125SOL    HW213275   4.583   1.017   1.861
 4126SOL     OW13276   1.818   4.380   4.563
 4126SOL    HW113277   1.819   4.311   4.636
 4126SOL    HW213278   1.758   4.456   4.590
 4127SOL     OW13279   5.685   4.674   4.492
 4127SOL    HW113280   5.739   4.591   4.482
 4127SOL    HW213281   5.733   4.750   4.447
 4128SOL     OW13282   0.088   2.016   1.772
 4128SOL    HW113283   0.169   2.016   1.713
 4128SOL    HW213284   0.011   2.057   1.723
 4129SOL     OW13285   6.599   3.057   6.386
 4129SOL    HW113286   6.537   3.076   6.310
 4129SOL    HW213287   6.684   3.109   6.373
 4130SOL     OW13288   6.455   2.522   1.342
 4130SOL    HW113289   6.523   2.568   1.398
 4130SOL    HW213290   6.487   2.517   1.247
 4131SOL     OW13291   6.636   3.686   3.000
 4131SOL    HW113292   6.657   3.634   3.083
 4131SOL    HW213293   6.713   3.745   2.978
 4132SOL     OW13294   4.905   1.850   4.475
 4132SOL    HW113295   4.834   1.797   4.521
 4132SOL    HW213296   4.879   1.865   4.380
 4133SOL     OW13297   2.525   2.529   1.364
 4133SOL    HW113298   2.576   2.502   1.446
 4133SOL    HW213299   2.585   2.581   1.303
 4134SOL     OW13300   1.867   1.035   0.158
 4134SOL    HW113301   1.882   1.076   0.248
 4134SOL    HW213302   1.942   1.060   0.097
 4135SOL     OW13303   1.983   0.472   0.863
 4135SOL    HW113304   1.969   0.506   0.770
 4135SOL    HW213305   1.961   0.374   0.867
 4136SOL     OW13306   0.737   1.699   3.758
 4136SOL    HW113307   0.767   1.637   3.686
 4136SOL    HW213308   0.777   1.671   3.845
 4137SOL     OW13309   3.919   3.162   5.536
 4137SOL    HW113310   3.990   3.106   5.494
 4137SOL    HW213311   3.925   3.256   5.500
 4138SOL     OW13312   4.507   5.522   1.831
 4138SOL    HW113313   4.503   5.445   1.767
 4138SOL    HW213314   4.418   5.536   1.874
 4139SOL     OW13315   2.886   2.045   0.603
 4139SOL    HW113316   2.850   1.952   0.615
 4139SOL    HW213317   2.962   2.043   0.538
 4140SOL     OW13318   4.523   1.855   5.224
 4140SOL    HW113319   4.533   1.922   5.150
 4140SOL    HW213320   4.426   1.830   5.234
 4141SOL     OW13321   5.658   5.646   0.949
 4141SOL    HW113322   5.744   5.631   0.998
 4141SOL    HW213323   5.625   5.739   0.968
 4142SOL     OW13324   6.164   3.571   1.421
 4142SOL    HW113325   6.251   3.534   1.386
 4142SOL    HW213326   6.169   3.671   1.425
 4143SOL     OW13327   0.238   2.919   1.612
 4143SOL    HW113328   0.154   2.913   1.557
 4143SOL    HW213329   0.241   2.843   1.676
 4144SOL     OW13330   3.769   0.759   2.030
 4144SOL    HW113331   3.800   0.852   2.009
 4144SOL    HW213332   3.673   0.749   2.004
 4145SOL     OW13333   3.263   6.787   3.368
 4145SOL    HW113334   3.274   6.777   3.466
 4145SOL    HW213335   3.296   6.704   3.322
 4146SOL     OW13336   4.432   4.662   0.572
 4146SOL    HW113337   4.349   4.639   0.521
 4146SOL    HW213338   4.438   4.604   0.653
 4147SOL     OW13339   2.582   1.846   5.858
 4147SOL    HW113340   2.490   1.873   5.886
 4147SOL    HW213341   2.597   1.750   5.881
 4148SOL     OW13342   0.066   0.136   2.276
 4148SOL    HW113343   0.137   0.199   2.309
 4148SOL    HW213344   0.011   0.105   2.353
 4149SOL     OW13345   4.692   4.342   2.287
 4149SOL    HW113346   4.631   4.321   2.211
 4149SOL    HW213347   4.639   4.375   2.365
 4150SOL     OW13348   4.259   0.196   5.403
 4150SOL    HW113349   4.244   0.191   5.501
 4150SOL    HW213350   4.314   0.276   5.381
 4151SOL     OW13351   0.428   5.323   0.413
 4151SOL    HW113352   0.482   5.397   0.372
 4151SOL    HW213353   0.384   5.357   0.496
 4152SOL     OW13354   3.245   3.977   1.284
 4152SOL    HW113355   3.207   3.913   1.351
 4152SOL    HW213356   3.175   4.001   1.217
 4153SOL     OW13357   6.291   5.646   5.967
 4153SOL    HW113358   6.209   5.629   6.021
 4153SOL    HW213359   6.344   5.719   6.010
 4154SOL     OW13360   4.641   2.655   4.868
 4154SOL    HW113361   4.675   2.747   4.884
 4154SOL    HW213362   4.572   2.632   4.936
 4155SOL     OW13363   1.561   2.698   0.571
 4155SOL    HW113364   1.467   2.686   0.603
 4155SOL    HW213365   1.566   2.779   0.513
 4156SOL     OW13366   5.948   0.787   5.015
 4156SOL    HW113367   5.958   0.858   5.084
 4156SOL    HW213368   6.035   0.776   4.966
 4157SOL     OW13369   3.245   0.819   3.271
 4157SOL    HW113370   3.295   0.873   3.339
 4157SOL    HW213371   3.275   0.724   3.276
 4158SOL     OW13372   1.315   0.448   3.561
 4158SOL    HW113373   1.337   0.354   3.536
 4158SOL    HW213374   1.219   0.455   3.588
 4159SOL     OW13375   7.001   4.363   5.439
 4159SOL    HW113376   0.046   4.401   5.377
 4159SOL    HW213377   6.919   4.336   5.388
 4160SOL     OW13378   0.201   0.584   0.435
 4160SOL    HW113379   0.230   0.672   0.398
 4160SOL    HW213380   0.207   0.585   0.535
 4161SOL     OW13381   6.132   2.031   1.337
 4161SOL    HW113382   6.084   2.082   1.409
 4161SOL    HW213383   6.072   2.020   1.258
 4162SOL     OW13384   1.171   0.063   5.457
 4162SOL    HW113385   1.183   0.081   5.554
 4162SOL    HW213386   1.206   0.140   5.404
 4163SOL     OW13387   6.676   1.526   5.345
 4163SOL    HW113388   6.753   1.486   5.294
 4163SOL    HW213389   6.606   1.456   5.359
 4164SOL     OW13390   2.900   6.767   5.736
 4164SOL    HW113391   2.825   6.809   5.786
 4164SOL    HW213392   2.891   6.667   5.741
 4165SOL     OW13393   2.247   6.231   1.796
 4165SOL    HW113394   2.346   6.229   1.787
 4165SOL    HW213395   2.216   6.146   1.838
 4166SOL     OW13396   5.996   2.059   1.992
 4166SOL    HW113397   5.912   2.069   1.939
 4166SOL    HW213398   6.060   2.131   1.967
 4167SOL     OW13399   1.861   2.470   1.095
 4167SOL    HW113400   1.956   2.497   1.115
 4167SOL    HW213401   1.801   2.506   1.167
 4168SOL     OW13402   2.313   5.304   1.199
 4168SOL    HW113403   2.279   5.235   1.135
 4168SOL    HW213404   2.378   5.262   1.262
 4169SOL     OW13405   6.472   3.691   6.375
 4169SOL    HW113406   6.468   3.614   6.311
 4169SOL    HW213407   6.398   3.683   6.442
 4170SOL     OW13408   3.553   1.065   5.687
 4170SOL    HW113409   3.650   1.055   5.666
 4170SOL    HW213410   3.527   0.996   5.755
 4171SOL     OW13411   5.936   3.780   1.186
 4171SOL    HW113412   5.981   3.822   1.264
 4171SOL    HW213413   5.901   3.690   1.212
 4172SOL     OW13414   2.809   0.912   0.732
 4172SOL    HW113415   2.909   0.912   0.725
 4172SOL    HW213416   2.783   0.920   0.829
 4173SOL     OW13417   4.492   3.352   5.499
 4173SOL    HW113418   4.578   3.315   5.533
 4173SOL    HW213419   4.510   3.431   5.441
 4174SOL     OW13420   5.345   0.660   2.933
 4174SOL    HW113421   5.340   0.569   2.974
 4174SOL    HW213422   5.273   0.669   2.864
 4175SOL     OW13423   2.152   1.393   2.564
 4175SOL    HW113424   2.073   1.440   2.524
 4175SOL    HW213425   2.236   1.433   2.528
 4176SOL     OW13426   5.837   4.429   2.660
 4176SOL    HW113427   5.792   4.457   2.575
 4176SOL    HW213428   5.789   4.350   2.699
 4177SOL     OW13429   6.846   5.559   2.886
 4177SOL    HW113430   6.749   5.582   2.891
 4177SOL    HW213431   6.887   5.608   2.809
 4178SOL     OW13432   4.533   2.205   5.219
 4178SOL    HW113433   4.616   2.198   5.163
 4178SOL    HW213434   4.557   2.203   5.316
 4179SOL     OW13435   6.465   2.179   0.373
 4179SOL    HW113436   6.378   2.221   0.401
 4179SOL    HW213437   6.540   2.225   0.420
 4180SOL     OW13438   5.119   3.769   1.580
 4180SOL    HW113439   5.136   3.683   1.629
 4180SOL    HW213440   5.032   3.808   1.611
 4181SOL     OW13441   6.247   1.013   1.020
 4181SOL    HW113442   6.230   1.110   1.005
 4181SOL    HW213443   6.194   0.958   0.955
 4182SOL     OW13444   5.937   0.706   3.524
 4182SOL    HW113445   5.959   0.619   3.569
 4182SOL    HW213446   5.979   0.708   3.433
 4183SOL     OW13447   1.299   1.025   1.862
 4183SOL    HW113448   1.357   0.984   1.931
 4183SOL    HW213449   1.327   0.992   1.771
 4184SOL     OW13450   4.472   4.880   6.303
 4184SOL    HW113451   4.507   4.891   6.396
 4184SOL    HW213452   4.387   4.827   6.306
 4185SOL     OW13453   0.401   0.465   3.679
 4185SOL    HW113454   0.427   0.413   3.761
 4185SOL    HW213455   0.332   0.414   3.627
 4186SOL     OW13456   3.619   4.096   1.865
 4186SOL    HW113457   3.610   4.186   1.822
 4186SOL    HW213458   3.599   4.104   1.963
 4187SOL     OW13459   4.169   5.060   6.126
 4187SOL    HW113460   4.148   5.076   6.223
 4187SOL    HW213461   4.143   5.141   6.073
 4188SOL     OW13462   4.995   6.149   3.268
 4188SOL    HW113463   5.089   6.133   3.297
 4188SOL    HW213464   4.943   6.189   3.343
 4189SOL     OW13465   1.630   3.150   3.283
 4189SOL    HW113466   1.660   3.055   3.277
 4189SOL    HW213467   1.542   3.154   3.331
 4190SOL     OW13468   2.193   0.085   1.520
 4190SOL    HW113469   2.206   0.133   1.607
 4190SOL    HW213470   2.244   7.022   1.521
 4191SOL     OW13471   0.703   2.067   3.484
 4191SOL    HW113472   0.662   1.986   3.527
 4191SOL    HW213473   0.737   2.043   3.393
 4192SOL     OW13474   5.978   6.710   3.840
 4192SOL    HW113475   5.989   6.719   3.741
 4192SOL    HW213476   6.060   6.670   3.879
 4193SOL     OW13477   1.699   6.764   4.040
 4193SOL    HW113478   1.693   6.825   4.119
 4193SOL    HW213479   1.665   6.673   4.065
 4194SOL     OW13480   5.649   6.952   3.079
 4194SOL    HW113481   5.594   6.875   3.112
 4194SOL    HW213482   5.637   6.962   2.980
 4195SOL     OW13483   4.592   0.480   3.390
 4195SOL    HW113484   4.684   0.501   3.423
 4195SOL    HW213485   4.528   0.549   3.422
 4196SOL     OW13486   4.693   2.724   3.459
 4196SOL    HW113487   4.727   2.812   3.427
 4196SOL    HW213488   4.734   2.702   3.548
 4197SOL     OW13489   5.251   4.191   4.494
 4197SOL    HW113490   5.236   4.094   4.477
 4197SOL    HW213491   5.265   4.238   4.407
 4198SOL     OW13492   6.176   3.234   6.094
 4198SOL    HW113493   6.251   3.286   6.136
 4198SOL    HW213494   6.185   3.235   5.995
 4199SOL     OW13495   2.757   4.074   6.393
 4199SOL    HW113496   2.828   4.085   6.322
 4199SOL    HW213497   2.715   4.163   6.411
 4200SOL     OW13498   3.072   0.451   0.031
 4200SOL    HW113499   3.112   0.430   0.120
 4200SOL    HW213500   2.983   0.406   0.023
 4201SOL     OW13501   6.734   0.116   4.932
 4201SOL    HW113502   6.813   0.082   4.983
 4201SOL    HW213503   6.652   0.110   4.990
 4202SOL     OW13504   5.762   3.320   5.196
 4202SOL    HW113505   5.666   3.346   5.202
 4202SOL    HW213506   5.769   3.222   5.174
 4203SOL     OW13507   3.686   5.282   4.583
 4203SOL    HW113508   3.705   5.247   4.675
 4203SOL    HW213509   3.600   5.331   4.583
 4204SOL     OW13510   1.912   4.024   0.141
 4204SOL    HW113511   1.959   4.063   0.219
 4204SOL    HW213512   1.830   4.078   0.121
 4205SOL     OW13513   2.483   5.924   3.464
 4205SOL    HW113514   2.386   5.908   3.485
 4205SOL    HW213515   2.521   5.843   3.420
 4206SOL     OW13516   5.091   6.606   3.830
 4206SOL    HW113517   5.056   6.518   3.800
 4206SOL    HW213518   5.191   6.601   3.840
 4207SOL     OW13519   1.334   6.253   6.995
 4207SOL    HW113520   1.244   6.208   6.996
 4207SOL    HW213521   1.369   6.254   6.902
 4208SOL     OW13522   0.291   2.324   1.843
 4208SOL    HW113523   0.313   2.317   1.746
 4208SOL    HW213524   0.246   2.411   1.861
 4209SOL     OW13525   3.154   0.280   5.248
 4209SOL    HW113526   3.129   0.366   5.205
 4209SOL    HW213527   3.172   0.295   5.346
 4210SOL     OW13528   3.641   2.866   0.607
 4210SOL    HW113529   3.639   2.865   0.507
 4210SOL    HW213530   3.725   2.823   0.639
 4211SOL     OW13531   5.210   3.707   4.189
 4211SOL    HW113532   5.302   3.682   4.159
 4211SOL    HW213533   5.206   3.704   4.289
 4212SOL     OW13534   6.330   6.841   2.071
 4212SOL    HW113535   6.248   6.852   2.128
 4212SOL    HW213536   6.411   6.857   2.127
 4213SOL     OW13537   0.876   7.021   1.015
 4213SOL    HW113538   0.927   6.990   1.096
 4213SOL    HW213539   0.893   0.095   0.999
 4214SOL     OW13540   2.894   5.705   3.617
 4214SOL    HW113541   2.952   5.625   3.601
 4214SOL    HW213542   2.913   5.775   3.548
 4215SOL     OW13543   1.528   5.748   6.829
 4215SOL    HW113544   1.478   5.833   6.815
 4215SOL    HW213545   1.488   5.676   6.772
 4216SOL     OW13546   2.761   2.868   5.468
 4216SOL    HW113547   2.787   2.959   5.501
 4216SOL    HW213548   2.666   2.869   5.439
 4217SOL     OW13549   6.414   0.911   4.408
 4217SOL    HW113550   6.468   0.953   4.335
 4217SOL    HW213551   6.425   0.811   4.403
 4218SOL     OW13552   3.391   5.514   2.508
 4218SOL    HW113553   3.464   5.448   2.523
 4218SOL    HW213554   3.313   5.468   2.465
 4219SOL     OW13555   5.299   0.298   2.790
 4219SOL    HW113556   5.334   0.262   2.703
 4219SOL    HW213557   5.370   0.293   2.859
 4220SOL     OW13558   6.998   4.659   2.716
 4220SOL    HW113559   7.018   4.756   2.731
 4220SOL    HW213560   6.903   4.640   2.741
 4221SOL     OW13561   5.225   6.536   6.075
 4221SOL    HW113562   5.206   6.591   5.993
 4221SOL    HW213563   5.261   6.447   6.048
 4222SOL     OW13564   2.757   2.786   0.026
 4222SOL    HW113565   2.836   2.819   6.997
 4222SOL    HW213566   2.771   2.804   0.124
 4223SOL     OW13567   3.623   3.957   3.064
 4223SOL    HW113568   3.567   3.930   3.142
 4223SOL    HW213569   3.714   3.984   3.097
 4224SOL     OW13570   3.570   1.894   5.609
 4224SOL    HW113571   3.616   1.813   5.644
 4224SOL    HW213572   3.632   1.973   5.615
 4225SOL     OW13573   5.260   0.286   4.429
 4225SOL    HW113574   5.219   0.196   4.445
 4225SOL    HW213575   5.322   0.281   4.350
 4226SOL     OW13576   2.123   1.933   2.187
 4226SOL    HW113577   2.033   1.892   2.198
 4226SOL    HW213578   2.140   1.952   2.090
 4227SOL     OW13579   5.446   3.910   6.883
 4227SOL    HW113580   5.400   3.826   6.855
 4227SOL    HW213581   5.456   3.970   6.804
 4228SOL     OW13582   4.246   5.375   2.904
 4228SOL    HW113583   4.262   5.335   2.813
 4228SOL    HW213584   4.250   5.475   2.897
 4229SOL     OW13585   3.716   4.987   5.136
 4229SOL    HW113586   3.795   4.996   5.196
 4229SOL    HW213587   3.640   4.947   5.188
 4230SOL     OW13588   2.627   1.191   6.171
 4230SOL    HW113589   2.693   1.151   6.107
 4230SOL    HW213590   2.600   1.282   6.139
 4231SOL     OW13591   3.806   6.377   6.559
 4231SOL    HW113592   3.755   6.460   6.583
 4231SOL    HW213593   3.817   6.320   6.641
 4232SOL     OW13594   1.319   4.030   1.400
 4232SOL    HW113595   1.374   4.098   1.352
 4232SOL    HW213596   1.342   3.938   1.366
 4233SOL     OW13597   5.379   5.793   1.097
 4233SOL    HW113598   5.308   5.815   1.030
 4233SOL    HW213599   5.355   5.708   1.144
 4234SOL     OW13600   3.881   3.525   5.627
 4234SOL    HW113601   3.784   3.516   5.604
 4234SOL    HW213602   3.936   3.503   5.547
 4235SOL     OW13603   0.243   4.152   4.830
 4235SOL    HW113604   0.237   4.170   4.928
 4235SOL    HW213605   0.152   4.154   4.790
 4236SOL     OW13606   0.843   3.662   4.526
 4236SOL    HW113607   0.860   3.757   4.500
 4236SOL    HW213608   0.878   3.646   4.618
 4237SOL     OW13609   6.047   3.915   5.886
 4237SOL    HW113610   6.033   3.965   5.801
 4237SOL    HW213611   5.964   3.920   5.942
 4238SOL     OW13612   4.584   4.846   4.878
 4238SOL    HW113613   4.496   4.823   4.920
 4238SOL    HW213614   4.613   4.936   4.908
 4239SOL     OW13615   5.123   5.516   5.598
 4239SOL    HW113616   5.076   5.536   5.683
 4239SOL    HW213617   5.182   5.594   5.573
 4240SOL     OW13618   2.793   5.022   6.122
 4240SOL    HW113619   2.800   4.954   6.049
 4240SOL    HW213620   2.884   5.039   6.160
 4241SOL     OW13621   3.489   2.254   0.877
 4241SOL    HW113622   3.441   2.271   0.963
 4241SOL    HW213623   3.558   2.183   0.890
 4242SOL     OW13624   2.412   0.259   1.600
 4242SOL    HW113625   2.342   0.290   1.535
 4242SOL    HW213626   2.502   0.274   1.559
 4243SOL     OW13627   1.845   2.476   2.403
 4243SOL    HW113628   1.792   2.546   2.450
 4243SOL    HW213629   1.785   2.401   2.376
 4244SOL     OW13630   2.925   0.267   1.080
 4244SOL    HW113631   2.964   0.294   1.168
 4244SOL    HW213632   2.829   0.293   1.077
 4245SOL     OW13633   0.178   1.399   0.683
 4245SOL    HW113634   0.163   1.375   0.779
 4245SOL    HW213635   0.200   1.497   0.677
 4246SOL     OW13636   4.736   2.358   3.749
 4246SOL    HW113637   4.754   2.264   3.775
 4246SOL    HW213638   4.725   2.365   3.650
 4247SOL     OW13639   2.477   5.712   6.643
 4247SOL    HW113640   2.498   5.750   6.733
 4247SOL    HW213641   2.458   5.615   6.651
 4248SOL     OW13642   2.729   0.088   2.826
 4248SOL    HW113643   2.824   0.107   2.804
 4248SOL    HW213644   2.687   0.170   2.865
 4249SOL     OW13645   5.961   1.338   5.496
 4249SOL    HW113646   5.966   1.334   5.396
 4249SOL    HW213647   5.909   1.418   5.524
 4250SOL     OW13648   0.798   5.616   4.589
 4250SOL    HW113649   0.830   5.528   4.624
 4250SOL    HW213650   0.717   5.601   4.532
 4251SOL     OW13651   4.658   2.103   4.821
 4251SOL    HW113652   4.755   2.101   4.797
 4251SOL    HW213653   4.607   2.040   4.762
 4252SOL     OW13654   1.012   6.988   6.387
 4252SOL    HW113655   0.989   0.011   6.301
 4252SOL    HW213656   1.080   0.019   6.436
 4253SOL     OW13657   4.341   6.898   3.032
 4253SOL    HW113658   4.317   6.933   2.942
 4253SOL    HW213659   4.433   6.929   3.057
 4254SOL     OW13660   1.010   1.577   5.389
 4254SOL    HW113661   0.913   1.585   5.412
 4254SOL    HW213662   1.020   1.560   5.291
 4255SOL     OW13663   1.022   3.051   3.982
 4255SOL    HW113664   1.029   2.959   4.022
 4255SOL    HW213665   0.982   3.113   4.049
 4256SOL     OW13666   6.113   6.056   0.944
 4256SOL    HW113667   6.150   6.067   0.852
 4256SOL    HW213668   6.049   5.980   0.946
 4257SOL     OW13669   0.098   1.312   1.909
 4257SOL    HW113670   0.028   1.260   1.958
 4257SOL    HW213671   0.057   1.395   1.870
 4258SOL     OW13672   2.827   5.740   1.105
 4258SOL    HW113673   2.746   5.682   1.103
 4258SOL    HW213674   2.843   5.771   1.199
 4259SOL     OW13675   0.687   6.405   0.276
 4259SOL    HW113676   0.604   6.438   0.231
 4259SOL    HW213677   0.713   6.468   0.349
 4260SOL     OW13678   0.318   0.581   5.247
 4260SOL    HW113679   0.281   0.669   5.217
 4260SOL    HW213680   0.398   0.598   5.305
 4261SOL     OW13681   2.383   6.360   3.684
 4261SOL    HW113682   2.415   6.306   3.606
 4261SOL    HW213683   2.461   6.404   3.729
 4262SOL     OW13684   1.659   3.908   4.957
 4262SOL    HW113685   1.623   3.969   4.887
 4262SOL    HW213686   1.605   3.824   4.959
 4263SOL     OW13687   3.500   0.710   2.606
 4263SOL    HW113688   3.546   0.796   2.584
 4263SOL    HW213689   3.402   0.719   2.589
 4264SOL     OW13690   4.743   1.738   6.404
 4264SOL    HW113691   4.814   1.683   6.449
 4264SOL    HW213692   4.653   1.709   6.436
 4265SOL     OW13693   3.468   6.697   7.015
 4265SOL    HW113694   3.551   6.744   0.023
 4265SOL    HW213695   3.410   6.762   6.966
 4266SOL     OW13696   1.193   4.282   2.289
 4266SOL    HW113697   1.250   4.360   2.311
 4266SOL    HW213698   1.220   4.204   2.345
 4267SOL     OW13699   1.899   3.415   4.073
 4267SOL    HW113700   1.922   3.484   4.005
 4267SOL    HW213701   1.875   3.329   4.026
 4268SOL     OW13702   1.611   4.128   5.999
 4268SOL    HW113703   1.694   4.136   6.054
 4268SOL    HW213704   1.540   4.083   6.053
 4269SOL     OW13705   2.108   1.553   4.059
 4269SOL    HW113706   2.144   1.478   4.003
 4269SOL    HW213707   2.153   1.638   4.034
 4270SOL     OW13708   4.312   4.111   1.178
 4270SOL    HW113709   4.298   4.061   1.092
 4270SOL    HW213710   4.280   4.055   1.254
 4271SOL     OW13711   6.631   0.205   0.894
 4271SOL    HW113712   6.691   0.276   0.929
 4271SOL    HW213713   6.564   0.245   0.831
 4272SOL     OW13714   6.118   1.710   5.560
 4272SOL    HW113715   6.123   1.706   5.461
 4272SOL    HW213716   6.209   1.699   5.600
 4273SOL     OW13717   3.822   5.559   3.521
 4273SOL    HW113718   3.868   5.635   3.473
 4273SOL    HW213719   3.890   5.505   3.570
 4274SOL     OW13720   6.889   0.563   1.345
 4274SOL    HW113721   6.825   0.593   1.273
 4274SOL    HW213722   6.849   0.583   1.434
 4275SOL     OW13723   6.200   1.385   4.391
 4275SOL    HW113724   6.188   1.421   4.299
 4275SOL    HW213725   6.248   1.453   4.448
 4276SOL     OW13726   1.571   0.686   2.903
 4276SOL    HW113727   1.519   0.771   2.910
 4276SOL    HW213728   1.669   0.707   2.904
 4277SOL     OW13729   6.195   5.548   2.716
 4277SOL    HW113730   6.248   5.632   2.721
 4277SOL    HW213731   6.211   5.493   2.798
 4278SOL     OW13732   0.530   6.872   1.506
 4278SOL    HW113733   0.492   6.838   1.592
 4278SOL    HW213734   0.568   6.963   1.520
 4279SOL     OW13735   0.986   3.547   3.003
 4279SOL    HW113736   0.984   3.550   3.103
 4279SOL    HW213737   1.080   3.557   2.971
 4280SOL     OW13738   3.132   6.462   6.627
 4280SOL    HW113739   3.040   6.430   6.603
 4280SOL    HW213740   3.163   6.413   6.709
 4281SOL     OW13741   6.937   6.593   2.594
 4281SOL    HW113742   6.898   6.518   2.540
 4281SOL    HW213743   0.011   6.575   2.612
 4282SOL     OW13744   5.176   4.707   1.846
 4282SOL    HW113745   5.224   4.780   1.892
 4282SOL    HW213746   5.176   4.723   1.747
 4283SOL     OW13747   6.248   1.476   4.840
 4283SOL    HW113748   6.170   1.470   4.778
 4283SOL    HW213749   6.222   1.443   4.931
 4284SOL     OW13750   4.590   6.168   0.300
 4284SOL    HW113751   4.570   6.103   0.373
 4284SOL    HW213752   4.591   6.261   0.337
 4285SOL     OW13753   2.839   1.395   6.090
 4285SOL    HW113754   2.836   1.426   6.184
 4285SOL    HW213755   2.869   1.469   6.030
 4286SOL     OW13756   5.587   6.370   0.045
 4286SOL    HW113757   5.515   6.333   0.104
 4286SOL    HW213758   5.674   6.370   0.095
 4287SOL     OW13759   4.199   0.506   0.975
 4287SOL    HW113760   4.265   0.439   0.941
 4287SOL    HW213761   4.236   0.598   0.962
 4288SOL     OW13762   0.563   6.700   2.350
 4288SOL    HW113763   0.514   6.619   2.318
 4288SOL    HW213764   0.645   6.713   2.295
 4289SOL     OW13765   0.234   4.068   5.877
 4289SOL    HW113766   0.200   4.020   5.796
 4289SOL    HW213767   0.157   4.093   5.936
 4290SOL     OW13768   7.007   1.140   2.967
 4290SOL    HW113769   0.010   1.234   2.989
 4290SOL    HW213770   6.909   1.128   2.982
 4291SOL     OW13771   4.423   4.955   6.037
 4291SOL    HW113772   4.365   5.034   6.055
 4291SOL    HW213773   4.467   4.925   6.121
 4292SOL     OW13774   6.632   0.102   0.560
 4292SOL    HW113775   6.573   0.178   0.586
 4292SOL    HW213776   6.719   0.137   0.527
 4293SOL     OW13777   3.621   3.196   6.216
 4293SOL    HW113778   3.679   3.242   6.283
 4293SOL    HW213779   3.677   3.134   6.160
 4294SOL     OW13780   3.415   2.329   0.191
 4294SOL    HW113781   3.330   2.300   0.235
 4294SOL    HW213782   3.395   2.395   0.119
 4295SOL     OW13783   4.123   6.672   2.740
 4295SOL    HW113784   4.206   6.616   2.742
 4295SOL    HW213785   4.043   6.613   2.741
 4296SOL     OW13786   2.288   5.561   2.142
 4296SOL    HW113787   2.300   5.535   2.046
 4296SOL    HW213788   2.372   5.605   2.174
 4297SOL     OW13789   4.891   4.611   0.072
 4297SOL    HW113790   4.793   4.593   0.077
 4297SOL    HW213791   4.909   4.676   7.021
 4298SOL     OW13792   2.072   6.327   0.522
 4298SOL    HW113793   1.981   6.309   0.559
 4298SOL    HW213794   2.083   6.425   0.505
 4299SOL     OW13795   0.210   3.603   6.301
 4299SOL    HW113796   0.271   3.662   6.353
 4299SOL    HW213797   0.257   3.569   6.220
 4300SOL     OW13798   3.531   0.623   1.605
 4300SOL    HW113799   3.433   0.640   1.612
 4300SOL    HW213800   3.565   0.663   1.520
 4301SOL     OW13801   2.034   6.227   4.622
 4301SOL    HW113802   2.076   6.205   4.710
 4301SOL    HW213803   1.940   6.191   4.620
 4302SOL     OW13804   3.987   4.987   0.064
 4302SOL    HW113805   4.086   5.001   0.067
 4302SOL    HW213806   3.956   4.948   0.151
 4303SOL     OW13807   4.549   5.045   3.319
 4303SOL    HW113808   4.581   5.090   3.236
 4303SOL    HW213809   4.605   5.073   3.397
 4304SOL     OW13810   3.167   4.264   1.734
 4304SOL    HW113811   3.090   4.311   1.777
 4304SOL    HW213812   3.239   4.330   1.714
 4305SOL     OW13813   1.202   6.746   5.870
 4305SOL    HW113814   1.289   6.726   5.915
 4305SOL    HW213815   1.155   6.660   5.849
 4306SOL     OW13816   5.743   3.795   5.281
 4306SOL    HW113817   5.662   3.737   5.286
 4306SOL    HW213818   5.737   3.853   5.199
 4307SOL     OW13819   6.927   1.593   4.596
 4307SOL    HW113820   7.020   1.607   4.564
 4307SOL    HW213821   6.904   1.662   4.664
 4308SOL     OW13822   4.228   5.616   5.889
 4308SOL    HW113823   4.288   5.588   5.814
 4308SOL    HW213824   4.265   5.698   5.932
 4309SOL     OW13825   3.069   2.104   0.830
 4309SOL    HW113826   3.077   2.200   0.800
 4309SOL    HW213827   2.975   2.073   0.817
 4310SOL     OW13828   6.507   1.548   4.211
 4310SOL    HW113829   6.583   1.483   4.200
 4310SOL    HW213830   6.487   1.560   4.308
 4311SOL     OW13831   1.074   6.807   1.533
 4311SOL    HW113832   1.063   6.833   1.629
 4311SOL    HW213833   1.003   6.742   1.508
 4312SOL     OW13834   0.168   3.222   3.010
 4312SOL    HW113835   0.137   3.163   2.936
 4312SOL    HW213836   0.228   3.293   2.974
 4313SOL     OW13837   0.848   3.158   0.913
 4313SOL    HW113838   0.761   3.171   0.960
 4313SOL    HW213839   0.900   3.086   0.959
 4314SOL     OW13840   2.206   1.372   5.894
 4314SOL    HW113841   2.262   1.386   5.813
 4314SOL    HW213842   2.247   1.301   5.951
 4315SOL     OW13843   2.462   2.369   5.361
 4315SOL    HW113844   2.457   2.461   5.323
 4315SOL    HW213845   2.557   2.339   5.362
 4316SOL     OW13846   4.535   4.503   1.062
 4316SOL    HW113847   4.567   4.598   1.062
 4316SOL    HW213848   4.565   4.457   1.146
 4317SOL     OW13849   5.208   0.671   4.070
 4317SOL    HW113850   5.298   0.690   4.030
 4317SOL    HW213851   5.198   0.572   4.083
 4318SOL     OW13852   1.481   5.970   3.793
 4318SOL    HW113853   1.576   6.001   3.805
 4318SOL    HW213854   1.446   5.935   3.880
 4319SOL     OW13855   2.238   4.627   1.711
 4319SOL    HW113856   2.223   4.606   1.614
 4319SOL    HW213857   2.316   4.575   1.745
 4320SOL     OW13858   4.062   1.181   1.906
 4320SOL    HW113859   4.140   1.220   1.955
 4320SOL    HW213860   3.982   1.240   1.920
 4321SOL     OW13861   6.488   5.834   2.943
 4321SOL    HW113862   6.446   5.889   3.016
 4321SOL    HW213863   6.543   5.893   2.884
 4322SOL     OW13864   2.820   2.157   4.847
 4322SOL    HW113865   2.783   2.245   4.878
 4322SOL    HW213866   2.745   2.097   4.820
 4323SOL     OW13867   5.237   4.024   1.536
 4323SOL    HW113868   5.238   3.925   1.552
 4323SOL    HW213869   5.282   4.071   1.612
 4324SOL     OW13870   6.263   3.888   5.232
 4324SOL    HW113871   6.201   3.814   5.258
 4324SOL    HW213872   6.264   3.957   5.304
 4325SOL     OW13873   1.351   0.559   1.084
 4325SOL    HW113874   1.349   0.620   1.163
 4325SOL    HW213875   1.283   0.590   1.016
 4326SOL     OW13876   4.958   2.341   2.492
 4326SOL    HW113877   4.894   2.391   2.434
 4326SOL    HW213878   4.912   2.262   2.533
 4327SOL     OW13879   2.924   6.542   3.950
 4327SOL    HW113880   2.903   6.588   3.864
 4327SOL    HW213881   2.875   6.455   3.954
 4328SOL     OW13882   6.064   0.152   2.025
 4328SOL    HW113883   6.027   0.212   1.954
 4328SOL    HW213884   6.154   0.186   2.052
 4329SOL     OW13885   6.010   4.350   0.526
 4329SOL    HW113886   5.994   4.445   0.500
 4329SOL    HW213887   6.103   4.323   0.499
 4330SOL     OW13888   2.608   5.572   5.428
 4330SOL    HW113889   2.538   5.515   5.470
 4330SOL    HW213890   2.692   5.568   5.482
 4331SOL     OW13891   6.176   1.481   3.039
 4331SOL    HW113892   6.097   1.422   3.023
 4331SOL    HW213893   6.184   1.547   2.963
 4332SOL     OW13894   6.890   5.722   1.181
 4332SOL    HW113895   6.798   5.752   1.206
 4332SOL    HW213896   6.888   5.624   1.161
 4333SOL     OW13897   3.357   3.131   6.268
 4333SOL    HW113898   3.452   3.161   6.263
 4333SOL    HW213899   3.339   3.092   6.358
 4334SOL     OW13900   0.325   2.301   3.629
 4334SOL    HW113901   0.282   2.264   3.546
 4334SOL    HW213902   0.293   2.250   3.709
 4335SOL     OW13903   1.899   3.621   1.434
 4335SOL    HW113904   1.882   3.526   1.410
 4335SOL    HW213905   1.890   3.633   1.533
 4336SOL     OW13906   2.108   4.759   5.420
 4336SOL    HW113907   2.169   4.794   5.490
 4336SOL    HW213908   2.160   4.703   5.355
 4337SOL     OW13909   6.773   4.365   4.369
 4337SOL    HW113910   6.721   4.294   4.418
 4337SOL    HW213911   6.871   4.348   4.381
 4338SOL     OW13912   3.446   2.829   5.545
 4338SOL    HW113913   3.470   2.769   5.469
 4338SOL    HW213914   3.528   2.875   5.579
 4339SOL     OW13915   3.893   4.001   5.303
 4339SOL    HW113916   3.901   3.956   5.214
 4339SOL    HW213917   3.818   4.068   5.299
 4340SOL     OW13918   0.142   4.101   0.208
 4340SOL    HW113919   0.166   4.005   0.193
 4340SOL    HW213920   0.042   4.112   0.201
 4341SOL     OW13921   6.362   6.227   1.661
 4341SOL    HW113922   6.332   6.294   1.593
 4341SOL    HW213923   6.336   6.258   1.752
 4342SOL     OW13924   4.912   3.593   1.996
 4342SOL    HW113925   4.877   3.550   1.913
 4342SOL    HW213926   4.884   3.540   2.076
 4343SOL     OW13927   4.844   0.204   6.342
 4343SOL    HW113928   4.855   0.107   6.322
 4343SOL    HW213929   4.755   0.235   6.309
 4344SOL     OW13930   1.111   3.522   1.675
 4344SOL    HW113931   1.033   3.480   1.721
 4344SOL    HW213932   1.157   3.585   1.737
 4345SOL     OW13933   4.016   3.238   2.861
 4345SOL    HW113934   3.968   3.155   2.890
 4345SOL    HW213935   3.968   3.278   2.783
 4346SOL     OW13936   0.898   3.648   2.439
 4346SOL    HW113937   0.881   3.566   2.385
 4346SOL    HW213938   0.876   3.630   2.535
 4347SOL     OW13939   6.171   5.925   1.353
 4347SOL    HW113940   6.263   5.932   1.393
 4347SOL    HW213941   6.175   5.947   1.256
 4348SOL     OW13942   6.513   4.425   6.161
 4348SOL    HW113943   6.588   4.416   6.097
 4348SOL    HW213944   6.545   4.471   6.244
 4349SOL     OW13945   0.810   3.853   3.984
 4349SOL    HW113946   0.802   3.855   4.083
 4349SOL    HW213947   0.859   3.934   3.952
 4350SOL     OW13948   5.356   0.038   3.742
 4350SOL    HW113949   5.426   0.021   3.673
 4350SOL    HW213950   5.323   0.132   3.734
 4351SOL     OW13951   0.664   6.273   0.961
 4351SOL    HW113952   0.707   6.184   0.979
 4351SOL    HW213953   0.624   6.309   1.045
 4352SOL     OW13954   3.389   4.214   1.293
 4352SOL    HW113955   3.335   4.132   1.314
 4352SOL    HW213956   3.474   4.188   1.248
 4353SOL     OW13957   2.111   4.141   0.336
 4353SOL    HW113958   2.199   4.094   0.327
 4353SOL    HW213959   2.122   4.237   0.310
 4354SOL     OW13960   5.165   5.197   1.847
 4354SOL    HW113961   5.218   5.138   1.909
 4354SOL    HW213962   5.196   5.183   1.753
 4355SOL     OW13963   1.893   4.721   3.709
 4355SOL    HW113964   1.950   4.775   3.646
 4355SOL    HW213965   1.942   4.637   3.732
 4356SOL     OW13966   5.586   1.484   5.638
 4356SOL    HW113967   5.682   1.477   5.667
 4356SOL    HW213968   5.531   1.418   5.689
 4357SOL     OW13969   5.378   6.064   2.922
 4357SOL    HW113970   5.476   6.059   2.942
 4357SOL    HW213971   5.328   5.999   2.980
 4358SOL     OW13972   2.521   0.896   1.224
 4358SOL    HW113973   2.470   0.863   1.303
 4358SOL    HW213974   2.608   0.847   1.218
 4359SOL     OW13975   2.724   2.653   1.268
 4359SOL    HW113976   2.741   2.746   1.301
 4359SOL    HW213977   2.726   2.652   1.168
 4360SOL     OW13978   3.011   6.127   3.741
 4360SOL    HW113979   3.058   6.214   3.729
 4360SOL    HW213980   3.076   6.051   3.732
 4361SOL     OW13981   2.010   1.047   6.560
 4361SOL    HW113982   2.000   1.146   6.555
 4361SOL    HW213983   2.034   1.021   6.653
 4362SOL     OW13984   0.218   5.882   2.648
 4362SOL    HW113985   0.224   5.974   2.688
 4362SOL    HW213986   0.176   5.888   2.558
 4363SOL     OW13987   3.785   0.203   2.004
 4363SOL    HW113988   3.819   0.283   2.054
 4363SOL    HW213989   3.811   0.119   2.053
 4364SOL     OW13990   2.934   3.558   3.268
 4364SOL    HW113991   2.947   3.490   3.196
 4364SOL    HW213992   2.962   3.648   3.233
 4365SOL     OW13993   2.473   1.285   1.127
 4365SOL    HW113994   2.533   1.360   1.099
 4365SOL    HW213995   2.460   1.222   1.050
 4366SOL     OW13996   4.529   5.571   4.639
 4366SOL    HW113997   4.612   5.520   4.615
 4366SOL    HW213998   4.451   5.532   4.589
 4367SOL     OW13999   1.887   7.015   1.946
 4367SOL    HW114000   1.928   6.992   1.858
 4367SOL    HW214001   1.824   0.069   1.935
 4368SOL     OW14002   5.014   4.756   4.526
 4368SOL    HW114003   5.103   4.735   4.567
 4368SOL    HW214004   4.954   4.676   4.533
 4369SOL     OW14005   6.333   4.006   3.808
 4369SOL    HW114006   6.251   4.054   3.776
 4369SOL    HW214007   6.358   4.039   3.898
 4370SOL     OW14008   4.985   4.768   0.727
 4370SOL    HW114009   4.973   4.819   0.642
 4370SOL    HW214010   4.897   4.731   0.757
 4371SOL     OW14011   3.495   1.037   3.127
 4371SOL    HW114012   3.575   0.992   3.087
 4371SOL    HW214013   3.414   1.015   3.073
 4372SOL     OW14014   1.519   4.498   4.928
 4372SOL    HW114015   1.538   4.583   4.880
 4372SOL    HW214016   1.603   4.462   4.968
 4373SOL     OW14017   4.520   0.449   0.214
 4373SOL    HW114018   4.517   0.393   0.131
 4373SOL    HW214019   4.578   0.404   0.282
 4374SOL     OW14020   2.328   6.169   0.527
 4374SOL    HW114021   2.259   6.240   0.542
 4374SOL    HW214022   2.395   6.171   0.601
 4375SOL     OW14023   4.688   0.673   6.034
 4375SOL    HW114024   4.656   0.718   5.951
 4375SOL    HW214025   4.779   0.707   6.058
 4376SOL     OW14026   3.290   5.046   6.840
 4376SOL    HW114027   3.381   5.024   6.875
 4376SOL    HW214028   3.225   5.051   6.916
 4377SOL     OW14029   5.377   6.306   6.766
 4377SOL    HW114030   5.470   6.335   6.787
 4377SOL    HW214031   5.316   6.332   6.841
 4378SOL     OW14032   3.351   4.780   1.472
 4378SOL    HW114033   3.435   4.727   1.459
 4378SOL    HW214034   3.359   4.834   1.556
 4379SOL     OW14035   6.367   6.041   0.460
 4379SOL    HW114036   6.351   5.962   0.401
 4379SOL    HW214037   6.462   6.072   0.450
 4380SOL     OW14038   2.012   5.729   4.827
 4380SOL    HW114039   2.010   5.659   4.899
 4380SOL    HW214040   1.918   5.753   4.802
 4381SOL     OW14041   3.264   6.227   4.439
 4381SOL    HW114042   3.167   6.202   4.440
 4381SOL    HW214043   3.311   6.184   4.516
 4382SOL     OW14044   5.340   4.260   3.801
 4382SOL    HW114045   5.283   4.271   3.719
 4382SOL    HW214046   5.408   4.333   3.804
 4383SOL     OW14047   1.424   0.248   0.087
 4383SOL    HW114048   1.365   0.249   0.167
 4383SOL    HW214049   1.368   0.258   0.004
 4384SOL     OW14050   3.636   6.726   2.019
 4384SOL    HW114051   3.695   6.749   1.941
 4384SOL    HW214052   3.672   6.768   2.102
 4385SOL     OW14053   6.375   2.644   4.208
 4385SOL    HW114054   6.379   2.546   4.187
 4385SOL    HW214055   6.454   2.690   4.168
 4386SOL     OW14056   1.687   5.473   6.847
 4386SOL    HW114057   1.598   5.474   6.802
 4386SOL    HW214058   1.674   5.479   6.946
 4387SOL     OW14059   5.914   2.659   0.811
 4387SOL    HW114060   5.852   2.625   0.881
 4387SOL    HW214061   6.007   2.628   0.831
 4388SOL     OW14062   4.013   1.326   5.884
 4388SOL    HW114063   4.011   1.358   5.789
 4388SOL    HW214064   3.937   1.368   5.934
 4389SOL     OW14065   0.884   2.131   2.767
 4389SOL    HW114066   0.821   2.054   2.774
 4389SOL    HW214067   0.844   2.202   2.709
 4390SOL     OW14068   4.505   3.888   1.048
 4390SOL    HW114069   4.492   3.831   1.129
 4390SOL    HW214070   4.603   3.902   1.034
 4391SOL     OW14071   0.632   5.540   0.562
 4391SOL    HW114072   0.593   5.508   0.648
 4391SOL    HW214073   0.590   5.627   0.536
 4392SOL     OW14074   5.120   5.232   5.172
 4392SOL    HW114075   5.156   5.302   5.112
 4392SOL    HW214076   5.033   5.199   5.136
 4393SOL     OW14077   5.029   6.508   3.338
 4393SOL    HW114078   5.001   6.598   3.305
 4393SOL    HW214079   4.973   6.482   3.417
 4394SOL     OW14080   4.729   0.763   2.338
 4394SOL    HW114081   4.779   0.813   2.409
 4394SOL    HW214082   4.766   0.671   2.329
 4395SOL     OW14083   4.448   2.468   1.135
 4395SOL    HW114084   4.434   2.530   1.058
 4395SOL    HW214085   4.413   2.377   1.112
 4396SOL     OW14086   1.821   1.360   2.714
 4396SOL    HW114087   1.887   1.423   2.754
 4396SOL    HW214088   1.762   1.409   2.650
 4397SOL     OW14089   3.989   1.152   0.102
 4397SOL    HW114090   4.072   1.103   0.129
 4397SOL    HW214091   3.971   1.137   0.005
 4398SOL     OW14092   0.645   5.131   4.424
 4398SOL    HW114093   0.626   5.060   4.357
 4398SOL    HW214094   0.664   5.090   4.513
 4399SOL     OW14095   2.848   0.555   1.609
 4399SOL    HW114096   2.758   0.598   1.595
 4399SOL    HW214097   2.879   0.574   1.702
 4400SOL     OW14098   3.316   4.905   2.672
 4400SOL    HW114099   3.289   4.903   2.769
 4400SOL    HW214100   3.236   4.924   2.616
 4401SOL     OW14101   5.223   6.451   4.556
 4401SOL    HW114102   5.217   6.352   4.544
 4401SOL    HW214103   5.174   6.478   4.639
 4402SOL     OW14104   0.002   6.312   1.764
 4402SOL    HW114105   6.940   6.364   1.766
 4402SOL    HW214106   0.040   6.306   1.856
 4403SOL     OW14107   6.527   1.459   3.457
 4403SOL    HW114108   6.589   1.383   3.438
 4403SOL    HW214109   6.492   1.495   3.371
 4404SOL     OW14110   1.600   4.127   2.204
 4404SOL    HW114111   1.539   4.048   2.194
 4404SOL    HW214112   1.618   4.143   2.301
 4405SOL     OW14113   2.574   3.645   6.501
 4405SOL    HW114114   2.498   3.704   6.528
 4405SOL    HW214115   2.552   3.600   6.414
 4406SOL     OW14116   6.245   2.255   2.190
 4406SOL    HW114117   6.255   2.188   2.116
 4406SOL    HW214118   6.330   2.309   2.197
 4407SOL     OW14119   1.002   1.205   0.383
 4407SOL    HW114120   1.099   1.197   0.358
 4407SOL    HW214121   0.991   1.177   0.478
 4408SOL     OW14122   3.967   6.050   1.630
 4408SOL    HW114123   3.877   6.009   1.613
 4408SOL    HW214124   3.978   6.132   1.574
 4409SOL     OW14125   3.519   2.018   2.627
 4409SOL    HW114126   3.449   2.062   2.683
 4409SOL    HW214127   3.507   2.046   2.531
 4410SOL     OW14128   2.149   5.840   0.772
 4410SOL    HW114129   2.119   5.935   0.785
 4410SOL    HW214130   2.195   5.809   0.854
 4411SOL     OW14131   3.586   3.325   2.469
 4411SOL    HW114132   3.520   3.262   2.508
 4411SOL    HW214133   3.624   3.287   2.385
 4412SOL     OW14134   3.300   1.355   6.124
 4412SOL    HW114135   3.266   1.315   6.039
 4412SOL    HW214136   3.400   1.350   6.126
 4413SOL     OW14137   3.741   5.624   4.020
 4413SOL    HW114138   3.710   5.646   3.927
 4413SOL    HW214139   3.804   5.546   4.017
 4414SOL     OW14140   3.462   4.960   2.049
 4414SOL    HW114141   3.443   5.037   1.988
 4414SOL    HW214142   3.519   4.893   2.002
 4415SOL     OW14143   4.181   1.481   2.012
 4415SOL    HW114144   4.259   1.536   1.982
 4415SOL    HW214145   4.099   1.508   1.961
 4416SOL     OW14146   2.730   2.370   4.487
 4416SOL    HW114147   2.672   2.441   4.525
 4416SOL    HW214148   2.818   2.369   4.535
 4417SOL     OW14149   5.815   6.808   1.303
 4417SOL    HW114150   5.771   6.885   1.259
 4417SOL    HW214151   5.793   6.807   1.401
 4418SOL     OW14152   4.713   0.344   2.976
 4418SOL    HW114153   4.677   0.437   2.981
 4418SOL    HW214154   4.689   0.295   3.061
 4419SOL     OW14155   6.081   5.434   6.177
 4419SOL    HW114156   6.049   5.435   6.272
 4419SOL    HW214157   6.037   5.508   6.126
 4420SOL     OW14158   5.646   0.773   0.961
 4420SOL    HW114159   5.587   0.781   0.881
 4420SOL    HW214160   5.728   0.721   0.938
 4421SOL     OW14161   0.218   1.562   3.136
 4421SOL    HW114162   0.223   1.650   3.184
 4421SOL    HW214163   0.296   1.554   3.074
 4422SOL     OW14164   1.576   3.896   5.696
 4422SOL    HW114165   1.602   3.952   5.774
 4422SOL    HW214166   1.621   3.806   5.703
 4423SOL     OW14167   6.963   1.529   5.888
 4423SOL    HW114168   6.966   1.441   5.840
 4423SOL    HW214169   6.919   1.597   5.829
 4424SOL     OW14170   1.356   5.227   3.287
 4424SOL    HW114171   1.349   5.253   3.384
 4424SOL    HW214172   1.358   5.128   3.279
 4425SOL     OW14173   4.892   3.838   1.701
 4425SOL    HW114174   4.857   3.847   1.794
 4425SOL    HW214175   4.825   3.788   1.646
 4426SOL     OW14176   0.329   6.910   6.753
 4426SOL    HW114177   0.239   6.880   6.785
 4426SOL    HW214178   0.340   7.008   6.772
 4427SOL     OW14179   0.673   5.708   3.238
 4427SOL    HW114180   0.663   5.754   3.326
 4427SOL    HW214181   0.769   5.711   3.210
 4428SOL     OW14182   1.266   6.907   2.664
 4428SOL    HW114183   1.200   6.833   2.679
 4428SOL    HW214184   1.354   6.883   2.706
 4429SOL     OW14185   2.689   0.449   2.715
 4429SOL    HW114186   2.589   0.448   2.718
 4429SOL    HW214187   2.722   0.542   2.731
 4430SOL     OW14188   1.951   0.570   2.073
 4430SOL    HW114189   2.021   0.504   2.101
 4430SOL    HW214190   1.861   0.527   2.078
 4431SOL     OW14191   2.001   2.145   3.006
 4431SOL    HW114192   2.021   2.048   2.993
 4431SOL    HW214193   2.011   2.193   2.918
 4432SOL     OW14194   3.492   4.184   4.479
 4432SOL    HW114195   3.418   4.202   4.414
 4432SOL    HW214196   3.579   4.212   4.439
 4433SOL     OW14197   6.661   0.084   1.764
 4433SOL    HW114198   6.570   0.115   1.738
 4433SOL    HW214199   6.699   0.027   1.690
 4434SOL     OW14200   5.717   1.801   5.552
 4434SOL    HW114201   5.618   1.805   5.539
 4434SOL    HW214202   5.737   1.762   5.642
 4435SOL     OW14203   3.751   2.887   2.002
 4435SOL    HW114204   3.766   2.841   1.915
 4435SOL    HW214205   3.760   2.986   1.990
 4436SOL     OW14206   5.825   0.360   0.273
 4436SOL    HW114207   5.823   0.316   0.183
 4436SOL    HW214208   5.837   0.459   0.262
 4437SOL     OW14209   3.466   6.883   5.972
 4437SOL    HW114210   3.407   6.822   5.920
 4437SOL    HW214211   3.527   6.933   5.909
 4438SOL     OW14212   3.599   2.294   6.896
 4438SOL    HW114213   3.584   2.383   6.852
 4438SOL    HW214214   3.551   2.223   6.846
 4439SOL     OW14215   1.577   4.365   2.868
 4439SOL    HW114216   1.511   4.415   2.812
 4439SOL    HW214217   1.603   4.420   2.947
 4440SOL     OW14218   6.405   1.176   0.765
 4440SOL    HW114219   6.330   1.212   0.821
 4440SOL    HW214220   6.445   1.097   0.811
 4441SOL     OW14221   7.015   0.211   4.170
 4441SOL    HW114222   0.011   0.288   4.230
 4441SOL    HW214223   6.984   0.133   4.225
 4442SOL     OW14224   1.782   5.551   2.318
 4442SOL    HW114225   1.736   5.605   2.389
 4442SOL    HW214226   1.713   5.510   2.258
 4443SOL     OW14227   2.242   1.177   0.801
 4443SOL    HW114228   2.208   1.211   0.889
 4443SOL    HW214229   2.316   1.112   0.818
 4444SOL     OW14230   4.798   1.636   3.427
 4444SOL    HW114231   4.893   1.613   3.449
 4444SOL    HW214232   4.789   1.735   3.421
 4445SOL     OW14233   0.889   1.964   6.468
 4445SOL    HW114234   0.892   1.874   6.425
 4445SOL    HW214235   0.814   2.017   6.430
 4446SOL     OW14236   6.452   5.007   4.332
 4446SOL    HW114237   6.485   5.092   4.374
 4446SOL    HW214238   6.487   4.929   4.383
 4447SOL     OW14239   4.831   3.916   5.063
 4447SOL    HW114240   4.812   3.821   5.035
 4447SOL    HW214241   4.789   3.934   5.151
 4448SOL     OW14242   2.478   3.592   6.769
 4448SOL    HW114243   2.528   3.678   6.765
 4448SOL    HW214244   2.538   3.517   6.743
 4449SOL     OW14245   6.986   0.929   5.591
 4449SOL    HW114246   6.939   0.866   5.529
 4449SOL    HW214247   6.921   0.964   5.659
 4450SOL     OW14248   3.629   3.623   3.329
 4450SOL    HW114249   3.726   3.645   3.340
 4450SOL    HW214250   3.609   3.535   3.373
 4451SOL     OW14251   0.328   4.988   1.113
 4451SOL    HW114252   0.418   4.975   1.155
 4451SOL    HW214253   0.295   4.900   1.079
 4452SOL     OW14254   0.155   3.575   6.684
 4452SOL    HW114255   0.076   3.550   6.628
 4452SOL    HW214256   0.229   3.510   6.668
 4453SOL     OW14257   5.932   0.281   1.287
 4453SOL    HW114258   5.999   0.355   1.282
 4453SOL    HW214259   5.862   0.304   1.354
 4454SOL     OW14260   5.724   2.970   1.713
 4454SOL    HW114261   5.749   2.984   1.617
 4454SOL    HW214262   5.698   3.057   1.753
 4455SOL     OW14263   4.447   2.415   2.888
 4455SOL    HW114264   4.420   2.389   2.795
 4455SOL    HW214265   4.370   2.401   2.950
 4456SOL     OW14266   0.448   5.641   2.442
 4456SOL    HW114267   0.410   5.662   2.532
 4456SOL    HW214268   0.537   5.596   2.453
 4457SOL     OW14269   4.417   2.072   6.551
 4457SOL    HW114270   4.462   2.116   6.629
 4457SOL    HW214271   4.486   2.047   6.483
 4458SOL     OW14272   4.508   1.285   1.286
 4458SOL    HW114273   4.435   1.307   1.350
 4458SOL    HW214274   4.485   1.321   1.195
 4459SOL     OW14275   5.990   5.961   5.662
 4459SOL    HW114276   5.894   5.954   5.689
 4459SOL    HW214277   6.021   5.873   5.627
 4460SOL     OW14278   1.480   1.416   0.420
 4460SOL    HW114279   1.574   1.417   0.454
 4460SOL    HW214280   1.419   1.384   0.493
 4461SOL     OW14281   1.917   0.483   3.033
 4461SOL    HW114282   1.930   0.564   2.976
 4461SOL    HW214283   1.991   0.418   3.016
 4462SOL     OW14284   6.431   4.214   0.669
 4462SOL    HW114285   6.478   4.235   0.755
 4462SOL    HW214286   6.444   4.117   0.647
 4463SOL     OW14287   0.382   4.917   6.876
 4463SOL    HW114288   0.442   4.958   6.944
 4463SOL    HW214289   0.290   4.907   6.915
 4464SOL     OW14290   6.831   2.872   0.021
 4464SOL    HW114291   6.823   2.773   0.026
 4464SOL    HW214292   6.768   2.914   0.087
 4465SOL     OW14293   6.155   5.328   1.065
 4465SOL    HW114294   6.196   5.383   1.138
 4465SOL    HW214295   6.215   5.327   0.986
 4466SOL     OW14296   6.976   2.690   3.829
 4466SOL    HW114297   6.938   2.728   3.914
 4466SOL    HW214298   6.903   2.651   3.774
 4467SOL     OW14299   1.246   0.789   4.535
 4467SOL    HW114300   1.311   0.714   4.547
 4467SOL    HW214301   1.237   0.839   4.621
 4468SOL     OW14302   1.342   1.435   0.671
 4468SOL    HW114303   1.300   1.377   0.741
 4468SOL    HW214304   1.296   1.524   0.671
 4469SOL     OW14305   5.124   6.831   0.425
 4469SOL    HW114306   5.042   6.797   0.379
 4469SOL    HW214307   5.114   6.821   0.524
 4470SOL     OW14308   4.795   4.845   1.527
 4470SOL    HW114309   4.825   4.753   1.549
 4470SOL    HW214310   4.695   4.851   1.533
 4471SOL     OW14311   5.882   2.234   1.735
 4471SOL    HW114312   5.830   2.287   1.803
 4471SOL    HW214313   5.972   2.276   1.723
 4472SOL     OW14314   2.620   5.350   1.655
 4472SOL    HW114315   2.684   5.421   1.624
 4472SOL    HW214316   2.593   5.368   1.750
 4473SOL     OW14317   5.874   0.747   0.382
 4473SOL    HW114318   5.804   0.759   0.311
 4473SOL    HW214319   5.958   0.792   0.354
 4474SOL     OW14320   6.202   0.845   4.613
 4474SOL    HW114321   6.225   0.917   4.548
 4474SOL    HW214322   6.195   0.758   4.566
 4475SOL     OW14323   1.493   3.355   0.156
 4475SOL    HW114324   1.479   3.340   0.254
 4475SOL    HW214325   1.406   3.381   0.114
 4476SOL     OW14326   3.882   6.545   2.817
 4476SOL    HW114327   3.875   6.477   2.891
 4476SOL    HW214328   3.796   6.593   2.807
 4477SOL     OW14329   1.782   2.144   0.775
 4477SOL    HW114330   1.857   2.164   0.839
 4477SOL    HW214331   1.772   2.045   0.766
 4478SOL     OW14332   1.061   4.606   0.822
 4478SOL    HW114333   1.065   4.706   0.833
 4478SOL    HW214334   1.104   4.563   0.901
 4479SOL     OW14335   1.694   6.768   6.220
 4479SOL    HW114336   1.713   6.686   6.167
 4479SOL    HW214337   1.724   6.849   6.169
 4480SOL     OW14338   6.807   3.798   3.463
 4480SOL    HW114339   6.857   3.718   3.496
 4480SOL    HW214340   6.871   3.863   3.422
 4481SOL     OW14341   0.803   1.170   4.545
 4481SOL    HW114342   0.766   1.164   4.453
 4481SOL    HW214343   0.896   1.133   4.546
 4482SOL     OW14344   0.873   3.938   2.946
 4482SOL    HW114345   0.840   3.925   3.039
 4482SOL    HW214346   0.810   3.998   2.896
 4483SOL     OW14347   5.606   3.924   0.654
 4483SOL    HW114348   5.560   3.878   0.578
 4483SOL    HW214349   5.703   3.936   0.633
 4484SOL     OW14350   3.182   3.660   6.901
 4484SOL    HW114351   3.234   3.590   6.951
 4484SOL    HW214352   3.103   3.617   6.857
 4485SOL     OW14353   4.634   6.874   6.011
 4485SOL    HW114354   4.579   6.911   5.937
 4485SOL    HW214355   4.712   6.824   5.974
 4486SOL     OW14356   6.101   3.145   4.231
 4486SOL    HW114357   6.198   3.118   4.235
 4486SOL    HW214358   6.082   3.210   4.305
 4487SOL     OW14359   3.364   3.377   5.881
 4487SOL    HW114360   3.278   3.331   5.859
 4487SOL    HW214361   3.370   3.463   5.830
 4488SOL     OW14362   6.813   2.295   6.436
 4488SOL    HW114363   6.751   2.255   6.503
 4488SOL    HW214364   6.906   2.263   6.453
 4489SOL     OW14365   0.693   1.002   3.021
 4489SOL    HW114366   0.706   0.934   2.949
 4489SOL    HW214367   0.712   0.961   3.110
 4490SOL     OW14368   6.629   1.928   4.302
 4490SOL    HW114369   6.724   1.908   4.326
 4490SOL    HW214370   6.602   1.869   4.225
 4491SOL     OW14371   1.546   4.297   1.817
 4491SOL    HW114372   1.472   4.275   1.880
 4491SOL    HW214373   1.596   4.214   1.794
 4492SOL     OW14374   5.298   3.842   6.060
 4492SOL    HW114375   5.350   3.909   6.008
 4492SOL    HW214376   5.283   3.760   6.005
 4493SOL     OW14377   6.115   4.431   3.068
 4493SOL    HW114378   6.197   4.414   3.122
 4493SOL    HW214379   6.131   4.505   3.004
 4494SOL     OW14380   5.406   2.017   1.756
 4494SOL    HW114381   5.425   2.040   1.660
 4494SOL    HW214382   5.461   1.938   1.783
 4495SOL     OW14383   5.592   5.239   1.642
 4495SOL    HW114384   5.627   5.236   1.735
 4495SOL    HW214385   5.494   5.221   1.643
 4496SOL     OW14386   6.118   3.464   5.879
 4496SOL    HW114387   6.020   3.466   5.894
 4496SOL    HW214388   6.140   3.396   5.809
 4497SOL     OW14389   0.031   5.960   1.184
 4497SOL    HW114390   7.015   6.023   1.117
 4497SOL    HW214391   6.988   5.886   1.201
 4498SOL     OW14392   1.358   4.037   6.145
 4498SOL    HW114393   1.291   3.977   6.102
 4498SOL    HW214394   1.323   4.069   6.233
 4499SOL     OW14395   5.451   3.856   0.450
 4499SOL    HW114396   5.374   3.911   0.481
 4499SOL    HW214397   5.506   3.909   0.385
 4500SOL     OW14398   3.860   3.966   2.148
 4500SOL    HW114399   3.938   3.926   2.196
 4500SOL    HW214400   3.875   3.960   2.050
 4501SOL     OW14401   1.188   5.147   4.921
 4501SOL    HW114402   1.142   5.201   4.992
 4501SOL    HW214403   1.282   5.128   4.949
 4502SOL     OW14404   5.403   2.556   0.173
 4502SOL    HW114405   5.402   2.654   0.194
 4502SOL    HW214406   5.310   2.525   0.154
 4503SOL     OW14407   1.111   3.242   2.558
 4503SOL    HW114408   1.167   3.315   2.596
 4503SOL    HW214409   1.017   3.252   2.590
 4504SOL     OW14410   4.447   2.510   4.432
 4504SOL    HW114411   4.378   2.495   4.362
 4504SOL    HW214412   4.441   2.438   4.502
 4505SOL     OW14413   2.428   4.942   0.542
 4505SOL    HW114414   2.341   4.957   0.495
 4505SOL    HW214415   2.496   5.007   0.508
 4506SOL     OW14416   3.593   0.003   5.773
 4506SOL    HW114417   3.550   0.081   5.728
 4506SOL    HW214418   3.682   0.031   5.810
 4507SOL     OW14419   6.362   3.716   2.269
 4507SOL    HW114420   6.460   3.735   2.266
 4507SOL    HW214421   6.331   3.717   2.364
 4508SOL     OW14422   1.926   4.156   0.523
 4508SOL    HW114423   1.991   4.157   0.447
 4508SOL    HW214424   1.975   4.164   0.610
 4509SOL     OW14425   1.085   2.642   3.168
 4509SOL    HW114426   1.074   2.725   3.112
 4509SOL    HW214427   1.075   2.666   3.265
 4510SOL     OW14428   2.856   6.541   6.479
 4510SOL    HW114429   2.770   6.513   6.523
 4510SOL    HW214430   2.852   6.520   6.382
 4511SOL     OW14431   0.303   2.405   0.099
 4511SOL    HW114432   0.305   2.371   0.193
 4511SOL    HW214433   0.374   2.475   0.087
 4512SOL     OW14434   2.492   4.443   0.241
 4512SOL    HW114435   2.413   4.394   0.205
 4512SOL    HW214436   2.571   4.426   0.182
 4513SOL     OW14437   6.672   1.544   3.098
 4513SOL    HW114438   6.682   1.635   3.139
 4513SOL    HW214439   6.738   1.482   3.141
 4514SOL     OW14440   2.382   0.373   4.938
 4514SOL    HW114441   2.288   0.341   4.950
 4514SOL    HW214442   2.383   0.473   4.931
 4515SOL     OW14443   6.954   5.191   0.236
 4515SOL    HW114444   6.904   5.128   0.296
 4515SOL    HW214445   0.022   5.152   0.216
 4516SOL     OW14446   0.428   0.145   3.677
 4516SOL    HW114447   0.449   0.136   3.580
 4516SOL    HW214448   0.490   0.086   3.730
 4517SOL     OW14449   2.935   1.369   6.475
 4517SOL    HW114450   2.982   1.410   6.396
 4517SOL    HW214451   2.839   1.354   6.453
 4518SOL     OW14452   1.596   0.492   3.456
 4518SOL    HW114453   1.611   0.395   3.438
 4518SOL    HW214454   1.499   0.507   3.477
 4519SOL     OW14455   6.961   2.226   4.993
 4519SOL    HW114456   0.002   2.226   5.070
 4519SOL    HW214457   6.906   2.310   4.996
 4520SOL     OW14458   6.950   3.477   2.925
 4520SOL    HW114459   6.922   3.449   3.016
 4520SOL    HW214460   7.020   3.548   2.932
 4521SOL     OW14461   4.993   1.684   6.232
 4521SOL    HW114462   5.090   1.699   6.254
 4521SOL    HW214463   4.937   1.743   6.290
 4522SOL     OW14464   5.535   6.844   3.385
 4522SOL    HW114465   5.560   6.811   3.295
 4522SOL    HW214466   5.440   6.873   3.385
 4523SOL     OW14467   4.555   2.043   5.821
 4523SOL    HW114468   4.570   2.052   5.919
 4523SOL    HW214469   4.526   1.949   5.800
 4524SOL     OW14470   5.946   0.454   5.334
 4524SOL    HW114471   5.894   0.534   5.362
 4524SOL    HW214472   6.003   0.476   5.255
 4525SOL     OW14473   6.577   1.078   4.221
 4525SOL    HW114474   6.634   1.107   4.298
 4525SOL    HW214475   6.521   1.155   4.190
 4526SOL     OW14476   2.824   1.752   1.501
 4526SOL    HW114477   2.809   1.664   1.546
 4526SOL    HW214478   2.883   1.809   1.558
 4527SOL     OW14479   4.469   6.270   3.849
 4527SOL    HW114480   4.424   6.305   3.767
 4527SOL    HW214481   4.422   6.305   3.930
 4528SOL     OW14482   4.607   0.362   6.232
 4528SOL    HW114483   4.513   0.342   6.258
 4528SOL    HW214484   4.612   0.453   6.191
 4529SOL     OW14485   3.186   6.904   4.021
 4529SOL    HW114486   3.255   6.953   4.074
 4529SOL    HW214487   3.146   6.832   4.078
 4530SOL     OW14488   6.565   2.461   4.038
 4530SOL    HW114489   6.593   2.469   3.942
 4530SOL    HW214490   6.645   2.460   4.096
 4531SOL     OW14491   0.541   3.961   3.856
 4531SOL    HW114492   0.486   3.891   3.811
 4531SOL    HW214493   0.549   3.939   3.953
 4532SOL     OW14494   0.748   2.575   0.491
 4532SOL    HW114495   0.745   2.505   0.562
 4532SOL    HW214496   0.663   2.574   0.439
 4533SOL     OW14497   3.512   6.441   2.095
 4533SOL    HW114498   3.566   6.509   2.045
 4533SOL    HW214499   3.459   6.487   2.166
 4534SOL     OW14500   6.739   4.111   5.911
 4534SOL    HW114501   6.710   4.042   5.976
 4534SOL    HW214502   6.714   4.202   5.945
 4535SOL     OW14503   5.242   2.122   2.719
 4535SOL    HW114504   5.339   2.137   2.740
 4535SOL    HW214505   5.186   2.145   2.798
 4536SOL     OW14506   6.880   0.006   3.599
 4536SOL    HW114507   6.884   0.101   3.569
 4536SOL    HW214508   6.971   7.000   3.630
 4537SOL     OW14509   4.753   3.287   5.549
 4537SOL    HW114510   4.764   3.324   5.457
 4537SOL    HW214511   4.809   3.204   5.559
 4538SOL     OW14512   3.415   2.225   1.741
 4538SOL    HW114513   3.382   2.299   1.683
 4538SOL    HW214514   3.507   2.247   1.775
 4539SOL     OW14515   2.355   2.844   1.593
 4539SOL    HW114516   2.330   2.860   1.689
 4539SOL    HW214517   2.311   2.912   1.535
 4540SOL     OW14518   3.147   2.979   4.893
 4540SOL    HW114519   3.124   2.882   4.882
 4540SOL    HW214520   3.171   2.997   4.989
 4541SOL     OW14521   6.084   1.522   1.627
 4541SOL    HW114522   6.105   1.480   1.715
 4541SOL    HW214523   6.103   1.620   1.631
 4542SOL     OW14524   5.286   6.574   3.287
 4542SOL    HW114525   5.281   6.614   3.195
 4542SOL    HW214526   5.195   6.540   3.313
 4543SOL     OW14527   6.052   2.474   2.495
 4543SOL    HW114528   6.071   2.382   2.461
 4543SOL    HW214529   5.985   2.519   2.436
 4544SOL     OW14530   5.510   4.986   6.472
 4544SOL    HW114531   5.565   4.951   6.547
 4544SOL    HW214532   5.456   4.912   6.432
 4545SOL     OW14533   3.383   3.802   6.468
 4545SOL    HW114534   3.393   3.895   6.433
 4545SOL    HW214535   3.352   3.741   6.395
 4546SOL     OW14536   0.457   6.189   0.009
 4546SOL    HW114537   0.431   6.115   6.969
 4546SOL    HW214538   0.545   6.167   0.052
 4547SOL     OW14539   4.359   1.516   2.781
 4547SOL    HW114540   4.274   1.467   2.764
 4547SOL    HW214541   4.437   1.458   2.755
 4548SOL     OW14542   0.745   3.229   4.115
 4548SOL    HW114543   0.726   3.313   4.065
 4548SOL    HW214544   0.832   3.238   4.163
 4549SOL     OW14545   5.857   1.453   2.400
 4549SOL    HW114546   5.828   1.504   2.481
 4549SOL    HW214547   5.891   1.363   2.427
 4550SOL     OW14548   2.072   5.064   4.828
 4550SOL    HW114549   2.074   5.058   4.928
 4550SOL    HW214550   1.995   5.009   4.793
 4551SOL     OW14551   6.375   3.771   0.652
 4551SOL    HW114552   6.375   3.684   0.603
 4551SOL    HW214553   6.438   3.767   0.729
 4552SOL     OW14554   6.802   3.017   4.663
 4552SOL    HW114555   6.825   2.920   4.671
 4552SOL    HW214556   6.823   3.064   4.749
 4553SOL     OW14557   5.248   4.828   6.610
 4553SOL    HW114558   5.244   4.736   6.571
 4553SOL    HW214559   5.301   4.826   6.695
 4554SOL     OW14560   6.312   6.398   3.751
 4554SOL    HW114561   6.258   6.424   3.671
 4554SOL    HW214562   6.303   6.469   3.821
 4555SOL     OW14563   3.915   3.353   0.348
 4555SOL    HW114564   3.847   3.360   0.421
 4555SOL    HW214565   3.965   3.267   0.357
 4556SOL     OW14566   4.407   0.403   5.349
 4556SOL    HW114567   4.408   0.503   5.352
 4556SOL    HW214568   4.500   0.368   5.361
 4557SOL     OW14569   5.583   1.239   4.448
 4557SOL    HW114570   5.554   1.176   4.376
 4557SOL    HW214571   5.516   1.313   4.457
 4558SOL     OW14572   6.907   3.125   6.361
 4558SOL    HW114573   6.907   3.189   6.438
 4558SOL    HW214574   6.958   3.042   6.386
 4559SOL     OW14575   1.409   6.367   1.332
 4559SOL    HW114576   1.316   6.377   1.369
 4559SOL    HW214577   1.468   6.439   1.369
 4560SOL     OW14578   5.703   2.786   2.496
 4560SOL    HW114579   5.680   2.880   2.472
 4560SOL    HW214580   5.790   2.784   2.545
 4561SOL     OW14581   3.415   6.397   6.497
 4561SOL    HW114582   3.429   6.462   6.422
 4561SOL    HW214583   3.318   6.395   6.521
 4562SOL     OW14584   2.762   4.344   6.014
 4562SOL    HW114585   2.783   4.354   5.917
 4562SOL    HW214586   2.666   4.318   6.025
 4563SOL     OW14587   6.003   2.568   6.876
 4563SOL    HW114588   6.070   2.524   6.936
 4563SOL    HW214589   6.034   2.659   6.851
 4564SOL     OW14590   0.226   5.330   0.087
 4564SOL    HW114591   0.313   5.326   0.038
 4564SOL    HW214592   0.241   5.367   0.179
 4565SOL     OW14593   3.043   1.264   3.827
 4565SOL    HW114594   3.089   1.234   3.910
 4565SOL    HW214595   2.945   1.274   3.846
 4566SOL     OW14596   1.434   0.935   0.966
 4566SOL    HW114597   1.478   1.025   0.970
 4566SOL    HW214598   1.503   0.863   0.978
 4567SOL     OW14599   5.899   1.876   0.545
 4567SOL    HW114600   5.871   1.936   0.470
 4567SOL    HW214601   5.822   1.860   0.607
 4568SOL     OW14602   4.424   5.059   3.913
 4568SOL    HW114603   4.395   5.110   3.994
 4568SOL    HW214604   4.390   4.965   3.919
 4569SOL     OW14605   1.132   1.935   3.901
 4569SOL    HW114606   1.109   1.995   3.978
 4569SOL    HW214607   1.048   1.909   3.853
 4570SOL     OW14608   5.332   5.742   4.652
 4570SOL    HW114609   5.295   5.662   4.698
 4570SOL    HW214610   5.287   5.825   4.686
 4571SOL     OW14611   3.996   3.136   3.778
 4571SOL    HW114612   4.026   3.041   3.786
 4571SOL    HW214613   3.904   3.145   3.816
 4572SOL     OW14614   2.747   5.393   1.255
 4572SOL    HW114615   2.728   5.298   1.277
 4572SOL    HW214616   2.772   5.443   1.338
 4573SOL     OW14617   5.562   0.305   1.269
 4573SOL    HW114618   5.481   0.313   1.327
 4573SOL    HW214619   5.537   0.323   1.174
 4574SOL     OW14620   0.336   4.330   1.966
 4574SOL    HW114621   0.429   4.328   1.928
 4574SOL    HW214622   0.279   4.264   1.919
 4575SOL     OW14623   6.763   6.236   2.035
 4575SOL    HW114624   6.709   6.186   1.967
 4575SOL    HW214625   6.807   6.314   1.992
 4576SOL     OW14626   3.261   6.328   3.925
 4576SOL    HW114627   3.303   6.409   3.964
 4576SOL    HW214628   3.237   6.345   3.829
 4577SOL     OW14629   1.987   3.551   3.861
 4577SOL    HW114630   2.042   3.624   3.821
 4577SOL    HW214631   2.018   3.463   3.827
 4578SOL     OW14632   6.581   5.992   3.529
 4578SOL    HW114633   6.579   5.966   3.433
 4578SOL    HW214634   6.496   6.038   3.553
 4579SOL     OW14635   4.911   1.584   3.847
 4579SOL    HW114636   4.861   1.654   3.797
 4579SOL    HW214637   4.847   1.515   3.880
 4580SOL     OW14638   0.469   5.521   6.590
 4580SOL    HW114639   0.382   5.537   6.638
 4580SOL    HW214640   0.453   5.520   6.492
 4581SOL     OW14641   3.435   5.901   4.734
 4581SOL    HW114642   3.413   5.886   4.830
 4581SOL    HW214643   3.363   5.954   4.691
 4582SOL     OW14644   4.946   6.777   3.258
 4582SOL    HW114645   4.944   6.823   3.347
 4582SOL    HW214646   4.964   6.843   3.186
 4583SOL     OW14647   3.532   0.204   5.624
 4583SOL    HW114648   3.620   0.230   5.583
 4583SOL    HW214649   3.469   0.282   5.620
 4584SOL     OW14650   0.046   5.342   5.373
 4584SOL    HW114651   6.972   5.316   5.376
 4584SOL    HW214652   0.074   5.358   5.279
 4585SOL     OW14653   3.164   6.219   2.327
 4585SOL    HW114654   3.198   6.196   2.236
 4585SOL    HW214655   3.066   6.197   2.333
 4586SOL     OW14656   2.567   6.085   1.559
 4586SOL    HW114657   2.579   6.013   1.490
 4586SOL    HW214658   2.607   6.170   1.525
 4587SOL     OW14659   2.977   5.057   0.659
 4587SOL    HW114660   2.960   4.963   0.687
 4587SOL    HW214661   2.890   5.107   0.653
 4588SOL     OW14662   3.223   4.087   5.102
 4588SOL    HW114663   3.322   4.095   5.103
 4588SOL    HW214664   3.188   4.089   5.196
 4589SOL     OW14665   1.544   2.112   3.701
 4589SOL    HW114666   1.485   2.033   3.681
 4589SOL    HW214667   1.619   2.114   3.635
 4590SOL     OW14668   4.073   6.576   3.162
 4590SOL    HW114669   4.168   6.583   3.131
 4590SOL    HW214670   4.031   6.667   3.162
 4591SOL     OW14671   5.112   5.906   4.723
 4591SOL    HW114672   5.060   5.915   4.638
 4591SOL    HW214673   5.145   5.996   4.751
 4592SOL     OW14674   3.248   1.544   5.694
 4592SOL    HW114675   3.325   1.484   5.716
 4592SOL    HW214676   3.250   1.624   5.754
 4593SOL     OW14677   4.787   6.625   1.746
 4593SOL    HW114678   4.730   6.632   1.828
 4593SOL    HW214679   4.833   6.713   1.730
 4594SOL     OW14680   4.093   2.244   2.662
 4594SOL    HW114681   4.082   2.146   2.646
 4594SOL    HW214682   4.039   2.270   2.742
 4595SOL     OW14683   4.440   3.348   5.918
 4595SOL    HW114684   4.424   3.412   5.993
 4595SOL    HW214685   4.527   3.370   5.873
 4596SOL     OW14686   4.694   0.573   2.594
 4596SOL    HW114687   4.628   0.541   2.662
 4596SOL    HW214688   4.769   0.620   2.639
 4597SOL     OW14689   6.479   3.533   5.630
 4597SOL    HW114690   6.560   3.476   5.613
 4597SOL    HW214691   6.491   3.583   5.716
 4598SOL     OW14692   2.656   4.487   6.845
 4598SOL    HW114693   2.592   4.410   6.856
 4598SOL    HW214694   2.735   4.456   6.792
 4599SOL     OW14695   3.212   5.317   0.233
 4599SOL    HW114696   3.266   5.270   0.302
 4599SOL    HW214697   3.267   5.330   0.151
 4600SOL     OW14698   2.758   3.819   0.852
 4600SOL    HW114699   2.699   3.741   0.833
 4600SOL    HW214700   2.757   3.839   0.950
 4601SOL     OW14701   2.120   4.908   3.835
 4601SOL    HW114702   2.080   4.990   3.794
 4601SOL    HW214703   2.075   4.888   3.922
 4602SOL     OW14704   1.514   6.970   1.500
 4602SOL    HW114705   1.555   7.011   1.582
 4602SOL    HW214706   1.580   6.909   1.456
 4603SOL     OW14707   2.806   1.372   1.908
 4603SOL    HW114708   2.763   1.297   1.857
 4603SOL    HW214709   2.901   1.348   1.929
 4604SOL     OW14710   1.150   0.491   3.021
 4604SOL    HW114711   1.142   0.415   2.956
 4604SOL    HW214712   1.242   0.529   3.016
 4605SOL     OW14713   5.285   6.163   5.887
 4605SOL    HW114714   5.339   6.247   5.880
 4605SOL    HW214715   5.346   6.085   5.899
 4606SOL     OW14716   6.576   6.592   4.581
 4606SOL    HW114717   6.558   6.532   4.659
 4606SOL    HW214718   6.492   6.604   4.527
 4607SOL     OW14719   2.973   3.230   0.937
 4607SOL    HW114720   2.989   3.135   0.963
 4607SOL    HW214721   2.912   3.273   1.004
 4608SOL     OW14722   1.055   3.270   5.635
 4608SOL    HW114723   1.130   3.287   5.699
 4608SOL    HW214724   1.013   3.181   5.655
 4609SOL     OW14725   2.965   0.196   0.652
 4609SOL    HW114726   3.025   0.272   0.677
 4609SOL    HW214727   3.010   0.139   0.584
 4610SOL     OW14728   6.711   3.786   6.797
 4610SOL    HW114729   6.720   3.871   6.848
 4610SOL    HW214730   6.800   3.741   6.791
 4611SOL     OW14731   1.584   4.762   6.578
 4611SOL    HW114732   1.541   4.752   6.668
 4611SOL    HW214733   1.679   4.733   6.583
 4612SOL     OW14734   1.968   0.544   6.244
 4612SOL    HW114735   2.046   0.491   6.277
 4612SOL    HW214736   1.997   0.638   6.226
 4613SOL     OW14737   3.776   5.059   1.472
 4613SOL    HW114738   3.779   5.011   1.560
 4613SOL    HW214739   3.790   4.993   1.398
 4614SOL     OW14740   2.111   4.931   6.626
 4614SOL    HW114741   2.203   4.960   6.653
 4614SOL    HW214742   2.086   4.849   6.678
 4615SOL     OW14743   6.124   3.055   6.449
 4615SOL    HW114744   6.084   3.066   6.358
 4615SOL    HW214745   6.190   3.128   6.465
 4616SOL     OW14746   5.599   1.330   6.710
 4616SOL    HW114747   5.692   1.302   6.733
 4616SOL    HW214748   5.591   1.344   6.611
 4617SOL     OW14749   0.019   3.958   1.831
 4617SOL    HW114750   0.007   3.912   1.919
 4617SOL    HW214751   0.062   3.895   1.767
 4618SOL     OW14752   0.691   3.184   6.672
 4618SOL    HW114753   0.640   3.112   6.719
 4618SOL    HW214754   0.684   3.171   6.573
 4619SOL     OW14755   4.182   0.469   3.753
 4619SOL    HW114756   4.250   0.536   3.724
 4619SOL    HW214757   4.098   0.515   3.780
 4620SOL     OW14758   2.543   5.966   0.264
 4620SOL    HW114759   2.451   5.945   0.233
 4620SOL    HW214760   2.541   6.047   0.323
 4621SOL     OW14761   6.578   0.637   6.581
 4621SOL    HW114762   6.636   0.574   6.530
 4621SOL    HW214763   6.620   0.727   6.583
 4622SOL     OW14764   1.693   4.088   0.421
 4622SOL    HW114765   1.785   4.104   0.457
 4622SOL    HW214766   1.700   4.041   0.332
 4623SOL     OW14767   5.461   3.837   3.008
 4623SOL    HW114768   5.527   3.876   3.072
 4623SOL    HW214769   5.396   3.907   2.980
 4624SOL     OW14770   4.539   6.655   6.143
 4624SOL    HW114771   4.556   6.740   6.093
 4624SOL    HW214772   4.450   6.661   6.190
 4625SOL     OW14773   1.349   3.721   6.342
 4625SOL    HW114774   1.375   3.628   6.316
 4625SOL    HW214775   1.252   3.723   6.366
 4626SOL     OW14776   5.494   4.452   2.103
 4626SOL    HW114777   5.522   4.358   2.120
 4626SOL    HW214778   5.396   4.462   2.119
 4627SOL     OW14779   1.973   6.896   4.830
 4627SOL    HW114780   1.898   6.830   4.831
 4627SOL    HW214781   2.040   6.869   4.761
 4628SOL     OW14782   6.444   3.037   1.886
 4628SOL    HW114783   6.516   2.971   1.906
 4628SOL    HW214784   6.450   3.066   1.790
 4629SOL     OW14785   4.324   5.362   4.524
 4629SOL    HW114786   4.385   5.283   4.535
 4629SOL    HW214787   4.266   5.370   4.605
 4630SOL     OW14788   2.518   6.091   2.623
 4630SOL    HW114789   2.528   6.181   2.665
 4630SOL    HW214790   2.570   6.087   2.538
 4631SOL     OW14791   1.850   1.246   3.114
 4631SOL    HW114792   1.924   1.305   3.146
 4631SOL    HW214793   1.879   1.200   3.030
 4632SOL     OW14794   5.472   6.504   4.231
 4632SOL    HW114795   5.514   6.440   4.296
 4632SOL    HW214796   5.392   6.461   4.190
 4633SOL     OW14797   5.097   2.765   5.423
 4633SOL    HW114798   5.154   2.735   5.500
 4633SOL    HW214799   5.153   2.817   5.359
 4634SOL     OW14800   2.878   4.217   6.918
 4634SOL    HW114801   2.887   4.170   6.831
 4634SOL    HW214802   2.786   4.202   6.956
 4635SOL     OW14803   4.957   3.527   1.477
 4635SOL    HW114804   4.970   3.621   1.508
 4635SOL    HW214805   4.868   3.520   1.431
 4636SOL     OW14806   0.410   5.299   1.801
 4636SOL    HW114807   0.461   5.225   1.845
 4636SOL    HW214808   0.363   5.263   1.721
 4637SOL     OW14809   1.451   0.697   5.265
 4637SOL    HW114810   1.415   0.787   5.239
 4637SOL    HW214811   1.398   0.660   5.340
 4638SOL     OW14812   4.257   4.858   5.680
 4638SOL    HW114813   4.219   4.784   5.625
 4638SOL    HW214814   4.354   4.841   5.697
 4639SOL     OW14815   6.679   1.919   5.192
 4639SOL    HW114816   6.718   1.892   5.280
 4639SOL    HW214817   6.647   2.014   5.197
 4640SOL     OW14818   6.267   5.181   3.050
 4640SOL    HW114819   6.213   5.175   3.134
 4640SOL    HW214820   6.338   5.110   3.051
 4641SOL     OW14821   2.564   3.505   5.401
 4641SOL    HW114822   2.605   3.431   5.348
 4641SOL    HW214823   2.500   3.555   5.342
 4642SOL     OW14824   5.845   5.794   4.109
 4642SOL    HW114825   5.776   5.722   4.118
 4642SOL    HW214826   5.801   5.878   4.077
 4643SOL     OW14827   4.500   3.400   1.212
 4643SOL    HW114828   4.514   3.393   1.114
 4643SOL    HW214829   4.450   3.320   1.245
 4644SOL     OW14830   3.653   4.532   5.683
 4644SOL    HW114831   3.575   4.550   5.623
 4644SOL    HW214832   3.648   4.438   5.717
 4645SOL     OW14833   1.809   6.139   4.888
 4645SOL    HW114834   1.738   6.071   4.908
 4645SOL    HW214835   1.898   6.094   4.881
 4646SOL     OW14836   3.388   0.573   0.744
 4646SOL    HW114837   3.414   0.659   0.700
 4646SOL    HW214838   3.319   0.591   0.814
 4647SOL     OW14839   6.688   0.491   5.299
 4647SOL    HW114840   6.620   0.513   5.369
 4647SOL    HW214841   6.674   0.398   5.266
 4648SOL     OW14842   2.088   6.129   3.442
 4648SOL    HW114843   2.003   6.077   3.451
 4648SOL    HW214844   2.068   6.221   3.409
 4649SOL     OW14845   5.863   6.482   5.648
 4649SOL    HW114846   5.919   6.408   5.686
 4649SOL    HW214847   5.834   6.542   5.721
 4650SOL     OW14848   6.507   4.606   1.403
 4650SOL    HW114849   6.545   4.513   1.401
 4650SOL    HW214850   6.560   4.664   1.342
 4651SOL     OW14851   6.204   2.214   1.907
 4651SOL    HW114852   6.164   2.276   1.840
 4651SOL    HW214853   6.279   2.164   1.865
 4652SOL     OW14854   0.277   6.456   5.256
 4652SOL    HW114855   0.334   6.529   5.295
 4652SOL    HW214856   0.335   6.377   5.235
 4653SOL     OW14857   0.675   4.808   0.203
 4653SOL    HW114858   0.621   4.804   0.119
 4653SOL    HW214859   0.664   4.897   0.246
 4654SOL     OW14860   1.324   1.788   0.157
 4654SOL    HW114861   1.227   1.768   0.162
 4654SOL    HW214862   1.377   1.704   0.171
 4655SOL     OW14863   0.356   4.777   3.948
 4655SOL    HW114864   0.292   4.734   3.884
 4655SOL    HW214865   0.418   4.707   3.984
 4656SOL     OW14866   2.494   0.158   3.200
 4656SOL    HW114867   2.579   0.115   3.232
 4656SOL    HW214868   2.508   0.197   3.109
 4657SOL     OW14869   6.068   1.066   6.147
 4657SOL    HW114870   6.076   1.089   6.050
 4657SOL    HW214871   6.089   0.970   6.160
 4658SOL     OW14872   5.245   0.396   3.465
 4658SOL    HW114873   5.212   0.457   3.537
 4658SOL    HW214874   5.336   0.363   3.488
 4659SOL     OW14875   1.884   3.156   4.774
 4659SOL    HW114876   1.910   3.207   4.692
 4659SOL    HW214877   1.803   3.198   4.815
 4660SOL     OW14878   6.475   1.301   5.448
 4660SOL    HW114879   6.410   1.353   5.393
 4660SOL    HW214880   6.548   1.266   5.389
 4661SOL     OW14881   3.596   3.095   3.607
 4661SOL    HW114882   3.581   3.185   3.567
 4661SOL    HW214883   3.595   3.101   3.706
 4662SOL     OW14884   6.139   6.299   4.091
 4662SOL    HW114885   6.194   6.303   4.175
 4662SOL    HW214886   6.128   6.203   4.063
 4663SOL     OW14887   0.631   2.584   2.233
 4663SOL    HW114888   0.547   2.539   2.204
 4663SOL    HW214889   0.703   2.566   2.166
 4664SOL     OW14890   3.585   4.301   0.042
 4664SOL    HW114891   3.527   4.224   0.015
 4664SOL    HW214892   3.606   4.356   6.983
 4665SOL     OW14893   5.664   0.209   5.785
 4665SOL    HW114894   5.616   0.271   5.722
 4665SOL    HW214895   5.658   0.245   5.878
 4666SOL     OW14896   1.785   1.302   0.489
 4666SOL    HW114897   1.847   1.224   0.485
 4666SOL    HW214898   1.766   1.334   0.396
 4667SOL     OW14899   0.918   6.161   4.138
 4667SOL    HW114900   0.993   6.198   4.192
 4667SOL    HW214901   0.951   6.085   4.082
 4668SOL     OW14902   5.345   0.519   4.951
 4668SOL    HW114903   5.330   0.605   5.000
 4668SOL    HW214904   5.423   0.530   4.890
 4669SOL     OW14905   2.288   1.793   2.385
 4669SOL    HW114906   2.252   1.816   2.295
 4669SOL    HW214907   2.326   1.875   2.428
 4670SOL     OW14908   1.919   1.419   4.408
 4670SOL    HW114909   1.916   1.508   4.453
 4670SOL    HW214910   1.896   1.430   4.311
 4671SOL     OW14911   6.001   2.035   2.789
 4671SOL    HW114912   6.088   2.069   2.824
 4671SOL    HW214913   5.970   2.095   2.714
 4672SOL     OW14914   2.891   2.495   5.297
 4672SOL    HW114915   2.832   2.414   5.299
 4672SOL    HW214916   2.985   2.468   5.276
 4673SOL     OW14917   5.336   0.580   2.264
 4673SOL    HW114918   5.364   0.535   2.349
 4673SOL    HW214919   5.279   0.659   2.286
 4674SOL     OW14920   4.710   6.409   5.008
 4674SOL    HW114921   4.615   6.408   5.041
 4674SOL    HW214922   4.725   6.329   4.949
 4675SOL     OW14923   0.695   4.692   6.707
 4675SOL    HW114924   0.759   4.652   6.773
 4675SOL    HW214925   0.606   4.705   6.752
 4676SOL     OW14926   1.030   4.376   4.162
 4676SOL    HW114927   0.945   4.346   4.118
 4676SOL    HW214928   1.101   4.386   4.092
 4677SOL     OW14929   1.408   3.460   0.708
 4677SOL    HW114930   1.348   3.381   0.696
 4677SOL    HW214931   1.361   3.542   0.675
 4678SOL     OW14932   0.970   3.130   1.638
 4678SOL    HW114933   1.012   3.044   1.665
 4678SOL    HW214934   1.028   3.176   1.571
 4679SOL     OW14935   4.479   0.460   2.443
 4679SOL    HW114936   4.541   0.537   2.458
 4679SOL    HW214937   4.487   0.396   2.520
 4680SOL     OW14938   2.059   0.773   6.432
 4680SOL    HW114939   1.974   0.776   6.379
 4680SOL    HW214940   2.074   0.863   6.474
 4681SOL     OW14941   4.714   5.659   2.542
 4681SOL    HW114942   4.726   5.560   2.538
 4681SOL    HW214943   4.636   5.681   2.601
 4682SOL     OW14944   3.452   3.482   6.113
 4682SOL    HW114945   3.497   3.405   6.157
 4682SOL    HW214946   3.393   3.448   6.039
 4683SOL     OW14947   6.695   4.462   3.706
 4683SOL    HW114948   6.706   4.364   3.719
 4683SOL    HW214949   6.762   4.511   3.762
 4684SOL     OW14950   5.714   6.982   5.717
 4684SOL    HW114951   5.680   0.048   5.749
 4684SOL    HW214952   5.642   6.913   5.726
 4685SOL     OW14953   3.103   3.966   4.613
 4685SOL    HW114954   3.164   4.029   4.566
 4685SOL    HW214955   3.097   3.990   4.709
 4686SOL     OW14956   1.604   0.173   6.895
 4686SOL    HW114957   1.599   0.076   6.917
 4686SOL    HW214958   1.565   0.226   6.970
 4687SOL     OW14959   1.883   0.698   2.799
 4687SOL    HW114960   1.873   0.599   2.808
 4687SOL    HW214961   1.979   0.723   2.808
 4688SOL     OW14962   4.927   2.726   5.071
 4688SOL    HW114963   4.886   2.810   5.034
 4688SOL    HW214964   4.855   2.660   5.093
 4689SOL     OW14965   6.901   1.205   1.152
 4689SOL    HW114966   6.913   1.224   1.055
 4689SOL    HW214967   6.954   1.124   1.177
 4690SOL     OW14968   3.512   2.529   0.843
 4690SOL    HW114969   3.443   2.591   0.806
 4690SOL    HW214970   3.475   2.436   0.846
 4691SOL     OW14971   6.426   3.723   1.983
 4691SOL    HW114972   6.361   3.788   2.022
 4691SOL    HW214973   6.442   3.649   2.049
 4692SOL     OW14974   5.195   3.000   2.209
 4692SOL    HW114975   5.239   2.911   2.222
 4692SOL    HW214976   5.259   3.073   2.229
 4693SOL     OW14977   0.260   0.075   3.194
 4693SOL    HW114978   0.301   0.007   3.134
 4693SOL    HW214979   0.204   0.138   3.140
 4694SOL     OW14980   2.234   6.800   5.906
 4694SOL    HW114981   2.175   6.828   5.983
 4694SOL    HW214982   2.177   6.760   5.834
 4695SOL     OW14983   1.901   5.160   2.338
 4695SOL    HW114984   1.852   5.105   2.270
 4695SOL    HW214985   1.841   5.178   2.416
 4696SOL     OW14986   1.708   6.325   5.999
 4696SOL    HW114987   1.637   6.293   6.062
 4696SOL    HW214988   1.775   6.252   5.985
 4697SOL     OW14989   4.341   5.588   0.866
 4697SOL    HW114990   4.427   5.557   0.907
 4697SOL    HW214991   4.309   5.519   0.801
 4698SOL     OW14992   5.674   1.144   4.744
 4698SOL    HW114993   5.725   1.058   4.748
 4698SOL    HW214994   5.670   1.176   4.649
 4699SOL     OW14995   0.943   1.274   2.777
 4699SOL    HW114996   1.027   1.326   2.762
 4699SOL    HW214997   0.966   1.181   2.805
 4700SOL     OW14998   6.674   1.814   3.502
 4700SOL    HW114999   6.755   1.816   3.443
 4700SOL    HW215000   6.592   1.831   3.447
 4701SOL     OW15001   3.140   2.671   1.728
 4701SOL    HW115002   3.053   2.631   1.701
 4701SOL    HW215003   3.161   2.645   1.822
 4702SOL     OW15004   6.214   5.128   0.801
 4702SOL    HW115005   6.126   5.080   0.811
 4702SOL    HW215006   6.281   5.088   0.864
 4703SOL     OW15007   0.379   5.128   3.918
 4703SOL    HW115008   0.430   5.132   4.004
 4703SOL    HW215009   0.427   5.182   3.848
 4704SOL     OW15010   1.805   4.808   4.537
 4704SOL    HW115011   1.885   4.751   4.552
 4704SOL    HW215012   1.828   4.882   4.474
 4705SOL     OW15013   3.249   2.030   1.848
 4705SOL    HW115014   3.303   2.096   1.795
 4705SOL    HW215015   3.220   1.955   1.789
 4706SOL     OW15016   1.916   1.911   1.004
 4706SOL    HW115017   1.887   1.820   1.035
 4706SOL    HW215018   1.835   1.969   0.991
 4707SOL     OW15019   1.809   5.573   1.941
 4707SOL    HW115020   1.865   5.491   1.955
 4707SOL    HW215021   1.864   5.654   1.962
 4708SOL     OW15022   1.955   2.913   6.008
 4708SOL    HW115023   1.914   2.823   6.019
 4708SOL    HW215024   2.053   2.908   6.028
 4709SOL     OW15025   5.832   4.289   5.200
 4709SOL    HW115026   5.865   4.212   5.255
 4709SOL    HW215027   5.861   4.277   5.105
 4710SOL     OW15028   5.627   5.315   5.236
 4710SOL    HW115029   5.607   5.374   5.157
 4710SOL    HW215030   5.724   5.292   5.236
 4711SOL     OW15031   5.037   4.196   2.722
 4711SOL    HW115032   4.967   4.187   2.651
 4711SOL    HW215033   5.006   4.149   2.804
 4712SOL     OW15034   4.047   4.418   5.999
 4712SOL    HW115035   4.014   4.498   5.950
 4712SOL    HW215036   4.026   4.336   5.947
 4713SOL     OW15037   5.535   4.417   1.024
 4713SOL    HW115038   5.523   4.367   1.110
 4713SOL    HW215039   5.560   4.353   0.951
 4714SOL     OW15040   4.242   1.761   5.902
 4714SOL    HW115041   4.142   1.761   5.904
 4714SOL    HW215042   4.277   1.777   5.995
 4715SOL     OW15043   6.649   1.859   2.513
 4715SOL    HW115044   6.679   1.933   2.452
 4715SOL    HW215045   6.694   1.869   2.602
 4716SOL     OW15046   3.413   4.231   5.736
 4716SOL    HW115047   3.341   4.283   5.690
 4716SOL    HW215048   3.499   4.244   5.687
 4717SOL     OW15049   2.166   4.997   5.912
 4717SOL    HW115050   2.071   4.973   5.895
 4717SOL    HW215051   2.208   4.929   5.972
 4718SOL     OW15052   4.767   4.101   2.121
 4718SOL    HW115053   4.755   4.023   2.060
 4718SOL    HW215054   4.692   4.166   2.107
 4719SOL     OW15055   5.772   4.344   3.987
 4719SOL    HW115056   5.799   4.287   4.065
 4719SOL    HW215057   5.726   4.287   3.919
 4720SOL     OW15058   1.513   2.186   6.552
 4720SOL    HW115059   1.504   2.093   6.588
 4720SOL    HW215060   1.444   2.201   6.482
 4721SOL     OW15061   0.600   2.870   2.316
 4721SOL    HW115062   0.565   2.830   2.231
 4721SOL    HW215063   0.695   2.842   2.329
 4722SOL     OW15064   1.322   5.249   5.972
 4722SOL    HW115065   1.307   5.347   5.961
 4722SOL    HW215066   1.391   5.233   6.043
 4723SOL     OW15067   2.770   5.047   6.719
 4723SOL    HW115068   2.712   4.967   6.736
 4723SOL    HW215069   2.751   5.083   6.627
 4724SOL     OW15070   7.014   6.836   4.214
 4724SOL    HW115071   0.084   6.874   4.209
 4724SOL    HW215072   6.948   6.912   4.220
 4725SOL     OW15073   6.320   5.040   1.036
 4725SOL    HW115074   6.227   5.041   1.073
 4725SOL    HW215075   6.369   4.960   1.072
 4726SOL     OW15076   1.510   2.772   5.771
 4726SOL    HW115077   1.487   2.789   5.867
 4726SOL    HW215078   1.591   2.714   5.765
 4727SOL     OW15079   6.438   5.393   1.273
 4727SOL    HW115080   6.354   5.399   1.328
 4727SOL    HW215081   6.483   5.482   1.271
 4728SOL     OW15082   5.109   0.696   3.306
 4728SOL    HW115083   5.044   0.661   3.239
 4728SOL    HW215084   5.079   0.785   3.338
 4729SOL     OW15085   6.774   1.293   2.485
 4729SOL    HW115086   6.851   1.353   2.463
 4729SOL    HW215087   6.781   1.265   2.581
 4730SOL     OW15088   3.422   0.628   3.420
 4730SOL    HW115089   3.405   0.706   3.480
 4730SOL    HW215090   3.355   0.556   3.439
 4731SOL     OW15091   3.467   6.905   1.855
 4731SOL    HW115092   3.377   6.861   1.868
 4731SOL    HW215093   3.539   6.841   1.882
 4732SOL     OW15094   0.190   5.129   4.940
 4732SOL    HW115095   0.273   5.149   4.992
 4732SOL    HW215096   0.181   5.030   4.930
 4733SOL     OW15097   1.416   4.112   3.008
 4733SOL    HW115098   1.424   4.205   2.970
 4733SOL    HW215099   1.435   4.114   3.106
 4734SOL     OW15100   4.633   3.963   6.631
 4734SOL    HW115101   4.630   4.063   6.620
 4734SOL    HW215102   4.542   3.925   6.614
 4735SOL     OW15103   6.927   0.779   5.384
 4735SOL    HW115104   6.945   0.849   5.315
 4735SOL    HW215105   6.965   0.691   5.353
 4736SOL     OW15106   6.429   0.687   4.249
 4736SOL    HW115107   6.519   0.645   4.263
 4736SOL    HW215108   6.398   0.667   4.156
 4737SOL     OW15109   2.356   5.244   0.023
 4737SOL    HW115110   2.410   5.175   0.072
 4737SOL    HW215111   2.305   5.298   0.089
 4738SOL     OW15112   0.512   5.262   3.651
 4738SOL    HW115113   0.595   5.277   3.705
 4738SOL    HW215114   0.497   5.340   3.591
 4739SOL     OW15115   5.849   3.460   3.406
 4739SOL    HW115116   5.834   3.361   3.409
 4739SOL    HW215117   5.916   3.485   3.476
 4740SOL     OW15118   1.863   6.562   0.658
 4740SOL    HW115119   1.781   6.570   0.714
 4740SOL    HW215120   1.944   6.573   0.716
 4741SOL     OW15121   5.682   4.575   1.720
 4741SOL    HW115122   5.620   4.542   1.649
 4741SOL    HW215123   5.741   4.646   1.681
 4742SOL     OW15124   2.033   5.686   2.111
 4742SOL    HW115125   2.003   5.754   2.178
 4742SOL    HW215126   2.101   5.626   2.153
 4743SOL     OW15127   2.433   3.888   0.281
 4743SOL    HW115128   2.378   3.890   0.364
 4743SOL    HW215129   2.517   3.836   0.297
 4744SOL     OW15130   2.757   1.920   5.351
 4744SOL    HW115131   2.742   1.895   5.446
 4744SOL    HW215132   2.688   1.876   5.293
 4745SOL     OW15133   4.529   5.454   4.205
 4745SOL    HW115134   4.471   5.530   4.234
 4745SOL    HW215135   4.476   5.391   4.148
 4746SOL     OW15136   5.691   1.488   1.029
 4746SOL    HW115137   5.763   1.419   1.038
 4746SOL    HW215138   5.641   1.495   1.116
 4747SOL     OW15139   1.018   2.714   2.194
 4747SOL    HW115140   1.003   2.812   2.213
 4747SOL    HW215141   1.021   2.664   2.280
 4748SOL     OW15142   2.373   6.957   0.457
 4748SOL    HW115143   2.298   6.908   0.411
 4748SOL    HW215144   2.336   7.007   0.536
 4749SOL     OW15145   3.639   0.713   0.224
 4749SOL    HW115146   3.573   0.771   0.273
 4749SOL    HW215147   3.596   0.676   0.142
 4750SOL     OW15148   0.856   2.092   5.152
 4750SOL    HW115149   0.803   2.176   5.147
 4750SOL    HW215150   0.954   2.113   5.156
 4751SOL     OW15151   1.465   4.366   6.722
 4751SOL    HW115152   1.368   4.345   6.711
 4751SOL    HW215153   1.520   4.299   6.672
 4752SOL     OW15154   2.171   5.615   1.119
 4752SOL    HW115155   2.263   5.592   1.151
 4752SOL    HW215156   2.151   5.563   1.036
 4753SOL     OW15157   0.539   0.669   6.145
 4753SOL    HW115158   0.631   0.701   6.121
 4753SOL    HW215159   0.474   0.744   6.139
 4754SOL     OW15160   1.459   1.377   6.356
 4754SOL    HW115161   1.379   1.396   6.412
 4754SOL    HW215162   1.432   1.370   6.260
 4755SOL     OW15163   2.994   0.008   2.673
 4755SOL    HW115164   3.042   7.022   2.586
 4755SOL    HW215165   2.976   0.104   2.692
 4756SOL     OW15166   5.773   2.111   1.513
 4756SOL    HW115167   5.788   2.176   1.588
 4756SOL    HW215168   5.681   2.123   1.476
 4757SOL     OW15169   2.485   2.511   0.822
 4757SOL    HW115170   2.549   2.513   0.746
 4757SOL    HW215171   2.406   2.454   0.799
 4758SOL     OW15172   5.787   4.079   6.297
 4758SOL    HW115173   5.799   4.124   6.385
 4758SOL    HW215174   5.818   3.984   6.303
 4759SOL     OW15175   0.118   4.240   6.674
 4759SOL    HW115176   0.195   4.177   6.687
 4759SOL    HW215177   0.152   4.326   6.636
 4760SOL     OW15178   1.506   2.290   0.201
 4760SOL    HW115179   1.457   2.215   0.158
 4760SOL    HW215180   1.494   2.286   0.300
 4761SOL     OW15181   2.728   6.263   6.396
 4761SOL    HW115182   2.826   6.267   6.414
 4761SOL    HW215183   2.677   6.264   6.482
 4762SOL     OW15184   3.710   0.086   2.354
 4762SOL    HW115185   3.742   0.052   2.442
 4762SOL    HW215186   3.613   0.063   2.342
 4763SOL     OW15187   4.966   5.605   5.393
 4763SOL    HW115188   4.884   5.638   5.439
 4763SOL    HW215189   5.039   5.592   5.459
 4764SOL     OW15190   4.077   3.793   3.808
 4764SOL    HW115191   4.034   3.756   3.890
 4764SOL    HW215192   4.176   3.796   3.821
 4765SOL     OW15193   5.718   5.346   6.623
 4765SOL    HW115194   5.765   5.423   6.665
 4765SOL    HW215195   5.736   5.263   6.676
 4766SOL     OW15196   2.862   1.351   3.343
 4766SOL    HW115197   2.812   1.402   3.413
 4766SOL    HW215198   2.892   1.264   3.382
 4767SOL     OW15199   4.582   0.625   6.909
 4767SOL    HW115200   4.542   0.538   6.883
 4767SOL    HW215201   4.600   0.679   6.827
 4768SOL     OW15202   1.988   0.615   5.223
 4768SOL    HW115203   1.960   0.695   5.171
 4768SOL    HW215204   2.083   0.626   5.252
 4769SOL     OW15205   4.826   0.727   1.735
 4769SOL    HW115206   4.925   0.719   1.746
 4769SOL    HW215207   4.804   0.815   1.692
 4770SOL     OW15208   2.140   0.759   4.095
 4770SOL    HW115209   2.115   0.743   4.191
 4770SOL    HW215210   2.219   0.821   4.091
 4771SOL     OW15211   3.695   4.229   5.660
 4771SOL    HW115212   3.776   4.277   5.627
 4771SOL    HW215213   3.686   4.142   5.612
 4772SOL     OW15214   3.299   2.694   0.129
 4772SOL    HW115215   3.295   2.750   0.046
 4772SOL    HW215216   3.226   2.626   0.126
 4773SOL     OW15217   6.778   4.649   4.716
 4773SOL    HW115218   6.800   4.552   4.730
 4773SOL    HW215219   6.679   4.662   4.724
 4774SOL     OW15220   1.579   4.411   6.950
 4774SOL    HW115221   1.618   4.325   6.982
 4774SOL    HW215222   1.530   4.395   6.864
 4775SOL     OW15223   2.027   2.575   2.209
 4775SOL    HW115224   2.004   2.566   2.306
 4775SOL    HW215225   2.127   2.579   2.198
 4776SOL     OW15226   4.395   5.091   1.912
 4776SOL    HW115227   4.419   4.997   1.887
 4776SOL    HW215228   4.457   5.154   1.865
 4777SOL     OW15229   2.539   3.950   1.642
 4777SOL    HW115230   2.637   3.969   1.639
 4777SOL    HW215231   2.525   3.853   1.658
 4778SOL     OW15232   5.190   3.278   2.685
 4778SOL    HW115233   5.111   3.339   2.698
 4778SOL    HW215234   5.264   3.306   2.747
 4779SOL     OW15235   5.115   1.030   2.649
 4779SOL    HW115236   5.090   1.073   2.736
 4779SOL    HW215237   5.134   1.100   2.581
 4780SOL     OW15238   2.066   1.505   5.568
 4780SOL    HW115239   2.054   1.406   5.564
 4780SOL    HW215240   2.027   1.540   5.653
 4781SOL     OW15241   1.938   5.629   2.774
 4781SOL    HW115242   2.029   5.603   2.741
 4781SOL    HW215243   1.925   5.596   2.868
 4782SOL     OW15244   6.202   6.241   0.337
 4782SOL    HW115245   6.247   6.165   0.384
 4782SOL    HW215246   6.111   6.255   0.376
 4783SOL     OW15247   5.973   3.744   2.571
 4783SOL    HW115248   5.937   3.784   2.487
 4783SOL    HW215249   5.915   3.771   2.648
 4784SOL     OW15250   5.112   4.888   5.027
 4784SOL    HW115251   5.177   4.962   5.043
 4784SOL    HW215252   5.144   4.804   5.071
 4785SOL     OW15253   5.786   6.697   0.815
 4785SOL    HW115254   5.812   6.768   0.881
 4785SOL    HW215255   5.864   6.637   0.798
 4786SOL     OW15256   1.435   3.900   2.216
 4786SOL    HW115257   1.340   3.900   2.185
 4786SOL    HW215258   1.437   3.887   2.315
 4787SOL     OW15259   3.897   2.178   3.229
 4787SOL    HW115260   3.949   2.098   3.258
 4787SOL    HW215261   3.944   2.261   3.259
 4788SOL     OW15262   2.159   0.271   4.739
 4788SOL    HW115263   2.097   0.316   4.803
 4788SOL    HW215264   2.105   0.209   4.680
 4789SOL     OW15265   5.062   6.176   0.364
 4789SOL    HW115266   5.137   6.216   0.416
 4789SOL    HW215267   4.982   6.236   0.370
 4790SOL     OW15268   5.231   0.298   6.633
 4790SOL    HW115269   5.163   0.239   6.590
 4790SOL    HW215270   5.260   0.258   6.720
 4791SOL     OW15271   3.938   2.170   3.533
 4791SOL    HW115272   3.945   2.080   3.489
 4791SOL    HW215273   3.842   2.192   3.548
 4792SOL     OW15274   2.995   2.945   0.994
 4792SOL    HW115275   3.014   2.889   1.074
 4792SOL    HW215276   3.009   2.890   0.911
 4793SOL     OW15277   0.375   0.611   6.828
 4793SOL    HW115278   0.300   0.661   6.871
 4793SOL    HW215279   0.406   0.538   6.889
 4794SOL     OW15280   5.055   1.358   2.134
 4794SOL    HW115281   5.003   1.350   2.049
 4794SOL    HW215282   5.153   1.345   2.114
 4795SOL     OW15283   5.930   2.953   4.175
 4795SOL    HW115284   5.981   3.037   4.193
 4795SOL    HW215285   5.921   2.939   4.077
 4796SOL     OW15286   5.406   3.607   0.169
 4796SOL    HW115287   5.454   3.540   0.226
 4796SOL    HW215288   5.328   3.644   0.220
 4797SOL     OW15289   0.919   5.816   4.830
 4797SOL    HW115290   0.867   5.735   4.804
 4797SOL    HW215291   1.014   5.790   4.845
 4798SOL     OW15292   6.743   5.082   5.820
 4798SOL    HW115293   6.802   5.003   5.835
 4798SOL    HW215294   6.713   5.119   5.908
 4799SOL     OW15295   4.952   1.514   4.305
 4799SOL    HW115296   4.985   1.513   4.400
 4799SOL    HW215297   4.855   1.492   4.304
 4800SOL     OW15298   1.901   2.943   4.077
 4800SOL    HW115299   1.875   3.039   4.076
 4800SOL    HW215300   1.996   2.934   4.044
 4801SOL     OW15301   0.053   2.334   0.789
 4801SOL    HW115302   0.067   2.377   0.700
 4801SOL    HW215303   6.990   2.282   0.788
 4802SOL     OW15304   1.481   0.530   1.895
 4802SOL    HW115305   1.532   0.594   1.954
 4802SOL    HW215306   1.435   0.581   1.823
 4803SOL     OW15307   1.507   0.043   0.499
 4803SOL    HW115308   1.565   0.019   0.421
 4803SOL    HW215309   1.527   0.136   0.528
 4804SOL     OW15310   4.722   5.694   0.254
 4804SOL    HW115311   4.697   5.790   0.241
 4804SOL    HW215312   4.809   5.688   0.303
 4805SOL     OW15313   0.191   6.820   1.774
 4805SOL    HW115314   0.161   6.901   1.723
 4805SOL    HW215315   0.171   6.832   1.871
 4806SOL     OW15316   7.014   2.328   3.803
 4806SOL    HW115317   0.074   2.285   3.839
 4806SOL    HW215318   0.012   2.420   3.772
 4807SOL     OW15319   1.081   0.221   2.690
 4807SOL    HW115320   1.148   0.159   2.649
 4807SOL    HW215321   1.127   0.307   2.714
 4808SOL     OW15322   6.600   2.449   0.488
 4808SOL    HW115323   6.626   2.412   0.577
 4808SOL    HW215324   6.556   2.538   0.500
 4809SOL     OW15325   4.740   6.936   0.786
 4809SOL    HW115326   4.710   7.010   0.726
 4809SOL    HW215327   4.786   6.866   0.732
 4810SOL     OW15328   2.082   6.377   0.218
 4810SOL    HW115329   2.075   6.344   0.312
 4810SOL    HW215330   2.018   6.325   0.160
 4811SOL     OW15331   5.139   3.643   3.423
 4811SOL    HW115332   5.107   3.708   3.492
 4811SOL    HW215333   5.099   3.553   3.441
 4812SOL     OW15334   6.131   5.059   4.067
 4812SOL    HW115335   6.117   4.960   4.068
 4812SOL    HW215336   6.136   5.093   4.162
 4813SOL     OW15337   5.560   3.172   2.833
 4813SOL    HW115338   5.500   3.114   2.778
 4813SOL    HW215339   5.514   3.196   2.918
 4814SOL     OW15340   6.748   2.820   1.240
 4814SOL    HW115341   6.826   2.881   1.235
 4814SOL    HW215342   6.729   2.797   1.336
 4815SOL     OW15343   4.863   0.460   3.469
 4815SOL    HW115344   4.849   0.361   3.477
 4815SOL    HW215345   4.932   0.488   3.536
 4816SOL     OW15346   5.284   4.511   3.508
 4816SOL    HW115347   5.242   4.600   3.520
 4816SOL    HW215348   5.217   4.439   3.530
 4817SOL     OW15349   6.043   1.903   0.140
 4817SOL    HW115350   6.035   1.871   0.046
 4817SOL    HW215351   6.051   1.824   0.202
 4818SOL     OW15352   7.021   5.937   3.680
 4818SOL    HW115353   0.056   5.946   3.599
 4818SOL    HW215354   6.981   5.845   3.682
 4819SOL     OW15355   1.887   3.006   0.801
 4819SOL    HW115356   1.874   2.932   0.735
 4819SOL    HW215357   1.963   3.063   0.771
 4820SOL     OW15358   6.596   3.477   1.877
 4820SOL    HW115359   6.540   3.474   1.960
 4820SOL    HW215360   6.692   3.491   1.902
 4821SOL     OW15361   0.666   5.586   3.613
 4821SOL    HW115362   0.575   5.600   3.653
 4821SOL    HW215363   0.733   5.639   3.665
 4822SOL     OW15364   2.459   4.401   4.392
 4822SOL    HW115365   2.435   4.484   4.341
 4822SOL    HW215366   2.452   4.322   4.331
 4823SOL     OW15367   1.445   2.079   0.784
 4823SOL    HW115368   1.346   2.092   0.782
 4823SOL    HW215369   1.480   2.079   0.690
 4824SOL     OW15370   6.634   2.165   0.010
 4824SOL    HW115371   6.541   2.139   7.008
 4824SOL    HW215372   6.658   2.125   0.099
 4825SOL     OW15373   1.199   6.680   3.775
 4825SOL    HW115374   1.170   6.755   3.834
 4825SOL    HW215375   1.121   6.647   3.722
 4826SOL     OW15376   4.450   6.229   0.818
 4826SOL    HW115377   4.481   6.323   0.805
 4826SOL    HW215378   4.487   6.192   0.903
 4827SOL     OW15379   5.817   1.232   1.326
 4827SOL    HW115380   5.823   1.144   1.373
 4827SOL    HW215381   5.833   1.306   1.392
 4828SOL     OW15382   4.896   1.165   6.611
 4828SOL    HW115383   4.834   1.102   6.657
 4828SOL    HW215384   4.921   1.127   6.522
 4829SOL     OW15385   4.134   6.059   5.524
 4829SOL    HW115386   4.188   6.085   5.444
 4829SOL    HW215387   4.179   6.090   5.607
 4830SOL     OW15388   1.708   6.740   3.589
 4830SOL    HW115389   1.689   6.802   3.665
 4830SOL    HW215390   1.798   6.761   3.550
 4831SOL     OW15391   3.610   4.768   5.838
 4831SOL    HW115392   3.598   4.854   5.787
 4831SOL    HW215393   3.659   4.702   5.781
 4832SOL     OW15394   4.056   3.250   4.758
 4832SOL    HW115395   4.058   3.199   4.844
 4832SOL    HW215396   3.991   3.207   4.695
 4833SOL     OW15397   5.870   2.357   5.115
 4833SOL    HW115398   5.823   2.425   5.059
 4833SOL    HW215399   5.913   2.402   5.194
 4834SOL     OW15400   0.858   5.014   0.946
 4834SOL    HW115401   0.784   4.999   1.011
 4834SOL    HW215402   0.824   5.004   0.853
 4835SOL     OW15403   6.940   3.406   5.957
 4835SOL    HW115404   6.976   3.423   6.049
 4835SOL    HW215405   7.004   3.444   5.889
 4836SOL     OW15406   4.711   1.174   5.617
 4836SOL    HW115407   4.802   1.166   5.579
 4836SOL    HW215408   4.708   1.129   5.707
 4837SOL     OW15409   1.329   3.376   4.828
 4837SOL    HW115410   1.360   3.443   4.762
 4837SOL    HW215411   1.229   3.372   4.828
 4838SOL     OW15412   1.991   4.070   5.928
 4838SOL    HW115413   2.077   4.116   5.947
 4838SOL    HW215414   1.991   4.035   5.835
 4839SOL     OW15415   2.991   1.101   2.125
 4839SOL    HW115416   2.898   1.092   2.160
 4839SOL    HW215417   3.045   1.157   2.189
 4840SOL     OW15418   4.474   2.476   3.837
 4840SOL    HW115419   4.400   2.525   3.791
 4840SOL    HW215420   4.558   2.486   3.783
 4841SOL     OW15421   3.262   5.517   3.206
 4841SOL    HW115422   3.189   5.557   3.150
 4841SOL    HW215423   3.335   5.484   3.147
 4842SOL     OW15424   4.902   5.843   3.297
 4842SOL    HW115425   4.984   5.787   3.295
 4842SOL    HW215426   4.925   5.937   3.270
 4843SOL     OW15427   5.679   1.896   0.703
 4843SOL    HW115428   5.633   1.811   0.730
 4843SOL    HW215429   5.611   1.960   0.667
 4844SOL     OW15430   1.158   5.039   6.404
 4844SOL    HW115431   1.141   5.027   6.306
 4844SOL    HW215432   1.181   4.951   6.445
 4845SOL     OW15433   5.099   3.989   4.971
 4845SOL    HW115434   5.105   4.046   4.889
 4845SOL    HW215435   5.045   3.907   4.951
 4846SOL     OW15436   6.212   4.079   4.518
 4846SOL    HW115437   6.237   4.175   4.527
 4846SOL    HW215438   6.134   4.059   4.578
 4847SOL     OW15439   3.343   0.040   0.401
 4847SOL    HW115440   3.407   6.987   0.410
 4847SOL    HW215441   3.326   0.081   0.490
 4848SOL     OW15442   4.463   1.295   4.005
 4848SOL    HW115443   4.513   1.276   3.921
 4848SOL    HW215444   4.424   1.211   4.042
 4849SOL     OW15445   1.469   5.686   2.145
 4849SOL    HW115446   1.568   5.681   2.133
 4849SOL    HW215447   1.435   5.774   2.111
 4850SOL     OW15448   3.265   6.797   2.202
 4850SOL    HW115449   3.336   6.864   2.223
 4850SOL    HW215450   3.265   6.778   2.104
 4851SOL     OW15451   4.601   4.550   6.768
 4851SOL    HW115452   4.581   4.552   6.866
 4851SOL    HW215453   4.694   4.516   6.754
 4852SOL     OW15454   4.833   4.227   5.485
 4852SOL    HW115455   4.882   4.246   5.399
 4852SOL    HW215456   4.738   4.256   5.476
 4853SOL     OW15457   3.831   0.392   2.656
 4853SOL    HW115458   3.787   0.478   2.679
 4853SOL    HW215459   3.930   0.400   2.666
 4854SOL     OW15460   4.195   6.773   2.474
 4854SOL    HW115461   4.157   6.732   2.558
 4854SOL    HW215462   4.278   6.724   2.449
 4855SOL     OW15463   4.014   4.637   5.532
 4855SOL    HW115464   3.943   4.610   5.466
 4855SOL    HW215465   3.981   4.623   5.625
 4856SOL     OW15466   0.791   2.603   2.447
 4856SOL    HW115467   0.720   2.603   2.376
 4856SOL    HW215468   0.760   2.657   2.525
 4857SOL     OW15469   2.685   2.098   5.759
 4857SOL    HW115470   2.656   2.015   5.805
 4857SOL    HW215471   2.776   2.123   5.790
 4858SOL     OW15472   1.386   5.109   4.360
 4858SOL    HW115473   1.462   5.046   4.374
 4858SOL    HW215474   1.411   5.177   4.292
 4859SOL     OW15475   6.341   5.559   3.508
 4859SOL    HW115476   6.405   5.487   3.482
 4859SOL    HW215477   6.389   5.627   3.564
 4860SOL     OW15478   4.075   5.297   1.171
 4860SOL    HW115479   4.021   5.310   1.254
 4860SOL    HW215480   4.015   5.300   1.091
 4861SOL     OW15481   5.837   4.856   4.735
 4861SOL    HW115482   5.924   4.820   4.769
 4861SOL    HW215483   5.761   4.817   4.787
 4862SOL     OW15484   1.946   5.429   4.754
 4862SOL    HW115485   2.032   5.379   4.762
 4862SOL    HW215486   1.886   5.382   4.689
 4863SOL     OW15487   5.920   1.632   2.160
 4863SOL    HW115488   5.923   1.587   2.070
 4863SOL    HW215489   5.913   1.563   2.232
 4864SOL     OW15490   2.224   2.988   1.427
 4864SOL    HW115491   2.268   3.065   1.380
 4864SOL    HW215492   2.126   3.008   1.438
 4865SOL     OW15493   3.713   6.716   5.012
 4865SOL    HW115494   3.740   6.738   5.106
 4865SOL    HW215495   3.769   6.641   4.978
 4866SOL     OW15496   0.796   5.234   1.551
 4866SOL    HW115497   0.731   5.307   1.529
 4866SOL    HW215498   0.752   5.169   1.613
 4867SOL     OW15499   5.772   5.036   5.927
 4867SOL    HW115500   5.849   4.972   5.921
 4867SOL    HW215501   5.687   4.985   5.929
 4868SOL     OW15502   2.176   6.014   1.919
 4868SOL    HW115503   2.247   5.946   1.904
 4868SOL    HW215504   2.134   6.000   2.008
 4869SOL     OW15505   0.333   1.797   2.036
 4869SOL    HW115506   0.366   1.891   2.045
 4869SOL    HW215507   0.401   1.734   2.074
 4870SOL     OW15508   6.005   1.248   0.722
 4870SOL    HW115509   5.934   1.313   0.697
 4870SOL    HW215510   5.971   1.155   0.713
 4871SOL     OW15511   1.921   2.460   5.713
 4871SOL    HW115512   1.973   2.438   5.630
 4871SOL    HW215513   1.982   2.458   5.792
 4872SOL     OW15514   1.980   2.277   2.773
 4872SOL    HW115515   1.936   2.190   2.752
 4872SOL    HW215516   2.048   2.298   2.703
 4873SOL     OW15517   0.875   6.810   5.480
 4873SOL    HW115518   0.830   6.826   5.393
 4873SOL    HW215519   0.972   6.790   5.465
 4874SOL     OW15520   5.837   2.016   4.283
 4874SOL    HW115521   5.895   2.095   4.259
 4874SOL    HW215522   5.749   2.049   4.316
 4875SOL     OW15523   0.109   3.248   0.164
 4875SOL    HW115524   0.078   3.245   0.259
 4875SOL    HW215525   0.189   3.189   0.153
 4876SOL     OW15526   6.662   1.371   0.140
 4876SOL    HW115527   6.695   1.419   0.058
 4876SOL    HW215528   6.717   1.288   0.154
 4877SOL     OW15529   4.687   2.135   1.408
 4877SOL    HW115530   4.598   2.095   1.430
 4877SOL    HW215531   4.687   2.232   1.434
 4878SOL     OW15532   1.420   2.854   2.102
 4878SOL    HW115533   1.487   2.900   2.161
 4878SOL    HW215534   1.457   2.846   2.010
 4879SOL     OW15535   3.814   5.906   3.842
 4879SOL    HW115536   3.766   5.938   3.923
 4879SOL    HW215537   3.750   5.858   3.781
 4880SOL     OW15538   6.550   1.636   6.246
 4880SOL    HW115539   6.506   1.546   6.239
 4880SOL    HW215540   6.574   1.668   6.155
 4881SOL     OW15541   2.906   6.411   6.083
 4881SOL    HW115542   2.992   6.423   6.034
 4881SOL    HW215543   2.919   6.350   6.161
 4882SOL     OW15544   5.756   5.845   6.448
 4882SOL    HW115545   5.797   5.796   6.525
 4882SOL    HW215546   5.825   5.863   6.378
 4883SOL     OW15547   5.842   5.663   0.008
 4883SOL    HW115548   5.901   5.742   7.011
 4883SOL    HW215549   5.877   5.615   0.088
 4884SOL     OW15550   3.451   6.395   1.494
 4884SOL    HW115551   3.355   6.408   1.470
 4884SOL    HW215552   3.474   6.452   1.573
 4885SOL     OW15553   1.487   0.475   2.242
 4885SOL    HW115554   1.470   0.530   2.324
 4885SOL    HW215555   1.451   0.522   2.162
 4886SOL     OW15556   5.989   0.922   5.433
 4886SOL    HW115557   6.002   0.965   5.344
 4886SOL    HW215558   6.060   0.854   5.448
 4887SOL     OW15559   0.216   1.795   5.285
 4887SOL    HW115560   0.234   1.783   5.382
 4887SOL    HW215561   0.130   1.750   5.260
 4888SOL     OW15562   4.332   5.905   1.273
 4888SOL    HW115563   4.330   5.813   1.233
 4888SOL    HW215564   4.425   5.925   1.306
 4889SOL     OW15565   1.815   3.348   6.758
 4889SOL    HW115566   1.827   3.262   6.709
 4889SOL    HW215567   1.754   3.409   6.707
 4890SOL     OW15568   0.206   0.206   4.723
 4890SOL    HW115569   0.124   0.151   4.727
 4890SOL    HW215570   0.274   0.162   4.664
 4891SOL     OW15571   1.103   5.182   0.698
 4891SOL    HW115572   1.062   5.175   0.789
 4891SOL    HW215573   1.201   5.165   0.704
 4892SOL     OW15574   1.834   6.035   2.177
 4892SOL    HW115575   1.734   6.035   2.186
 4892SOL    HW215576   1.873   5.968   2.239
 4893SOL     OW15577   0.326   4.250   6.453
 4893SOL    HW115578   0.377   4.309   6.516
 4893SOL    HW215579   0.238   4.291   6.432
 4894SOL     OW15580   0.678   6.574   3.243
 4894SOL    HW115581   0.651   6.639   3.313
 4894SOL    HW215582   0.682   6.482   3.283
 4895SOL     OW15583   6.366   4.238   6.962
 4895SOL    HW115584   6.305   4.213   6.887
 4895SOL    HW215585   6.424   4.314   6.935
 4896SOL     OW15586   4.182   0.164   4.106
 4896SOL    HW115587   4.275   0.134   4.129
 4896SOL    HW215588   4.158   0.243   4.162
 4897SOL     OW15589   2.751   5.325   6.497
 4897SOL    HW115590   2.817   5.361   6.432
 4897SOL    HW215591   2.696   5.254   6.454
 4898SOL     OW15592   5.025   2.817   4.333
 4898SOL    HW115593   4.947   2.866   4.371
 4898SOL    HW215594   4.997   2.768   4.250
 4899SOL     OW15595   5.966   3.862   4.441
 4899SOL    HW115596   6.026   3.833   4.367
 4899SOL    HW215597   5.952   3.785   4.504
 4900SOL     OW15598   0.759   6.439   5.365
 4900SOL    HW115599   0.762   6.488   5.278
 4900SOL    HW215600   0.666   6.406   5.381
 4901SOL     OW15601   6.263   6.181   3.314
 4901SOL    HW115602   6.269   6.267   3.263
 4901SOL    HW215603   6.168   6.149   3.314
 4902SOL     OW15604   3.556   5.158   0.658
 4902SOL    HW115605   3.538   5.167   0.756
 4902SOL    HW215606   3.654   5.146   0.642
 4903SOL     OW15607   5.829   4.970   6.256
 4903SOL    HW115608   5.759   4.978   6.327
 4903SOL    HW215609   5.851   5.062   6.221
 4904SOL     OW15610   3.048   0.868   3.584
 4904SOL    HW115611   3.124   0.803   3.589
 4904SOL    HW215612   3.035   0.911   3.673
 4905SOL     OW15613   6.151   3.722   2.924
 4905SOL    HW115614   6.161   3.642   2.864
 4905SOL    HW215615   6.233   3.732   2.979
 4906SOL     OW15616   4.636   0.009   1.903
 4906SOL    HW115617   4.544   7.010   1.934
 4906SOL    HW215618   4.663   6.967   1.831
 4907SOL     OW15619   2.942   2.887   1.749
 4907SOL    HW115620   2.871   2.873   1.680
 4907SOL    HW215621   2.998   2.805   1.756
 4908SOL     OW15622   5.302   5.264   6.419
 4908SOL    HW115623   5.343   5.272   6.511
 4908SOL    HW215624   5.270   5.354   6.390
 4909SOL     OW15625   6.098   6.670   5.627
 4909SOL    HW115626   6.011   6.624   5.609
 4909SOL    HW215627   6.085   6.769   5.620
 4910SOL     OW15628   5.248   6.572   5.337
 4910SOL    HW115629   5.347   6.556   5.341
 4910SOL    HW215630   5.223   6.600   5.244
 4911SOL     OW15631   0.419   4.076   6.265
 4911SOL    HW115632   0.337   4.022   6.246
 4911SOL    HW215633   0.398   4.147   6.332
 4912SOL     OW15634   2.004   3.138   1.374
 4912SOL    HW115635   2.005   3.115   1.277
 4912SOL    HW215636   1.922   3.190   1.396
 4913SOL     OW15637   2.916   3.159   2.012
 4913SOL    HW115638   2.884   3.135   1.920
 4913SOL    HW215639   2.907   3.080   2.073
 4914SOL     OW15640   1.238   6.660   2.512
 4914SOL    HW115641   1.282   6.574   2.486
 4914SOL    HW215642   1.261   6.731   2.445
 4915SOL     OW15643   3.663   6.451   4.254
 4915SOL    HW115644   3.755   6.411   4.255
 4915SOL    HW215645   3.640   6.479   4.161
 4916SOL     OW15646   1.441   1.974   2.192
 4916SOL    HW115647   1.440   1.876   2.174
 4916SOL    HW215648   1.441   1.990   2.291
 4917SOL     OW15649   1.093   4.591   6.575
 4917SOL    HW115650   1.052   4.606   6.485
 4917SOL    HW215651   1.025   4.613   6.646
 4918SOL     OW15652   2.450   6.684   4.068
 4918SOL    HW115653   2.504   6.751   4.118
 4918SOL    HW215654   2.365   6.665   4.117
 4919SOL     OW15655   2.187   2.928   0.984
 4919SOL    HW115656   2.262   2.867   1.012
 4919SOL    HW215657   2.118   2.875   0.934
 4920SOL     OW15658   3.589   1.796   6.937
 4920SOL    HW115659   3.492   1.819   6.948
 4920SOL    HW215660   3.619   1.742   7.015
 4921SOL     OW15661   6.807   4.815   2.526
 4921SOL    HW115662   6.763   4.854   2.445
 4921SOL    HW215663   6.748   4.828   2.606
 4922SOL     OW15664   1.090   2.904   6.165
 4922SOL    HW115665   1.129   2.871   6.079
 4922SOL    HW215666   1.003   2.950   6.146
 4923SOL     OW15667   3.361   1.878   6.628
 4923SOL    HW115668   3.400   1.789   6.655
 4923SOL    HW215669   3.273   1.891   6.674
 4924SOL     OW15670   0.359   3.082   4.257
 4924SOL    HW115671   0.384   3.160   4.199
 4924SOL    HW215672   0.440   3.028   4.278
 4925SOL     OW15673   4.347   5.103   5.067
 4925SOL    HW115674   4.359   5.004   5.064
 4925SOL    HW215675   4.271   5.129   5.007
 4926SOL     OW15676   4.455   3.501   0.555
 4926SOL    HW115677   4.495   3.563   0.488
 4926SOL    HW215678   4.380   3.450   0.513
 4927SOL     OW15679   2.964   3.615   2.231
 4927SOL    HW115680   3.008   3.619   2.320
 4927SOL    HW215681   2.982   3.701   2.181
 4928SOL     OW15682   7.000   1.423   6.835
 4928SOL    HW115683   0.022   1.505   6.871
 4928SOL    HW215684   0.036   1.344   6.851
 4929SOL     OW15685   0.444   4.236   4.548
 4929SOL    HW115686   0.490   4.194   4.626
 4929SOL    HW215687   0.512   4.265   4.480
 4930SOL     OW15688   6.966   3.638   6.863
 4930SOL    HW115689   0.012   3.617   6.793
 4930SOL    HW215690   6.965   3.564   6.931
 4931SOL     OW15691   5.528   6.718   0.887
 4931SOL    HW115692   5.517   6.720   0.986
 4931SOL    HW215693   5.619   6.683   0.864
 4932SOL     OW15694   3.476   1.247   0.989
 4932SOL    HW115695   3.394   1.250   0.932
 4932SOL    HW215696   3.489   1.336   1.032
 4933SOL     OW15697   3.051   0.140   4.923
 4933SOL    HW115698   3.011   0.058   4.963
 4933SOL    HW215699   3.149   0.126   4.908
 4934SOL     OW15700   1.933   5.897   5.109
 4934SOL    HW115701   1.961   5.813   5.155
 4934SOL    HW215702   1.840   5.921   5.137
 4935SOL     OW15703   2.040   2.646   0.517
 4935SOL    HW115704   2.089   2.665   0.602
 4935SOL    HW215705   2.101   2.601   0.452
 4936SOL     OW15706   6.593   4.279   1.432
 4936SOL    HW115707   6.594   4.179   1.437
 4936SOL    HW215708   6.581   4.316   1.524
 4937SOL     OW15709   0.610   3.328   5.126
 4937SOL    HW115710   0.697   3.289   5.096
 4937SOL    HW215711   0.535   3.273   5.090
 4938SOL     OW15712   3.612   4.184   1.138
 4938SOL    HW115713   3.673   4.139   1.203
 4938SOL    HW215714   3.653   4.271   1.109
 4939SOL     OW15715   0.969   1.342   1.428
 4939SOL    HW115716   0.985   1.389   1.341
 4939SOL    HW215717   0.881   1.370   1.466
 4940SOL     OW15718   1.502   1.630   5.381
 4940SOL    HW115719   1.566   1.556   5.398
 4940SOL    HW215720   1.520   1.705   5.445
 4941SOL     OW15721   4.060   2.143   5.530
 4941SOL    HW115722   4.118   2.065   5.553
 4941SOL    HW215723   4.096   2.226   5.574
 4942SOL     OW15724   0.355   0.993   2.123
 4942SOL    HW115725   0.394   0.928   2.188
 4942SOL    HW215726   0.316   0.944   2.045
 4943SOL     OW15727   4.984   2.429   6.185
 4943SOL    HW115728   5.019   2.443   6.092
 4943SOL    HW215729   5.039   2.481   6.250
 4944SOL     OW15730   0.966   5.080   0.487
 4944SOL    HW115731   0.995   5.141   0.560
 4944SOL    HW215732   0.873   5.048   0.505
 4945SOL     OW15733   2.370   7.004   6.238
 4945SOL    HW115734   2.327   0.036   6.167
 4945SOL    HW215735   2.311   7.000   6.319
 4946SOL     OW15736   2.948   5.583   0.448
 4946SOL    HW115737   2.931   5.501   0.393
 4946SOL    HW215738   3.010   5.644   0.399
 4947SOL     OW15739   1.147   0.123   1.190
 4947SOL    HW115740   1.191   0.141   1.278
 4947SOL    HW215741   1.096   0.204   1.161
 4948SOL     OW15742   1.631   3.008   2.215
 4948SOL    HW115743   1.693   3.026   2.138
 4948SOL    HW215744   1.666   2.932   2.269
 4949SOL     OW15745   6.423   4.887   6.381
 4949SOL    HW115746   6.459   4.823   6.313
 4949SOL    HW215747   6.428   4.846   6.472
 4950SOL     OW15748   3.989   4.013   6.038
 4950SOL    HW115749   3.912   3.989   5.979
 4950SOL    HW215750   4.004   3.940   6.105
 4951SOL     OW15751   5.363   5.234   3.124
 4951SOL    HW115752   5.281   5.211   3.177
 4951SOL    HW215753   5.410   5.149   3.099
 4952SOL     OW15754   0.914   0.915   6.777
 4952SOL    HW115755   0.958   0.828   6.751
 4952SOL    HW215756   0.928   0.932   6.874
 4953SOL     OW15757   1.633   1.149   6.008
 4953SOL    HW115758   1.555   1.175   5.952
 4953SOL    HW215759   1.624   1.053   6.035
 4954SOL     OW15760   3.393   3.398   5.390
 4954SOL    HW115761   3.418   3.312   5.347
 4954SOL    HW215762   3.310   3.434   5.348
 4955SOL     OW15763   3.928   6.353   0.198
 4955SOL    HW115764   3.958   6.277   0.141
 4955SOL    HW215765   3.987   6.433   0.181
 4956SOL     OW15766   2.425   0.267   4.255
 4956SOL    HW115767   2.444   0.365   4.261
 4956SOL    HW215768   2.450   0.223   4.341
 4957SOL     OW15769   5.854   5.548   6.761
 4957SOL    HW115770   5.951   5.552   6.735
 4957SOL    HW215771   5.843   5.590   6.852
 4958SOL     OW15772   3.416   5.279   0.056
 4958SOL    HW115773   3.470   5.328   7.011
 4958SOL    HW215774   3.439   5.181   0.054
 4959SOL     OW15775   0.513   1.860   3.429
 4959SOL    HW115776   0.487   1.920   3.354
 4959SOL    HW215777   0.546   1.773   3.392
 4960SOL     OW15778   4.987   4.518   4.343
 4960SOL    HW115779   4.900   4.565   4.354
 4960SOL    HW215780   5.062   4.584   4.351
 4961SOL     OW15781   3.674   3.179   2.247
 4961SOL    HW115782   3.725   3.099   2.278
 4961SOL    HW215783   3.709   3.209   2.158
 4962SOL     OW15784   1.581   2.351   0.519
 4962SOL    HW115785   1.677   2.378   0.530
 4962SOL    HW215786   1.573   2.251   0.524
 4963SOL     OW15787   0.470   3.762   6.762
 4963SOL    HW115788   0.411   3.689   6.727
 4963SOL    HW215789   0.487   3.747   6.860
 4964SOL     OW15790   1.493   4.906   4.071
 4964SOL    HW115791   1.561   4.966   4.028
 4964SOL    HW215792   1.402   4.942   4.052
 4965SOL     OW15793   2.671   0.427   3.181
 4965SOL    HW115794   2.755   0.429   3.235
 4965SOL    HW215795   2.594   0.458   3.237
 4966SOL     OW15796   4.490   6.936   5.378
 4966SOL    HW115797   4.441   6.966   5.296
 4966SOL    HW215798   4.550   6.860   5.354
 4967SOL     OW15799   4.501   4.506   3.613
 4967SOL    HW115800   4.500   4.463   3.704
 4967SOL    HW215801   4.411   4.545   3.594
 4968SOL     OW15802   6.715   2.983   3.699
 4968SOL    HW115803   6.735   2.886   3.687
 4968SOL    HW215804   6.671   3.019   3.616
 4969SOL     OW15805   0.883   5.881   4.278
 4969SOL    HW115806   0.948   5.908   4.207
 4969SOL    HW215807   0.917   5.800   4.326
 4970SOL     OW15808   2.156   1.233   1.057
 4970SOL    HW115809   2.217   1.190   1.123
 4970SOL    HW215810   2.061   1.214   1.082
 4971SOL     OW15811   0.604   6.018   2.004
 4971SOL    HW115812   0.638   6.111   1.992
 4971SOL    HW215813   0.531   6.000   1.939
 4972SOL     OW15814   0.173   3.834   0.167
 4972SOL    HW115815   0.083   3.793   0.182
 4972SOL    HW215816   0.244   3.768   0.194
 4973SOL     OW15817   5.033   2.515   6.654
 4973SOL    HW115818   5.040   2.434   6.712
 4973SOL    HW215819   5.125   2.551   6.636
 4974SOL     OW15820   3.260   0.053   5.609
 4974SOL    HW115821   3.344   0.107   5.603
 4974SOL    HW215822   3.215   0.070   5.696
 4975SOL     OW15823   5.900   4.183   1.535
 4975SOL    HW115824   5.858   4.093   1.526
 4975SOL    HW215825   5.843   4.241   1.593
 4976SOL     OW15826   1.041   0.404   3.609
 4976SOL    HW115827   0.984   0.468   3.662
 4976SOL    HW215828   1.014   0.310   3.632
 4977SOL     OW15829   1.202   3.493   5.046
 4977SOL    HW115830   1.145   3.456   5.119
 4977SOL    HW215831   1.255   3.419   5.004
 4978SOL     OW15832   5.988   5.156   4.662
 4978SOL    HW115833   6.053   5.231   4.651
 4978SOL    HW215834   6.005   5.109   4.748
 4979SOL     OW15835   3.635   6.704   6.349
 4979SOL    HW115836   3.619   6.680   6.444
 4979SOL    HW215837   3.613   6.626   6.290
 4980SOL     OW15838   5.925   2.814   3.932
 4980SOL    HW115839   5.983   2.750   3.881
 4980SOL    HW215840   5.830   2.783   3.929
 4981SOL     OW15841   3.741   6.299   3.205
 4981SOL    HW115842   3.673   6.228   3.224
 4981SOL    HW215843   3.708   6.387   3.239
 4982SOL     OW15844   4.228   2.011   4.812
 4982SOL    HW115845   4.212   1.919   4.849
 4982SOL    HW215846   4.163   2.029   4.739
 4983SOL     OW15847   5.982   3.367   2.940
 4983SOL    HW115848   5.955   3.299   2.872
 4983SOL    HW215849   5.911   3.375   3.010
 4984SOL     OW15850   4.927   3.688   5.277
 4984SOL    HW115851   4.882   3.662   5.191
 4984SOL    HW215852   4.866   3.670   5.354
 4985SOL     OW15853   5.657   0.598   2.279
 4985SOL    HW115854   5.564   0.561   2.267
 4985SOL    HW215855   5.700   0.555   2.358
 4986SOL     OW15856   1.591   5.595   1.243
 4986SOL    HW115857   1.585   5.495   1.244
 4986SOL    HW215858   1.665   5.624   1.305
 4987SOL     OW15859   1.987   3.759   2.241
 4987SOL    HW115860   2.017   3.663   2.243
 4987SOL    HW215861   2.060   3.815   2.201
 4988SOL     OW15862   6.413   5.454   4.126
 4988SOL    HW115863   6.345   5.415   4.064
 4988SOL    HW215864   6.370   5.527   4.181
 4989SOL     OW15865   6.908   6.673   3.689
 4989SOL    HW115866   6.999   6.714   3.677
 4989SOL    HW215867   6.838   6.732   3.650
 4990SOL     OW15868   5.090   2.016   5.471
 4990SOL    HW115869   5.163   2.067   5.517
 4990SOL    HW215870   5.112   2.005   5.375
 4991SOL     OW15871   2.366   5.866   5.429
 4991SOL    HW115872   2.346   5.806   5.352
 4991SOL    HW215873   2.465   5.875   5.440
 4992SOL     OW15874   2.533   3.063   5.639
 4992SOL    HW115875   2.544   3.037   5.735
 4992SOL    HW215876   2.563   3.158   5.627
 4993SOL     OW15877   2.179   5.173   4.026
 4993SOL    HW115878   2.223   5.085   4.044
 4993SOL    HW215879   2.241   5.248   4.052
 4994SOL     OW15880   3.079   5.165   5.583
 4994SOL    HW115881   3.035   5.101   5.520
 4994SOL    HW215882   3.037   5.256   5.574
 4995SOL     OW15883   0.343   1.488   5.609
 4995SOL    HW115884   0.440   1.495   5.632
 4995SOL    HW215885   0.334   1.470   5.511
 4996SOL     OW15886   6.865   0.446   4.735
 4996SOL    HW115887   6.870   0.526   4.675
 4996SOL    HW215888   6.776   0.444   4.781
 4997SOL     OW15889   4.201   1.181   0.404
 4997SOL    HW115890   4.187   1.103   0.465
 4997SOL    HW215891   4.220   1.148   0.311
 4998SOL     OW15892   1.030   3.532   3.319
 4998SOL    HW115893   1.073   3.615   3.354
 4998SOL    HW215894   0.993   3.479   3.395
 4999SOL     OW15895   0.244   2.918   3.612
 4999SOL    HW115896   0.146   2.940   3.610
 4999SOL    HW215897   0.259   2.841   3.675
 5000SOL     OW15898   3.230   6.356   2.909
 5000SOL    HW115899   3.220   6.455   2.907
 5000SOL    HW215900   3.198   6.317   2.822
 5001SOL     OW15901   0.301   5.739   3.406
 5001SOL    HW115902   0.354   5.774   3.483
 5001SOL    HW215903   0.222   5.798   3.389
 5002SOL     OW15904   1.235   4.484   3.941
 5002SOL    HW115905   1.271   4.563   3.991
 5002SOL    HW215906   1.310   4.437   3.895
 5003SOL     OW15907   3.316   0.901   1.574
 5003SOL    HW115908   3.397   0.946   1.611
 5003SOL    HW215909   3.332   0.878   1.478
 5004SOL     OW15910   4.498   6.408   0.407
 5004SOL    HW115911   4.457   6.329   0.452
 5004SOL    HW215912   4.575   6.442   0.461
 5005SOL     OW15913   3.861   3.176   0.965
 5005SOL    HW115914   3.927   3.213   1.031
 5005SOL    HW215915   3.798   3.115   1.012
 5006SOL     OW15916   5.102   0.478   2.731
 5006SOL    HW115917   5.184   0.429   2.762
 5006SOL    HW215918   5.094   0.471   2.632
 5007SOL     OW15919   6.154   5.155   2.316
 5007SOL    HW115920   6.243   5.115   2.294
 5007SOL    HW215921   6.155   5.253   2.295
 5008SOL     OW15922   5.051   6.845   3.503
 5008SOL    HW115923   4.986   6.870   3.575
 5008SOL    HW215924   5.131   6.804   3.544
 5009SOL     OW15925   0.510   1.694   6.876
 5009SOL    HW115926   0.498   1.628   6.950
 5009SOL    HW215927   0.608   1.714   6.865
 5010SOL     OW15928   5.160   4.077   0.949
 5010SOL    HW115929   5.211   4.144   0.894
 5010SOL    HW215930   5.165   4.103   1.046
 5011SOL     OW15931   1.775   2.355   6.274
 5011SOL    HW115932   1.783   2.391   6.367
 5011SOL    HW215933   1.728   2.421   6.217
 5012SOL     OW15934   6.308   2.184   6.272
 5012SOL    HW115935   6.246   2.184   6.351
 5012SOL    HW215936   6.372   2.108   6.281
 5013SOL     OW15937   5.930   6.674   5.137
 5013SOL    HW115938   5.983   6.590   5.132
 5013SOL    HW215939   5.992   6.753   5.132
 5014SOL     OW15940   6.158   4.259   0.897
 5014SOL    HW115941   6.183   4.188   0.831
 5014SOL    HW215942   6.156   4.220   0.989
 5015SOL     OW15943   6.148   5.361   4.667
 5015SOL    HW115944   6.203   5.428   4.616
 5015SOL    HW215945   6.135   5.394   4.761
 5016SOL     OW15946   1.638   2.449   6.677
 5016SOL    HW115947   1.616   2.441   6.774
 5016SOL    HW215948   1.587   2.380   6.626
 5017SOL     OW15949   1.297   2.585   2.185
 5017SOL    HW115950   1.340   2.672   2.210
 5017SOL    HW215951   1.204   2.602   2.152
 5018SOL     OW15952   0.831   1.086   0.192
 5018SOL    HW115953   0.746   1.049   0.230
 5018SOL    HW215954   0.884   1.128   0.266
 5019SOL     OW15955   1.560   3.714   3.829
 5019SOL    HW115956   1.480   3.713   3.889
 5019SOL    HW215957   1.608   3.801   3.839
 5020SOL     OW15958   1.721   6.899   3.810
 5020SOL    HW115959   1.770   6.986   3.819
 5020SOL    HW215960   1.692   6.868   3.901
 5021SOL     OW15961   2.052   0.563   1.430
 5021SOL    HW115962   2.039   0.624   1.352
 5021SOL    HW215963   2.088   0.616   1.507
 5022SOL     OW15964   0.025   2.760   0.870
 5022SOL    HW115965   0.099   2.696   0.851
 5022SOL    HW215966   6.990   2.724   0.944
 5023SOL     OW15967   0.507   3.053   2.755
 5023SOL    HW115968   0.536   3.036   2.661
 5023SOL    HW215969   0.567   3.004   2.819
 5024SOL     OW15970   4.789   4.353   6.645
 5024SOL    HW115971   4.886   4.375   6.649
 5024SOL    HW215972   4.742   4.418   6.584
 5025SOL     OW15973   5.052   1.857   5.011
 5025SOL    HW115974   5.045   1.758   5.025
 5025SOL    HW215975   5.057   1.903   5.099
 5026SOL     OW15976   5.128   6.181   4.793
 5026SOL    HW115977   5.175   6.250   4.738
 5026SOL    HW215978   5.168   6.181   4.885
 5027SOL     OW15979   4.974   6.584   0.765
 5027SOL    HW115980   4.965   6.577   0.865
 5027SOL    HW215981   4.886   6.609   0.725
 5028SOL     OW15982   6.534   1.580   2.864
 5028SOL    HW115983   6.590   1.561   2.945
 5028SOL    HW215984   6.470   1.654   2.885
 5029SOL     OW15985   5.329   2.777   2.268
 5029SOL    HW115986   5.265   2.707   2.238
 5029SOL    HW215987   5.312   2.798   2.365
 5030SOL     OW15988   0.355   3.310   0.875
 5030SOL    HW115989   0.276   3.254   0.848
 5030SOL    HW215990   0.325   3.384   0.936
 5031SOL     OW15991   6.385   0.268   6.224
 5031SOL    HW115992   6.343   0.358   6.217
 5031SOL    HW215993   6.370   0.217   6.139
 5032SOL     OW15994   2.852   4.368   6.256
 5032SOL    HW115995   2.770   4.359   6.312
 5032SOL    HW215996   2.827   4.371   6.159
 5033SOL     OW15997   1.971   6.288   5.439
 5033SOL    HW115998   1.929   6.281   5.348
 5033SOL    HW215999   2.051   6.229   5.443
 5034SOL     OW16000   4.001   5.685   3.862
 5034SOL    HW116001   4.100   5.698   3.868
 5034SOL    HW216002   3.958   5.772   3.837
 5035SOL     OW16003   1.959   3.415   3.365
 5035SOL    HW116004   1.909   3.427   3.280
 5035SOL    HW216005   2.001   3.502   3.392
 5036SOL     OW16006   1.123   3.526   4.523
 5036SOL    HW116007   1.201   3.464   4.516
 5036SOL    HW216008   1.094   3.554   4.432
 5037SOL     OW16009   5.111   5.081   0.922
 5037SOL    HW116010   5.048   5.117   0.991
 5037SOL    HW216011   5.113   4.981   0.927
 5038SOL     OW16012   3.012   3.905   4.135
 5038SOL    HW116013   3.098   3.935   4.093
 5038SOL    HW216014   2.958   3.985   4.162
 5039SOL     OW16015   0.786   3.456   6.714
 5039SOL    HW116016   0.739   3.370   6.695
 5039SOL    HW216017   0.789   3.511   6.630
 5040SOL     OW16018   0.494   1.835   5.344
 5040SOL    HW116019   0.416   1.804   5.291
 5040SOL    HW216020   0.463   1.874   5.431
 5041SOL     OW16021   6.719   2.280   1.811
 5041SOL    HW116022   6.654   2.356   1.807
 5041SOL    HW216023   6.698   2.222   1.889
 5042SOL     OW16024   1.076   1.938   6.053
 5042SOL    HW116025   1.167   1.956   6.015
 5042SOL    HW216026   1.011   2.006   6.019
 5043SOL     OW16027   2.833   6.682   1.615
 5043SOL    HW116028   2.913   6.741   1.609
 5043SOL    HW216029   2.849   6.610   1.683
 5044SOL     OW16030   0.040   6.149   0.129
 5044SOL    HW116031   0.115   6.111   0.183
 5044SOL    HW216032   0.051   6.123   0.034
 5045SOL     OW16033   5.552   2.782   1.246
 5045SOL    HW116034   5.597   2.870   1.231
 5045SOL    HW216035   5.618   2.708   1.231
 5046SOL     OW16036   3.894   2.999   2.226
 5046SOL    HW116037   3.836   2.921   2.200
 5046SOL    HW216038   3.960   3.017   2.153
 5047SOL     OW16039   1.811   4.085   3.624
 5047SOL    HW116040   1.778   3.995   3.594
 5047SOL    HW216041   1.852   4.077   3.715
 5048SOL     OW16042   2.729   0.391   5.655
 5048SOL    HW116043   2.637   0.421   5.681
 5048SOL    HW216044   2.723   0.322   5.583
 5049SOL     OW16045   3.896   1.371   6.446
 5049SOL    HW116046   3.951   1.350   6.364
 5049SOL    HW216047   3.884   1.470   6.454
 5050SOL     OW16048   1.510   0.647   0.794
 5050SOL    HW116049   1.470   0.558   0.817
 5050SOL    HW216050   1.537   0.694   0.878
 5051SOL     OW16051   4.742   4.634   0.786
 5051SOL    HW116052   4.688   4.575   0.726
 5051SOL    HW216053   4.684   4.670   0.859
 5052SOL     OW16054   2.191   3.350   4.662
 5052SOL    HW116055   2.191   3.377   4.758
 5052SOL    HW216056   2.143   3.419   4.608
 5053SOL     OW16057   6.327   0.370   1.085
 5053SOL    HW116058   6.410   0.376   1.140
 5053SOL    HW216059   6.345   0.409   0.995
 5054SOL     OW16060   4.300   5.450   3.542
 5054SOL    HW116061   4.230   5.399   3.492
 5054SOL    HW216062   4.338   5.392   3.615
 5055SOL     OW16063   0.145   4.088   5.474
 5055SOL    HW116064   0.059   4.116   5.516
 5055SOL    HW216065   0.133   4.083   5.375
 5056SOL     OW16066   6.366   4.566   3.260
 5056SOL    HW116067   6.410   4.504   3.196
 5056SOL    HW216068   6.359   4.523   3.349
 5057SOL     OW16069   0.147   5.952   2.369
 5057SOL    HW116070   0.072   6.013   2.395
 5057SOL    HW216071   0.215   6.003   2.316
 5058SOL     OW16072   2.566   5.975   5.766
 5058SOL    HW116073   2.488   6.022   5.808
 5058SOL    HW216074   2.567   5.880   5.796
 5059SOL     OW16075   6.683   0.586   1.844
 5059SOL    HW116076   6.702   0.490   1.866
 5059SOL    HW216077   6.754   0.644   1.886
 5060SOL     OW16078   0.282   2.452   6.549
 5060SOL    HW116079   0.223   2.405   6.484
 5060SOL    HW216080   0.265   2.417   6.641
 5061SOL     OW16081   5.501   3.225   0.789
 5061SOL    HW116082   5.549   3.228   0.877
 5061SOL    HW216083   5.465   3.133   0.774
 5062SOL     OW16084   6.689   0.212   0.143
 5062SOL    HW116085   6.728   0.133   0.191
 5062SOL    HW216086   6.763   0.270   0.109
 5063SOL     OW16087   1.338   6.424   2.454
 5063SOL    HW116088   1.423   6.387   2.492
 5063SOL    HW216089   1.261   6.368   2.484
 5064SOL     OW16090   5.121   3.879   6.858
 5064SOL    HW116091   5.201   3.825   6.833
 5064SOL    HW216092   5.052   3.818   6.898
 5065SOL     OW16093   3.101   6.663   6.277
 5065SOL    HW116094   3.057   6.680   6.189
 5065SOL    HW216095   3.049   6.707   6.350
 5066SOL     OW16096   4.669   4.917   0.590
 5066SOL    HW116097   4.655   4.901   0.492
 5066SOL    HW216098   4.584   4.897   0.639
 5067SOL     OW16099   5.393   1.407   6.523
 5067SOL    HW116100   5.353   1.339   6.585
 5067SOL    HW216101   5.384   1.374   6.429
 5068SOL     OW16102   3.899   4.679   0.887
 5068SOL    HW116103   3.833   4.720   0.824
 5068SOL    HW216104   3.859   4.597   0.929
 5069SOL     OW16105   6.567   5.315   3.130
 5069SOL    HW116106   6.593   5.387   3.065
 5069SOL    HW216107   6.478   5.277   3.105
 5070SOL     OW16108   5.105   2.543   3.621
 5070SOL    HW116109   5.125   2.449   3.593
 5070SOL    HW216110   5.110   2.604   3.542
 5071SOL     OW16111   4.889   1.037   1.172
 5071SOL    HW116112   4.852   1.083   1.091
 5071SOL    HW216113   4.884   0.938   1.159
 5072SOL     OW16114   0.605   3.553   1.716
 5072SOL    HW116115   0.701   3.528   1.702
 5072SOL    HW216116   0.600   3.628   1.782
 5073SOL     OW16117   3.665   2.131   3.338
 5073SOL    HW116118   3.756   2.152   3.302
 5073SOL    HW216119   3.653   2.176   3.426
 5074SOL     OW16120   4.197   4.310   5.317
 5074SOL    HW116121   4.257   4.249   5.369
 5074SOL    HW216122   4.246   4.347   5.238
 5075SOL     OW16123   0.131   6.905   3.648
 5075SOL    HW116124   0.147   7.001   3.668
 5075SOL    HW216125   0.204   6.849   3.687
 5076SOL     OW16126   4.597   0.323   0.953
 5076SOL    HW116127   4.577   0.420   0.956
 5076SOL    HW216128   4.645   0.301   0.868
 5077SOL     OW16129   6.552   2.607   2.496
 5077SOL    HW116130   6.554   2.660   2.411
 5077SOL    HW216131   6.468   2.627   2.546
 5078SOL     OW16132   6.972   0.996   4.594
 5078SOL    HW116133   6.931   0.969   4.681
 5078SOL    HW216134   0.015   1.069   4.610
 5079SOL     OW16135   4.453   4.858   4.584
 5079SOL    HW116136   4.415   4.774   4.623
 5079SOL    HW216137   4.542   4.876   4.625
 5080SOL     OW16138   5.852   1.116   6.323
 5080SOL    HW116139   5.805   1.047   6.269
 5080SOL    HW216140   5.924   1.159   6.267
 5081SOL     OW16141   3.045   3.077   2.954
 5081SOL    HW116142   3.023   3.065   3.051
 5081SOL    HW216143   3.123   3.139   2.946
 5082SOL     OW16144   0.690   1.438   5.501
 5082SOL    HW116145   0.721   1.414   5.409
 5082SOL    HW216146   0.716   1.365   5.565
 5083SOL     OW16147   0.918   4.013   2.094
 5083SOL    HW116148   0.982   3.952   2.047
 5083SOL    HW216149   0.899   3.977   2.185
 5084SOL     OW16150   0.983   5.720   2.115
 5084SOL    HW116151   0.891   5.718   2.077
 5084SOL    HW216152   1.038   5.786   2.065
 5085SOL     OW16153   6.658   3.918   0.104
 5085SOL    HW116154   6.630   3.960   0.018
 5085SOL    HW216155   6.742   3.961   0.136
 5086SOL     OW16156   6.329   5.615   4.932
 5086SOL    HW116157   6.387   5.573   4.863
 5086SOL    HW216158   6.233   5.608   4.905
 5087SOL     OW16159   5.312   5.385   5.066
 5087SOL    HW116160   5.295   5.483   5.060
 5087SOL    HW216161   5.403   5.369   5.103
 5088SOL     OW16162   6.511   1.021   6.959
 5088SOL    HW116163   6.549   0.931   6.938
 5088SOL    HW216164   6.485   1.024   0.033
 5089SOL     OW16165   5.561   2.546   4.094
 5089SOL    HW116166   5.523   2.455   4.078
 5089SOL    HW216167   5.612   2.547   4.180
 5090SOL     OW16168   1.354   5.055   0.394
 5090SOL    HW116169   1.270   5.102   0.367
 5090SOL    HW216170   1.402   5.023   0.312
 5091SOL     OW16171   0.880   6.191   3.384
 5091SOL    HW116172   0.909   6.247   3.461
 5091SOL    HW216173   0.909   6.096   3.398
 5092SOL     OW16174   3.572   2.657   1.480
 5092SOL    HW116175   3.561   2.604   1.564
 5092SOL    HW216176   3.629   2.737   1.498
 5093SOL     OW16177   0.916   1.143   1.732
 5093SOL    HW116178   0.934   1.053   1.692
 5093SOL    HW216179   0.840   1.136   1.797
 5094SOL     OW16180   0.309   0.320   6.608
 5094SOL    HW116181   0.397   0.321   6.655
 5094SOL    HW216182   0.320   0.355   6.515
 5095SOL     OW16183   3.309   0.573   5.138
 5095SOL    HW116184   3.379   0.641   5.161
 5095SOL    HW216185   3.226   0.591   5.190
 5096SOL     OW16186   3.436   6.311   2.626
 5096SOL    HW116187   3.515   6.259   2.657
 5096SOL    HW216188   3.467   6.400   2.592
 5097SOL     OW16189   1.258   1.992   6.662
 5097SOL    HW116190   1.243   1.951   6.752
 5097SOL    HW216191   1.341   1.954   6.621
 5098SOL     OW16192   0.375   2.478   3.024
 5098SOL    HW116193   0.432   2.518   2.952
 5098SOL    HW216194   0.425   2.481   3.111
 5099SOL     OW16195   0.448   1.120   4.456
 5099SOL    HW116196   0.525   1.068   4.418
 5099SOL    HW216197   0.372   1.118   4.391
 5100SOL     OW16198   4.552   4.886   5.512
 5100SOL    HW116199   4.637   4.932   5.486
 5100SOL    HW216200   4.557   4.859   5.608
 5101SOL     OW16201   5.933   6.306   0.735
 5101SOL    HW116202   5.872   6.251   0.678
 5101SOL    HW216203   5.908   6.402   0.728
 5102SOL     OW16204   3.167   5.692   3.913
 5102SOL    HW116205   3.260   5.668   3.940
 5102SOL    HW216206   3.152   5.789   3.930
 5103SOL     OW16207   1.368   1.596   3.833
 5103SOL    HW116208   1.425   1.555   3.762
 5103SOL    HW216209   1.275   1.559   3.827
 5104SOL     OW16210   0.854   0.739   0.598
 5104SOL    HW116211   0.935   0.688   0.628
 5104SOL    HW216212   0.853   0.828   0.643
 5105SOL     OW16213   1.325   2.799   6.686
 5105SOL    HW116214   1.421   2.790   6.659
 5105SOL    HW216215   1.271   2.826   6.606
 5106SOL     OW16216   2.134   6.839   2.313
 5106SOL    HW116217   2.175   6.790   2.389
 5106SOL    HW216218   2.203   6.900   2.272
 5107SOL     OW16219   2.199   6.685   6.694
 5107SOL    HW116220   2.130   6.617   6.671
 5107SOL    HW216221   2.245   6.658   6.779
 5108SOL     OW16222   3.842   3.843   4.772
 5108SOL    HW116223   3.805   3.936   4.780
 5108SOL    HW216224   3.768   3.777   4.767
 5109SOL     OW16225   0.156   2.143   2.847
 5109SOL    HW116226   0.085   2.073   2.841
 5109SOL    HW216227   0.140   2.212   2.778
 5110SOL     OW16228   2.594   6.427   5.309
 5110SOL    HW116229   2.663   6.470   5.367
 5110SOL    HW216230   2.509   6.480   5.313
 5111SOL     OW16231   1.382   0.518   6.719
 5111SOL    HW116232   1.422   0.591   6.775
 5111SOL    HW216233   1.455   0.466   6.675
 5112SOL     OW16234   0.450   0.340   2.857
 5112SOL    HW116235   0.500   0.358   2.942
 5112SOL    HW216236   0.386   0.265   2.872
 5113SOL     OW16237   0.617   1.088   6.438
 5113SOL    HW116238   0.615   1.138   6.351
 5113SOL    HW216239   0.701   1.033   6.442
 5114SOL     OW16240   4.730   5.784   6.425
 5114SOL    HW116241   4.760   5.804   6.518
 5114SOL    HW216242   4.706   5.869   6.379
 5115SOL     OW16243   2.562   3.867   5.297
 5115SOL    HW116244   2.616   3.804   5.242
 5115SOL    HW216245   2.503   3.921   5.237
 5116SOL     OW16246   6.876   4.045   1.278
 5116SOL    HW116247   6.890   4.143   1.264
 5116SOL    HW216248   6.939   3.994   1.219
 5117SOL     OW16249   2.317   5.295   3.114
 5117SOL    HW116250   2.292   5.281   3.210
 5117SOL    HW216251   2.399   5.242   3.093
 5118SOL     OW16252   3.994   0.010   1.478
 5118SOL    HW116253   4.076   6.989   1.440
 5118SOL    HW216254   4.017   0.103   1.509
 5119SOL     OW16255   6.173   0.781   2.088
 5119SOL    HW116256   6.196   0.691   2.052
 5119SOL    HW216257   6.197   0.851   2.020
 5120SOL     OW16258   3.162   1.612   1.960
 5120SOL    HW116259   3.090   1.681   1.964
 5120SOL    HW216260   3.133   1.536   1.902
 5121SOL     OW16261   0.501   3.898   4.108
 5121SOL    HW116262   0.566   3.842   4.160
 5121SOL    HW216263   0.409   3.882   4.141
 5122SOL     OW16264   2.168   5.691   3.238
 5122SOL    HW116265   2.170   5.689   3.138
 5122SOL    HW216266   2.173   5.786   3.269
 5123SOL     OW16267   6.067   2.991   2.515
 5123SOL    HW116268   5.980   3.024   2.480
 5123SOL    HW216269   6.056   2.900   2.554
 5124SOL     OW16270   3.236   6.012   0.625
 5124SOL    HW116271   3.317   6.057   0.664
 5124SOL    HW216272   3.206   5.939   0.686
 5125SOL     OW16273   0.684   1.743   6.144
 5125SOL    HW116274   0.589   1.772   6.159
 5125SOL    HW216275   0.693   1.704   6.053
 5126SOL     OW16276   4.196   1.765   0.230
 5126SOL    HW116277   4.188   1.814   0.317
 5126SOL    HW216278   4.105   1.740   0.197
 5127SOL     OW16279   4.648   3.436   6.669
 5127SOL    HW116280   4.603   3.447   6.581
 5127SOL    HW216281   4.664   3.339   6.687
 5128SOL     OW16282   0.326   0.747   6.340
 5128SOL    HW116283   0.360   0.689   6.414
 5128SOL    HW216284   0.355   0.710   6.252
 5129SOL     OW16285   4.970   3.382   3.850
 5129SOL    HW116286   4.963   3.404   3.947
 5129SOL    HW216287   5.066   3.376   3.823
 5130SOL     OW16288   2.555   6.605   4.810
 5130SOL    HW116289   2.492   6.652   4.871
 5130SOL    HW216290   2.585   6.519   4.852
 5131SOL     OW16291   3.352   4.914   3.047
 5131SOL    HW116292   3.279   4.953   3.102
 5131SOL    HW216293   3.432   4.896   3.105
 5132SOL     OW16294   3.616   2.104   6.214
 5132SOL    HW116295   3.551   2.037   6.250
 5132SOL    HW216296   3.573   2.194   6.210
 5133SOL     OW16297   4.205   4.458   6.232
 5133SOL    HW116298   4.168   4.458   6.139
 5133SOL    HW216299   4.211   4.365   6.266
 5134SOL     OW16300   6.032   5.969   0.526
 5134SOL    HW116301   6.034   5.953   0.427
 5134SOL    HW216302   6.064   5.887   0.573
 5135SOL     OW16303   0.219   3.235   2.398
 5135SOL    HW116304   0.284   3.168   2.434
 5135SOL    HW216305   0.144   3.186   2.352
 5136SOL     OW16306   0.507   0.084   4.105
 5136SOL    HW116307   0.503   0.126   4.195
 5136SOL    HW216308   0.602   0.072   4.077
 5137SOL     OW16309   5.668   0.761   2.566
 5137SOL    HW116310   5.727   0.829   2.609
 5137SOL    HW216311   5.578   0.762   2.609
 5138SOL     OW16312   3.079   3.941   2.653
 5138SOL    HW116313   3.120   4.012   2.710
 5138SOL    HW216314   3.129   3.934   2.566
 5139SOL     OW16315   5.234   0.287   4.858
 5139SOL    HW116316   5.253   0.372   4.908
 5139SOL    HW216317   5.227   0.212   4.923
 5140SOL     OW16318   2.674   3.850   6.195
 5140SOL    HW116319   2.733   3.899   6.132
 5140SOL    HW216320   2.707   3.864   6.289
 5141SOL     OW16321   0.921   3.027   1.154
 5141SOL    HW116322   1.014   2.992   1.141
 5141SOL    HW216323   0.868   2.959   1.206
 5142SOL     OW16324   0.391   6.719   2.558
 5142SOL    HW116325   0.449   6.704   2.478
 5142SOL    HW216326   0.413   6.808   2.599
 5143SOL     OW16327   6.213   6.707   2.754
 5143SOL    HW116328   6.276   6.738   2.682
 5143SOL    HW216329   6.125   6.684   2.713
 5144SOL     OW16330   2.041   2.880   5.423
 5144SOL    HW116331   2.081   2.789   5.413
 5144SOL    HW216332   2.080   2.942   5.356
 5145SOL     OW16333   1.593   5.371   5.472
 5145SOL    HW116334   1.583   5.302   5.401
 5145SOL    HW216335   1.583   5.327   5.562
 5146SOL     OW16336   5.528   6.040   6.790
 5146SOL    HW116337   5.619   6.068   6.818
 5146SOL    HW216338   5.460   6.095   6.838
 5147SOL     OW16339   4.963   1.272   3.328
 5147SOL    HW116340   5.010   1.360   3.318
 5147SOL    HW216341   4.876   1.287   3.374
 5148SOL     OW16342   6.019   1.837   0.778
 5148SOL    HW116343   5.990   1.853   0.683
 5148SOL    HW216344   6.106   1.788   0.779
 5149SOL     OW16345   3.393   6.077   3.990
 5149SOL    HW116346   3.436   6.011   3.929
 5149SOL    HW216347   3.346   6.147   3.936
 5150SOL     OW16348   6.731   0.766   3.662
 5150SOL    HW116349   6.831   0.767   3.657
 5150SOL    HW216350   6.702   0.718   3.745
 5151SOL     OW16351   5.390   4.745   2.138
 5151SOL    HW116352   5.299   4.761   2.177
 5151SOL    HW216353   5.406   4.647   2.129
 5152SOL     OW16354   2.354   1.686   0.365
 5152SOL    HW116355   2.440   1.732   0.385
 5152SOL    HW216356   2.299   1.743   0.305
 5153SOL     OW16357   2.633   2.581   0.315
 5153SOL    HW116358   2.545   2.628   0.314
 5153SOL    HW216359   2.623   2.490   0.274
 5154SOL     OW16360   0.528   2.688   0.335
 5154SOL    HW116361   0.598   2.758   0.350
 5154SOL    HW216362   0.471   2.714   0.257
 5155SOL     OW16363   1.583   0.834   0.242
 5155SOL    HW116364   1.581   0.902   0.169
 5155SOL    HW216365   1.662   0.775   0.231
 5156SOL     OW16366   5.527   5.127   6.240
 5156SOL    HW116367   5.431   5.145   6.220
 5156SOL    HW216368   5.535   5.085   6.330
 5157SOL     OW16369   3.113   1.388   1.796
 5157SOL    HW116370   3.135   1.297   1.829
 5157SOL    HW216371   3.118   1.390   1.696
 5158SOL     OW16372   1.550   2.631   2.533
 5158SOL    HW116373   1.460   2.674   2.530
 5158SOL    HW216374   1.582   2.627   2.628
 5159SOL     OW16375   6.980   3.038   5.157
 5159SOL    HW116376   7.007   3.135   5.157
 5159SOL    HW216377   0.027   2.984   5.203
 5160SOL     OW16378   6.834   0.145   2.810
 5160SOL    HW116379   6.866   0.212   2.744
 5160SOL    HW216380   6.776   0.190   2.878
 5161SOL     OW16381   1.029   1.603   6.713
 5161SOL    HW116382   1.011   1.516   6.759
 5161SOL    HW216383   1.117   1.597   6.666
 5162SOL     OW16384   0.416   6.844   5.658
 5162SOL    HW116385   0.437   6.860   5.755
 5162SOL    HW216386   0.495   6.868   5.603
 5163SOL     OW16387   3.074   0.789   1.697
 5163SOL    HW116388   3.159   0.827   1.661
 5163SOL    HW216389   2.996   0.837   1.657
 5164SOL     OW16390   2.514   3.542   0.337
 5164SOL    HW116391   2.582   3.592   0.390
 5164SOL    HW216392   2.559   3.476   0.277
 5165SOL     OW16393   1.332   5.181   5.569
 5165SOL    HW116394   1.248   5.168   5.622
 5165SOL    HW216395   1.401   5.226   5.627
 5166SOL     OW16396   6.805   6.077   5.637
 5166SOL    HW116397   6.833   6.163   5.594
 5166SOL    HW216398   6.705   6.070   5.635
 5167SOL     OW16399   6.313   3.469   6.079
 5167SOL    HW116400   6.269   3.518   6.154
 5167SOL    HW216401   6.249   3.459   6.003
 5168SOL     OW16402   5.095   1.765   3.385
 5168SOL    HW116403   5.105   1.688   3.448
 5168SOL    HW216404   5.085   1.850   3.436
 5169SOL     OW16405   4.747   5.332   4.322
 5169SOL    HW116406   4.656   5.333   4.280
 5169SOL    HW216407   4.748   5.390   4.403
 5170SOL     OW16408   2.392   3.974   6.258
 5170SOL    HW116409   2.363   3.900   6.319
 5170SOL    HW216410   2.462   3.940   6.195
 5171SOL     OW16411   2.480   6.654   6.013
 5171SOL    HW116412   2.396   6.707   6.003
 5171SOL    HW216413   2.461   6.557   5.997
 5172SOL     OW16414   5.745   5.830   6.027
 5172SOL    HW116415   5.798   5.757   5.984
 5172SOL    HW216416   5.652   5.798   6.046
 5173SOL     OW16417   3.921   6.155   4.007
 5173SOL    HW116418   3.993   6.105   4.056
 5173SOL    HW216419   3.840   6.098   4.000
 5174SOL     OW16420   0.759   5.821   2.934
 5174SOL    HW116421   0.856   5.802   2.920
 5174SOL    HW216422   0.747   5.874   3.018
 5175SOL     OW16423   2.948   1.565   6.687
 5175SOL    HW116424   2.904   1.521   6.766
 5175SOL    HW216425   2.982   1.496   6.624
 5176SOL     OW16426   5.883   6.483   6.233
 5176SOL    HW116427   5.919   6.573   6.258
 5176SOL    HW216428   5.864   6.431   6.316
 5177SOL     OW16429   5.620   6.004   0.714
 5177SOL    HW116430   5.574   5.975   0.630
 5177SOL    HW216431   5.565   6.074   0.759
 5178SOL     OW16432   0.572   3.892   1.261
 5178SOL    HW116433   0.497   3.863   1.203
 5178SOL    HW216434   0.626   3.812   1.289
 5179SOL     OW16435   4.233   5.224   2.665
 5179SOL    HW116436   4.239   5.156   2.738
 5179SOL    HW216437   4.315   5.219   2.608
 5180SOL     OW16438   2.539   4.914   2.162
 5180SOL    HW116439   2.490   4.899   2.076
 5180SOL    HW216440   2.473   4.932   2.235
 5181SOL     OW16441   6.744   1.688   5.732
 5181SOL    HW116442   6.704   1.735   5.811
 5181SOL    HW216443   6.713   1.593   5.730
 5182SOL     OW16444   2.225   6.389   2.054
 5182SOL    HW116445   2.178   6.475   2.034
 5182SOL    HW216446   2.246   6.342   1.968
 5183SOL     OW16447   5.413   1.965   3.478
 5183SOL    HW116448   5.487   1.941   3.416
 5183SOL    HW216449   5.451   1.982   3.569
 5184SOL     OW16450   2.949   1.491   2.387
 5184SOL    HW116451   2.914   1.564   2.329
 5184SOL    HW216452   3.041   1.512   2.417
 5185SOL     OW16453   6.402   0.119   1.664
 5185SOL    HW116454   6.386   0.217   1.676
 5185SOL    HW216455   6.420   0.100   1.568
 5186SOL     OW16456   6.061   2.439   6.641
 5186SOL    HW116457   6.079   2.515   6.578
 5186SOL    HW216458   6.069   2.472   6.735
 5187SOL     OW16459   1.088   4.493   4.632
 5187SOL    HW116460   1.166   4.434   4.653
 5187SOL    HW216461   1.070   4.491   4.534
 5188SOL     OW16462   0.132   0.032   1.656
 5188SOL    HW116463   0.173   0.097   1.591
 5188SOL    HW216464   0.065   0.080   1.713
 5189SOL     OW16465   5.398   5.798   6.778
 5189SOL    HW116466   5.444   5.886   6.767
 5189SOL    HW216467   5.309   5.812   6.821
 5190SOL     OW16468   1.316   4.888   0.773
 5190SOL    HW116469   1.347   4.835   0.694
 5190SOL    HW216470   1.345   4.984   0.762
 5191SOL     OW16471   2.878   4.093   1.629
 5191SOL    HW116472   2.841   4.047   1.549
 5191SOL    HW216473   2.901   4.026   1.699
 5192SOL     OW16474   0.775   4.506   2.873
 5192SOL    HW116475   0.828   4.421   2.882
 5192SOL    HW216476   0.678   4.484   2.873
 5193SOL     OW16477   3.967   0.583   4.996
 5193SOL    HW116478   3.990   0.586   5.093
 5193SOL    HW216479   3.977   0.489   4.962
 5194SOL     OW16480   4.774   1.604   5.121
 5194SOL    HW116481   4.869   1.579   5.135
 5194SOL    HW216482   4.767   1.673   5.049
 5195SOL     OW16483   1.751   1.346   5.649
 5195SOL    HW116484   1.731   1.386   5.739
 5195SOL    HW216485   1.837   1.295   5.654
 5196SOL     OW16486   5.929   6.313   3.122
 5196SOL    HW116487   5.983   6.244   3.170
 5196SOL    HW216488   5.850   6.268   3.078
 5197SOL     OW16489   1.871   3.639   5.154
 5197SOL    HW116490   1.969   3.635   5.134
 5197SOL    HW216491   1.841   3.734   5.157
 5198SOL     OW16492   6.334   5.736   3.950
 5198SOL    HW116493   6.349   5.675   3.872
 5198SOL    HW216494   6.237   5.762   3.954
 5199SOL     OW16495   1.041   5.137   1.140
 5199SOL    HW116496   1.001   5.131   1.049
 5199SOL    HW216497   1.004   5.063   1.198
 5200SOL     OW16498   6.504   3.883   5.122
 5200SOL    HW116499   6.411   3.874   5.157
 5200SOL    HW216500   6.567   3.901   5.199
 5201SOL     OW16501   1.202   6.308   4.869
 5201SOL    HW116502   1.180   6.232   4.930
 5201SOL    HW216503   1.152   6.390   4.898
 5202SOL     OW16504   0.219   4.207   1.557
 5202SOL    HW116505   0.219   4.137   1.486
 5202SOL    HW216506   0.127   4.245   1.566
 5203SOL     OW16507   6.643   3.415   6.546
 5203SOL    HW116508   6.742   3.403   6.543
 5203SOL    HW216509   6.615   3.435   6.640
 5204SOL     OW16510   5.304   5.632   6.470
 5204SOL    HW116511   5.284   5.729   6.455
 5204SOL    HW216512   5.240   5.595   6.537
 5205SOL     OW16513   2.774   6.038   0.454
 5205SOL    HW116514   2.788   5.951   0.501
 5205SOL    HW216515   2.799   6.113   0.515
 5206SOL     OW16516   0.319   4.444   4.995
 5206SOL    HW116517   0.406   4.455   5.044
 5206SOL    HW216518   0.307   4.348   4.970
 5207SOL     OW16519   1.374   5.452   2.049
 5207SOL    HW116520   1.277   5.465   2.071
 5207SOL    HW216521   1.422   5.540   2.055
 5208SOL     OW16522   4.873   1.515   0.020
 5208SOL    HW116523   4.778   1.496   0.046
 5208SOL    HW216524   4.886   1.493   6.946
 5209SOL     OW16525   5.859   4.830   2.958
 5209SOL    HW116526   5.891   4.887   3.033
 5209SOL    HW216527   5.914   4.849   2.876
 5210SOL     OW16528   5.226   3.854   3.259
 5210SOL    HW116529   5.188   3.785   3.320
 5210SOL    HW216530   5.230   3.818   3.166
 5211SOL     OW16531   3.223   3.863   2.401
 5211SOL    HW116532   3.293   3.801   2.366
 5211SOL    HW216533   3.241   3.956   2.368
 5212SOL     OW16534   0.710   0.195   6.515
 5212SOL    HW116535   0.644   0.260   6.555
 5212SOL    HW216536   0.737   0.128   6.583
 5213SOL     OW16537   4.645   2.061   6.088
 5213SOL    HW116538   4.627   2.043   6.185
 5213SOL    HW216539   4.737   2.030   6.065
 5214SOL     OW16540   4.467   2.126   0.027
 5214SOL    HW116541   4.429   2.033   0.029
 5214SOL    HW216542   4.566   2.121   0.042
 5215SOL     OW16543   5.687   5.577   4.096
 5215SOL    HW116544   5.682   5.527   4.182
 5215SOL    HW216545   5.728   5.518   4.026
 5216SOL     OW16546   4.150   6.102   1.382
 5216SOL    HW116547   4.070   6.144   1.339
 5216SOL    HW216548   4.189   6.034   1.320
 5217SOL     OW16549   3.064   4.979   3.617
 5217SOL    HW116550   3.120   4.941   3.692
 5217SOL    HW216551   3.047   5.076   3.634
 5218SOL     OW16552   1.714   0.261   3.385
 5218SOL    HW116553   1.748   0.167   3.387
 5218SOL    HW216554   1.714   0.295   3.291
 5219SOL     OW16555   3.091   0.309   1.308
 5219SOL    HW116556   3.126   0.227   1.354
 5219SOL    HW216557   3.159   0.382   1.313
 5220SOL     OW16558   1.031   6.618   2.279
 5220SOL    HW116559   1.013   6.593   2.374
 5220SOL    HW216560   1.109   6.681   2.275
 5221SOL     OW16561   4.457   0.677   0.329
 5221SOL    HW116562   4.496   0.602   0.276
 5221SOL    HW216563   4.518   0.700   0.406
 5222SOL     OW16564   0.702   6.646   2.694
 5222SOL    HW116565   0.789   6.603   2.718
 5222SOL    HW216566   0.717   6.743   2.673
 5223SOL     OW16567   4.132   6.755   1.362
 5223SOL    HW116568   4.126   6.759   1.462
 5223SOL    HW216569   4.117   6.661   1.331
 5224SOL     OW16570   5.392   0.585   3.701
 5224SOL    HW116571   5.389   0.632   3.613
 5224SOL    HW216572   5.448   0.502   3.692
 5225SOL     OW16573   0.577   7.009   5.501
 5225SOL    HW116574   0.587   6.943   5.426
 5225SOL    HW216575   0.591   0.079   5.466
 5226SOL     OW16576   2.551   0.635   3.821
 5226SOL    HW116577   2.504   0.666   3.904
 5226SOL    HW216578   2.536   0.537   3.809
 5227SOL     OW16579   5.148   3.375   4.486
 5227SOL    HW116580   5.161   3.433   4.566
 5227SOL    HW216581   5.111   3.286   4.514
 5228SOL     OW16582   5.066   0.213   1.437
 5228SOL    HW116583   5.038   0.224   1.342
 5228SOL    HW216584   5.078   0.303   1.479
 5229SOL     OW16585   0.435   4.261   3.511
 5229SOL    HW116586   0.508   4.290   3.572
 5229SOL    HW216587   0.452   4.166   3.483
 5230SOL     OW16588   0.603   1.455   6.460
 5230SOL    HW116589   0.680   1.518   6.458
 5230SOL    HW216590   0.518   1.507   6.459
 5231SOL     OW16591   3.045   3.326   3.644
 5231SOL    HW116592   3.029   3.311   3.742
 5231SOL    HW216593   3.006   3.413   3.616
 5232SOL     OW16594   5.119   2.833   4.815
 5232SOL    HW116595   5.079   2.760   4.871
 5232SOL    HW216596   5.174   2.892   4.873
 5233SOL     OW16597   0.881   6.848   2.972
 5233SOL    HW116598   0.874   6.763   3.025
 5233SOL    HW216599   0.940   6.913   3.021
 5234SOL     OW16600   4.176   5.004   1.533
 5234SOL    HW116601   4.148   4.988   1.438
 5234SOL    HW216602   4.270   4.973   1.545
 5235SOL     OW16603   1.136   2.719   1.646
 5235SOL    HW116604   1.165   2.624   1.630
 5235SOL    HW216605   1.216   2.779   1.642
 5236SOL     OW16606   6.390   3.543   0.197
 5236SOL    HW116607   6.482   3.581   0.185
 5236SOL    HW216608   6.339   3.551   0.111
 5237SOL     OW16609   2.113   1.887   2.938
 5237SOL    HW116610   2.115   1.814   3.007
 5237SOL    HW216611   2.137   1.849   2.849
 5238SOL     OW16612   2.080   3.174   0.718
 5238SOL    HW116613   2.077   3.272   0.698
 5238SOL    HW216614   2.174   3.142   0.717
 5239SOL     OW16615   2.863   3.398   5.287
 5239SOL    HW116616   2.896   3.405   5.193
 5239SOL    HW216617   2.799   3.322   5.295
 5240SOL     OW16618   3.745   2.007   4.752
 5240SOL    HW116619   3.667   2.012   4.690
 5240SOL    HW216620   3.716   2.035   4.844
 5241SOL     OW16621   3.697   5.631   5.372
 5241SOL    HW116622   3.795   5.610   5.379
 5241SOL    HW216623   3.683   5.729   5.384
 5242SOL     OW16624   4.034   0.082   5.622
 5242SOL    HW116625   4.036   0.016   5.547
 5242SOL    HW216626   3.991   0.041   5.703
 5243SOL     OW16627   1.277   3.675   0.649
 5243SOL    HW116628   1.370   3.699   0.621
 5243SOL    HW216629   1.212   3.730   0.596
 5244SOL     OW16630   5.803   3.612   6.830
 5244SOL    HW116631   5.823   3.547   6.757
 5244SOL    HW216632   5.705   3.608   6.852
 5245SOL     OW16633   4.638   3.968   5.960
 5245SOL    HW116634   4.711   3.954   5.893
 5245SOL    HW216635   4.609   3.879   5.995
 5246SOL     OW16636   1.452   3.607   3.318
 5246SOL    HW116637   1.401   3.595   3.404
 5246SOL    HW216638   1.527   3.542   3.315
 5247SOL     OW16639   0.606   4.681   0.457
 5247SOL    HW116640   0.599   4.597   0.512
 5247SOL    HW216641   0.681   4.672   0.392
 5248SOL     OW16642   4.964   1.081   0.243
 5248SOL    HW116643   5.023   1.020   0.189
 5248SOL    HW216644   4.897   1.124   0.183
 5249SOL     OW16645   1.359   5.699   0.080
 5249SOL    HW116646   1.267   5.720   0.116
 5249SOL    HW216647   1.399   5.782   0.041
 5250SOL     OW16648   1.098   1.512   5.760
 5250SOL    HW116649   1.118   1.459   5.677
 5250SOL    HW216650   1.118   1.608   5.744
 5251SOL     OW16651   0.373   3.020   1.081
 5251SOL    HW116652   0.341   3.055   1.169
 5251SOL    HW216653   0.454   3.071   1.053
 5252SOL     OW16654   5.089   6.217   1.110
 5252SOL    HW116655   5.167   6.216   1.173
 5252SOL    HW216656   5.008   6.254   1.157
 5253SOL     OW16657   5.721   2.991   3.680
 5253SOL    HW116658   5.716   3.013   3.777
 5253SOL    HW216659   5.776   2.908   3.667
 5254SOL     OW16660   5.551   0.607   4.324
 5254SOL    HW116661   5.640   0.570   4.298
 5254SOL    HW216662   5.488   0.532   4.344
 5255SOL     OW16663   2.653   5.474   3.355
 5255SOL    HW116664   2.652   5.464   3.454
 5255SOL    HW216665   2.619   5.565   3.330
 5256SOL     OW16666   4.936   6.202   2.024
 5256SOL    HW116667   5.003   6.266   2.060
 5256SOL    HW216668   4.942   6.115   2.073
 5257SOL     OW16669   3.019   1.302   2.952
 5257SOL    HW116670   3.016   1.239   3.029
 5257SOL    HW216671   2.949   1.373   2.963
 5258SOL     OW16672   5.704   1.700   1.708
 5258SOL    HW116673   5.745   1.716   1.618
 5258SOL    HW216674   5.713   1.604   1.732
 5259SOL     OW16675   6.101   4.709   1.703
 5259SOL    HW116676   6.015   4.688   1.656
 5259SOL    HW216677   6.150   4.625   1.723
 5260SOL     OW16678   4.640   2.913   1.659
 5260SOL    HW116679   4.653   2.975   1.737
 5260SOL    HW216680   4.595   2.830   1.691
 5261SOL     OW16681   2.408   2.643   5.272
 5261SOL    HW116682   2.396   2.670   5.176
 5261SOL    HW216683   2.416   2.726   5.328
 5262SOL     OW16684   1.355   0.272   1.826
 5262SOL    HW116685   1.320   0.341   1.890
 5262SOL    HW216686   1.402   0.318   1.751
 5263SOL     OW16687   1.453   6.664   6.744
 5263SOL    HW116688   1.437   6.603   6.666
 5263SOL    HW216689   1.410   6.625   6.826
 5264SOL     OW16690   0.999   0.929   1.012
 5264SOL    HW116691   1.064   0.907   1.084
 5264SOL    HW216692   1.036   0.901   0.924
 5265SOL     OW16693   5.072   4.731   4.051
 5265SOL    HW116694   5.123   4.719   4.136
 5265SOL    HW216695   5.075   4.645   3.999
 5266SOL     OW16696   1.528   0.141   0.887
 5266SOL    HW116697   1.441   0.093   0.877
 5266SOL    HW216698   1.565   0.125   0.979
 5267SOL     OW16699   4.187   3.855   5.267
 5267SOL    HW116700   4.172   3.761   5.296
 5267SOL    HW216701   4.100   3.897   5.241
 5268SOL     OW16702   5.615   5.112   5.655
 5268SOL    HW116703   5.596   5.047   5.729
 5268SOL    HW216704   5.709   5.100   5.623
 5269SOL     OW16705   2.260   5.338   5.665
 5269SOL    HW116706   2.213   5.361   5.750
 5269SOL    HW216707   2.222   5.254   5.628
 5270SOL     OW16708   6.639   2.360   3.443
 5270SOL    HW116709   6.690   2.374   3.529
 5270SOL    HW216710   6.572   2.287   3.455
 5271SOL     OW16711   5.694   3.576   5.517
 5271SOL    HW116712   5.777   3.539   5.477
 5271SOL    HW216713   5.717   3.628   5.600
 5272SOL     OW16714   2.139   2.093   3.920
 5272SOL    HW116715   2.205   2.097   3.994
 5272SOL    HW216716   2.146   2.176   3.865
 5273SOL     OW16717   6.526   0.456   5.708
 5273SOL    HW116718   6.440   0.406   5.717
 5273SOL    HW216719   6.589   0.430   5.781
 5274SOL     OW16720   0.218   5.331   4.248
 5274SOL    HW116721   0.200   5.402   4.179
 5274SOL    HW216722   0.254   5.374   4.331
 5275SOL     OW16723   2.317   6.395   0.050
 5275SOL    HW116724   2.385   6.352   0.110
 5275SOL    HW216725   2.228   6.396   0.097
 5276SOL     OW16726   0.835   6.999   0.267
 5276SOL    HW116727   0.877   0.014   0.350
 5276SOL    HW216728   0.884   6.916   0.240
 5277SOL     OW16729   0.460   1.310   1.868
 5277SOL    HW116730   0.488   1.289   1.961
 5277SOL    HW216731   0.457   1.226   1.814
 5278SOL     OW16732   0.714   4.683   6.068
 5278SOL    HW116733   0.698   4.616   6.140
 5278SOL    HW216734   0.627   4.706   6.024
 5279SOL     OW16735   2.350   6.655   6.970
 5279SOL    HW116736   2.300   6.725   7.021
 5279SOL    HW216737   2.308   6.566   6.985
 5280SOL     OW16738   4.380   6.558   5.839
 5280SOL    HW116739   4.479   6.545   5.828
 5280SOL    HW216740   4.363   6.618   5.917
 5281SOL     OW16741   2.924   6.931   5.000
 5281SOL    HW116742   2.828   6.959   5.013
 5281SOL    HW216743   2.950   6.868   5.072
 5282SOL     OW16744   6.919   6.053   0.718
 5282SOL    HW116745   7.016   6.029   0.720
 5282SOL    HW216746   6.909   6.151   0.737
 5283SOL     OW16747   1.529   0.894   4.090
 5283SOL    HW116748   1.542   0.928   4.183
 5283SOL    HW216749   1.432   0.887   4.070
 5284SOL     OW16750   4.910   2.995   2.248
 5284SOL    HW116751   5.004   2.988   2.215
 5284SOL    HW216752   4.848   3.010   2.170
 5285SOL     OW16753   1.656   2.012   4.588
 5285SOL    HW116754   1.658   2.106   4.553
 5285SOL    HW216755   1.589   1.960   4.536
 5286SOL     OW16756   6.622   3.110   1.130
 5286SOL    HW116757   6.566   3.027   1.125
 5286SOL    HW216758   6.708   3.090   1.177
 5287SOL     OW16759   0.676   5.555   1.786
 5287SOL    HW116760   0.706   5.550   1.691
 5287SOL    HW216761   0.625   5.640   1.801
 5288SOL     OW16762   4.331   0.686   1.532
 5288SOL    HW116763   4.363   0.636   1.612
 5288SOL    HW216764   4.244   0.648   1.501
 5289SOL     OW16765   2.327   4.903   6.131
 5289SOL    HW116766   2.415   4.949   6.118
 5289SOL    HW216767   2.342   4.810   6.165
 5290SOL     OW16768   1.491   2.936   5.056
 5290SOL    HW116769   1.474   3.031   5.030
 5290SOL    HW216770   1.538   2.889   4.981
 5291SOL     OW16771   2.666   5.401   4.548
 5291SOL    HW116772   2.642   5.429   4.641
 5291SOL    HW216773   2.714   5.313   4.551
 5292SOL     OW16774   0.186   3.746   4.995
 5292SOL    HW116775   0.218   3.795   4.915
 5292SOL    HW216776   0.264   3.710   5.047
 5293SOL     OW16777   2.012   0.102   3.656
 5293SOL    HW116778   2.085   0.034   3.644
 5293SOL    HW216779   2.050   0.193   3.644
 5294SOL     OW16780   4.843   0.011   4.093
 5294SOL    HW116781   4.908   0.086   4.107
 5294SOL    HW216782   4.754   0.048   4.067
 5295SOL     OW16783   1.977   0.765   1.245
 5295SOL    HW116784   2.065   0.800   1.212
 5295SOL    HW216785   1.944   0.694   1.183
 5296SOL     OW16786   4.738   4.885   1.922
 5296SOL    HW116787   4.791   4.800   1.926
 5296SOL    HW216788   4.657   4.871   1.865
 5297SOL     OW16789   3.597   5.363   6.026
 5297SOL    HW116790   3.510   5.405   6.050
 5297SOL    HW216791   3.619   5.383   5.930
 5298SOL     OW16792   3.125   1.487   6.997
 5298SOL    HW116793   3.154   1.391   7.006
 5298SOL    HW216794   3.204   1.546   7.011
 5299SOL     OW16795   2.376   0.783   1.413
 5299SOL    HW116796   2.302   0.842   1.445
 5299SOL    HW216797   2.338   0.711   1.354
 5300SOL     OW16798   3.152   5.325   6.570
 5300SOL    HW116799   3.223   5.342   6.502
 5300SOL    HW216800   3.127   5.411   6.615
 5301SOL     OW16801   6.360   0.023   5.631
 5301SOL    HW116802   6.312   6.990   5.563
 5301SOL    HW216803   6.458   0.025   5.610
 5302SOL     OW16804   5.119   5.469   2.710
 5302SOL    HW116805   5.056   5.540   2.740
 5302SOL    HW216806   5.164   5.428   2.789
 5303SOL     OW16807   1.384   6.141   5.215
 5303SOL    HW116808   1.407   6.102   5.304
 5303SOL    HW216809   1.457   6.203   5.186
 5304SOL     OW16810   0.601   0.741   3.453
 5304SOL    HW116811   0.579   0.679   3.378
 5304SOL    HW216812   0.618   0.833   3.416
 5305SOL     OW16813   6.870   5.696   4.809
 5305SOL    HW116814   6.828   5.629   4.871
 5305SOL    HW216815   6.920   5.648   4.737
 5306SOL     OW16816   0.857   2.109   5.964
 5306SOL    HW116817   0.778   2.057   5.995
 5306SOL    HW216818   0.856   2.113   5.864
 5307SOL     OW16819   0.442   1.478   1.528
 5307SOL    HW116820   0.404   1.406   1.470
 5307SOL    HW216821   0.408   1.469   1.621
 5308SOL     OW16822   1.838   4.496   2.690
 5308SOL    HW116823   1.934   4.498   2.718
 5308SOL    HW216824   1.813   4.403   2.664
 5309SOL     OW16825   5.971   6.064   3.489
 5309SOL    HW116826   6.014   6.106   3.569
 5309SOL    HW216827   5.883   6.024   3.515
 5310SOL     OW16828   6.399   2.265   3.162
 5310SOL    HW116829   6.498   2.269   3.176
 5310SOL    HW216830   6.379   2.277   3.065
 5311SOL     OW16831   5.970   0.212   0.500
 5311SOL    HW116832   5.897   0.153   0.535
 5311SOL    HW216833   5.931   0.293   0.459
 5312SOL     OW16834   6.133   6.581   0.721
 5312SOL    HW116835   6.199   6.506   0.717
 5312SOL    HW216836   6.099   6.600   0.629
 5313SOL     OW16837   1.495   0.172   5.948
 5313SOL    HW116838   1.450   0.101   6.002
 5313SOL    HW216839   1.585   0.141   5.920
 5314SOL     OW16840   5.864   1.845   1.514
 5314SOL    HW116841   5.868   1.830   1.415
 5314SOL    HW216842   5.847   1.942   1.532
 5315SOL     OW16843   4.042   2.187   3.797
 5315SOL    HW116844   4.019   2.202   3.701
 5315SOL    HW216845   3.959   2.191   3.852
 5316SOL     OW16846   0.561   2.914   4.955
 5316SOL    HW116847   0.551   2.837   5.017
 5316SOL    HW216848   0.552   2.882   4.861
 5317SOL     OW16849   5.531   3.327   6.836
 5317SOL    HW116850   5.441   3.343   6.875
 5317SOL    HW216851   5.536   3.370   6.746
 5318SOL     OW16852   0.433   4.141   5.478
 5318SOL    HW116853   0.451   4.236   5.502
 5318SOL    HW216854   0.338   4.118   5.500
 5319SOL     OW16855   3.624   6.324   2.320
 5319SOL    HW116856   3.613   6.389   2.396
 5319SOL    HW216857   3.573   6.357   2.241
 5320SOL     OW16858   4.662   5.909   1.085
 5320SOL    HW116859   4.568   5.879   1.070
 5320SOL    HW216860   4.720   5.829   1.103
 5321SOL     OW16861   1.548   4.310   5.809
 5321SOL    HW116862   1.452   4.333   5.794
 5321SOL    HW216863   1.555   4.243   5.884
 5322SOL     OW16864   3.845   6.434   2.199
 5322SOL    HW116865   3.756   6.394   2.218
 5322SOL    HW216866   3.856   6.519   2.251
 5323SOL     OW16867   4.382   0.016   6.162
 5323SOL    HW116868   4.362   0.012   6.064
 5323SOL    HW216869   4.298   0.001   6.214
 5324SOL     OW16870   1.551   2.016   1.740
 5324SOL    HW116871   1.468   2.046   1.787
 5324SOL    HW216872   1.557   2.060   1.651
 5325SOL     OW16873   1.990   2.554   5.142
 5325SOL    HW116874   2.048   2.545   5.223
 5325SOL    HW216875   1.998   2.647   5.106
 5326SOL     OW16876   6.301   0.062   1.181
 5326SOL    HW116877   6.281   6.995   1.140
 5326SOL    HW216878   6.394   0.089   1.156
 5327SOL     OW16879   0.274   2.573   5.621
 5327SOL    HW116880   0.234   2.616   5.702
 5327SOL    HW216881   0.373   2.585   5.621
 5328SOL     OW16882   4.870   5.225   0.275
 5328SOL    HW116883   4.807   5.277   0.217
 5328SOL    HW216884   4.936   5.178   0.217
 5329SOL     OW16885   2.162   6.621   6.244
 5329SOL    HW116886   2.114   6.612   6.330
 5329SOL    HW216887   2.121   6.560   6.176
 5330SOL     OW16888   2.801   4.917   1.345
 5330SOL    HW116889   2.729   4.906   1.414
 5330SOL    HW216890   2.890   4.919   1.389
 5331SOL     OW16891   6.528   1.247   6.831
 5331SOL    HW116892   6.568   1.328   6.874
 5331SOL    HW216893   6.550   1.166   6.885
 5332SOL     OW16894   0.512   5.046   1.560
 5332SOL    HW116895   0.524   5.031   1.658
 5332SOL    HW216896   0.511   5.145   1.542
 5333SOL     OW16897   1.189   6.340   5.300
 5333SOL    HW116898   1.246   6.275   5.250
 5333SOL    HW216899   1.093   6.325   5.277
 5334SOL     OW16900   3.550   6.919   4.900
 5334SOL    HW116901   3.578   7.004   4.945
 5334SOL    HW216902   3.604   6.843   4.937
 5335SOL     OW16903   6.800   6.057   0.179
 5335SOL    HW116904   6.894   6.089   0.172
 5335SOL    HW216905   6.748   6.117   0.239
 5336SOL     OW16906   1.351   4.668   1.351
 5336SOL    HW116907   1.351   4.630   1.443
 5336SOL    HW216908   1.344   4.768   1.356
 5337SOL     OW16909   5.075   4.491   1.365
 5337SOL    HW116910   5.099   4.456   1.274
 5337SOL    HW216911   5.083   4.417   1.432
 5338SOL     OW16912   5.459   2.808   0.233
 5338SOL    HW116913   5.499   2.892   0.271
 5338SOL    HW216914   5.441   2.821   0.136
 5339SOL     OW16915   6.347   0.382   1.644
 5339SOL    HW116916   6.249   0.398   1.634
 5339SOL    HW216917   6.374   0.397   1.739
 5340SOL     OW16918   5.143   2.609   6.322
 5340SOL    HW116919   5.141   2.677   6.249
 5340SOL    HW216920   5.133   2.654   6.410
 5341SOL     OW16921   4.758   0.665   0.735
 5341SOL    HW116922   4.856   0.654   0.752
 5341SOL    HW216923   4.716   0.711   0.814
 5342SOL     OW16924   2.966   0.382   6.382
 5342SOL    HW116925   3.004   0.412   6.470
 5342SOL    HW216926   3.034   0.328   6.333
 5343SOL     OW16927   3.422   3.877   1.768
 5343SOL    HW116928   3.475   3.958   1.795
 5343SOL    HW216929   3.340   3.907   1.720
 5344SOL     OW16930   2.214   2.500   2.772
 5344SOL    HW116931   2.182   2.506   2.866
 5344SOL    HW216932   2.262   2.584   2.748
 5345SOL     OW16933   4.655   0.607   2.973
 5345SOL    HW116934   4.737   0.625   3.028
 5345SOL    HW216935   4.574   0.623   3.029
 5346SOL     OW16936   2.828   6.959   3.752
 5346SOL    HW116937   2.816   0.008   3.683
 5346SOL    HW216938   2.808   6.996   3.843
 5347SOL     OW16939   6.734   1.564   1.488
 5347SOL    HW116940   6.702   1.486   1.435
 5347SOL    HW216941   6.755   1.640   1.426
 5348SOL     OW16942   6.434   1.576   0.533
 5348SOL    HW116943   6.386   1.609   0.452
 5348SOL    HW216944   6.383   1.499   0.573
 5349SOL     OW16945   6.106   0.101   1.401
 5349SOL    HW116946   6.026   0.141   1.356
 5349SOL    HW216947   6.172   0.072   1.331
 5350SOL     OW16948   2.455   0.280   6.400
 5350SOL    HW116949   2.507   0.365   6.393
 5350SOL    HW216950   2.516   0.202   6.383
 5351SOL     OW16951   4.102   0.909   1.825
 5351SOL    HW116952   4.074   0.994   1.870
 5351SOL    HW216953   4.063   0.831   1.874
 5352SOL     OW16954   3.148   6.365   3.669
 5352SOL    HW116955   3.223   6.330   3.613
 5352SOL    HW216956   3.065   6.372   3.613
 5353SOL     OW16957   5.912   0.449   6.042
 5353SOL    HW116958   5.921   0.382   6.116
 5353SOL    HW216959   6.001   0.465   6.000
 5354SOL     OW16960   1.626   3.484   0.877
 5354SOL    HW116961   1.671   3.398   0.855
 5354SOL    HW216962   1.555   3.503   0.810
 5355SOL     OW16963   4.458   1.473   6.152
 5355SOL    HW116964   4.418   1.442   6.065
 5355SOL    HW216965   4.498   1.564   6.139
 5356SOL     OW16966   6.314   3.506   0.882
 5356SOL    HW116967   6.391   3.552   0.927
 5356SOL    HW216968   6.349   3.441   0.815
 5357SOL     OW16969   4.188   5.856   0.517
 5357SOL    HW116970   4.193   5.872   0.615
 5357SOL    HW216971   4.176   5.944   0.470
 5358SOL     OW16972   5.121   4.321   1.559
 5358SOL    HW116973   5.151   4.229   1.533
 5358SOL    HW216974   5.096   4.322   1.656
 5359SOL     OW16975   3.028   0.019   0.089
 5359SOL    HW116976   3.120   0.056   0.102
 5359SOL    HW216977   3.006   6.979   0.163
 5360SOL     OW16978   4.210   1.358   0.015
 5360SOL    HW116979   4.152   1.282   0.044
 5360SOL    HW216980   4.291   1.362   0.073
 5361SOL     OW16981   1.549   1.129   6.375
 5361SOL    HW116982   1.466   1.079   6.396
 5361SOL    HW216983   1.530   1.228   6.375
 5362SOL     OW16984   4.229   5.707   3.502
 5362SOL    HW116985   4.259   5.611   3.502
 5362SOL    HW216986   4.256   5.750   3.589
 5363SOL     OW16987   0.567   5.614   4.435
 5363SOL    HW116988   0.506   5.549   4.481
 5363SOL    HW216989   0.526   5.644   4.349
 5364SOL     OW16990   1.357   5.985   6.830
 5364SOL    HW116991   1.266   6.026   6.833
 5364SOL    HW216992   1.410   6.028   6.757
 5365SOL     OW16993   3.918   2.193   5.863
 5365SOL    HW116994   3.902   2.121   5.795
 5365SOL    HW216995   3.886   2.161   5.953
 5366SOL     OW16996   3.423   4.064   6.363
 5366SOL    HW116997   3.384   4.149   6.327
 5366SOL    HW216998   3.499   4.035   6.305
 5367SOL     OW16999   0.335   4.640   1.331
 5367SOL    HW117000   0.296   4.548   1.336
 5367SOL    HW217001   0.431   4.636   1.358
 5368SOL     OW17002   0.417   0.562   4.102
 5368SOL    HW117003   0.412   0.521   4.011
 5368SOL    HW217004   0.377   0.500   4.169
 5369SOL     OW17005   2.098   3.508   2.236
 5369SOL    HW117006   2.166   3.494   2.165
 5369SOL    HW217007   2.018   3.451   2.217
 5370SOL     OW17008   3.947   2.961   1.417
 5370SOL    HW117009   4.046   2.970   1.403
 5370SOL    HW217010   3.913   3.039   1.470
 5371SOL     OW17011   1.847   4.176   4.726
 5371SOL    HW117012   1.814   4.082   4.718
 5371SOL    HW217013   1.907   4.185   4.805
 5372SOL     OW17014   3.167   6.214   2.685
 5372SOL    HW117015   3.110   6.159   2.624
 5372SOL    HW217016   3.247   6.247   2.634
 5373SOL     OW17017   1.418   5.238   4.029
 5373SOL    HW117018   1.462   5.243   3.940
 5373SOL    HW217019   1.362   5.155   4.034
 5374SOL     OW17020   2.946   2.467   0.681
 5374SOL    HW117021   3.030   2.413   0.685
 5374SOL    HW217022   2.947   2.535   0.755
 5375SOL     OW17023   0.699   3.585   5.038
 5375SOL    HW117024   0.693   3.487   5.056
 5375SOL    HW217025   0.637   3.608   4.962
 5376SOL     OW17026   2.948   4.610   6.304
 5376SOL    HW117027   2.905   4.520   6.295
 5376SOL    HW217028   2.919   4.652   6.390
 5377SOL     OW17029   0.729   2.035   1.972
 5377SOL    HW117030   0.768   2.093   2.045
 5377SOL    HW217031   0.746   2.078   1.883
 5378SOL     OW17032   5.071   0.313   6.969
 5378SOL    HW117033   5.148   0.262   6.930
 5378SOL    HW217034   4.986   0.267   6.945
 5379SOL     OW17035   0.403   6.679   0.411
 5379SOL    HW117036   0.472   6.610   0.390
 5379SOL    HW217037   0.438   6.741   0.480
 5380SOL     OW17038   1.950   1.143   4.716
 5380SOL    HW117039   1.866   1.184   4.681
 5380SOL    HW217040   2.025   1.208   4.707
 5381SOL     OW17041   5.944   3.912   1.716
 5381SOL    HW117042   6.021   3.853   1.742
 5381SOL    HW217043   5.902   3.950   1.798
 5382SOL     OW17044   1.573   6.999   1.796
 5382SOL    HW117045   1.597   6.909   1.834
 5382SOL    HW217046   1.580   0.046   1.868
 5383SOL     OW17047   2.357   2.189   4.551
 5383SOL    HW117048   2.360   2.110   4.490
 5383SOL    HW217049   2.347   2.273   4.497
 5384SOL     OW17050   5.500   6.842   4.297
 5384SOL    HW117051   5.584   6.896   4.284
 5384SOL    HW217052   5.441   6.888   4.364
 5385SOL     OW17053   3.464   4.160   2.932
 5385SOL    HW117054   3.554   4.199   2.911
 5385SOL    HW217055   3.474   4.090   3.002
 5386SOL     OW17056   6.028   6.930   5.638
 5386SOL    HW117057   6.067   6.985   5.563
 5386SOL    HW217058   5.933   6.957   5.653
 5387SOL     OW17059   3.791   4.901   1.250
 5387SOL    HW117060   3.734   4.829   1.210
 5387SOL    HW217061   3.839   4.950   1.177
 5388SOL     OW17062   5.924   5.889   3.071
 5388SOL    HW117063   5.849   5.834   3.108
 5388SOL    HW217064   5.956   5.848   2.986
 5389SOL     OW17065   6.076   3.243   1.400
 5389SOL    HW117066   6.040   3.310   1.464
 5389SOL    HW217067   6.122   3.290   1.325
 5390SOL     OW17068   6.007   5.159   6.182
 5390SOL    HW117069   6.081   5.135   6.245
 5390SOL    HW217070   6.008   5.258   6.166
 5391SOL     OW17071   3.395   3.742   6.743
 5391SOL    HW117072   3.374   3.767   6.648
 5391SOL    HW217073   3.310   3.734   6.795
 5392SOL     OW17074   0.381   2.773   2.765
 5392SOL    HW117075   0.348   2.815   2.680
 5392SOL    HW217076   0.311   2.783   2.836
 5393SOL     OW17077   6.623   6.878   6.117
 5393SOL    HW117078   6.644   6.904   6.022
 5393SOL    HW217079   6.559   6.944   6.156
 5394SOL     OW17080   2.069   3.687   5.798
 5394SOL    HW117081   2.131   3.635   5.857
 5394SOL    HW217082   2.104   3.780   5.787
 5395SOL     OW17083   4.406   0.680   1.223
 5395SOL    HW117084   4.395   0.589   1.261
 5395SOL    HW217085   4.326   0.736   1.245
 5396SOL     OW17086   4.528   2.494   1.545
 5396SOL    HW117087   4.493   2.402   1.527
 5396SOL    HW217088   4.455   2.561   1.531
 5397SOL     OW17089   1.406   2.469   1.864
 5397SOL    HW117090   1.490   2.436   1.822
 5397SOL    HW217091   1.333   2.473   1.796
 5398SOL     OW17092   3.326   2.878   2.499
 5398SOL    HW117093   3.387   2.814   2.453
 5398SOL    HW217094   3.282   2.937   2.431
 5399SOL     OW17095   0.717   5.410   6.944
 5399SOL    HW117096   0.736   5.336   6.879
 5399SOL    HW217097   0.777   5.401   0.001
 5400SOL     OW17098   2.198   3.426   6.886
 5400SOL    HW117099   2.115   3.393   6.932
 5400SOL    HW217100   2.230   3.359   6.820
 5401SOL     OW17101   6.328   1.972   0.796
 5401SOL    HW117102   6.278   2.010   0.874
 5401SOL    HW217103   6.302   1.877   0.782
 5402SOL     OW17104   1.162   6.145   2.360
 5402SOL    HW117105   1.062   6.133   2.354
 5402SOL    HW217106   1.196   6.101   2.443
 5403SOL     OW17107   6.087   2.794   6.779
 5403SOL    HW117108   6.032   2.876   6.763
 5403SOL    HW217109   6.153   2.784   6.705
 5404SOL     OW17110   1.064   3.085   3.286
 5404SOL    HW117111   1.108   3.175   3.281
 5404SOL    HW217112   1.130   3.014   3.258
 5405SOL     OW17113   6.786   4.243   5.335
 5405SOL    HW117114   6.742   4.281   5.254
 5405SOL    HW217115   6.730   4.264   5.416
 5406SOL     OW17116   1.432   6.991   3.936
 5406SOL    HW117117   1.454   6.900   3.972
 5406SOL    HW217118   1.419   6.985   3.837
 5407SOL     OW17119   4.302   3.426   6.887
 5407SOL    HW117120   4.344   3.345   6.929
 5407SOL    HW217121   4.367   3.467   6.823
 5408SOL     OW17122   3.563   1.134   6.663
 5408SOL    HW117123   3.562   1.127   6.763
 5408SOL    HW217124   3.649   1.095   6.628
 5409SOL     OW17125   4.810   0.604   1.997
 5409SOL    HW117126   4.803   0.653   1.911
 5409SOL    HW217127   4.766   0.514   1.988
 5410SOL     OW17128   1.268   2.885   3.317
 5410SOL    HW117129   1.355   2.846   3.286
 5410SOL    HW217130   1.219   2.819   3.373
 5411SOL     OW17131   2.210   4.557   4.716
 5411SOL    HW117132   2.293   4.521   4.672
 5411SOL    HW217133   2.235   4.633   4.776
 5412SOL     OW17134   6.402   2.051   2.309
 5412SOL    HW117135   6.482   2.091   2.355
 5412SOL    HW217136   6.324   2.114   2.319
 5413SOL     OW17137   1.727   6.843   2.606
 5413SOL    HW117138   1.700   6.754   2.568
 5413SOL    HW217139   1.784   6.892   2.539
 5414SOL     OW17140   3.932   7.000   5.866
 5414SOL    HW117141   3.899   6.921   5.814
 5414SOL    HW217142   3.958   6.971   5.958
 5415SOL     OW17143   6.446   3.725   2.777
 5415SOL    HW117144   6.382   3.791   2.818
 5415SOL    HW217145   6.537   3.738   2.816
 5416SOL     OW17146   4.066   5.089   4.153
 5416SOL    HW117147   4.024   5.139   4.077
 5416SOL    HW217148   4.035   5.128   4.239
 5417SOL     OW17149   3.210   0.019   5.867
 5417SOL    HW117150   3.144   0.047   5.936
 5417SOL    HW217151   3.257   6.958   5.898
 5418SOL     OW17152   3.561   1.257   3.307
 5418SOL    HW117153   3.532   1.190   3.239
 5418SOL    HW217154   3.560   1.216   3.398
 5419SOL     OW17155   3.173   4.064   6.867
 5419SOL    HW117156   3.084   4.021   6.855
 5419SOL    HW217157   3.210   4.090   6.778
 5420SOL     OW17158   0.985   2.405   3.150
 5420SOL    HW117159   1.028   2.486   3.192
 5420SOL    HW217160   0.898   2.432   3.108
 5421SOL     OW17161   1.967   2.282   0.612
 5421SOL    HW117162   1.907   2.221   0.664
 5421SOL    HW217163   1.915   2.361   0.581
 5422SOL     OW17164   0.877   3.590   0.187
 5422SOL    HW117165   0.850   3.558   0.096
 5422SOL    HW217166   0.797   3.597   0.245
 5423SOL     OW17167   4.893   3.056   5.629
 5423SOL    HW117168   4.957   2.983   5.605
 5423SOL    HW217169   4.810   3.016   5.666
 5424SOL     OW17170   5.143   3.352   5.625
 5424SOL    HW117171   5.219   3.360   5.689
 5424SOL    HW217172   5.058   3.373   5.672
 5425SOL     OW17173   4.957   1.054   5.065
 5425SOL    HW117174   5.002   1.030   4.979
 5425SOL    HW217175   4.860   1.031   5.059
 5426SOL     OW17176   0.768   6.880   4.950
 5426SOL    HW117177   0.775   6.958   4.887
 5426SOL    HW217178   0.685   6.829   4.930
 5427SOL     OW17179   4.379   0.078   6.980
 5427SOL    HW117180   4.307   0.049   0.021
 5427SOL    HW217181   4.402   0.002   6.920
 5428SOL     OW17182   1.825   1.113   6.864
 5428SOL    HW117183   1.917   1.074   6.871
 5428SOL    HW217184   1.826   1.207   6.898
 5429SOL     OW17185   0.745   2.555   6.018
 5429SOL    HW117186   0.843   2.547   6.001
 5429SOL    HW217187   0.730   2.583   6.113
 5430SOL     OW17188   2.150   2.812   5.695
 5430SOL    HW117189   2.110   2.888   5.747
 5430SOL    HW217190   2.087   2.734   5.696
 5431SOL     OW17191   3.835   5.666   4.590
 5431SOL    HW117192   3.759   5.730   4.600
 5431SOL    HW217193   3.902   5.703   4.527
 5432SOL     OW17194   5.441   5.563   1.333
 5432SOL    HW117195   5.415   5.552   1.237
 5432SOL    HW217196   5.361   5.588   1.387
 5433SOL     OW17197   0.602   1.783   4.049
 5433SOL    HW117198   0.534   1.761   3.979
 5433SOL    HW217199   0.679   1.719   4.042
 5434SOL     OW17200   2.517   6.915   4.859
 5434SOL    HW117201   2.440   6.873   4.906
 5434SOL    HW217202   2.547   6.855   4.784
 5435SOL     OW17203   4.887   1.363   1.924
 5435SOL    HW117204   4.920   1.442   1.873
 5435SOL    HW217205   4.837   1.302   1.862
 5436SOL     OW17206   5.602   3.916   2.765
 5436SOL    HW117207   5.589   3.848   2.837
 5436SOL    HW217208   5.513   3.949   2.734
 5437SOL     OW17209   3.906   4.721   6.272
 5437SOL    HW117210   3.962   4.773   6.337
 5437SOL    HW217211   3.812   4.717   6.306
 5438SOL     OW17212   6.855   0.754   1.060
 5438SOL    HW117213   6.883   0.807   1.140
 5438SOL    HW217214   6.789   0.684   1.087
 5439SOL     OW17215   1.438   3.096   0.732
 5439SOL    HW117216   1.459   3.033   0.657
 5439SOL    HW217217   1.392   3.177   0.695
 5440SOL     OW17218   1.840   1.229   1.452
 5440SOL    HW117219   1.837   1.136   1.417
 5440SOL    HW217220   1.882   1.230   1.543
 5441SOL     OW17221   3.747   1.711   4.248
 5441SOL    HW117222   3.741   1.717   4.348
 5441SOL    HW217223   3.671   1.761   4.206
 5442SOL     OW17224   3.337   0.953   1.884
 5442SOL    HW117225   3.396   0.986   1.811
 5442SOL    HW217226   3.381   0.970   1.972
 5443SOL     OW17227   2.025   6.461   6.077
 5443SOL    HW117228   2.068   6.443   5.989
 5443SOL    HW217229   1.933   6.498   6.062
 5444SOL     OW17230   0.356   1.245   3.291
 5444SOL    HW117231   0.268   1.219   3.330
 5444SOL    HW217232   0.395   1.319   3.345
 5445SOL     OW17233   6.405   3.457   2.103
 5445SOL    HW117234   6.322   3.459   2.047
 5445SOL    HW217235   6.379   3.456   2.200
 5446SOL     OW17236   6.541   6.125   5.926
 5446SOL    HW117237   6.640   6.124   5.940
 5446SOL    HW217238   6.506   6.216   5.949
 5447SOL     OW17239   3.031   2.505   1.293
 5447SOL    HW117240   3.125   2.498   1.328
 5447SOL    HW217241   2.987   2.586   1.332
 5448SOL     OW17242   5.555   1.665   6.608
 5448SOL    HW117243   5.644   1.630   6.579
 5448SOL    HW217244   5.482   1.606   6.572
 5449SOL     OW17245   0.334   2.861   6.771
 5449SOL    HW117246   0.294   2.772   6.746
 5449SOL    HW217247   0.292   2.893   6.855
 5450SOL     OW17248   2.545   5.955   0.995
 5450SOL    HW117249   2.599   6.032   1.030
 5450SOL    HW217250   2.551   5.879   1.060
 5451SOL     OW17251   2.510   0.783   2.921
 5451SOL    HW117252   2.500   0.783   2.822
 5451SOL    HW217253   2.428   0.744   2.963
 5452SOL     OW17254   2.283   3.887   5.730
 5452SOL    HW117255   2.209   3.947   5.701
 5452SOL    HW217256   2.351   3.880   5.656
 5453SOL     OW17257   0.482   5.309   5.864
 5453SOL    HW117258   0.466   5.338   5.958
 5453SOL    HW217259   0.427   5.364   5.802
 5454SOL     OW17260   0.773   3.821   5.153
 5454SOL    HW117261   0.694   3.882   5.157
 5454SOL    HW217262   0.745   3.731   5.119
 5455SOL     OW17263   6.488   2.147   0.666
 5455SOL    HW117264   6.439   2.100   0.740
 5455SOL    HW217265   6.480   2.246   0.679
 5456SOL     OW17266   3.528   6.818   1.445
 5456SOL    HW117267   3.508   6.910   1.479
 5456SOL    HW217268   3.619   6.816   1.404
 5457SOL     OW17269   6.589   3.855   1.071
 5457SOL    HW117270   6.506   3.870   1.124
 5457SOL    HW217271   6.625   3.943   1.039
 5458SOL     OW17272   1.821   4.342   5.696
 5458SOL    HW117273   1.731   4.330   5.739
 5458SOL    HW217274   1.892   4.334   5.766
 5459SOL     OW17275   2.520   4.254   6.056
 5459SOL    HW117276   2.502   4.229   5.961
 5459SOL    HW217277   2.498   4.177   6.116
 5460SOL     OW17278   3.953   0.045   4.374
 5460SOL    HW117279   4.004   0.125   4.342
 5460SOL    HW217280   3.877   0.075   4.430
 5461SOL     OW17281   4.559   6.858   5.015
 5461SOL    HW117282   4.637   6.838   5.075
 5461SOL    HW217283   4.583   6.933   4.953
 5462SOL     OW17284   0.132   0.499   1.029
 5462SOL    HW117285   0.150   0.550   1.113
 5462SOL    HW217286   0.094   0.561   0.960
 5463SOL     OW17287   0.049   3.231   0.898
 5463SOL    HW117288   0.013   3.232   0.805
 5463SOL    HW217289   0.102   3.148   0.912
 5464SOL     OW17290   1.757   6.169   4.603
 5464SOL    HW117291   1.745   6.164   4.702
 5464SOL    HW217292   1.668   6.183   4.560
 5465SOL     OW17293   2.843   5.680   6.758
 5465SOL    HW117294   2.903   5.749   6.799
 5465SOL    HW217295   2.786   5.638   6.830
 5466SOL     OW17296   5.735   5.879   4.423
 5466SOL    HW117297   5.701   5.936   4.348
 5466SOL    HW217298   5.768   5.938   4.497
 5467SOL     OW17299   5.879   1.465   1.961
 5467SOL    HW117300   5.784   1.436   1.977
 5467SOL    HW217301   5.927   1.393   1.911
 5468SOL     OW17302   4.227   1.120   6.283
 5468SOL    HW117303   4.302   1.057   6.306
 5468SOL    HW217304   4.222   1.192   6.352
 5469SOL     OW17305   4.894   4.598   1.633
 5469SOL    HW117306   4.888   4.501   1.610
 5469SOL    HW217307   4.884   4.610   1.731
 5470SOL     OW17308   0.474   4.907   3.491
 5470SOL    HW117309   0.437   4.994   3.458
 5470SOL    HW217310   0.479   4.842   3.415
 5471SOL     OW17311   6.407   4.503   2.053
 5471SOL    HW117312   6.347   4.502   2.133
 5471SOL    HW217313   6.355   4.527   1.971
 5472SOL     OW17314   3.596   5.218   5.127
 5472SOL    HW117315   3.642   5.130   5.136
 5472SOL    HW217316   3.537   5.217   5.046
 5473SOL     OW17317   1.478   4.413   3.788
 5473SOL    HW117318   1.531   4.385   3.708
 5473SOL    HW217319   1.475   4.513   3.793
 5474SOL     OW17320   1.610   6.225   3.018
 5474SOL    HW117321   1.637   6.161   2.946
 5474SOL    HW217322   1.617   6.181   3.107
 5475SOL     OW17323   3.531   2.918   1.694
 5475SOL    HW117324   3.458   2.986   1.700
 5475SOL    HW217325   3.530   2.861   1.776
 5476SOL     OW17326   1.940   3.093   6.647
 5476SOL    HW117327   1.966   3.019   6.709
 5476SOL    HW217328   1.866   3.063   6.588
 5477SOL     OW17329   2.327   2.385   2.408
 5477SOL    HW117330   2.375   2.472   2.392
 5477SOL    HW217331   2.394   2.310   2.409
 5478SOL     OW17332   6.896   5.423   5.791
 5478SOL    HW117333   6.888   5.332   5.750
 5478SOL    HW217334   6.808   5.471   5.782
 5479SOL     OW17335   4.480   6.459   5.370
 5479SOL    HW117336   4.560   6.406   5.396
 5479SOL    HW217337   4.453   6.518   5.447
 5480SOL     OW17338   0.417   2.210   5.751
 5480SOL    HW117339   0.356   2.178   5.823
 5480SOL    HW217340   0.364   2.240   5.672
 5481SOL     OW17341   4.173   6.392   3.360
 5481SOL    HW117342   4.270   6.415   3.351
 5481SOL    HW217343   4.120   6.441   3.291
 5482SOL     OW17344   1.528   6.091   1.880
 5482SOL    HW117345   1.586   6.078   1.800
 5482SOL    HW217346   1.564   6.164   1.937
 5483SOL     OW17347   0.944   2.292   6.142
 5483SOL    HW117348   0.905   2.235   6.070
 5483SOL    HW217349   0.872   2.323   6.204
 5484SOL     OW17350   5.473   0.159   4.771
 5484SOL    HW117351   5.535   0.166   4.848
 5484SOL    HW217352   5.385   0.200   4.795
 5485SOL     OW17353   3.575   0.546   4.400
 5485SOL    HW117354   3.530   0.634   4.384
 5485SOL    HW217355   3.654   0.559   4.460
 5486SOL     OW17356   3.543   4.949   3.949
 5486SOL    HW117357   3.513   5.044   3.933
 5486SOL    HW217358   3.507   4.917   4.037
 5487SOL     OW17359   2.966   5.788   5.130
 5487SOL    HW117360   3.042   5.821   5.185
 5487SOL    HW217361   2.894   5.753   5.189
 5488SOL     OW17362   4.936   2.139   6.297
 5488SOL    HW117363   4.943   2.231   6.258
 5488SOL    HW217364   4.840   2.112   6.301
 5489SOL     OW17365   0.017   2.479   4.157
 5489SOL    HW117366   0.044   2.558   4.213
 5489SOL    HW217367   0.086   2.464   4.086
 5490SOL     OW17368   0.579   5.114   1.898
 5490SOL    HW117369   0.585   5.151   1.990
 5490SOL    HW217370   0.669   5.114   1.855
 5491SOL     OW17371   6.141   4.528   0.843
 5491SOL    HW117372   6.154   4.433   0.872
 5491SOL    HW217373   6.044   4.549   0.840
 5492SOL     OW17374   0.652   2.103   6.679
 5492SOL    HW117375   0.723   2.041   6.645
 5492SOL    HW217376   0.627   2.168   6.607
 5493SOL     OW17377   4.197   4.386   6.902
 5493SOL    HW117378   4.279   4.362   6.850
 5493SOL    HW217379   4.209   4.475   6.946
 5494SOL     OW17380   6.036   2.425   5.633
 5494SOL    HW117381   6.104   2.353   5.646
 5494SOL    HW217382   5.964   2.416   5.702
 5495SOL     OW17383   5.844   0.565   0.609
 5495SOL    HW117384   5.805   0.475   0.589
 5495SOL    HW217385   5.857   0.615   0.524
 5496SOL     OW17386   4.168   6.364   5.997
 5496SOL    HW117387   4.211   6.454   5.990
 5496SOL    HW217388   4.228   6.294   5.957
 5497SOL     OW17389   0.787   0.371   5.817
 5497SOL    HW117390   0.718   0.354   5.746
 5497SOL    HW217391   0.869   0.409   5.776
 5498SOL     OW17392   0.813   5.511   1.532
 5498SOL    HW117393   0.832   5.605   1.558
 5498SOL    HW217394   0.858   5.491   1.445
 5499SOL     OW17395   2.031   0.402   3.615
 5499SOL    HW117396   2.060   0.458   3.692
 5499SOL    HW217397   1.931   0.391   3.617
 5500SOL     OW17398   1.940   6.311   1.416
 5500SOL    HW117399   1.875   6.378   1.380
 5500SOL    HW217400   1.898   6.259   1.491
 5501SOL     OW17401   5.187   3.516   0.473
 5501SOL    HW117402   5.273   3.545   0.516
 5501SOL    HW217403   5.163   3.580   0.400
 5502SOL     OW17404   4.878   3.382   6.912
 5502SOL    HW117405   4.828   3.312   6.862
 5502SOL    HW217406   4.847   3.384   7.008
 5503SOL     OW17407   6.190   3.684   1.060
 5503SOL    HW117408   6.091   3.698   1.073
 5503SOL    HW217409   6.205   3.633   0.975
 5504SOL     OW17410   3.167   2.099   6.899
 5504SOL    HW117411   3.188   2.193   6.873
 5504SOL    HW217412   3.078   2.073   6.862
 5505SOL     OW17413   2.785   4.938   2.260
 5505SOL    HW117414   2.693   4.935   2.220
 5505SOL    HW217415   2.852   4.908   2.193
 5506SOL     OW17416   6.265   2.471   5.916
 5506SOL    HW117417   6.297   2.440   5.827
 5506SOL    HW217418   6.193   2.410   5.950
 5507SOL     OW17419   4.047   6.441   0.568
 5507SOL    HW117420   4.035   6.508   0.494
 5507SOL    HW217421   4.041   6.488   0.656
 5508SOL     OW17422   6.653   1.699   6.501
 5508SOL    HW117423   6.676   1.797   6.504
 5508SOL    HW217424   6.619   1.676   6.410
 5509SOL     OW17425   6.229   4.002   0.041
 5509SOL    HW117426   6.268   4.090   0.015
 5509SOL    HW217427   6.277   3.929   7.016
 5510SOL     OW17428   5.440   5.522   0.217
 5510SOL    HW117429   5.475   5.599   0.163
 5510SOL    HW217430   5.408   5.450   0.155
 5511SOL     OW17431   1.039   2.634   6.260
 5511SOL    HW117432   0.987   2.601   6.181
 5511SOL    HW217433   1.066   2.729   6.244
 5512SOL     OW17434   2.809   6.831   2.236
 5512SOL    HW117435   2.843   6.855   2.145
 5512SOL    HW217436   2.885   6.795   2.291
 5513SOL     OW17437   3.889   4.467   6.557
 5513SOL    HW117438   3.968   4.507   6.603
 5513SOL    HW217439   3.914   4.445   6.462
 5514SOL     OW17440   3.547   1.215   0.713
 5514SOL    HW117441   3.526   1.238   0.808
 5514SOL    HW217442   3.482   1.145   0.681
 5515SOL     OW17443   3.445   4.991   2.404
 5515SOL    HW117444   3.532   4.957   2.369
 5515SOL    HW217445   3.427   4.953   2.495
 5516SOL     OW17446   0.998   2.537   5.940
 5516SOL    HW117447   1.067   2.603   5.912
 5516SOL    HW217448   1.025   2.446   5.909
 5517SOL     OW17449   0.723   2.036   4.010
 5517SOL    HW117450   0.807   2.040   3.955
 5517SOL    HW217451   0.686   1.943   4.009
 5518SOL     OW17452   4.794   4.330   5.824
 5518SOL    HW117453   4.711   4.291   5.863
 5518SOL    HW217454   4.774   4.368   5.733
 5519SOL     OW17455   5.351   2.435   5.704
 5519SOL    HW117456   5.351   2.446   5.804
 5519SOL    HW217457   5.263   2.395   5.676
 5520SOL     OW17458   5.142   5.899   1.293
 5520SOL    HW117459   5.197   5.899   1.376
 5520SOL    HW217460   5.187   5.955   1.223
 5521SOL     OW17461   4.476   0.311   2.099
 5521SOL    HW117462   4.419   0.292   2.019
 5521SOL    HW217463   4.425   0.367   2.164
 5522SOL     OW17464   5.091   6.486   6.729
 5522SOL    HW117465   5.116   6.409   6.789
 5522SOL    HW217466   5.028   6.453   6.659
 5523SOL     OW17467   5.147   2.100   0.505
 5523SOL    HW117468   5.204   2.156   0.445
 5523SOL    HW217469   5.170   2.003   0.493
 5524SOL     OW17470   2.726   1.344   3.105
 5524SOL    HW117471   2.739   1.430   3.056
 5524SOL    HW217472   2.777   1.347   3.191
 5525SOL     OW17473   0.225   1.306   0.986
 5525SOL    HW117474   0.221   1.216   1.030
 5525SOL    HW217475   0.283   1.367   1.039
 5526SOL     OW17476   5.174   4.308   4.119
 5526SOL    HW117477   5.098   4.350   4.168
 5526SOL    HW217478   5.261   4.330   4.164
 5527SOL     OW17479   6.547   0.322   2.634
 5527SOL    HW117480   6.464   0.296   2.684
 5527SOL    HW217481   6.523   0.380   2.556
 5528SOL     OW17482   1.325   1.421   6.973
 5528SOL    HW117483   1.233   1.443   7.006
 5528SOL    HW217484   1.358   1.496   6.916
 5529SOL     OW17485   3.516   0.157   2.032
 5529SOL    HW117486   3.508   0.073   1.978
 5529SOL    HW217487   3.610   0.189   2.028
 5530SOL     OW17488   1.158   1.638   1.433
 5530SOL    HW117489   1.195   1.552   1.400
 5530SOL    HW217490   1.233   1.693   1.472
 5531SOL     OW17491   1.440   4.790   0.216
 5531SOL    HW117492   1.458   4.703   0.169
 5531SOL    HW217493   1.525   4.840   0.226
 5532SOL     OW17494   6.973   4.430   6.029
 5532SOL    HW117495   0.046   4.425   6.002
 5532SOL    HW217496   6.950   4.525   6.051
 5533SOL     OW17497   3.208   0.743   2.840
 5533SOL    HW117498   3.224   0.802   2.919
 5533SOL    HW217499   3.164   0.796   2.767
 5534SOL     OW17500   1.589   0.358   4.565
 5534SOL    HW117501   1.532   0.351   4.483
 5534SOL    HW217502   1.586   0.271   4.615
 5535SOL     OW17503   0.608   1.770   2.514
 5535SOL    HW117504   0.558   1.846   2.557
 5535SOL    HW217505   0.568   1.683   2.544
 5536SOL     OW17506   4.750   0.100   4.364
 5536SOL    HW117507   4.746   0.115   4.463
 5536SOL    HW217508   4.842   0.122   4.331
 5537SOL     OW17509   2.534   2.488   2.904
 5537SOL    HW117510   2.493   2.402   2.872
 5537SOL    HW217511   2.468   2.536   2.962
 5538SOL     OW17512   4.331   5.646   3.994
 5538SOL    HW117513   4.342   5.743   4.016
 5538SOL    HW217514   4.422   5.603   3.991
 5539SOL     OW17515   2.291   4.284   0.176
 5539SOL    HW117516   2.252   4.356   0.119
 5539SOL    HW217517   2.246   4.197   0.155
 5540SOL     OW17518   3.552   5.505   1.206
 5540SOL    HW117519   3.633   5.470   1.159
 5540SOL    HW217520   3.536   5.600   1.179
 5541SOL     OW17521   4.701   0.440   6.498
 5541SOL    HW117522   4.691   0.351   6.454
 5541SOL    HW217523   4.741   0.505   6.433
 5542SOL     OW17524   5.468   4.327   6.129
 5542SOL    HW117525   5.378   4.334   6.087
 5542SOL    HW217526   5.472   4.244   6.186
 5543SOL     OW17527   0.440   2.187   5.015
 5543SOL    HW117528   0.462   2.239   5.098
 5543SOL    HW217529   0.344   2.159   5.018
 5544SOL     OW17530   5.440   0.558   6.813
 5544SOL    HW117531   5.369   0.624   6.836
 5544SOL    HW217532   5.455   0.560   6.714
 5545SOL     OW17533   2.407   2.500   1.894
 5545SOL    HW117534   2.322   2.447   1.890
 5545SOL    HW217535   2.385   2.597   1.895
 5546SOL     OW17536   3.589   5.560   5.123
 5546SOL    HW117537   3.652   5.589   5.195
 5546SOL    HW217538   3.574   5.461   5.129
 5547SOL     OW17539   3.089   5.240   3.669
 5547SOL    HW117540   3.069   5.279   3.758
 5547SOL    HW217541   3.065   5.305   3.597
 5548SOL     OW17542   0.128   1.971   4.814
 5548SOL    HW117543   0.152   2.005   4.905
 5548SOL    HW217544   0.040   1.924   4.818
 5549SOL     OW17545   3.740   5.212   6.208
 5549SOL    HW117546   3.702   5.264   6.131
 5549SOL    HW217547   3.836   5.237   6.220
 5550SOL     OW17548   2.699   6.261   2.911
 5550SOL    HW117549   2.741   6.307   2.990
 5550SOL    HW217550   2.633   6.193   2.943
 5551SOL     OW17551   0.710   0.955   2.327
 5551SOL    HW117552   0.700   1.054   2.339
 5551SOL    HW217553   0.776   0.920   2.393
 5552SOL     OW17554   2.240   2.266   2.644
 5552SOL    HW117555   2.251   2.332   2.717
 5552SOL    HW217556   2.260   2.310   2.556
 5553SOL     OW17557   5.034   6.394   6.460
 5553SOL    HW117558   5.019   6.303   6.421
 5553SOL    HW217559   5.130   6.403   6.487
 5554SOL     OW17560   3.580   0.617   4.717
 5554SOL    HW117561   3.518   0.673   4.662
 5554SOL    HW217562   3.528   0.547   4.766
 5555SOL     OW17563   1.056   6.040   1.643
 5555SOL    HW117564   1.059   6.004   1.549
 5555SOL    HW217565   1.139   6.093   1.661
 5556SOL     OW17566   7.012   1.370   5.300
 5556SOL    HW117567   6.989   1.310   5.377
 5556SOL    HW217568   0.036   1.316   5.230
 5557SOL     OW17569   3.543   0.727   1.883
 5557SOL    HW117570   3.529   0.701   1.787
 5557SOL    HW217571   3.468   0.787   1.912
 5558SOL     OW17572   5.123   2.512   5.954
 5558SOL    HW117573   5.059   2.551   5.887
 5558SOL    HW217574   5.159   2.585   6.012
 5559SOL     OW17575   2.658   0.583   0.696
 5559SOL    HW117576   2.678   0.623   0.607
 5559SOL    HW217577   2.617   0.652   0.755
 5560SOL     OW17578   0.149   1.547   4.897
 5560SOL    HW117579   0.225   1.546   4.962
 5560SOL    HW217580   0.178   1.590   4.811
 5561SOL     OW17581   2.032   4.514   1.990
 5561SOL    HW117582   1.974   4.436   1.966
 5561SOL    HW217583   2.122   4.502   1.949
 5562SOL     OW17584   3.616   2.140   0.223
 5562SOL    HW117585   3.529   2.186   0.210
 5562SOL    HW217586   3.680   2.167   0.152
 5563SOL     OW17587   3.917   4.344   1.063
 5563SOL    HW117588   3.866   4.365   1.146
 5563SOL    HW217589   3.856   4.345   0.985
 5564SOL     OW17590   6.150   1.492   2.344
 5564SOL    HW117591   6.111   1.566   2.399
 5564SOL    HW217592   6.128   1.404   2.386
 5565SOL     OW17593   1.484   3.098   5.745
 5565SOL    HW117594   1.552   3.081   5.816
 5565SOL    HW217595   1.523   3.078   5.655
 5566SOL     OW17596   2.612   4.478   0.504
 5566SOL    HW117597   2.578   4.431   0.422
 5566SOL    HW217598   2.677   4.550   0.477
 5567SOL     OW17599   1.426   5.349   3.050
 5567SOL    HW117600   1.390   5.289   2.978
 5567SOL    HW217601   1.389   5.320   3.138
 5568SOL     OW17602   3.693   2.844   0.315
 5568SOL    HW117603   3.769   2.884   0.264
 5568SOL    HW217604   3.704   2.744   0.317
 5569SOL     OW17605   4.914   1.631   6.608
 5569SOL    HW117606   4.867   1.704   6.658
 5569SOL    HW217607   4.873   1.543   6.631
 5570SOL     OW17608   1.576   2.398   5.895
 5570SOL    HW117609   1.605   2.476   5.950
 5570SOL    HW217610   1.535   2.329   5.954
 5571SOL     OW17611   0.470   4.339   6.023
 5571SOL    HW117612   0.515   4.411   6.076
 5571SOL    HW217613   0.535   4.264   6.006
 5572SOL     OW17614   0.773   3.031   6.020
 5572SOL    HW117615   0.737   2.960   5.959
 5572SOL    HW217616   0.705   3.103   6.032
 5573SOL     OW17617   6.720   3.786   6.512
 5573SOL    HW117618   6.699   3.793   6.610
 5573SOL    HW217619   6.642   3.744   6.465
 5574SOL     OW17620   1.825   6.146   4.350
 5574SOL    HW117621   1.803   6.184   4.440
 5574SOL    HW217622   1.924   6.130   4.344
 5575SOL     OW17623   0.932   1.568   3.055
 5575SOL    HW117624   0.908   1.640   2.990
 5575SOL    HW217625   1.025   1.582   3.088
 5576SOL     OW17626   5.121   6.753   5.817
 5576SOL    HW117627   5.194   6.795   5.762
 5576SOL    HW217628   5.067   6.692   5.759
 5577SOL     OW17629   1.201   4.866   4.814
 5577SOL    HW117630   1.192   4.942   4.879
 5577SOL    HW217631   1.144   4.789   4.844
 5578SOL     OW17632   3.990   1.825   6.027
 5578SOL    HW117633   3.939   1.911   6.026
 5578SOL    HW217634   4.010   1.799   6.121
 5579SOL     OW17635   4.934   4.479   2.690
 5579SOL    HW117636   4.929   4.379   2.689
 5579SOL    HW217637   4.876   4.515   2.764
 5580SOL     OW17638   6.225   1.395   1.815
 5580SOL    HW117639   6.299   1.330   1.799
 5580SOL    HW217640   6.214   1.410   1.913
 5581SOL     OW17641   3.058   3.282   0.663
 5581SOL    HW117642   3.030   3.271   0.758
 5581SOL    HW217643   3.156   3.300   0.658
 5582SOL     OW17644   2.977   3.736   4.524
 5582SOL    HW117645   3.017   3.827   4.534
 5582SOL    HW217646   2.890   3.743   4.476
 5583SOL     OW17647   3.772   0.628   6.921
 5583SOL    HW117648   3.747   0.531   6.915
 5583SOL    HW217649   3.690   0.684   6.908
 5584SOL     OW17650   4.932   3.141   4.241
 5584SOL    HW117651   4.857   3.076   4.235
 5584SOL    HW217652   4.990   3.134   4.160
 5585SOL     OW17653   0.433   0.741   3.686
 5585SOL    HW117654   0.426   0.647   3.719
 5585SOL    HW217655   0.488   0.742   3.602
 5586SOL     OW17656   1.693   0.535   6.883
 5586SOL    HW117657   1.758   0.600   6.843
 5586SOL    HW217658   1.736   0.484   6.957
 5587SOL     OW17659   3.777   5.873   3.096
 5587SOL    HW117660   3.679   5.865   3.075
 5587SOL    HW217661   3.791   5.871   3.195
 5588SOL     OW17662   4.843   6.060   6.962
 5588SOL    HW117663   4.799   5.981   6.920
 5588SOL    HW217664   4.877   6.034   0.030
 5589SOL     OW17665   1.710   2.976   6.987
 5589SOL    HW117666   1.647   2.924   0.022
 5589SOL    HW217667   1.726   3.066   0.005
 5590SOL     OW17668   6.828   0.580   3.315
 5590SOL    HW117669   6.741   0.626   3.295
 5590SOL    HW217670   6.860   0.607   3.406
 5591SOL     OW17671   5.224   1.077   6.419
 5591SOL    HW117672   5.233   1.103   6.515
 5591SOL    HW217673   5.133   1.101   6.386
 5592SOL     OW17674   1.527   3.260   3.019
 5592SOL    HW117675   1.564   3.227   2.932
 5592SOL    HW217676   1.584   3.228   3.094
 5593SOL     OW17677   2.317   3.593   5.278
 5593SOL    HW117678   2.263   3.598   5.362
 5593SOL    HW217679   2.335   3.497   5.256
 5594SOL     OW17680   2.847   0.995   5.771
 5594SOL    HW117681   2.782   0.926   5.739
 5594SOL    HW217682   2.811   1.041   5.852
 5595SOL     OW17683   6.658   3.327   0.169
 5595SOL    HW117684   6.656   3.426   0.182
 5595SOL    HW217685   6.671   3.307   0.072
 5596SOL     OW17686   4.963   3.886   4.440
 5596SOL    HW117687   4.929   3.792   4.432
 5596SOL    HW217688   4.914   3.932   4.514
 5597SOL     OW17689   0.292   1.733   6.691
 5597SOL    HW117690   0.210   1.744   6.747
 5597SOL    HW217691   0.371   1.719   6.750
 5598SOL     OW17692   6.718   6.884   3.409
 5598SOL    HW117693   6.741   6.917   3.317
 5598SOL    HW217694   6.775   6.932   3.476
 5599SOL     OW17695   5.112   3.173   3.120
 5599SOL    HW117696   5.073   3.230   3.192
 5599SOL    HW217697   5.078   3.202   3.031
 5600SOL     OW17698   1.908   3.235   1.906
 5600SOL    HW117699   1.815   3.247   1.871
 5600SOL    HW217700   1.972   3.286   1.849
 5601SOL     OW17701   5.367   2.470   6.257
 5601SOL    HW117702   5.385   2.511   6.167
 5601SOL    HW217703   5.278   2.503   6.291
 5602SOL     OW17704   5.982   1.303   2.822
 5602SOL    HW117705   5.962   1.291   2.919
 5602SOL    HW217706   5.902   1.344   2.777
 5603SOL     OW17707   3.627   1.344   5.825
 5603SOL    HW117708   3.534   1.345   5.788
 5603SOL    HW217709   3.675   1.262   5.792
 5604SOL     OW17710   1.301   4.666   3.485
 5604SOL    HW117711   1.382   4.662   3.427
 5604SOL    HW217712   1.239   4.590   3.462
 5605SOL     OW17713   3.206   6.372   4.706
 5605SOL    HW117714   3.271   6.445   4.682
 5605SOL    HW217715   3.146   6.356   4.628
 5606SOL     OW17716   4.616   3.974   1.363
 5606SOL    HW117717   4.530   3.937   1.329
 5606SOL    HW217718   4.641   3.929   1.448
 5607SOL     OW17719   1.411   2.054   2.464
 5607SOL    HW117720   1.412   2.076   2.561
 5607SOL    HW217721   1.368   2.129   2.413
 5608SOL     OW17722   6.520   6.485   3.580
 5608SOL    HW117723   6.446   6.438   3.629
 5608SOL    HW217724   6.606   6.473   3.630
 5609SOL     OW17725   6.712   1.283   0.658
 5609SOL    HW117726   6.617   1.307   0.677
 5609SOL    HW217727   6.772   1.342   0.712
 5610SOL     OW17728   5.521   6.624   6.544
 5610SOL    HW117729   5.567   6.639   6.457
 5610SOL    HW217730   5.560   6.542   6.588
 5611SOL     OW17731   6.829   3.719   1.617
 5611SOL    HW117732   6.802   3.797   1.562
 5611SOL    HW217733   6.750   3.660   1.633
 5612SOL     OW17734   4.972   2.292   1.585
 5612SOL    HW117735   4.929   2.204   1.608
 5612SOL    HW217736   4.920   2.366   1.626
 5613SOL     OW17737   6.763   5.241   5.225
 5613SOL    HW117738   6.708   5.183   5.285
 5613SOL    HW217739   6.829   5.186   5.175
 5614SOL     OW17740   5.774   2.524   4.576
 5614SOL    HW117741   5.712   2.602   4.583
 5614SOL    HW217742   5.760   2.462   4.653
 5615SOL     OW17743   0.554   3.320   2.721
 5615SOL    HW117744   0.532   3.224   2.738
 5615SOL    HW217745   0.566   3.335   2.623
 5616SOL     OW17746   1.567   3.004   1.416
 5616SOL    HW117747   1.543   3.064   1.493
 5616SOL    HW217748   1.601   3.059   1.340
 5617SOL     OW17749   0.349   5.153   5.186
 5617SOL    HW117750   0.438   5.112   5.206
 5617SOL    HW217751   0.283   5.126   5.256
 5618SOL     OW17752   4.940   0.819   2.960
 5618SOL    HW117753   4.862   0.880   2.971
 5618SOL    HW217754   5.022   0.863   2.996
 5619SOL     OW17755   3.710   4.168   4.304
 5619SOL    HW117756   3.776   4.099   4.274
 5619SOL    HW217757   3.626   4.157   4.251
 5620SOL     OW17758   4.404   4.734   5.321
 5620SOL    HW117759   4.360   4.661   5.372
 5620SOL    HW217760   4.453   4.794   5.384
 5621SOL     OW17761   1.384   3.327   6.697
 5621SOL    HW117762   1.299   3.276   6.698
 5621SOL    HW217763   1.455   3.275   6.745
 5622SOL     OW17764   5.715   5.707   3.110
 5622SOL    HW117765   5.779   5.630   3.108
 5622SOL    HW217766   5.650   5.695   3.184
 5623SOL     OW17767   4.467   4.754   3.339
 5623SOL    HW117768   4.470   4.844   3.382
 5623SOL    HW217769   4.452   4.765   3.240
 5624SOL     OW17770   4.852   4.056   3.657
 5624SOL    HW117771   4.875   4.038   3.753
 5624SOL    HW217772   4.779   4.123   3.652
 5625SOL     OW17773   3.903   6.781   6.387
 5625SOL    HW117774   3.951   6.697   6.409
 5625SOL    HW217775   3.806   6.761   6.371
 5626SOL     OW17776   2.015   4.401   5.534
 5626SOL    HW117777   1.950   4.379   5.606
 5626SOL    HW217778   1.969   4.452   5.461
 5627SOL     OW17779   1.143   5.564   0.919
 5627SOL    HW117780   1.220   5.517   0.876
 5627SOL    HW217781   1.057   5.525   0.885
 5628SOL     OW17782   0.699   2.400   0.195
 5628SOL    HW117783   0.798   2.401   0.178
 5628SOL    HW217784   0.656   2.472   0.140
 5629SOL     OW17785   0.119   3.401   4.503
 5629SOL    HW117786   0.119   3.384   4.404
 5629SOL    HW217787   0.112   3.314   4.552
 5630SOL     OW17788   0.957   4.710   6.826
 5630SOL    HW117789   0.951   4.661   6.914
 5630SOL    HW217790   1.051   4.740   6.811
 5631SOL     OW17791   3.322   0.483   2.872
 5631SOL    HW117792   3.275   0.568   2.849
 5631SOL    HW217793   3.254   0.412   2.889
 5632SOL     OW17794   3.593   6.629   6.615
 5632SOL    HW117795   3.587   6.718   6.660
 5632SOL    HW217796   3.501   6.591   6.603
 5633SOL     OW17797   1.491   5.453   5.063
 5633SOL    HW117798   1.446   5.416   4.982
 5633SOL    HW217799   1.581   5.489   5.038
 5634SOL     OW17800   2.536   0.261   1.859
 5634SOL    HW117801   2.616   0.321   1.862
 5634SOL    HW217802   2.482   0.280   1.777
 5635SOL     OW17803   3.868   0.456   2.123
 5635SOL    HW117804   3.963   0.467   2.096
 5635SOL    HW217805   3.864   0.426   2.218
 5636SOL     OW17806   4.992   0.769   4.444
 5636SOL    HW117807   5.007   0.764   4.346
 5636SOL    HW217808   5.008   0.679   4.485
 5637SOL     OW17809   5.856   0.073   5.216
 5637SOL    HW117810   5.791   7.020   5.205
 5637SOL    HW217811   5.866   0.094   5.313
 5638SOL     OW17812   1.116   5.620   6.762
 5638SOL    HW117813   1.063   5.703   6.779
 5638SOL    HW217814   1.163   5.593   6.847
 5639SOL     OW17815   3.148   6.973   1.819
 5639SOL    HW117816   3.191   0.025   1.871
 5639SOL    HW217817   3.068   7.008   1.771
 5640SOL     OW17818   3.771   6.813   4.286
 5640SOL    HW117819   3.797   6.893   4.339
 5640SOL    HW217820   3.850   6.779   4.235
 5641SOL     OW17821   6.541   4.965   3.489
 5641SOL    HW117822   6.624   4.932   3.443
 5641SOL    HW217823   6.563   5.049   3.540
 5642SOL     OW17824   2.253   1.774   6.417
 5642SOL    HW117825   2.248   1.819   6.506
 5642SOL    HW217826   2.246   1.842   6.344
 5643SOL     OW17827   4.800   2.941   3.343
 5643SOL    HW117828   4.795   3.035   3.310
 5643SOL    HW217829   4.880   2.931   3.403
 5644SOL     OW17830   3.423   0.488   6.112
 5644SOL    HW117831   3.449   0.394   6.090
 5644SOL    HW217832   3.504   0.541   6.137
 5645SOL     OW17833   6.401   6.178   3.871
 5645SOL    HW117834   6.324   6.116   3.858
 5645SOL    HW217835   6.381   6.266   3.829
 5646SOL     OW17836   6.830   1.014   2.412
 5646SOL    HW117837   6.863   1.108   2.407
 5646SOL    HW217838   6.734   1.014   2.442
 5647SOL     OW17839   5.834   3.589   6.123
 5647SOL    HW117840   5.772   3.524   6.167
 5647SOL    HW217841   5.846   3.563   6.027
 5648SOL     OW17842   1.666   1.597   3.959
 5648SOL    HW117843   1.605   1.653   4.016
 5648SOL    HW217844   1.630   1.592   3.866
 5649SOL     OW17845   6.680   0.581   4.276
 5649SOL    HW117846   6.761   0.635   4.252
 5649SOL    HW217847   6.692   0.544   4.368
 5650SOL     OW17848   6.240   4.848   5.055
 5650SOL    HW117849   6.143   4.823   5.055
 5650SOL    HW217850   6.249   4.947   5.046
 5651SOL     OW17851   6.135   0.431   2.560
 5651SOL    HW117852   6.212   0.374   2.531
 5651SOL    HW217853   6.116   0.499   2.489
 5652SOL     OW17854   4.628   4.105   0.071
 5652SOL    HW117855   4.555   4.059   0.019
 5652SOL    HW217856   4.594   4.192   0.106
 5653SOL     OW17857   2.297   6.069   6.961
 5653SOL    HW117858   2.395   6.087   6.963
 5653SOL    HW217859   2.266   6.065   6.866
 5654SOL     OW17860   2.298   6.585   0.542
 5654SOL    HW117861   2.283   6.626   0.452
 5654SOL    HW217862   2.326   6.657   0.606
 5655SOL     OW17863   6.633   5.850   2.555
 5655SOL    HW117864   6.636   5.756   2.520
 5655SOL    HW217865   6.689   5.909   2.496
 5656SOL     OW17866   3.501   4.852   6.343
 5656SOL    HW117867   3.439   4.923   6.311
 5656SOL    HW217868   3.501   4.776   6.279
 5657SOL     OW17869   4.782   5.565   2.150
 5657SOL    HW117870   4.742   5.478   2.177
 5657SOL    HW217871   4.803   5.564   2.053
 5658SOL     OW17872   4.851   6.265   6.176
 5658SOL    HW117873   4.808   6.355   6.181
 5658SOL    HW217874   4.864   6.240   6.080
 5659SOL     OW17875   3.282   3.936   2.101
 5659SOL    HW117876   3.279   3.990   2.185
 5659SOL    HW217877   3.362   3.963   2.047
 5660SOL     OW17878   6.996   5.634   1.453
 5660SOL    HW117879   6.943   5.699   1.507
 5660SOL    HW217880   6.958   5.629   1.360
 5661SOL     OW17881   6.407   6.196   4.586
 5661SOL    HW117882   6.356   6.119   4.625
 5661SOL    HW217883   6.502   6.169   4.571
 5662SOL     OW17884   1.565   3.770   4.454
 5662SOL    HW117885   1.660   3.771   4.423
 5662SOL    HW217886   1.553   3.837   4.527
 5663SOL     OW17887   2.338   3.569   0.586
 5663SOL    HW117888   2.379   3.544   0.499
 5663SOL    HW217889   2.409   3.576   0.656
 5664SOL     OW17890   6.458   6.784   1.572
 5664SOL    HW117891   6.379   6.761   1.515
 5664SOL    HW217892   6.429   6.792   1.667
 5665SOL     OW17893   1.835   0.900   5.687
 5665SOL    HW117894   1.824   0.819   5.746
 5665SOL    HW217895   1.893   0.967   5.733
 5666SOL     OW17896   5.543   6.205   6.360
 5666SOL    HW117897   5.536   6.151   6.444
 5666SOL    HW217898   5.557   6.144   6.282
 5667SOL     OW17899   5.341   4.535   2.487
 5667SOL    HW117900   5.390   4.563   2.570
 5667SOL    HW217901   5.253   4.582   2.483
 5668SOL     OW17902   6.283   2.520   6.951
 5668SOL    HW117903   6.350   2.496   7.022
 5668SOL    HW217904   6.320   2.594   6.895
 5669SOL     OW17905   0.040   2.449   5.221
 5669SOL    HW117906   6.982   2.393   5.240
 5669SOL    HW217907   0.095   2.405   5.150
 5670SOL     OW17908   1.719   2.990   1.953
 5670SOL    HW117909   1.690   3.079   1.919
 5670SOL    HW217910   1.640   2.929   1.956
 5671SOL     OW17911   1.275   0.872   5.955
 5671SOL    HW117912   1.188   0.826   5.974
 5671SOL    HW217913   1.320   0.895   6.041
 5672SOL     OW17914   4.306   4.473   5.760
 5672SOL    HW117915   4.251   4.395   5.788
 5672SOL    HW217916   4.277   4.504   5.670
 5673SOL     OW17917   1.774   6.715   1.662
 5673SOL    HW117918   1.736   6.741   1.751
 5673SOL    HW217919   1.863   6.672   1.676
 5674SOL     OW17920   0.907   2.784   0.884
 5674SOL    HW117921   0.917   2.794   0.785
 5674SOL    HW217922   0.989   2.820   0.929
 5675SOL     OW17923   4.426   0.969   5.698
 5675SOL    HW117924   4.445   1.018   5.612
 5675SOL    HW217925   4.366   1.025   5.755
 5676SOL     OW17926   2.388   6.344   2.464
 5676SOL    HW117927   2.432   6.274   2.520
 5676SOL    HW217928   2.297   6.314   2.438
 5677SOL     OW17929   6.386   0.002   2.584
 5677SOL    HW117930   6.372   6.928   2.562
 5677SOL    HW217931   6.483   0.019   2.599
 5678SOL     OW17932   1.309   5.238   2.836
 5678SOL    HW117933   1.263   5.322   2.807
 5678SOL    HW217934   1.376   5.211   2.767
 5679SOL     OW17935   3.705   5.912   5.477
 5679SOL    HW117936   3.690   5.979   5.405
 5679SOL    HW217937   3.803   5.897   5.488
 5680SOL     OW17938   2.001   6.570   6.470
 5680SOL    HW117939   1.962   6.487   6.430
 5680SOL    HW217940   1.945   6.649   6.444
 5681SOL     OW17941   2.862   3.524   0.329
 5681SOL    HW117942   2.945   3.578   0.314
 5681SOL    HW217943   2.807   3.566   0.401
 5682SOL     OW17944   2.091   3.714   4.535
 5682SOL    HW117945   2.160   3.728   4.607
 5682SOL    HW217946   2.002   3.697   4.577
 5683SOL     OW17947   4.087   3.022   5.301
 5683SOL    HW117948   4.027   2.944   5.316
 5683SOL    HW217949   4.178   3.001   5.336
 5684SOL     OW17950   2.981   3.830   3.243
 5684SOL    HW117951   3.061   3.877   3.281
 5684SOL    HW217952   2.967   3.861   3.149
 5685SOL     OW17953   0.085   6.670   1.394
 5685SOL    HW117954   7.020   6.711   1.421
 5685SOL    HW217955   0.123   6.721   1.317
 5686SOL     OW17956   3.222   4.566   6.347
 5686SOL    HW117957   3.129   4.601   6.357
 5686SOL    HW217958   3.268   4.570   6.436
 5687SOL     OW17959   4.660   6.373   6.443
 5687SOL    HW117960   4.700   6.423   6.366
 5687SOL    HW217961   4.563   6.395   6.451
 5688SOL     OW17962   5.262   1.712   2.508
 5688SOL    HW117963   5.193   1.652   2.466
 5688SOL    HW217964   5.350   1.700   2.462
 5689SOL     OW17965   3.776   2.849   5.253
 5689SOL    HW117966   3.688   2.804   5.264
 5689SOL    HW217967   3.848   2.795   5.297
 5690SOL     OW17968   3.543   0.658   2.907
 5690SOL    HW117969   3.511   0.670   2.813
 5690SOL    HW217970   3.465   0.639   2.967
 5691SOL     OW17971   3.619   0.617   4.034
 5691SOL    HW117972   3.692   0.664   3.984
 5691SOL    HW217973   3.647   0.524   4.056
 5692SOL     OW17974   5.799   2.846   0.111
 5692SOL    HW117975   5.754   2.802   0.033
 5692SOL    HW217976   5.862   2.780   0.154
 5693SOL     OW17977   5.405   2.884   1.829
 5693SOL    HW117978   5.391   2.937   1.746
 5693SOL    HW217979   5.479   2.818   1.814
 5694SOL     OW17980   1.395   2.057   4.895
 5694SOL    HW117981   1.339   1.999   4.836
 5694SOL    HW217982   1.443   2.001   4.962
 5695SOL     OW17983   1.823   3.867   3.449
 5695SOL    HW117984   1.811   3.790   3.511
 5695SOL    HW217985   1.920   3.875   3.424
 5696SOL     OW17986   3.571   1.412   6.808
 5696SOL    HW117987   3.639   1.486   6.814
 5696SOL    HW217988   3.611   1.327   6.844
 5697SOL     OW17989   6.732   3.752   0.442
 5697SOL    HW117990   6.770   3.810   0.514
 5697SOL    HW217991   6.636   3.775   0.428
 5698SOL     OW17992   1.432   4.139   3.908
 5698SOL    HW117993   1.459   4.223   3.861
 5698SOL    HW217994   1.511   4.080   3.920
 5699SOL     OW17995   0.792   2.343   5.123
 5699SOL    HW117996   0.772   2.427   5.173
 5699SOL    HW217997   0.836   2.364   5.036
 5700SOL     OW17998   1.056   4.799   4.536
 5700SOL    HW117999   0.969   4.758   4.561
 5700SOL    HW218000   1.108   4.820   4.619
 5701SOL     OW18001   4.791   2.855   2.772
 5701SOL    HW118002   4.734   2.779   2.804
 5701SOL    HW218003   4.801   2.849   2.673
 5702SOL     OW18004   3.734   0.262   0.169
 5702SOL    HW118005   3.787   0.347   0.171
 5702SOL    HW218006   3.739   0.222   0.077
 5703SOL     OW18007   4.879   4.260   2.475
 5703SOL    HW118008   4.849   4.303   2.390
 5703SOL    HW218009   4.809   4.197   2.507
 5704SOL     OW18010   5.378   4.421   3.212
 5704SOL    HW118011   5.399   4.347   3.148
 5704SOL    HW218012   5.380   4.386   3.305
 5705SOL     OW18013   6.702   0.981   4.003
 5705SOL    HW118014   6.669   1.019   4.090
 5705SOL    HW218015   6.625   0.942   3.953
 5706SOL     OW18016   2.536   1.421   6.765
 5706SOL    HW118017   2.545   1.403   6.863
 5706SOL    HW218018   2.549   1.336   6.714
 5707SOL     OW18019   3.832   1.425   0.867
 5707SOL    HW118020   3.805   1.387   0.779
 5707SOL    HW218021   3.770   1.500   0.892
 5708SOL     OW18022   0.812   6.977   0.765
 5708SOL    HW118023   0.762   6.894   0.740
 5708SOL    HW218024   0.835   6.974   0.862
 5709SOL     OW18025   0.825   2.252   1.021
 5709SOL    HW118026   0.804   2.330   0.961
 5709SOL    HW218027   0.901   2.276   1.081
 5710SOL     OW18028   3.507   4.741   6.858
 5710SOL    HW118029   3.457   4.679   6.918
 5710SOL    HW218030   3.477   4.726   6.763
 5711SOL     OW18031   5.537   1.519   4.679
 5711SOL    HW118032   5.548   1.612   4.713
 5711SOL    HW218033   5.508   1.522   4.583
 5712SOL     OW18034   5.755   6.927   6.383
 5712SOL    HW118035   5.724   6.969   6.469
 5712SOL    HW218036   5.676   6.897   6.330
 5713SOL     OW18037   0.328   3.402   2.858
 5713SOL    HW118038   0.405   3.363   2.807
 5713SOL    HW218039   0.250   3.412   2.797
 5714SOL     OW18040   1.977   0.492   0.339
 5714SOL    HW118041   1.966   0.463   0.244
 5714SOL    HW218042   2.005   0.414   0.395
 5715SOL     OW18043   0.541   6.419   3.679
 5715SOL    HW118044   0.571   6.449   3.589
 5715SOL    HW218045   0.457   6.467   3.704
 5716SOL     OW18046   1.922   2.258   5.407
 5716SOL    HW118047   1.858   2.324   5.368
 5716SOL    HW218048   1.873   2.175   5.432
 5717SOL     OW18049   0.970   3.413   6.023
 5717SOL    HW118050   1.042   3.344   6.023
 5717SOL    HW218051   0.962   3.454   5.932
 5718SOL     OW18052   3.137   5.901   6.004
 5718SOL    HW118053   3.185   5.818   5.974
 5718SOL    HW218054   3.106   5.952   5.924
 5719SOL     OW18055   2.480   0.947   6.850
 5719SOL    HW118056   2.439   0.868   6.804
 5719SOL    HW218057   2.561   0.917   6.900
 5720SOL     OW18058   2.049   6.006   3.757
 5720SOL    HW118059   1.975   5.990   3.691
 5720SOL    HW218060   2.116   5.932   3.751
 5721SOL     OW18061   6.392   5.062   6.733
 5721SOL    HW118062   6.405   4.964   6.720
 5721SOL    HW218063   6.458   5.112   6.678
 5722SOL     OW18064   5.165   1.054   4.884
 5722SOL    HW118065   5.265   1.051   4.879
 5722SOL    HW218066   5.130   1.120   4.818
 5723SOL     OW18067   6.830   4.689   1.259
 5723SOL    HW118068   6.812   4.625   1.184
 5723SOL    HW218069   6.901   4.753   1.232
 5724SOL     OW18070   4.916   2.926   5.952
 5724SOL    HW118071   4.996   2.928   5.892
 5724SOL    HW218072   4.849   2.861   5.916
 5725SOL     OW18073   5.548   6.532   5.332
 5725SOL    HW118074   5.618   6.527   5.261
 5725SOL    HW218075   5.581   6.591   5.407
 5726SOL     OW18076   3.677   5.398   5.769
 5726SOL    HW118077   3.581   5.417   5.747
 5726SOL    HW218078   3.733   5.477   5.746
 5727SOL     OW18079   5.990   1.984   3.744
 5727SOL    HW118080   5.956   1.898   3.780
 5727SOL    HW218081   5.945   2.060   3.791
 5728SOL     OW18082   3.871   0.910   4.680
 5728SOL    HW118083   3.965   0.874   4.680
 5728SOL    HW218084   3.820   0.868   4.756
 5729SOL     OW18085   2.309   2.156   4.128
 5729SOL    HW118086   2.297   2.098   4.209
 5729SOL    HW218087   2.267   2.245   4.145
 5730SOL     OW18088   4.246   4.689   6.973
 5730SOL    HW118089   4.208   4.700   0.043
 5730SOL    HW218090   4.328   4.744   6.964
 5731SOL     OW18091   4.554   0.831   4.796
 5731SOL    HW118092   4.470   0.848   4.846
 5731SOL    HW218093   4.625   0.894   4.828
 5732SOL     OW18094   6.052   4.158   3.897
 5732SOL    HW118095   5.955   4.158   3.922
 5732SOL    HW218096   6.064   4.210   3.812
 5733SOL     OW18097   2.370   6.621   1.623
 5733SOL    HW118098   2.291   6.562   1.604
 5733SOL    HW218099   2.420   6.586   1.701
 5734SOL     OW18100   1.993   0.001   5.723
 5734SOL    HW118101   1.935   0.025   5.646
 5734SOL    HW218102   1.988   6.925   5.740
 5735SOL     OW18103   5.288   1.442   0.558
 5735SOL    HW118104   5.302   1.479   0.650
 5735SOL    HW218105   5.231   1.505   0.506
 5736SOL     OW18106   5.325   3.663   6.809
 5736SOL    HW118107   5.393   3.630   6.744
 5736SOL    HW218108   5.246   3.601   6.811
 5737SOL     OW18109   5.182   6.085   2.399
 5737SOL    HW118110   5.238   6.101   2.481
 5737SOL    HW218111   5.099   6.140   2.403
 5738SOL     OW18112   3.269   1.424   1.259
 5738SOL    HW118113   3.194   1.490   1.264
 5738SOL    HW218114   3.344   1.464   1.206
 5739SOL     OW18115   2.231   1.064   5.642
 5739SOL    HW118116   2.303   1.133   5.651
 5739SOL    HW218117   2.245   1.012   5.558
 5740SOL     OW18118   4.901   3.084   2.716
 5740SOL    HW118119   4.862   3.001   2.756
 5740SOL    HW218120   4.880   3.087   2.618
 5741SOL     OW18121   1.495   3.485   3.695
 5741SOL    HW118122   1.511   3.577   3.733
 5741SOL    HW218123   1.581   3.450   3.658
 5742SOL     OW18124   5.917   5.172   2.125
 5742SOL    HW118125   6.009   5.166   2.086
 5742SOL    HW218126   5.914   5.246   2.192
 5743SOL     OW18127   4.137   6.484   6.811
 5743SOL    HW118128   4.198   6.461   6.735
 5743SOL    HW218129   4.108   6.579   6.802
 5744SOL     OW18130   5.520   5.684   3.301
 5744SOL    HW118131   5.501   5.629   3.383
 5744SOL    HW218132   5.438   5.734   3.274
 5745SOL     OW18133   1.151   3.833   2.219
 5745SOL    HW118134   1.099   3.779   2.153
 5745SOL    HW218135   1.092   3.861   2.294
 5746SOL     OW18136   5.690   0.540   3.364
 5746SOL    HW118137   5.747   0.467   3.404
 5746SOL    HW218138   5.646   0.591   3.438
 5747SOL     OW18139   2.129   6.886   1.795
 5747SOL    HW118140   2.142   6.791   1.824
 5747SOL    HW218141   2.145   6.892   1.696
 5748SOL     OW18142   6.232   6.717   7.016
 5748SOL    HW118143   6.218   6.619   7.000
 5748SOL    HW218144   6.188   6.744   0.079
 5749SOL     OW18145   2.350   6.368   6.804
 5749SOL    HW118146   2.444   6.336   6.798
 5749SOL    HW218147   2.325   6.381   6.900
 5750SOL     OW18148   6.233   2.874   3.794
 5750SOL    HW118149   6.170   2.802   3.763
 5750SOL    HW218150   6.302   2.833   3.854
 5751SOL     OW18151   0.177   3.635   3.785
 5751SOL    HW118152   0.263   3.682   3.765
 5751SOL    HW218153   0.101   3.699   3.779
 5752SOL     OW18154   5.992   1.355   6.861
 5752SOL    HW118155   5.930   1.281   6.835
 5752SOL    HW218156   6.087   1.323   6.856
 5753SOL     OW18157   3.593   3.393   4.371
 5753SOL    HW118158   3.514   3.333   4.369
 5753SOL    HW218159   3.567   3.481   4.411
 5754SOL     OW18160   6.083   6.763   0.910
 5754SOL    HW118161   6.096   6.687   0.847
 5754SOL    HW218162   6.004   6.745   0.969
 5755SOL     OW18163   0.591   3.226   6.343
 5755SOL    HW118164   0.517   3.291   6.357
 5755SOL    HW218165   0.666   3.270   6.293
 5756SOL     OW18166   6.405   6.646   1.880
 5756SOL    HW118167   6.328   6.589   1.853
 5756SOL    HW218168   6.374   6.714   1.947
 5757SOL     OW18169   1.026   1.944   4.300
 5757SOL    HW118170   1.058   1.857   4.264
 5757SOL    HW218171   1.017   2.010   4.225
 5758SOL     OW18172   6.512   6.991   3.063
 5758SOL    HW118173   6.528   6.958   2.970
 5758SOL    HW218174   6.450   6.928   3.110
 5759SOL     OW18175   2.131   6.373   3.322
 5759SOL    HW118176   2.069   6.447   3.348
 5759SOL    HW218177   2.225   6.400   3.343
 5760SOL     OW18178   0.410   2.040   0.446
 5760SOL    HW118179   0.467   2.048   0.528
 5760SOL    HW218180   0.461   1.993   0.374
 5761SOL     OW18181   6.597   0.022   5.159
 5761SOL    HW118182   6.645   6.966   5.199
 5761SOL    HW218183   6.557   0.077   5.233
 5762SOL     OW18184   1.047   5.774   5.565
 5762SOL    HW118185   1.058   5.871   5.544
 5762SOL    HW218186   0.952   5.755   5.588
 5763SOL     OW18187   4.924   0.485   0.202
 5763SOL    HW118188   4.994   0.417   0.222
 5763SOL    HW218189   4.908   0.541   0.283
 5764SOL     OW18190   3.530   6.427   4.494
 5764SOL    HW118191   3.454   6.362   4.499
 5764SOL    HW218192   3.582   6.412   4.410
 5765SOL     OW18193   6.970   6.090   2.506
 5765SOL    HW118194   6.883   6.076   2.459
 5765SOL    HW218195   6.956   6.087   2.605
 5766SOL     OW18196   0.848   0.794   4.735
 5766SOL    HW118197   0.926   0.840   4.776
 5766SOL    HW218198   0.876   0.703   4.702
 5767SOL     OW18199   6.138   6.772   0.240
 5767SOL    HW118200   6.170   6.679   0.260
 5767SOL    HW218201   6.064   6.795   0.303
 5768SOL     OW18202   1.045   0.880   4.906
 5768SOL    HW118203   1.080   0.971   4.887
 5768SOL    HW218204   1.117   0.825   4.948
 5769SOL     OW18205   1.229   2.762   5.854
 5769SOL    HW118206   1.218   2.840   5.792
 5769SOL    HW218207   1.313   2.713   5.833
 5770SOL     OW18208   1.373   4.499   2.750
 5770SOL    HW118209   1.301   4.561   2.715
 5770SOL    HW218210   1.362   4.409   2.707
 5771SOL     OW18211   2.750   5.910   3.072
 5771SOL    HW118212   2.813   5.961   3.013
 5771SOL    HW218213   2.686   5.859   3.015
 5772SOL     OW18214   2.728   0.605   2.984
 5772SOL    HW118215   2.665   0.681   2.973
 5772SOL    HW218216   2.709   0.558   3.071
 5773SOL     OW18217   5.682   0.587   4.044
 5773SOL    HW118218   5.730   0.583   4.132
 5773SOL    HW218219   5.730   0.529   3.978
 5774SOL     OW18220   1.203   6.032   3.874
 5774SOL    HW118221   1.288   6.050   3.823
 5774SOL    HW218222   1.132   6.095   3.843
 5775SOL     OW18223   5.383   5.087   2.647
 5775SOL    HW118224   5.360   5.043   2.734
 5775SOL    HW218225   5.450   5.032   2.598
 5776SOL     OW18226   3.774   0.794   3.734
 5776SOL    HW118227   3.744   0.706   3.697
 5776SOL    HW218228   3.708   0.865   3.711
 5777SOL     OW18229   0.966   0.393   1.559
 5777SOL    HW118230   1.063   0.370   1.573
 5777SOL    HW218231   0.909   0.336   1.618
 5778SOL     OW18232   0.378   1.163   0.104
 5778SOL    HW118233   0.397   1.146   0.200
 5778SOL    HW218234   0.451   1.123   0.048
 5779SOL     OW18235   5.596   1.630   0.776
 5779SOL    HW118236   5.619   1.583   0.861
 5779SOL    HW218237   5.501   1.609   0.751
 5780SOL     OW18238   5.186   4.901   4.321
 5780SOL    HW118239   5.091   4.919   4.344
 5780SOL    HW218240   5.207   4.806   4.340
 5781SOL     OW18241   1.329   6.008   5.824
 5781SOL    HW118242   1.332   5.939   5.752
 5781SOL    HW218243   1.297   6.094   5.786
 5782SOL     OW18244   6.017   0.909   0.883
 5782SOL    HW118245   5.976   0.954   0.803
 5782SOL    HW218246   5.957   0.835   0.913
 5783SOL     OW18247   2.455   2.522   6.360
 5783SOL    HW118248   2.462   2.548   6.263
 5783SOL    HW218249   2.542   2.538   6.405
 5784SOL     OW18250   6.655   6.689   0.448
 5784SOL    HW118251   6.698   6.727   0.367
 5784SOL    HW218252   6.694   6.731   0.530
 5785SOL     OW18253   1.341   2.122   1.861
 5785SOL    HW118254   1.285   2.042   1.882
 5785SOL    HW218255   1.337   2.186   1.938
 5786SOL     OW18256   6.607   5.687   1.856
 5786SOL    HW118257   6.526   5.677   1.913
 5786SOL    HW218258   6.604   5.775   1.809
 5787SOL     OW18259   1.865   3.198   6.300
 5787SOL    HW118260   1.912   3.283   6.323
 5787SOL    HW218261   1.920   3.121   6.329
 5788SOL     OW18262   3.231   0.331   3.762
 5788SOL    HW118263   3.277   0.397   3.822
 5788SOL    HW218264   3.135   0.323   3.790
 5789SOL     OW18265   3.116   4.749   6.098
 5789SOL    HW118266   3.097   4.653   6.081
 5789SOL    HW218267   3.075   4.776   6.186
 5790SOL     OW18268   1.446   3.858   4.218
 5790SOL    HW118269   1.498   3.817   4.293
 5790SOL    HW218270   1.441   3.957   4.230
 5791SOL     OW18271   1.394   0.968   3.441
 5791SOL    HW118272   1.413   1.030   3.365
 5791SOL    HW218273   1.458   0.891   3.438
 5792SOL     OW18274   0.184   2.241   3.092
 5792SOL    HW118275   0.175   2.157   3.038
 5792SOL    HW218276   0.230   2.311   3.037
 5793SOL     OW18277   6.171   0.831   4.884
 5793SOL    HW118278   6.236   0.790   4.948
 5793SOL    HW218279   6.211   0.833   4.792
 5794SOL     OW18280   6.892   4.165   6.664
 5794SOL    HW118281   6.887   4.070   6.692
 5794SOL    HW218282   6.986   4.197   6.670
 5795SOL     OW18283   6.871   4.729   6.702
 5795SOL    HW118284   6.792   4.672   6.722
 5795SOL    HW218285   6.933   4.681   6.640
 5796SOL     OW18286   2.778   2.239   0.739
 5796SOL    HW118287   2.826   2.324   0.718
 5796SOL    HW218288   2.807   2.168   0.674
 5797SOL     OW18289   3.121   2.873   5.432
 5797SOL    HW118290   3.062   2.818   5.490
 5797SOL    HW218291   3.171   2.939   5.487
 5798SOL     OW18292   6.164   5.142   4.331
 5798SOL    HW118293   6.237   5.116   4.395
 5798SOL    HW218294   6.154   5.241   4.331
 5799SOL     OW18295   5.444   0.743   3.932
 5799SOL    HW118296   5.430   0.703   3.841
 5799SOL    HW218297   5.514   0.690   3.981
 5800SOL     OW18298   5.868   6.158   6.283
 5800SOL    HW118299   5.944   6.208   6.241
 5800SOL    HW218300   5.844   6.201   6.370
 5801SOL     OW18301   1.707   1.511   2.444
 5801SOL    HW118302   1.695   1.415   2.417
 5801SOL    HW218303   1.756   1.559   2.372
 5802SOL     OW18304   0.091   2.821   4.727
 5802SOL    HW118305   0.177   2.814   4.676
 5802SOL    HW218306   0.098   2.897   4.792
 5803SOL     OW18307   1.690   5.048   0.993
 5803SOL    HW118308   1.689   5.119   1.063
 5803SOL    HW218309   1.784   5.014   0.980
 5804SOL     OW18310   0.463   2.489   6.355
 5804SOL    HW118311   0.418   2.480   6.267
 5804SOL    HW218312   0.398   2.468   6.428
 5805SOL     OW18313   5.230   3.284   6.660
 5805SOL    HW118314   5.200   3.362   6.715
 5805SOL    HW218315   5.270   3.318   6.574
 5806SOL     OW18316   6.480   6.964   6.423
 5806SOL    HW118317   6.415   0.005   6.463
 5806SOL    HW218318   6.438   6.874   6.414
 5807SOL     OW18319   2.801   4.209   1.261
 5807SOL    HW118320   2.871   4.210   1.333
 5807SOL    HW218321   2.837   4.160   1.182
 5808SOL     OW18322   6.265   1.426   3.565
 5808SOL    HW118323   6.359   1.423   3.533
 5808SOL    HW218324   6.247   1.515   3.607
 5809SOL     OW18325   0.656   2.658   3.465
 5809SOL    HW118326   0.737   2.615   3.504
 5809SOL    HW218327   0.580   2.650   3.529
 5810SOL     OW18328   2.850   2.177   2.796
 5810SOL    HW118329   2.942   2.144   2.775
 5810SOL    HW218330   2.810   2.216   2.714
 5811SOL     OW18331   2.898   0.130   2.223
 5811SOL    HW118332   2.833   0.089   2.288
 5811SOL    HW218333   2.849   0.159   2.141
 5812SOL     OW18334   4.078   0.648   4.757
 5812SOL    HW118335   4.028   0.638   4.843
 5812SOL    HW218336   4.164   0.596   4.762
 5813SOL     OW18337   1.780   1.865   5.263
 5813SOL    HW118338   1.785   1.943   5.326
 5813SOL    HW218339   1.823   1.785   5.305
 5814SOL     OW18340   0.482   5.317   1.511
 5814SOL    HW118341   0.448   5.318   1.417
 5814SOL    HW218342   0.408   5.341   1.573
 5815SOL     OW18343   4.149   6.735   4.374
 5815SOL    HW118344   4.073   6.738   4.439
 5815SOL    HW218345   4.234   6.711   4.422
 5816SOL     OW18346   5.446   6.584   0.245
 5816SOL    HW118347   5.468   6.491   0.275
 5816SOL    HW218348   5.389   6.580   0.163
 5817SOL     OW18349   6.225   2.795   6.555
 5817SOL    HW118350   6.173   2.870   6.514
 5817SOL    HW218351   6.217   2.713   6.498
 5818SOL     OW18352   6.529   6.556   5.160
 5818SOL    HW118353   6.497   6.519   5.073
 5818SOL    HW218354   6.517   6.488   5.232
 5819SOL     OW18355   6.096   0.102   0.960
 5819SOL    HW118356   6.097   0.044   1.041
 5819SOL    HW218357   6.185   0.147   0.950
 5820SOL     OW18358   5.645   4.770   1.908
 5820SOL    HW118359   5.606   4.759   1.999
 5820SOL    HW218360   5.636   4.685   1.857
 5821SOL     OW18361   2.924   0.271   2.658
 5821SOL    HW118362   2.831   0.295   2.632
 5821SOL    HW218363   2.962   0.344   2.716
 5822SOL     OW18364   0.213   0.845   2.563
 5822SOL    HW118365   0.150   0.769   2.579
 5822SOL    HW218366   0.160   0.928   2.543
 5823SOL     OW18367   1.970   2.769   4.278
 5823SOL    HW118368   1.943   2.837   4.210
 5823SOL    HW218369   1.934   2.680   4.252
 5824SOL     OW18370   5.158   0.393   4.062
 5824SOL    HW118371   5.219   0.324   4.100
 5824SOL    HW218372   5.157   0.385   3.962
 5825SOL     OW18373   3.445   1.562   1.900
 5825SOL    HW118374   3.496   1.630   1.846
 5825SOL    HW218375   3.349   1.589   1.904
 5826SOL     OW18376   0.402   6.722   3.717
 5826SOL    HW118377   0.454   6.788   3.662
 5826SOL    HW218378   0.324   6.689   3.664
 5827SOL     OW18379   1.753   4.478   5.408
 5827SOL    HW118380   1.755   4.462   5.506
 5827SOL    HW218381   1.769   4.575   5.389
 5828SOL     OW18382   6.173   2.401   1.159
 5828SOL    HW118383   6.270   2.406   1.136
 5828SOL    HW218384   6.162   2.363   1.250
 5829SOL     OW18385   1.927   1.613   1.238
 5829SOL    HW118386   1.852   1.579   1.293
 5829SOL    HW218387   1.974   1.686   1.288
 5830SOL     OW18388   1.984   0.740   5.533
 5830SOL    HW118389   1.918   0.799   5.579
 5830SOL    HW218390   1.956   0.645   5.542
 5831SOL     OW18391   5.573   5.660   2.849
 5831SOL    HW118392   5.625   5.718   2.786
 5831SOL    HW218393   5.619   5.660   2.938
 5832SOL     OW18394   3.429   3.196   4.411
 5832SOL    HW118395   3.465   3.106   4.389
 5832SOL    HW218396   3.329   3.194   4.404
 5833SOL     OW18397   2.974   3.505   5.043
 5833SOL    HW118398   2.980   3.586   4.984
 5833SOL    HW218399   3.066   3.470   5.062
 5834SOL     OW18400   5.860   0.983   6.996
 5834SOL    HW118401   5.824   1.074   7.019
 5834SOL    HW218402   5.810   0.947   6.917
 5835SOL     OW18403   5.293   3.081   4.572
 5835SOL    HW118404   5.197   3.107   4.568
 5835SOL    HW218405   5.308   3.001   4.513
 5836SOL     OW18406   3.441   0.034   3.436
 5836SOL    HW118407   3.444   0.058   3.339
 5836SOL    HW218408   3.407   6.963   3.446
 5837SOL     OW18409   4.297   4.231   5.974
 5837SOL    HW118410   4.357   4.256   6.050
 5837SOL    HW218411   4.216   4.185   6.010
 5838SOL     OW18412   0.737   0.754   5.583
 5838SOL    HW118413   0.690   0.709   5.659
 5838SOL    HW218414   0.832   0.774   5.610
 5839SOL     OW18415   0.180   2.392   2.428
 5839SOL    HW118416   0.209   2.336   2.351
 5839SOL    HW218417   0.103   2.450   2.401
 5840SOL     OW18418   3.343   5.526   0.385
 5840SOL    HW118419   3.338   5.460   0.461
 5840SOL    HW218420   3.304   5.484   0.303
 5841SOL     OW18421   6.161   1.855   3.298
 5841SOL    HW118422   6.112   1.768   3.293
 5841SOL    HW218423   6.162   1.887   3.393
 5842SOL     OW18424   3.899   2.225   0.958
 5842SOL    HW118425   3.884   2.313   0.912
 5842SOL    HW218426   3.890   2.238   1.057
 5843SOL     OW18427   0.680   2.702   1.428
 5843SOL    HW118428   0.748   2.770   1.400
 5843SOL    HW218429   0.621   2.680   1.350
 5844SOL     OW18430   1.650   6.304   6.455
 5844SOL    HW118431   1.738   6.349   6.441
 5844SOL    HW218432   1.646   6.219   6.402
 5845SOL     OW18433   1.889   2.853   4.745
 5845SOL    HW118434   1.891   2.953   4.755
 5845SOL    HW218435   1.968   2.813   4.791
 5846SOL     OW18436   0.149   3.848   6.624
 5846SOL    HW118437   0.211   3.854   6.546
 5846SOL    HW218438   0.167   3.762   6.673
 5847SOL     OW18439   1.585   2.437   4.296
 5847SOL    HW118440   1.542   2.521   4.331
 5847SOL    HW218441   1.612   2.380   4.373
 5848SOL     OW18442   0.809   4.545   3.622
 5848SOL    HW118443   0.735   4.601   3.659
 5848SOL    HW218444   0.864   4.509   3.697
 5849SOL     OW18445   3.005   0.008   6.037
 5849SOL    HW118446   2.906   0.025   6.027
 5849SOL    HW218447   3.048   0.087   6.081
 5850SOL     OW18448   0.837   4.560   3.221
 5850SOL    HW118449   0.778   4.554   3.302
 5850SOL    HW218450   0.886   4.474   3.209
 5851SOL     OW18451   6.168   3.414   1.961
 5851SOL    HW118452   6.132   3.342   2.021
 5851SOL    HW218453   6.175   3.379   1.868
 5852SOL     OW18454   3.700   6.597   3.173
 5852SOL    HW118455   3.754   6.560   3.097
 5852SOL    HW218456   3.740   6.566   3.259
 5853SOL     OW18457   5.157   4.196   5.361
 5853SOL    HW118458   5.074   4.169   5.312
 5853SOL    HW218459   5.164   4.295   5.363
 5854SOL     OW18460   0.802   1.270   6.608
 5854SOL    HW118461   0.772   1.181   6.573
 5854SOL    HW218462   0.780   1.341   6.542
 5855SOL     OW18463   1.202   1.880   4.715
 5855SOL    HW118464   1.141   1.915   4.786
 5855SOL    HW218465   1.237   1.791   4.743
 5856SOL     OW18466   1.095   5.464   3.600
 5856SOL    HW118467   1.117   5.415   3.684
 5856SOL    HW218468   0.997   5.484   3.597
 5857SOL     OW18469   0.267   2.464   5.373
 5857SOL    HW118470   0.272   2.490   5.469
 5857SOL    HW218471   0.174   2.479   5.339
 5858SOL     OW18472   2.932   6.614   3.689
 5858SOL    HW118473   2.982   6.608   3.603
 5858SOL    HW218474   2.844   6.659   3.675
 5859SOL     OW18475   5.777   5.459   1.826
 5859SOL    HW118476   5.719   5.495   1.899
 5859SOL    HW218477   5.735   5.480   1.738
 5860SOL     OW18478   6.999   4.007   0.898
 5860SOL    HW118479   0.018   4.095   0.874
 5860SOL    HW218480   0.030   3.964   0.971
 5861SOL     OW18481   6.154   1.414   3.933
 5861SOL    HW118482   6.075   1.410   3.994
 5861SOL    HW218483   6.145   1.494   3.873
 5862SOL     OW18484   5.191   4.974   3.966
 5862SOL    HW118485   5.171   5.053   4.024
 5862SOL    HW218486   5.156   4.890   4.009
 5863SOL     OW18487   2.089   1.551   0.310
 5863SOL    HW118488   2.096   1.459   0.351
 5863SOL    HW218489   2.180   1.585   0.291
 5864SOL     OW18490   4.487   5.178   0.721
 5864SOL    HW118491   4.482   5.078   0.715
 5864SOL    HW218492   4.536   5.213   0.642
 5865SOL     OW18493   4.162   0.790   2.828
 5865SOL    HW118494   4.099   0.718   2.856
 5865SOL    HW218495   4.222   0.756   2.755
 5866SOL     OW18496   3.403   1.549   0.049
 5866SOL    HW118497   3.441   1.467   0.093
 5866SOL    HW218498   3.447   1.561   6.982
 5867SOL     OW18499   6.470   3.135   1.645
 5867SOL    HW118500   6.439   3.229   1.656
 5867SOL    HW218501   6.454   3.105   1.551
 5868SOL     OW18502   0.618   6.501   5.131
 5868SOL    HW118503   0.603   6.544   5.042
 5868SOL    HW218504   0.555   6.424   5.141
 5869SOL     OW18505   2.526   4.571   3.928
 5869SOL    HW118506   2.598   4.600   3.865
 5869SOL    HW218507   2.515   4.639   4.001
 5870SOL     OW18508   5.033   5.952   4.015
 5870SOL    HW118509   4.968   5.926   4.087
 5870SOL    HW218510   4.984   5.971   3.931
 5871SOL     OW18511   2.983   3.935   0.720
 5871SOL    HW118512   3.062   3.954   0.778
 5871SOL    HW218513   2.925   3.866   0.763
 5872SOL     OW18514   4.121   5.461   4.077
 5872SOL    HW118515   4.187   5.521   4.032
 5872SOL    HW218516   4.058   5.425   4.008
 5873SOL     OW18517   1.967   2.752   0.186
 5873SOL    HW118518   1.952   2.695   0.105
 5873SOL    HW218519   2.063   2.781   0.189
 5874SOL     OW18520   0.608   4.504   6.242
 5874SOL    HW118521   0.600   4.572   6.314
 5874SOL    HW218522   0.632   4.415   6.283
 5875SOL     OW18523   3.667   2.051   0.894
 5875SOL    HW118524   3.705   1.960   0.911
 5875SOL    HW218525   3.742   2.116   0.876
 5876SOL     OW18526   4.595   3.711   6.012
 5876SOL    HW118527   4.679   3.658   6.007
 5876SOL    HW218528   4.521   3.654   6.048
 5877SOL     OW18529   5.337   0.178   2.556
 5877SOL    HW118530   5.252   0.153   2.510
 5877SOL    HW218531   5.396   0.098   2.562
 5878SOL     OW18532   4.959   3.654   2.857
 5878SOL    HW118533   5.058   3.666   2.865
 5878SOL    HW218534   4.940   3.588   2.784
 5879SOL     OW18535   3.091   4.686   5.260
 5879SOL    HW118536   3.014   4.628   5.234
 5879SOL    HW218537   3.134   4.724   5.178
 5880SOL     OW18538   6.072   2.813   0.251
 5880SOL    HW118539   6.147   2.859   0.204
 5880SOL    HW218540   6.049   2.862   0.335
 5881SOL     OW18541   1.514   6.067   2.502
 5881SOL    HW118542   1.468   6.018   2.577
 5881SOL    HW218543   1.537   6.159   2.532
 5882SOL     OW18544   1.571   5.244   5.252
 5882SOL    HW118545   1.509   5.170   5.278
 5882SOL    HW218546   1.529   5.301   5.182
 5883SOL     OW18547   0.056   5.653   0.179
 5883SOL    HW118548   0.113   5.622   0.103
 5883SOL    HW218549   0.106   5.643   0.265
 5884SOL     OW18550   0.007   1.418   2.403
 5884SOL    HW118551   0.089   1.412   2.459
 5884SOL    HW218552   7.009   1.513   2.382
 5885SOL     OW18553   0.157   5.925   1.616
 5885SOL    HW118554   0.059   5.942   1.617
 5885SOL    HW218555   0.176   5.836   1.656
 5886SOL     OW18556   1.997   4.862   3.501
 5886SOL    HW118557   2.033   4.874   3.409
 5886SOL    HW218558   1.919   4.922   3.516
 5887SOL     OW18559   2.869   4.382   0.637
 5887SOL    HW118560   2.848   4.298   0.688
 5887SOL    HW218561   2.793   4.403   0.576
 5888SOL     OW18562   2.914   5.812   1.359
 5888SOL    HW118563   2.951   5.766   1.440
 5888SOL    HW218564   2.986   5.864   1.315
 5889SOL     OW18565   5.055   1.658   2.149
 5889SOL    HW118566   5.072   1.561   2.165
 5889SOL    HW218567   4.958   1.673   2.135
 5890SOL     OW18568   2.420   4.360   3.406
 5890SOL    HW118569   2.385   4.268   3.424
 5890SOL    HW218570   2.510   4.369   3.447
 5891SOL     OW18571   2.401   3.152   6.526
 5891SOL    HW118572   2.441   3.212   6.456
 5891SOL    HW218573   2.325   3.101   6.486
 5892SOL     OW18574   0.652   2.359   0.624
 5892SOL    HW118575   0.661   2.381   0.721
 5892SOL    HW218576   0.567   2.400   0.588
 5893SOL     OW18577   0.596   6.122   1.646
 5893SOL    HW118578   0.694   6.138   1.635
 5893SOL    HW218579   0.545   6.185   1.588
 5894SOL     OW18580   2.401   5.144   6.594
 5894SOL    HW118581   2.369   5.170   6.503
 5894SOL    HW218582   2.348   5.192   6.664
 5895SOL     OW18583   5.888   3.186   4.000
 5895SOL    HW118584   5.818   3.250   4.033
 5895SOL    HW218585   5.972   3.200   4.052
 5896SOL     OW18586   5.479   2.681   1.542
 5896SOL    HW118587   5.395   2.642   1.504
 5896SOL    HW218588   5.515   2.750   1.479
 5897SOL     OW18589   3.532   3.113   0.543
 5897SOL    HW118590   3.462   3.045   0.521
 5897SOL    HW218591   3.610   3.068   0.586
 5898SOL     OW18592   3.223   0.852   6.918
 5898SOL    HW118593   3.196   0.894   6.831
 5898SOL    HW218594   3.232   0.754   6.907
 5899SOL     OW18595   0.629   0.081   6.859
 5899SOL    HW118596   0.694   0.115   6.927
 5899SOL    HW218597   0.676   0.018   6.797
 5900SOL     OW18598   5.651   6.620   2.724
 5900SOL    HW118599   5.577   6.686   2.740
 5900SOL    HW218600   5.707   6.612   2.807
 5901SOL     OW18601   1.911   0.779   4.994
 5901SOL    HW118602   1.836   0.844   4.983
 5901SOL    HW218603   1.970   0.783   4.914
 5902SOL     OW18604   3.972   3.784   6.223
 5902SOL    HW118605   3.924   3.717   6.165
 5902SOL    HW218606   3.990   3.743   6.312
 5903SOL     OW18607   5.858   1.885   5.324
 5903SOL    HW118608   5.807   1.885   5.410
 5903SOL    HW218609   5.833   1.804   5.270
 5904SOL     OW18610   6.754   4.996   1.633
 5904SOL    HW118611   6.837   4.955   1.670
 5904SOL    HW218612   6.675   4.940   1.658
 5905SOL     OW18613   6.627   2.279   4.816
 5905SOL    HW118614   6.554   2.212   4.798
 5905SOL    HW218615   6.596   2.345   4.884
 5906SOL     OW18616   4.301   0.648   5.111
 5906SOL    HW118617   4.384   0.630   5.165
 5906SOL    HW218618   4.221   0.616   5.161
 5907SOL     OW18619   0.662   3.430   5.767
 5907SOL    HW118620   0.734   3.453   5.701
 5907SOL    HW218621   0.618   3.345   5.740
 5908SOL     OW18622   4.191   3.816   0.215
 5908SOL    HW118623   4.153   3.838   0.125
 5908SOL    HW218624   4.291   3.818   0.210
 5909SOL     OW18625   5.992   4.934   3.485
 5909SOL    HW118626   6.032   4.959   3.573
 5909SOL    HW218627   6.046   4.860   3.443
 5910SOL     OW18628   2.665   4.517   1.439
 5910SOL    HW118629   2.599   4.580   1.480
 5910SOL    HW218630   2.687   4.445   1.505
 5911SOL     OW18631   5.929   0.611   5.741
 5911SOL    HW118632   5.940   0.653   5.832
 5911SOL    HW218633   5.929   0.511   5.750
 5912SOL     OW18634   0.305   3.471   6.075
 5912SOL    HW118635   0.237   3.530   6.031
 5912SOL    HW218636   0.299   3.379   6.037
 5913SOL     OW18637   2.170   2.587   4.438
 5913SOL    HW118638   2.078   2.563   4.406
 5913SOL    HW218639   2.196   2.676   4.400
 5914SOL     OW18640   1.017   5.999   0.409
 5914SOL    HW118641   1.111   6.019   0.436
 5914SOL    HW218642   0.954   6.051   0.466
 5915SOL     OW18643   5.644   3.983   4.219
 5915SOL    HW118644   5.588   4.035   4.155
 5915SOL    HW218645   5.586   3.944   4.291
 5916SOL     OW18646   2.939   1.083   6.512
 5916SOL    HW118647   2.925   1.180   6.493
 5916SOL    HW218648   3.025   1.071   6.562
 5917SOL     OW18649   3.589   4.045   2.153
 5917SOL    HW118650   3.682   4.009   2.156
 5917SOL    HW218651   3.576   4.110   2.227
 5918SOL     OW18652   2.876   2.143   4.001
 5918SOL    HW118653   2.792   2.151   4.053
 5918SOL    HW218654   2.954   2.143   4.064
 5919SOL     OW18655   1.660   1.973   7.020
 5919SOL    HW118656   1.697   1.893   6.972
 5919SOL    HW218657   1.646   1.950   0.094
 5920SOL     OW18658   2.533   5.423   6.684
 5920SOL    HW118659   2.559   5.465   6.597
 5920SOL    HW218660   2.536   5.323   6.675
 5921SOL     OW18661   3.941   5.748   4.830
 5921SOL    HW118662   3.900   5.702   4.751
 5921SOL    HW218663   3.973   5.838   4.803
 5922SOL     OW18664   6.955   5.265   2.071
 5922SOL    HW118665   0.029   5.291   2.062
 5922SOL    HW218666   6.914   5.319   2.144
 5923SOL     OW18667   0.651   1.272   3.345
 5923SOL    HW118668   0.748   1.249   3.357
 5923SOL    HW218669   0.640   1.322   3.259
 5924SOL     OW18670   5.868   2.098   4.719
 5924SOL    HW118671   5.792   2.073   4.780
 5924SOL    HW218672   5.922   2.017   4.700
 5925SOL     OW18673   6.586   5.751   0.694
 5925SOL    HW118674   6.661   5.760   0.629
 5925SOL    HW218675   6.515   5.818   0.673
 5926SOL     OW18676   3.270   6.696   1.941
 5926SOL    HW118677   3.339   6.646   1.889
 5926SOL    HW218678   3.186   6.643   1.945
 5927SOL     OW18679   2.302   4.957   1.576
 5927SOL    HW118680   2.268   5.046   1.545
 5927SOL    HW218681   2.259   4.933   1.663
 5928SOL     OW18682   0.309   6.313   1.083
 5928SOL    HW118683   0.408   6.322   1.095
 5928SOL    HW218684   0.268   6.286   1.170
 5929SOL     OW18685   0.122   6.859   5.703
 5929SOL    HW118686   0.222   6.869   5.709
 5929SOL    HW218687   0.099   6.816   5.616
 5930SOL     OW18688   6.279   1.426   5.282
 5930SOL    HW118689   6.249   1.376   5.201
 5930SOL    HW218690   6.241   1.519   5.280
 5931SOL     OW18691   5.398   5.047   0.888
 5931SOL    HW118692   5.299   5.039   0.873
 5931SOL    HW218693   5.416   5.125   0.947
 5932SOL     OW18694   2.314   6.923   0.135
 5932SOL    HW118695   2.413   6.929   0.122
 5932SOL    HW218696   2.268   6.957   0.053
 5933SOL     OW18697   6.050   2.410   2.838
 5933SOL    HW118698   6.017   2.420   2.744
 5933SOL    HW218699   5.975   2.425   2.902
 5934SOL     OW18700   4.145   3.278   2.142
 5934SOL    HW118701   4.186   3.218   2.211
 5934SOL    HW218702   4.071   3.230   2.096
 5935SOL     OW18703   3.879   2.973   3.266
 5935SOL    HW118704   3.940   3.043   3.303
 5935SOL    HW218705   3.885   2.972   3.167
 5936SOL     OW18706   6.890   6.231   6.633
 5936SOL    HW118707   6.880   6.246   6.534
 5936SOL    HW218708   6.850   6.143   6.657
 5937SOL     OW18709   0.956   4.341   0.151
 5937SOL    HW118710   0.990   4.422   0.103
 5937SOL    HW218711   0.932   4.366   0.245
 5938SOL     OW18712   2.692   4.838   0.593
 5938SOL    HW118713   2.593   4.837   0.580
 5938SOL    HW218714   2.718   4.917   0.648
 5939SOL     OW18715   1.392   0.703   2.407
 5939SOL    HW118716   1.317   0.691   2.342
 5939SOL    HW218717   1.398   0.800   2.433
 5940SOL     OW18718   4.004   4.853   3.412
 5940SOL    HW118719   3.929   4.899   3.365
 5940SOL    HW218720   4.089   4.905   3.400
 5941SOL     OW18721   6.191   2.450   3.299
 5941SOL    HW118722   6.203   2.541   3.260
 5941SOL    HW218723   6.252   2.386   3.254
 5942SOL     OW18724   6.822   1.113   4.820
 5942SOL    HW118725   6.735   1.129   4.774
 5942SOL    HW218726   6.861   1.201   4.849
 5943SOL     OW18727   1.720   5.349   1.023
 5943SOL    HW118728   1.791   5.418   1.034
 5943SOL    HW218729   1.653   5.357   1.097
 5944SOL     OW18730   5.272   2.517   2.635
 5944SOL    HW118731   5.196   2.579   2.615
 5944SOL    HW218732   5.258   2.431   2.586
 5945SOL     OW18733   6.732   5.536   6.468
 5945SOL    HW118734   6.689   5.501   6.551
 5945SOL    HW218735   6.677   5.511   6.388
 5946SOL     OW18736   3.697   2.630   5.476
 5946SOL    HW118737   3.707   2.532   5.458
 5946SOL    HW218738   3.787   2.671   5.487
 5947SOL     OW18739   4.779   4.028   2.593
 5947SOL    HW118740   4.816   3.988   2.509
 5947SOL    HW218741   4.789   3.962   2.668
 5948SOL     OW18742   3.146   5.259   3.053
 5948SOL    HW118743   3.059   5.248   3.100
 5948SOL    HW218744   3.220   5.223   3.110
 5949SOL     OW18745   4.899   4.373   3.382
 5949SOL    HW118746   4.817   4.406   3.430
 5949SOL    HW218747   4.933   4.290   3.427
 5950SOL     OW18748   6.416   2.351   4.246
 5950SOL    HW118749   6.465   2.397   4.172
 5950SOL    HW218750   6.483   2.311   4.309
 5951SOL     OW18751   1.954   0.853   3.933
 5951SOL    HW118752   1.875   0.793   3.943
 5951SOL    HW218753   2.026   0.826   3.996
 5952SOL     OW18754   0.344   6.116   4.444
 5952SOL    HW118755   0.398   6.197   4.421
 5952SOL    HW218756   0.316   6.069   4.361
 5953SOL     OW18757   0.496   3.153   6.088
 5953SOL    HW118758   0.495   3.166   6.187
 5953SOL    HW218759   0.422   3.205   6.046
 5954SOL     OW18760   1.394   4.879   6.236
 5954SOL    HW118761   1.378   4.802   6.298
 5954SOL    HW218762   1.314   4.892   6.178
 5955SOL     OW18763   4.207   4.972   2.844
 5955SOL    HW118764   4.295   5.001   2.880
 5955SOL    HW218765   4.155   4.926   2.916
 5956SOL     OW18766   0.057   2.217   0.051
 5956SOL    HW118767   7.007   2.204   7.005
 5956SOL    HW218768   0.092   2.311   0.046
 5957SOL     OW18769   4.389   7.005   5.875
 5957SOL    HW118770   4.361   6.966   5.788
 5957SOL    HW218771   4.397   0.082   5.866
 5958SOL     OW18772   1.295   5.573   2.328
 5958SOL    HW118773   1.354   5.632   2.274
 5958SOL    HW218774   1.242   5.513   2.268
 5959SOL     OW18775   2.094   1.244   6.276
 5959SOL    HW118776   2.009   1.259   6.327
 5959SOL    HW218777   2.083   1.162   6.219
 5960SOL     OW18778   3.714   6.085   5.275
 5960SOL    HW118779   3.808   6.113   5.296
 5960SOL    HW218780   3.708   6.058   5.179
 5961SOL     OW18781   2.530   1.122   5.809
 5961SOL    HW118782   2.567   1.214   5.798
 5961SOL    HW218783   2.561   1.064   5.734
 5962SOL     OW18784   5.438   4.097   2.348
 5962SOL    HW118785   5.459   4.095   2.250
 5962SOL    HW218786   5.491   4.169   2.392
 5963SOL     OW18787   4.245   4.418   1.718
 5963SOL    HW118788   4.250   4.384   1.624
 5963SOL    HW218789   4.310   4.368   1.775
 5964SOL     OW18790   1.468   3.502   5.593
 5964SOL    HW118791   1.416   3.542   5.517
 5964SOL    HW218792   1.566   3.513   5.575
 5965SOL     OW18793   2.193   1.833   4.129
 5965SOL    HW118794   2.204   1.840   4.030
 5965SOL    HW218795   2.168   1.922   4.166
 5966SOL     OW18796   1.639   5.948   4.256
 5966SOL    HW118797   1.670   5.902   4.173
 5966SOL    HW218798   1.699   6.026   4.275
 5967SOL     OW18799   4.489   5.578   1.504
 5967SOL    HW118800   4.502   5.674   1.482
 5967SOL    HW218801   4.431   5.569   1.585
 5968SOL     OW18802   1.040   1.675   4.179
 5968SOL    HW118803   1.032   1.630   4.268
 5968SOL    HW218804   1.115   1.633   4.127
 5969SOL     OW18805   6.881   2.107   2.829
 5969SOL    HW118806   6.920   2.154   2.750
 5969SOL    HW218807   6.848   2.017   2.801
 5970SOL     OW18808   2.236   4.003   3.697
 5970SOL    HW118809   2.275   4.027   3.609
 5970SOL    HW218810   2.247   4.079   3.761
 5971SOL     OW18811   3.168   5.589   3.539
 5971SOL    HW118812   3.176   5.642   3.454
 5971SOL    HW218813   3.111   5.508   3.523
 5972SOL     OW18814   5.574   0.409   1.698
 5972SOL    HW118815   5.584   0.325   1.644
 5972SOL    HW218816   5.658   0.464   1.689
 5973SOL     OW18817   2.415   4.559   3.226
 5973SOL    HW118818   2.400   4.651   3.264
 5973SOL    HW218819   2.422   4.493   3.300
 5974SOL     OW18820   0.612   4.182   6.833
 5974SOL    HW118821   0.702   4.186   6.878
 5974SOL    HW218822   0.605   4.096   6.782
 5975SOL     OW18823   2.039   2.560   6.003
 5975SOL    HW118824   2.091   2.599   6.079
 5975SOL    HW218825   2.102   2.523   5.935
 5976SOL     OW18826   3.286   3.324   4.789
 5976SOL    HW118827   3.321   3.231   4.781
 5976SOL    HW218828   3.186   3.321   4.789
 5977SOL     OW18829   0.504   3.509   3.141
 5977SOL    HW118830   0.499   3.449   3.221
 5977SOL    HW218831   0.571   3.472   3.076
 5978SOL     OW18832   5.040   5.417   2.292
 5978SOL    HW118833   4.970   5.448   2.356
 5978SOL    HW218834   4.996   5.385   2.208
 5979SOL     OW18835   1.011   0.905   1.628
 5979SOL    HW118836   1.078   0.850   1.578
 5979SOL    HW218837   0.981   0.855   1.709
 5980SOL     OW18838   6.054   2.712   5.657
 5980SOL    HW118839   6.064   2.616   5.633
 5980SOL    HW218840   6.141   2.759   5.644
 5981SOL     OW18841   3.507   1.886   0.679
 5981SOL    HW118842   3.467   1.839   0.758
 5981SOL    HW218843   3.484   1.983   0.683
 5982SOL     OW18844   6.485   2.719   0.073
 5982SOL    HW118845   6.526   2.798   0.119
 5982SOL    HW218846   6.527   2.635   0.108
 5983SOL     OW18847   1.078   0.057   4.911
 5983SOL    HW118848   1.022   0.121   4.964
 5983SOL    HW218849   1.083   6.993   4.960
 5984SOL     OW18850   0.810   0.444   6.092
 5984SOL    HW118851   0.781   0.422   5.998
 5984SOL    HW218852   0.881   0.514   6.090
 5985SOL     OW18853   5.575   3.108   3.923
 5985SOL    HW118854   5.530   3.120   4.012
 5985SOL    HW218855   5.508   3.078   3.855
 5986SOL     OW18856   2.929   3.389   2.753
 5986SOL    HW118857   2.892   3.384   2.660
 5986SOL    HW218858   2.953   3.483   2.774
 5987SOL     OW18859   4.478   0.208   5.684
 5987SOL    HW118860   4.531   0.147   5.625
 5987SOL    HW218861   4.519   0.299   5.684
 5988SOL     OW18862   3.856   6.795   5.720
 5988SOL    HW118863   3.801   6.736   5.778
 5988SOL    HW218864   3.866   6.753   5.630
 5989SOL     OW18865   3.277   1.848   6.967
 5989SOL    HW118866   3.277   1.810   0.037
 5989SOL    HW218867   3.221   1.932   6.966
 5990SOL     OW18868   3.614   5.254   3.224
 5990SOL    HW118869   3.571   5.164   3.223
 5990SOL    HW218870   3.639   5.278   3.318
 5991SOL     OW18871   3.291   5.082   3.453
 5991SOL    HW118872   3.309   5.176   3.421
 5991SOL    HW218873   3.248   5.086   3.543
 5992SOL     OW18874   4.288   1.961   4.438
 5992SOL    HW118875   4.339   1.992   4.358
 5992SOL    HW218876   4.236   1.879   4.415
 5993SOL     OW18877   2.525   4.867   3.985
 5993SOL    HW118878   2.481   4.815   3.912
 5993SOL    HW218879   2.456   4.911   4.042
 5994SOL     OW18880   6.297   3.066   0.690
 5994SOL    HW118881   6.346   3.010   0.623
 5994SOL    HW218882   6.241   3.006   0.748
 5995SOL     OW18883   0.465   3.783   1.997
 5995SOL    HW118884   0.385   3.749   2.047
 5995SOL    HW218885   0.548   3.757   2.046
 5996SOL     OW18886   1.234   5.872   6.026
 5996SOL    HW118887   1.248   5.935   5.950
 5996SOL    HW218888   1.322   5.853   6.071
 5997SOL     OW18889   0.521   0.569   1.344
 5997SOL    HW118890   0.549   0.651   1.394
 5997SOL    HW218891   0.590   0.546   1.276
 5998SOL     OW18892   5.086   2.748   3.134
 5998SOL    HW118893   4.991   2.779   3.133
 5998SOL    HW218894   5.144   2.819   3.094
 5999SOL     OW18895   2.329   2.643   3.029
 5999SOL    HW118896   2.298   2.712   2.964
 5999SOL    HW218897   2.253   2.613   3.086
 6000SOL     OW18898   4.800   0.975   3.436
 6000SOL    HW118899   4.723   1.038   3.441
 6000SOL    HW218900   4.881   1.025   3.405
 6001SOL     OW18901   6.207   1.447   0.615
 6001SOL    HW118902   6.190   1.357   0.577
 6001SOL    HW218903   6.153   1.515   0.567
 6002SOL     OW18904   1.901   0.187   2.270
 6002SOL    HW118905   1.983   0.204   2.215
 6002SOL    HW218906   1.898   0.252   2.346
 6003SOL     OW18907   4.877   4.064   3.920
 6003SOL    HW118908   4.863   4.048   4.017
 6003SOL    HW218909   4.975   4.077   3.903
 6004SOL     OW18910   0.030   3.188   1.525
 6004SOL    HW118911   0.088   3.237   1.590
 6004SOL    HW218912   6.959   3.221   1.533
 6005SOL     OW18913   1.589   6.302   2.048
 6005SOL    HW118914   1.523   6.243   2.095
 6005SOL    HW218915   1.678   6.293   2.092
 6006SOL     OW18916   2.446   5.520   6.919
 6006SOL    HW118917   2.479   5.467   6.841
 6006SOL    HW218918   2.494   5.492   7.002
 6007SOL     OW18919   5.217   3.917   4.454
 6007SOL    HW118920   5.120   3.897   4.446
 6007SOL    HW218921   5.256   3.862   4.527
 6008SOL     OW18922   4.810   4.192   1.623
 6008SOL    HW118923   4.711   4.200   1.606
 6008SOL    HW218924   4.827   4.112   1.680
 6009SOL     OW18925   4.774   1.820   4.943
 6009SOL    HW118926   4.831   1.894   4.977
 6009SOL    HW218927   4.712   1.855   4.873
 6010SOL     OW18928   2.013   4.370   3.268
 6010SOL    HW118929   1.918   4.364   3.235
 6010SOL    HW218930   2.049   4.461   3.248
 6011SOL     OW18931   6.405   2.099   1.793
 6011SOL    HW118932   6.441   2.015   1.832
 6011SOL    HW218933   6.403   2.091   1.693
 6012SOL     OW18934   0.362   3.031   1.384
 6012SOL    HW118935   0.310   3.108   1.347
 6012SOL    HW218936   0.304   2.978   1.446
 6013SOL     OW18937   5.438   0.456   2.469
 6013SOL    HW118938   5.403   0.364   2.489
 6013SOL    HW218939   5.470   0.498   2.554
 6014SOL     OW18940   6.439   0.756   1.169
 6014SOL    HW118941   6.339   0.758   1.181
 6014SOL    HW218942   6.462   0.797   1.081
 6015SOL     OW18943   5.745   0.051   4.295
 6015SOL    HW118944   5.705   0.047   4.204
 6015SOL    HW218945   5.831   0.104   4.292
 6016SOL     OW18946   1.784   0.484   5.331
 6016SOL    HW118947   1.837   0.472   5.415
 6016SOL    HW218948   1.833   0.544   5.268
 6017SOL     OW18949   0.015   3.695   2.629
 6017SOL    HW118950   0.035   3.669   2.724
 6017SOL    HW218951   0.001   3.794   2.624
 6018SOL     OW18952   3.039   4.835   1.457
 6018SOL    HW118953   3.002   4.777   1.384
 6018SOL    HW218954   3.138   4.822   1.462
 6019SOL     OW18955   6.320   6.436   3.136
 6019SOL    HW118956   6.374   6.422   3.053
 6019SOL    HW218957   6.229   6.468   3.111
 6020SOL     OW18958   1.844   6.784   2.868
 6020SOL    HW118959   1.938   6.788   2.903
 6020SOL    HW218960   1.845   6.799   2.769
 6021SOL     OW18961   3.700   0.584   3.321
 6021SOL    HW118962   3.741   0.514   3.379
 6021SOL    HW218963   3.635   0.541   3.258
 6022SOL     OW18964   4.066   0.907   5.572
 6022SOL    HW118965   4.108   0.918   5.662
 6022SOL    HW218966   4.120   0.955   5.504
 6023SOL     OW18967   0.104   1.843   2.256
 6023SOL    HW118968   0.055   1.805   2.177
 6023SOL    HW218969   0.202   1.846   2.236
 6024SOL     OW18970   6.380   5.773   2.706
 6024SOL    HW118971   6.410   5.801   2.797
 6024SOL    HW218972   6.446   5.804   2.637
 6025SOL     OW18973   4.347   2.353   2.651
 6025SOL    HW118974   4.385   2.269   2.612
 6025SOL    HW218975   4.250   2.340   2.671
 6026SOL     OW18976   0.646   4.342   5.722
 6026SOL    HW118977   0.583   4.273   5.757
 6026SOL    HW218978   0.599   4.431   5.717
 6027SOL     OW18979   4.245   3.863   0.618
 6027SOL    HW118980   4.232   3.878   0.716
 6027SOL    HW218981   4.227   3.948   0.568
 6028SOL     OW18982   0.415   4.668   6.777
 6028SOL    HW118983   0.379   4.762   6.781
 6028SOL    HW218984   0.460   4.646   6.864
 6029SOL     OW18985   1.155   5.473   1.410
 6029SOL    HW118986   1.165   5.532   1.329
 6029SOL    HW218987   1.088   5.401   1.390
 6030SOL     OW18988   2.020   6.599   1.755
 6030SOL    HW118989   2.041   6.510   1.714
 6030SOL    HW218990   2.021   6.591   1.855
 6031SOL     OW18991   4.845   0.990   4.289
 6031SOL    HW118992   4.847   1.013   4.387
 6031SOL    HW218993   4.924   0.933   4.267
 6032SOL     OW18994   1.080   2.642   2.496
 6032SOL    HW118995   1.116   2.569   2.554
 6032SOL    HW218996   0.981   2.633   2.489
 6033SOL     OW18997   0.499   6.875   4.512
 6033SOL    HW118998   0.525   6.843   4.421
 6033SOL    HW218999   0.526   6.808   4.581
 6034SOL     OW19000   2.452   4.499   4.873
 6034SOL    HW119001   2.508   4.484   4.955
 6034SOL    HW219002   2.356   4.484   4.895
 6035SOL     OW19003   5.043   0.056   3.765
 6035SOL    HW119004   4.961   7.023   3.752
 6035SOL    HW219005   5.123   0.008   3.729
 6036SOL     OW19006   6.538   0.687   4.669
 6036SOL    HW119007   6.447   0.728   4.673
 6036SOL    HW219008   6.530   0.593   4.634
 6037SOL     OW19009   0.295   5.696   4.520
 6037SOL    HW119010   0.355   5.717   4.443
 6037SOL    HW219011   0.325   5.612   4.565
 6038SOL     OW19012   6.867   4.382   6.810
 6038SOL    HW119013   6.934   4.394   6.884
 6038SOL    HW219014   6.874   4.289   6.773
 6039SOL     OW19015   3.806   3.259   4.227
 6039SOL    HW119016   3.734   3.312   4.271
 6039SOL    HW219017   3.895   3.301   4.247
 6040SOL     OW19018   1.193   0.990   1.199
 6040SOL    HW119019   1.183   1.025   1.292
 6040SOL    HW219020   1.279   1.023   1.159
 6041SOL     OW19021   0.783   3.245   0.044
 6041SOL    HW119022   0.749   3.335   0.016
 6041SOL    HW219023   0.706   3.185   0.065
 6042SOL     OW19024   5.014   5.342   4.815
 6042SOL    HW119025   4.955   5.295   4.880
 6042SOL    HW219026   5.084   5.279   4.782
 6043SOL     OW19027   0.286   4.332   3.949
 6043SOL    HW119028   0.259   4.338   3.853
 6043SOL    HW219029   0.219   4.379   4.006
 6044SOL     OW19030   1.795   0.441   1.464
 6044SOL    HW119031   1.735   0.516   1.492
 6044SOL    HW219032   1.888   0.475   1.453
 6045SOL     OW19033   6.540   4.183   0.355
 6045SOL    HW119034   6.565   4.087   0.342
 6045SOL    HW219035   6.485   4.193   0.438
 6046SOL     OW19036   1.608   3.728   6.688
 6046SOL    HW119037   1.647   3.643   6.655
 6046SOL    HW219038   1.585   3.787   6.610
 6047SOL     OW19039   0.679   5.611   4.897
 6047SOL    HW119040   0.626   5.527   4.885
 6047SOL    HW219041   0.618   5.686   4.921
 6048SOL     OW19042   4.450   6.241   4.396
 6048SOL    HW119043   4.459   6.204   4.489
 6048SOL    HW219044   4.477   6.337   4.396
 6049SOL     OW19045   6.678   5.631   0.222
 6049SOL    HW119046   6.694   5.533   0.228
 6049SOL    HW219047   6.616   5.660   0.295
 6050SOL     OW19048   5.729   4.508   5.338
 6050SOL    HW119049   5.784   4.442   5.288
 6050SOL    HW219050   5.707   4.473   5.429
 6051SOL     OW19051   3.282   2.119   3.948
 6051SOL    HW119052   3.225   2.154   3.873
 6051SOL    HW219053   3.234   2.134   4.035
 6052SOL     OW19054   0.148   1.843   0.089
 6052SOL    HW119055   0.116   1.873   0.178
 6052SOL    HW219056   0.099   1.893   0.017
 6053SOL     OW19057   1.431   0.324   6.307
 6053SOL    HW119058   1.338   0.360   6.314
 6053SOL    HW219059   1.428   0.224   6.310
 6054SOL     OW19060   0.944   4.189   6.047
 6054SOL    HW119061   0.965   4.113   5.986
 6054SOL    HW219062   0.958   4.275   5.998
 6055SOL     OW19063   5.480   0.213   2.975
 6055SOL    HW119064   5.479   0.219   3.075
 6055SOL    HW219065   5.555   0.154   2.946
 6056SOL     OW19066   5.543   3.197   6.147
 6056SOL    HW119067   5.447   3.221   6.135
 6056SOL    HW219068   5.560   3.106   6.109
 6057SOL     OW19069   3.805   1.066   6.509
 6057SOL    HW119070   3.846   1.150   6.474
 6057SOL    HW219071   3.866   1.025   6.577
 6058SOL     OW19072   5.374   1.916   5.043
 6058SOL    HW119073   5.393   1.826   5.005
 6058SOL    HW219074   5.360   1.981   4.968
 6059SOL     OW19075   0.092   6.403   6.418
 6059SOL    HW119076   0.122   6.344   6.493
 6059SOL    HW219077   0.161   6.473   6.401
 6060SOL     OW19078   3.172   6.073   6.442
 6060SOL    HW119079   3.228   6.075   6.525
 6060SOL    HW219080   3.149   5.978   6.420
 6061SOL     OW19081   2.059   1.458   6.868
 6061SOL    HW119082   2.015   1.528   6.811
 6061SOL    HW219083   2.137   1.498   6.916
 6062SOL     OW19084   1.441   0.142   4.173
 6062SOL    HW119085   1.459   0.236   4.144
 6062SOL    HW219086   1.449   0.081   4.094
 6063SOL     OW19087   5.992   5.916   7.003
 6063SOL    HW119088   5.931   5.993   6.987
 6063SOL    HW219089   6.048   5.900   6.922
 6064SOL     OW19090   0.958   4.894   2.284
 6064SOL    HW119091   0.918   4.873   2.373
 6064SOL    HW219092   0.897   4.861   2.211
 6065SOL     OW19093   5.461   0.014   1.746
 6065SOL    HW119094   5.417   6.954   1.711
 6065SOL    HW219095   5.482   0.002   1.843
 6066SOL     OW19096   4.230   1.572   5.670
 6066SOL    HW119097   4.130   1.581   5.662
 6066SOL    HW219098   4.273   1.654   5.632
 6067SOL     OW19099   4.681   2.176   6.632
 6067SOL    HW119100   4.762   2.233   6.646
 6067SOL    HW219101   4.672   2.112   6.708
 6068SOL     OW19102   5.282   0.855   5.517
 6068SOL    HW119103   5.379   0.874   5.534
 6068SOL    HW219104   5.250   0.786   5.581
 6069SOL     OW19105   6.256   5.135   3.638
 6069SOL    HW119106   6.274   5.123   3.540
 6069SOL    HW219107   6.232   5.231   3.656
 6070SOL     OW19108   4.980   3.337   0.484
 6070SOL    HW119109   5.048   3.410   0.488
 6070SOL    HW219110   4.935   3.327   0.573
 6071SOL     OW19111   5.223   6.591   4.986
 6071SOL    HW119112   5.162   6.557   4.914
 6071SOL    HW219113   5.176   6.660   5.041
 6072SOL     OW19114   6.220   1.785   1.248
 6072SOL    HW119115   6.284   1.815   1.178
 6072SOL    HW219116   6.165   1.862   1.279
 6073SOL     OW19117   6.430   0.833   1.564
 6073SOL    HW119118   6.390   0.916   1.603
 6073SOL    HW219119   6.524   0.852   1.535
 6074SOL     OW19120   1.020   0.527   5.713
 6074SOL    HW119121   1.113   0.490   5.717
 6074SOL    HW219122   0.990   0.529   5.617
 6075SOL     OW19123   4.820   3.521   6.134
 6075SOL    HW119124   4.834   3.620   6.140
 6075SOL    HW219125   4.845   3.477   6.220
 6076SOL     OW19126   2.678   0.396   3.541
 6076SOL    HW119127   2.735   0.412   3.460
 6076SOL    HW219128   2.692   0.471   3.606
 6077SOL     OW19129   4.455   4.757   3.068
 6077SOL    HW119130   4.494   4.809   2.993
 6077SOL    HW219131   4.364   4.724   3.044
 6078SOL     OW19132   1.666   3.990   3.931
 6078SOL    HW119133   1.745   4.009   3.872
 6078SOL    HW219134   1.682   4.030   4.021
 6079SOL     OW19135   3.229   1.853   0.880
 6079SOL    HW119136   3.186   1.939   0.850
 6079SOL    HW219137   3.295   1.873   0.952
 6080SOL     OW19138   5.882   3.087   3.219
 6080SOL    HW119139   5.901   3.060   3.313
 6080SOL    HW219140   5.790   3.128   3.214
 6081SOL     OW19141   0.453   4.096   2.321
 6081SOL    HW119142   0.374   4.133   2.273
 6081SOL    HW219143   0.455   3.996   2.312
 6082SOL     OW19144   4.102   1.724   4.894
 6082SOL    HW119145   4.156   1.657   4.944
 6082SOL    HW219146   4.056   1.785   4.959
 6083SOL     OW19147   2.063   6.249   6.959
 6083SOL    HW119148   1.996   6.191   6.914
 6083SOL    HW219149   2.147   6.197   6.974
 6084SOL     OW19150   7.006   5.575   6.250
 6084SOL    HW119151   6.912   5.603   6.231
 6084SOL    HW219152   0.021   5.528   6.171
 6085SOL     OW19153   4.918   5.284   1.755
 6085SOL    HW119154   4.899   5.252   1.662
 6085SOL    HW219155   5.015   5.269   1.776
 6086SOL     OW19156   3.146   1.685   2.473
 6086SOL    HW119157   3.199   1.746   2.531
 6086SOL    HW219158   3.148   1.718   2.379
 6087SOL     OW19159   3.790   0.331   0.659
 6087SOL    HW119160   3.827   0.257   0.604
 6087SOL    HW219161   3.859   0.402   0.672
 6088SOL     OW19162   6.788   0.691   5.128
 6088SOL    HW119163   6.745   0.625   5.189
 6088SOL    HW219164   6.881   0.662   5.107
 6089SOL     OW19165   6.734   3.836   1.389
 6089SOL    HW119166   6.747   3.771   1.315
 6089SOL    HW219167   6.774   3.924   1.364
 6090SOL     OW19168   6.815   5.833   4.120
 6090SOL    HW119169   6.857   5.916   4.158
 6090SOL    HW219170   6.715   5.843   4.122
 6091SOL     OW19171   6.630   2.541   1.582
 6091SOL    HW119172   6.583   2.503   1.661
 6091SOL    HW219173   6.682   2.469   1.536
 6092SOL     OW19174   1.317   3.417   1.070
 6092SOL    HW119175   1.373   3.468   1.005
 6092SOL    HW219176   1.337   3.319   1.062
 6093SOL     OW19177   1.019   4.356   0.710
 6093SOL    HW119178   1.026   4.449   0.745
 6093SOL    HW219179   1.105   4.329   0.668
 6094SOL     OW19180   0.466   1.329   0.803
 6094SOL    HW119181   0.487   1.365   0.894
 6094SOL    HW219182   0.369   1.345   0.782
 6095SOL     OW19183   6.255   4.022   4.941
 6095SOL    HW119184   6.265   3.964   4.861
 6095SOL    HW219185   6.258   3.966   5.024
 6096SOL     OW19186   5.477   1.997   2.615
 6096SOL    HW119187   5.396   2.038   2.573
 6096SOL    HW219188   5.555   2.004   2.552
 6097SOL     OW19189   3.318   2.086   2.826
 6097SOL    HW119190   3.289   1.991   2.825
 6097SOL    HW219191   3.354   2.109   2.917
 6098SOL     OW19192   0.898   0.272   6.841
 6098SOL    HW119193   0.822   0.331   6.867
 6098SOL    HW219194   0.983   0.306   6.881
 6099SOL     OW19195   5.782   4.423   4.659
 6099SOL    HW119196   5.743   4.376   4.580
 6099SOL    HW219197   5.718   4.417   4.736
 6100SOL     OW19198   0.071   2.879   0.391
 6100SOL    HW119199   0.055   2.977   0.374
 6100SOL    HW219200   0.073   2.831   0.303
 6101SOL     OW19201   6.506   6.760   3.529
 6101SOL    HW119202   6.577   6.793   3.468
 6101SOL    HW219203   6.517   6.662   3.544
 6102SOL     OW19204   2.867   6.507   4.747
 6102SOL    HW119205   2.887   6.483   4.842
 6102SOL    HW219206   2.843   6.604   4.741
 6103SOL     OW19207   5.526   1.608   5.109
 6103SOL    HW119208   5.584   1.688   5.094
 6103SOL    HW219209   5.519   1.590   5.207
 6104SOL     OW19210   1.635   2.761   1.015
 6104SOL    HW119211   1.619   2.663   1.029
 6104SOL    HW219212   1.699   2.774   0.939
 6105SOL     OW19213   2.933   4.957   4.338
 6105SOL    HW119214   2.969   5.045   4.366
 6105SOL    HW219215   2.904   4.906   4.419
 6106SOL     OW19216   2.334   4.975   4.175
 6106SOL    HW119217   2.403   4.993   4.246
 6106SOL    HW219218   2.271   4.904   4.207
 6107SOL     OW19219   2.070   5.292   5.880
 6107SOL    HW119220   2.026   5.313   5.968
 6107SOL    HW219221   2.100   5.196   5.880
 6108SOL     OW19222   5.547   1.760   4.810
 6108SOL    HW119223   5.525   1.819   4.732
 6108SOL    HW219224   5.630   1.793   4.855
 6109SOL     OW19225   6.883   4.132   1.702
 6109SOL    HW119226   6.950   4.061   1.722
 6109SOL    HW219227   6.800   4.090   1.664
 6110SOL     OW19228   3.408   1.987   3.289
 6110SOL    HW119229   3.505   2.014   3.289
 6110SOL    HW219230   3.382   1.955   3.380
 6111SOL     OW19231   0.212   4.251   3.679
 6111SOL    HW119232   0.290   4.269   3.619
 6111SOL    HW219233   0.144   4.196   3.630
 6112SOL     OW19234   1.372   1.790   1.235
 6112SOL    HW119235   1.457   1.842   1.221
 6112SOL    HW219236   1.382   1.699   1.195
 6113SOL     OW19237   1.425   4.783   5.111
 6113SOL    HW119238   1.455   4.838   5.189
 6113SOL    HW219239   1.397   4.693   5.144
 6114SOL     OW19240   4.480   4.492   0.771
 6114SOL    HW119241   4.482   4.396   0.744
 6114SOL    HW219242   4.498   4.499   0.869
 6115SOL     OW19243   6.724   4.870   2.255
 6115SOL    HW119244   6.772   4.916   2.181
 6115SOL    HW219245   6.629   4.856   2.230
 6116SOL     OW19246   3.876   2.164   1.226
 6116SOL    HW119247   3.921   2.102   1.290
 6116SOL    HW219248   3.787   2.192   1.264
 6117SOL     OW19249   5.611   6.338   3.940
 6117SOL    HW119250   5.574   6.256   3.986
 6117SOL    HW219251   5.710   6.328   3.930
 6118SOL     OW19252   6.781   0.005   3.158
 6118SOL    HW119253   6.818   0.093   3.189
 6118SOL    HW219254   6.692   0.020   3.114
 6119SOL     OW19255   5.338   5.555   4.292
 6119SOL    HW119256   5.319   5.529   4.198
 6119SOL    HW219257   5.335   5.475   4.351
 6120SOL     OW19258   2.248   1.552   3.280
 6120SOL    HW119259   2.297   1.639   3.288
 6120SOL    HW219260   2.298   1.490   3.220
 6121SOL     OW19261   0.231   2.033   4.212
 6121SOL    HW119262   0.286   2.022   4.295
 6121SOL    HW219263   0.145   2.079   4.233
 6122SOL     OW19264   3.728   5.741   4.280
 6122SOL    HW119265   3.728   5.700   4.189
 6122SOL    HW219266   3.822   5.750   4.313
 6123SOL     OW19267   5.422   1.396   2.838
 6123SOL    HW119268   5.438   1.404   2.936
 6123SOL    HW219269   5.354   1.463   2.809
 6124SOL     OW19270   2.718   0.418   4.803
 6124SOL    HW119271   2.798   0.365   4.774
 6124SOL    HW219272   2.743   0.480   4.876
 6125SOL     OW19273   1.257   4.524   2.379
 6125SOL    HW119274   1.162   4.506   2.402
 6125SOL    HW219275   1.267   4.619   2.348
 6126SOL     OW19276   3.480   6.835   2.801
 6126SOL    HW119277   3.475   6.934   2.810
 6126SOL    HW219278   3.466   6.808   2.706
 6127SOL     OW19279   1.958   5.312   1.916
 6127SOL    HW119280   2.053   5.301   1.887
 6127SOL    HW219281   1.898   5.280   1.843
 6128SOL     OW19282   5.148   4.056   1.282
 6128SOL    HW119283   5.148   3.968   1.235
 6128SOL    HW219284   5.174   4.043   1.378
 6129SOL     OW19285   6.091   3.720   3.468
 6129SOL    HW119286   6.060   3.778   3.544
 6129SOL    HW219287   6.109   3.776   3.388
 6130SOL     OW19288   5.642   3.425   2.737
 6130SOL    HW119289   5.603   3.334   2.750
 6130SOL    HW219290   5.586   3.493   2.784
 6131SOL     OW19291   6.407   0.845   5.352
 6131SOL    HW119292   6.493   0.819   5.396
 6131SOL    HW219293   6.368   0.924   5.400
 6132SOL     OW19294   0.442   2.472   0.480
 6132SOL    HW119295   0.467   2.548   0.419
 6132SOL    HW219296   0.396   2.401   0.426
 6133SOL     OW19297   1.211   4.881   0.123
 6133SOL    HW119298   1.129   4.846   0.170
 6133SOL    HW219299   1.292   4.834   0.160
 6134SOL     OW19300   4.891   4.011   6.711
 6134SOL    HW119301   4.803   3.964   6.720
 6134SOL    HW219302   4.965   3.947   6.732
 6135SOL     OW19303   5.618   6.969   2.813
 6135SOL    HW119304   5.558   6.897   2.775
 6135SOL    HW219305   5.659   7.021   2.739
 6136SOL     OW19306   1.479   1.610   2.612
 6136SOL    HW119307   1.414   1.667   2.562
 6136SOL    HW219308   1.563   1.600   2.558
 6137SOL     OW19309   3.730   0.077   6.436
 6137SOL    HW119310   3.719   0.058   6.338
 6137SOL    HW219311   3.647   0.050   6.485
 6138SOL     OW19312   4.895   0.641   2.746
 6138SOL    HW119313   4.891   0.695   2.830
 6138SOL    HW219314   4.966   0.571   2.756
 6139SOL     OW19315   2.750   6.241   3.735
 6139SOL    HW119316   2.849   6.232   3.739
 6139SOL    HW219317   2.719   6.222   3.641
 6140SOL     OW19318   2.362   5.545   1.336
 6140SOL    HW119319   2.343   5.475   1.267
 6140SOL    HW219320   2.276   5.576   1.376
 6141SOL     OW19321   0.700   5.745   5.358
 6141SOL    HW119322   0.724   5.716   5.451
 6141SOL    HW219323   0.768   5.711   5.293
 6142SOL     OW19324   0.076   3.877   3.677
 6142SOL    HW119325   0.031   3.923   3.754
 6142SOL    HW219326   0.070   3.934   3.595
 6143SOL     OW19327   5.978   5.538   6.439
 6143SOL    HW119328   5.901   5.475   6.448
 6143SOL    HW219329   6.038   5.529   6.518
 6144SOL     OW19330   0.145   5.564   4.115
 6144SOL    HW119331   0.127   5.595   4.022
 6144SOL    HW219332   0.059   5.560   4.166
 6145SOL     OW19333   5.757   5.338   3.312
 6145SOL    HW119334   5.658   5.355   3.304
 6145SOL    HW219335   5.792   5.306   3.224
 6146SOL     OW19336   5.802   1.727   3.701
 6146SOL    HW119337   5.806   1.627   3.693
 6146SOL    HW219338   5.810   1.768   3.610
 6147SOL     OW19339   0.898   3.774   3.586
 6147SOL    HW119340   0.935   3.712   3.655
 6147SOL    HW219341   0.969   3.796   3.519
 6148SOL     OW19342   6.412   6.188   2.705
 6148SOL    HW119343   6.505   6.212   2.733
 6148SOL    HW219344   6.356   6.175   2.786
 6149SOL     OW19345   1.172   5.533   4.680
 6149SOL    HW119346   1.105   5.490   4.620
 6149SOL    HW219347   1.235   5.463   4.714
 6150SOL     OW19348   4.399   6.385   6.305
 6150SOL    HW119349   4.425   6.324   6.231
 6150SOL    HW219350   4.352   6.465   6.267
 6151SOL     OW19351   4.788   0.068   5.168
 6151SOL    HW119352   4.847   0.086   5.246
 6151SOL    HW219353   4.761   0.154   5.125
 6152SOL     OW19354   6.467   4.066   5.689
 6152SOL    HW119355   6.402   4.021   5.750
 6152SOL    HW219356   6.521   3.997   5.641
 6153SOL     OW19357   3.766   5.639   5.656
 6153SOL    HW119358   3.751   5.601   5.565
 6153SOL    HW219359   3.744   5.737   5.656
 6154SOL     OW19360   5.387   3.111   3.058
 6154SOL    HW119361   5.394   3.026   3.005
 6154SOL    HW219362   5.296   3.117   3.099
 6155SOL     OW19363   2.494   4.563   4.603
 6155SOL    HW119364   2.482   4.494   4.532
 6155SOL    HW219365   2.525   4.519   4.687
 6156SOL     OW19366   5.760   0.532   4.726
 6156SOL    HW119367   5.804   0.527   4.816
 6156SOL    HW219368   5.829   0.554   4.657
 6157SOL     OW19369   0.909   1.240   4.837
 6157SOL    HW119370   0.954   1.203   4.755
 6157SOL    HW219371   0.836   1.302   4.809
 6158SOL     OW19372   5.307   0.181   6.905
 6158SOL    HW119373   5.379   0.248   6.922
 6158SOL    HW219374   5.329   0.096   6.952
 6159SOL     OW19375   4.982   3.611   6.585
 6159SOL    HW119376   5.037   3.543   6.634
 6159SOL    HW219377   4.941   3.568   6.505
 6160SOL     OW19378   6.439   5.311   6.903
 6160SOL    HW119379   6.423   5.234   6.842
 6160SOL    HW219380   6.498   5.283   6.978
 6161SOL     OW19381   5.680   0.189   6.224
 6161SOL    HW119382   5.778   0.210   6.222
 6161SOL    HW219383   5.661   0.116   6.159
 6162SOL     OW19384   5.646   5.086   4.037
 6162SOL    HW119385   5.689   5.015   3.981
 6162SOL    HW219386   5.608   5.044   4.120
 6163SOL     OW19387   6.363   3.991   2.852
 6163SOL    HW119388   6.282   4.049   2.860
 6163SOL    HW219389   6.437   4.043   2.808
 6164SOL     OW19390   4.644   3.273   1.504
 6164SOL    HW119391   4.653   3.197   1.440
 6164SOL    HW219392   4.715   3.266   1.574
 6165SOL     OW19393   4.093   0.381   1.216
 6165SOL    HW119394   4.104   0.431   1.129
 6165SOL    HW219395   4.173   0.325   1.232
 6166SOL     OW19396   3.288   0.684   0.443
 6166SOL    HW119397   3.249   0.749   0.378
 6166SOL    HW219398   3.216   0.652   0.505
 6167SOL     OW19399   6.580   5.347   3.547
 6167SOL    HW119400   6.628   5.308   3.469
 6167SOL    HW219401   6.580   5.281   3.622
 6168SOL     OW19402   0.045   2.692   1.664
 6168SOL    HW119403   7.015   2.763   1.617
 6168SOL    HW219404   0.078   2.727   1.751
 6169SOL     OW19405   1.523   3.990   1.049
 6169SOL    HW119406   1.546   3.904   1.003
 6169SOL    HW219407   1.459   4.042   0.992
 6170SOL     OW19408   6.737   2.013   3.713
 6170SOL    HW119409   6.725   1.925   3.667
 6170SOL    HW219410   6.647   2.056   3.727
 6171SOL     OW19411   5.894   1.608   6.541
 6171SOL    HW119412   5.987   1.632   6.512
 6171SOL    HW219413   5.866   1.524   6.495
 6172SOL     OW19414   0.192   4.711   3.721
 6172SOL    HW119415   0.270   4.679   3.666
 6172SOL    HW219416   0.150   4.790   3.676
 6173SOL     OW19417   5.320   6.435   2.820
 6173SOL    HW119418   5.398   6.373   2.812
 6173SOL    HW219419   5.278   6.424   2.911
 6174SOL     OW19420   6.980   2.257   3.413
 6174SOL    HW119421   0.034   2.309   3.374
 6174SOL    HW219422   7.011   2.163   3.431
 6175SOL     OW19423   3.967   2.034   6.935
 6175SOL    HW119424   3.903   1.983   6.877
 6175SOL    HW219425   4.024   2.093   6.878
 6176SOL     OW19426   2.860   4.811   5.951
 6176SOL    HW119427   2.832   4.752   5.876
 6176SOL    HW219428   2.960   4.821   5.950
 6177SOL     OW19429   5.710   5.747   1.917
 6177SOL    HW119430   5.627   5.694   1.934
 6177SOL    HW219431   5.728   5.751   1.818
 6178SOL     OW19432   4.079   4.936   1.934
 6178SOL    HW119433   4.146   4.871   1.899
 6178SOL    HW219434   4.021   4.967   1.859
 6179SOL     OW19435   4.554   5.549   4.903
 6179SOL    HW119436   4.520   5.564   4.810
 6179SOL    HW219437   4.503   5.605   4.967
 6180SOL     OW19438   1.979   3.827   6.965
 6180SOL    HW119439   1.920   3.895   7.009
 6180SOL    HW219440   1.981   3.744   7.020
 6181SOL     OW19441   6.796   6.710   6.971
 6181SOL    HW119442   6.875   6.652   6.993
 6181SOL    HW219443   6.780   6.709   6.873
 6182SOL     OW19444   3.367   2.816   6.565
 6182SOL    HW119445   3.294   2.876   6.533
 6182SOL    HW219446   3.439   2.812   6.496
 6183SOL     OW19447   0.323   0.416   0.037
 6183SOL    HW119448   0.381   0.411   0.118
 6183SOL    HW219449   0.235   0.371   0.056
 6184SOL     OW19450   3.273   6.807   5.573
 6184SOL    HW119451   3.369   6.783   5.591
 6184SOL    HW219452   3.261   6.905   5.583
 6185SOL     OW19453   3.741   2.969   4.229
 6185SOL    HW119454   3.664   2.937   4.285
 6185SOL    HW219455   3.725   3.064   4.202
 6186SOL     OW19456   0.997   1.668   2.602
 6186SOL    HW119457   1.091   1.687   2.576
 6186SOL    HW219458   0.936   1.735   2.559
 6187SOL     OW19459   3.607   1.616   5.993
 6187SOL    HW119460   3.538   1.552   5.959
 6187SOL    HW219461   3.671   1.638   5.919
 6188SOL     OW19462   1.675   1.450   5.890
 6188SOL    HW119463   1.658   1.515   5.964
 6188SOL    HW219464   1.674   1.357   5.926
 6189SOL     OW19465   6.528   5.579   0.464
 6189SOL    HW119466   6.615   5.597   0.509
 6189SOL    HW219467   6.454   5.581   0.531
 6190SOL     OW19468   0.769   3.391   3.723
 6190SOL    HW119469   0.738   3.485   3.734
 6190SOL    HW219470   0.831   3.367   3.798
 6191SOL     OW19471   2.922   4.569   0.194
 6191SOL    HW119472   2.992   4.500   0.214
 6191SOL    HW219473   2.878   4.598   0.279
 6192SOL     OW19474   3.133   1.851   1.219
 6192SOL    HW119475   3.074   1.927   1.193
 6192SOL    HW219476   3.223   1.886   1.246
 6193SOL     OW19477   4.578   5.937   6.649
 6193SOL    HW119478   4.645   6.006   6.620
 6193SOL    HW219479   4.627   5.858   6.686
 6194SOL     OW19480   5.438   0.035   5.742
 6194SOL    HW119481   5.465   0.082   5.826
 6194SOL    HW219482   5.421   0.102   5.670
 6195SOL     OW19483   4.327   5.512   5.658
 6195SOL    HW119484   4.355   5.541   5.566
 6195SOL    HW219485   4.247   5.453   5.651
 6196SOL     OW19486   7.009   3.535   3.496
 6196SOL    HW119487   6.952   3.521   3.415
 6196SOL    HW219488   6.965   3.496   3.576
 6197SOL     OW19489   0.912   5.611   0.538
 6197SOL    HW119490   0.816   5.587   0.554
 6197SOL    HW219491   0.968   5.572   0.611
 6198SOL     OW19492   6.181   1.573   6.439
 6198SOL    HW119493   6.229   1.505   6.495
 6198SOL    HW219494   6.162   1.534   6.349
 6199SOL     OW19495   2.459   6.747   6.393
 6199SOL    HW119496   2.400   6.776   6.318
 6199SOL    HW219497   2.554   6.768   6.371
 6200SOL     OW19498   1.850   6.577   0.174
 6200SOL    HW119499   1.913   6.615   0.243
 6200SOL    HW219500   1.807   6.495   0.211
 6201SOL     OW19501   0.175   4.893   3.424
 6201SOL    HW119502   0.269   4.887   3.459
 6201SOL    HW219503   0.112   4.910   3.500
 6202SOL     OW19504   5.677   1.133   1.896
 6202SOL    HW119505   5.741   1.146   1.821
 6202SOL    HW219506   5.720   1.080   1.968
 6203SOL     OW19507   6.931   1.603   2.112
 6203SOL    HW119508   7.022   1.564   2.130
 6203SOL    HW219509   6.871   1.530   2.079
 6204SOL     OW19510   1.305   6.006   4.825
 6204SOL    HW119511   1.245   6.023   4.904
 6204SOL    HW219512   1.249   6.000   4.742
 6205SOL     OW19513   6.611   4.409   3.402
 6205SOL    HW119514   6.588   4.314   3.383
 6205SOL    HW219515   6.557   4.442   3.479
 6206SOL     OW19516   5.155   1.988   3.539
 6206SOL    HW119517   5.254   1.991   3.530
 6206SOL    HW219518   5.130   2.001   3.635
 6207SOL     OW19519   1.729   5.756   3.777
 6207SOL    HW119520   1.655   5.717   3.722
 6207SOL    HW219521   1.817   5.731   3.735
 6208SOL     OW19522   3.520   4.312   6.615
 6208SOL    HW119523   3.592   4.355   6.669
 6208SOL    HW219524   3.455   4.382   6.584
 6209SOL     OW19525   3.404   1.033   2.543
 6209SOL    HW119526   3.383   1.131   2.547
 6209SOL    HW219527   3.469   1.010   2.616
 6210SOL     OW19528   5.861   1.189   4.099
 6210SOL    HW119529   5.810   1.117   4.052
 6210SOL    HW219530   5.947   1.151   4.135
 6211SOL     OW19531   5.205   2.759   5.140
 6211SOL    HW119532   5.106   2.761   5.130
 6211SOL    HW219533   5.244   2.693   5.076
 6212SOL     OW19534   5.520   4.030   4.933
 6212SOL    HW119535   5.495   4.088   4.855
 6212SOL    HW219536   5.493   3.936   4.915
 6213SOL     OW19537   5.026   5.638   0.324
 6213SOL    HW119538   5.115   5.647   0.368
 6213SOL    HW219539   5.032   5.573   0.249
 6214SOL     OW19540   6.822   6.641   6.367
 6214SOL    HW119541   6.858   6.569   6.308
 6214SOL    HW219542   6.875   6.725   6.354
 6215SOL     OW19543   6.072   2.324   4.901
 6215SOL    HW119544   6.005   2.320   4.976
 6215SOL    HW219545   6.124   2.239   4.898
 6216SOL     OW19546   5.294   2.544   5.343
 6216SOL    HW119547   5.218   2.605   5.323
 6216SOL    HW219548   5.259   2.459   5.383
 6217SOL     OW19549   6.875   4.119   2.273
 6217SOL    HW119550   6.879   4.209   2.318
 6217SOL    HW219551   6.957   4.067   2.296
 6218SOL     OW19552   4.848   6.544   1.045
 6218SOL    HW119553   4.842   6.468   1.111
 6218SOL    HW219554   4.761   6.593   1.042
 6219SOL     OW19555   2.365   0.690   0.392
 6219SOL    HW119556   2.461   0.668   0.375
 6219SOL    HW219557   2.310   0.606   0.391
 6220SOL     OW19558   3.225   0.650   2.230
 6220SOL    HW119559   3.286   0.729   2.239
 6220SOL    HW219560   3.257   0.591   2.156
 6221SOL     OW19561   4.544   5.029   5.256
 6221SOL    HW119562   4.469   5.016   5.320
 6221SOL    HW219563   4.519   5.098   5.188
 6222SOL     OW19564   6.498   1.412   2.143
 6222SOL    HW119565   6.408   1.373   2.125
 6222SOL    HW219566   6.490   1.509   2.165
 6223SOL     OW19567   6.479   5.085   4.018
 6223SOL    HW119568   6.397   5.033   4.041
 6223SOL    HW219569   6.528   5.108   4.103
 6224SOL     OW19570   4.161   0.009   0.139
 6224SOL    HW119571   4.192   6.939   0.117
 6224SOL    HW219572   4.062   0.009   0.154
 6225SOL     OW19573   5.193   5.928   6.896
 6225SOL    HW119574   5.171   5.993   6.969
 6225SOL    HW219575   5.211   5.978   6.811
 6226SOL     OW19576   0.941   1.240   4.209
 6226SOL    HW119577   0.861   1.288   4.245
 6226SOL    HW219578   0.914   1.184   4.131
 6227SOL     OW19579   2.084   4.492   6.246
 6227SOL    HW119580   2.179   4.473   6.221
 6227SOL    HW219581   2.080   4.569   6.309
 6228SOL     OW19582   0.435   3.315   4.090
 6228SOL    HW119583   0.531   3.341   4.085
 6228SOL    HW219584   0.399   3.303   3.997
 6229SOL     OW19585   0.158   4.217   5.096
 6229SOL    HW119586   0.087   4.149   5.117
 6229SOL    HW219587   0.183   4.266   5.180
 6230SOL     OW19588   1.108   0.649   1.463
 6230SOL    HW119589   1.107   0.561   1.510
 6230SOL    HW219590   1.036   0.651   1.394
 6231SOL     OW19591   2.270   5.872   5.683
 6231SOL    HW119592   2.322   5.882   5.598
 6231SOL    HW219593   2.295   5.946   5.746
 6232SOL     OW19594   4.333   0.225   6.682
 6232SOL    HW119595   4.294   0.283   6.754
 6232SOL    HW219596   4.292   0.134   6.687
 6233SOL     OW19597   0.127   4.434   1.315
 6233SOL    HW119598   0.053   4.373   1.285
 6233SOL    HW219599   0.101   4.477   1.402
 6234SOL     OW19600   4.712   5.655   3.229
 6234SOL    HW119601   4.771   5.727   3.266
 6234SOL    HW219602   4.760   5.607   3.156
 6235SOL     OW19603   0.097   0.630   1.518
 6235SOL    HW119604   0.140   0.720   1.503
 6235SOL    HW219605   0.054   0.600   1.433
 6236SOL     OW19606   6.634   5.913   1.702
 6236SOL    HW119607   6.645   6.012   1.708
 6236SOL    HW219608   6.560   5.891   1.638
 6237SOL     OW19609   4.107   1.381   2.474
 6237SOL    HW119610   4.061   1.294   2.457
 6237SOL    HW219611   4.050   1.456   2.442
 6238SOL     OW19612   2.486   0.041   3.738
 6238SOL    HW119613   2.509   0.076   3.829
 6238SOL    HW219614   2.466   6.966   3.744
 6239SOL     OW19615   3.776   1.495   3.844
 6239SOL    HW119616   3.772   1.485   3.943
 6239SOL    HW219617   3.836   1.424   3.805
 6240SOL     OW19618   3.944   3.490   3.915
 6240SOL    HW119619   3.854   3.514   3.877
 6240SOL    HW219620   3.964   3.550   3.993
 6241SOL     OW19621   4.165   0.085   3.127
 6241SOL    HW119622   4.237   0.018   3.106
 6241SOL    HW219623   4.194   0.141   3.205
 6242SOL     OW19624   3.328   2.154   4.687
 6242SOL    HW119625   3.240   2.158   4.735
 6242SOL    HW219626   3.349   2.243   4.648
 6243SOL     OW19627   3.364   1.055   0.100
 6243SOL    HW119628   3.317   0.969   0.080
 6243SOL    HW219629   3.402   1.051   0.193
 6244SOL     OW19630   4.744   2.264   1.873
 6244SOL    HW119631   4.722   2.326   1.797
 6244SOL    HW219632   4.836   2.284   1.907
 6245SOL     OW19633   6.868   4.639   1.966
 6245SOL    HW119634   6.912   4.562   1.921
 6245SOL    HW219635   6.773   4.646   1.935
 6246SOL     OW19636   0.834   5.605   5.136
 6246SOL    HW119637   0.933   5.598   5.144
 6246SOL    HW219638   0.808   5.622   5.041
 6247SOL     OW19639   5.662   5.261   2.490
 6247SOL    HW119640   5.695   5.191   2.553
 6247SOL    HW219641   5.624   5.338   2.542
 6248SOL     OW19642   4.517   2.833   5.921
 6248SOL    HW119643   4.508   2.733   5.923
 6248SOL    HW219644   4.426   2.874   5.914
 6249SOL     OW19645   5.666   2.480   3.363
 6249SOL    HW119646   5.571   2.510   3.349
 6249SOL    HW219647   5.678   2.454   3.459
 6250SOL     OW19648   5.356   0.249   5.596
 6250SOL    HW119649   5.266   0.292   5.604
 6250SOL    HW219650   5.427   0.318   5.608
 6251SOL     OW19651   2.418   0.900   4.056
 6251SOL    HW119652   2.372   0.978   4.011
 6251SOL    HW219653   2.516   0.920   4.064
 6252SOL     OW19654   3.168   5.123   0.482
 6252SOL    HW119655   3.089   5.098   0.538
 6252SOL    HW219656   3.155   5.090   0.389
 6253SOL     OW19657   5.389   6.347   3.355
 6253SOL    HW119658   5.366   6.435   3.313
 6253SOL    HW219659   5.472   6.311   3.313
 6254SOL     OW19660   0.004   0.059   2.003
 6254SOL    HW119661   0.006   0.096   2.096
 6254SOL    HW219662   0.008   0.134   1.937
 6255SOL     OW19663   2.065   0.696   0.647
 6255SOL    HW119664   2.096   0.606   0.618
 6255SOL    HW219665   1.970   0.709   0.619
 6256SOL     OW19666   6.609   4.576   2.340
 6256SOL    HW119667   6.702   4.612   2.329
 6256SOL    HW219668   6.566   4.568   2.250
 6257SOL     OW19669   4.275   4.166   0.771
 6257SOL    HW119670   4.370   4.194   0.756
 6257SOL    HW219671   4.227   4.236   0.823
 6258SOL     OW19672   3.824   4.904   4.647
 6258SOL    HW119673   3.841   4.834   4.717
 6258SOL    HW219674   3.905   4.914   4.589
 6259SOL     OW19675   4.700   0.701   4.438
 6259SOL    HW119676   4.779   0.756   4.463
 6259SOL    HW219677   4.616   0.754   4.454
 6260SOL     OW19678   3.422   2.078   6.828
 6260SOL    HW119679   3.420   2.006   6.758
 6260SOL    HW219680   3.337   2.074   6.881
 6261SOL     OW19681   4.140   6.471   1.115
 6261SOL    HW119682   4.239   6.457   1.126
 6261SOL    HW219683   4.097   6.476   1.204
 6262SOL     OW19684   6.185   0.911   3.024
 6262SOL    HW119685   6.087   0.918   3.007
 6262SOL    HW219686   6.232   0.988   2.980
 6263SOL     OW19687   6.130   6.214   6.506
 6263SOL    HW119688   6.134   6.312   6.526
 6263SOL    HW219689   6.103   6.200   6.411
 6264SOL     OW19690   0.918   6.402   0.919
 6264SOL    HW119691   0.840   6.342   0.935
 6264SOL    HW219692   0.999   6.364   0.966
 6265SOL     OW19693   4.010   6.775   6.825
 6265SOL    HW119694   3.993   6.858   6.772
 6265SOL    HW219695   3.924   6.729   6.844
 6266SOL     OW19696   2.530   5.106   3.075
 6266SOL    HW119697   2.565   5.013   3.086
 6266SOL    HW219698   2.502   5.121   2.981
 6267SOL     OW19699   0.710   6.226   4.819
 6267SOL    HW119700   0.702   6.188   4.911
 6267SOL    HW219701   0.742   6.155   4.756
 6268SOL     OW19702   2.864   1.576   1.706
 6268SOL    HW119703   2.830   1.520   1.782
 6268SOL    HW219704   2.943   1.532   1.664
 6269SOL     OW19705   6.882   6.336   0.213
 6269SOL    HW119706   6.844   6.367   0.126
 6269SOL    HW219707   6.961   6.276   0.195
 6270SOL     OW19708   1.578   6.334   0.950
 6270SOL    HW119709   1.646   6.406   0.941
 6270SOL    HW219710   1.612   6.250   0.907
 6271SOL     OW19711   0.100   3.481   5.733
 6271SOL    HW119712   0.155   3.410   5.690
 6271SOL    HW219713   0.041   3.524   5.665
 6272SOL     OW19714   0.724   1.270   0.749
 6272SOL    HW119715   0.638   1.317   0.771
 6272SOL    HW219716   0.801   1.326   0.780
 6273SOL     OW19717   1.065   6.395   3.228
 6273SOL    HW119718   1.065   6.299   3.257
 6273SOL    HW219719   1.124   6.448   3.289
 6274SOL     OW19720   3.076   5.752   4.263
 6274SOL    HW119721   2.996   5.719   4.213
 6274SOL    HW219722   3.120   5.825   4.210
 6275SOL     OW19723   2.957   5.704   1.624
 6275SOL    HW119724   2.947   5.709   1.724
 6275SOL    HW219725   3.045   5.662   1.602
 6276SOL     OW19726   1.884   4.889   2.696
 6276SOL    HW119727   1.877   4.827   2.617
 6276SOL    HW219728   1.795   4.895   2.742
 6277SOL     OW19729   4.776   2.460   1.682
 6277SOL    HW119730   4.685   2.457   1.641
 6277SOL    HW219731   4.807   2.555   1.688
 6278SOL     OW19732   3.286   2.989   0.430
 6278SOL    HW119733   3.299   3.066   0.367
 6278SOL    HW219734   3.245   2.913   0.381
 6279SOL     OW19735   1.324   6.724   1.909
 6279SOL    HW119736   1.358   6.778   1.986
 6279SOL    HW219737   1.383   6.644   1.896
 6280SOL     OW19738   5.078   1.033   6.845
 6280SOL    HW119739   4.996   0.979   6.825
 6280SOL    HW219740   5.100   1.026   6.943
 6281SOL     OW19741   5.476   3.982   5.887
 6281SOL    HW119742   5.480   4.080   5.866
 6281SOL    HW219743   5.432   3.934   5.811
 6282SOL     OW19744   0.216   3.906   5.647
 6282SOL    HW119745   0.186   3.974   5.580
 6282SOL    HW219746   0.316   3.902   5.648
 6283SOL     OW19747   2.356   0.591   4.017
 6283SOL    HW119748   2.390   0.542   4.098
 6283SOL    HW219749   2.273   0.641   4.042
 6284SOL     OW19750   1.737   4.102   6.330
 6284SOL    HW119751   1.778   4.189   6.302
 6284SOL    HW219752   1.776   4.028   6.276
 6285SOL     OW19753   1.330   4.443   3.082
 6285SOL    HW119754   1.424   4.474   3.096
 6285SOL    HW219755   1.299   4.469   2.990
 6286SOL     OW19756   0.999   2.906   6.945
 6286SOL    HW119757   0.981   2.832   6.881
 6286SOL    HW219758   0.995   2.993   6.897
 6287SOL     OW19759   4.623   5.120   4.934
 6287SOL    HW119760   4.674   5.206   4.936
 6287SOL    HW219761   4.528   5.137   4.958
 6288SOL     OW19762   3.247   3.661   5.515
 6288SOL    HW119763   3.190   3.735   5.481
 6288SOL    HW219764   3.197   3.574   5.507
 6289SOL     OW19765   2.486   4.837   5.328
 6289SOL    HW119766   2.575   4.817   5.287
 6289SOL    HW219767   2.448   4.752   5.366
 6290SOL     OW19768   6.212   0.020   2.943
 6290SOL    HW119769   6.187   6.948   2.967
 6290SOL    HW219770   6.311   0.029   2.946
 6291SOL     OW19771   3.063   3.221   2.355
 6291SOL    HW119772   3.082   3.260   2.445
 6291SOL    HW219773   3.003   3.283   2.304
 6292SOL     OW19774   1.173   4.169   4.930
 6292SOL    HW119775   1.132   4.158   5.020
 6292SOL    HW219776   1.102   4.196   4.864
 6293SOL     OW19777   2.850   1.179   0.304
 6293SOL    HW119778   2.795   1.151   0.383
 6293SOL    HW219779   2.803   1.252   0.255
 6294SOL     OW19780   1.734   0.376   2.126
 6294SOL    HW119781   1.635   0.382   2.137
 6294SOL    HW219782   1.777   0.362   2.215
 6295SOL     OW19783   4.420   2.440   5.657
 6295SOL    HW119784   4.449   2.507   5.589
 6295SOL    HW219785   4.321   2.441   5.665
 6296SOL     OW19786   0.262   2.715   0.568
 6296SOL    HW119787   0.354   2.718   0.529
 6296SOL    HW219788   0.201   2.771   0.512
 6297SOL     OW19789   0.066   0.825   4.422
 6297SOL    HW119790   0.013   0.890   4.477
 6297SOL    HW219791   0.151   0.803   4.470
 6298SOL     OW19792   6.624   0.430   6.826
 6298SOL    HW119793   6.639   0.510   6.767
 6298SOL    HW219794   6.529   0.399   6.816
 6299SOL     OW19795   3.187   1.582   3.844
 6299SOL    HW119796   3.272   1.580   3.897
 6299SOL    HW219797   3.147   1.490   3.844
 6300SOL     OW19798   2.895   2.299   1.238
 6300SOL    HW119799   2.954   2.375   1.266
 6300SOL    HW219800   2.821   2.334   1.180
 6301SOL     OW19801   4.015   6.251   1.202
 6301SOL    HW119802   4.081   6.301   1.145
 6301SOL    HW219803   3.937   6.223   1.145
 6302SOL     OW19804   1.542   3.642   0.223
 6302SOL    HW119805   1.638   3.665   0.234
 6302SOL    HW219806   1.524   3.551   0.261
 6303SOL     OW19807   6.531   4.886   4.907
 6303SOL    HW119808   6.503   4.935   4.990
 6303SOL    HW219809   6.525   4.788   4.923
 6304SOL     OW19810   2.179   2.016   4.368
 6304SOL    HW119811   2.093   2.020   4.419
 6304SOL    HW219812   2.247   1.965   4.420
 6305SOL     OW19813   0.763   5.697   5.633
 6305SOL    HW119814   0.742   5.639   5.712
 6305SOL    HW219815   0.734   5.791   5.652
 6306SOL     OW19816   0.605   4.273   4.296
 6306SOL    HW119817   0.562   4.241   4.212
 6306SOL    HW219818   0.623   4.371   4.289
 6307SOL     OW19819   2.990   3.142   3.249
 6307SOL    HW119820   2.904   3.123   3.296
 6307SOL    HW219821   3.066   3.104   3.302
 6308SOL     OW19822   0.716   1.059   1.472
 6308SOL    HW119823   0.724   1.142   1.528
 6308SOL    HW219824   0.688   1.083   1.379
 6309SOL     OW19825   1.995   5.572   5.068
 6309SOL    HW119826   2.012   5.608   5.160
 6309SOL    HW219827   1.989   5.472   5.072
 6310SOL     OW19828   0.918   6.645   3.140
 6310SOL    HW119829   0.824   6.618   3.160
 6310SOL    HW219830   0.977   6.565   3.146
 6311SOL     OW19831   6.475   1.138   6.210
 6311SOL    HW119832   6.451   1.054   6.258
 6311SOL    HW219833   6.575   1.143   6.201
 6312SOL     OW19834   3.531   5.765   1.092
 6312SOL    HW119835   3.629   5.758   1.112
 6312SOL    HW219836   3.518   5.782   0.994
 6313SOL     OW19837   5.453   4.625   2.750
 6313SOL    HW119838   5.514   4.666   2.818
 6313SOL    HW219839   5.360   4.619   2.788
 6314SOL     OW19840   2.063   6.672   3.301
 6314SOL    HW119841   2.043   6.677   3.399
 6314SOL    HW219842   2.006   6.738   3.252
 6315SOL     OW19843   2.130   2.841   3.339
 6315SOL    HW119844   2.096   2.935   3.338
 6315SOL    HW219845   2.088   2.790   3.265
 6316SOL     OW19846   4.354   0.520   4.856
 6316SOL    HW119847   4.374   0.422   4.863
 6316SOL    HW219848   4.353   0.560   4.948
 6317SOL     OW19849   4.754   4.149   2.998
 6317SOL    HW119850   4.783   4.245   3.005
 6317SOL    HW219851   4.736   4.113   3.089
 6318SOL     OW19852   5.838   0.057   0.240
 6318SOL    HW119853   5.913   0.121   0.251
 6318SOL    HW219854   5.752   0.102   0.262
 6319SOL     OW19855   4.750   2.940   4.250
 6319SOL    HW119856   4.746   2.861   4.189
 6319SOL    HW219857   4.668   2.944   4.306
 6320SOL     OW19858   6.243   1.855   6.509
 6320SOL    HW119859   6.297   1.773   6.491
 6320SOL    HW219860   6.254   1.882   6.604
 6321SOL     OW19861   1.148   3.827   0.280
 6321SOL    HW119862   1.141   3.730   0.304
 6321SOL    HW219863   1.086   3.846   0.204
 6322SOL     OW19864   1.890   1.796   2.280
 6322SOL    HW119865   1.837   1.735   2.221
 6322SOL    HW219866   1.959   1.743   2.329
 6323SOL     OW19867   2.054   5.835   1.064
 6323SOL    HW119868   2.112   5.760   1.097
 6323SOL    HW219869   2.111   5.916   1.046
 6324SOL     OW19870   5.144   3.816   0.916
 6324SOL    HW119871   5.184   3.789   1.004
 6324SOL    HW219872   5.153   3.915   0.905
 6325SOL     OW19873   1.208   3.272   4.024
 6325SOL    HW119874   1.168   3.180   4.026
 6325SOL    HW219875   1.307   3.265   4.014
 6326SOL     OW19876   4.735   5.347   5.008
 6326SOL    HW119877   4.668   5.419   4.990
 6326SOL    HW219878   4.794   5.375   5.084
 6327SOL     OW19879   0.730   0.770   2.533
 6327SOL    HW119880   0.747   0.675   2.507
 6327SOL    HW219881   0.633   0.783   2.551
 6328SOL     OW19882   3.893   3.406   4.986
 6328SOL    HW119883   3.864   3.457   4.905
 6328SOL    HW219884   3.928   3.317   4.958
 6329SOL     OW19885   6.899   3.350   4.778
 6329SOL    HW119886   6.998   3.365   4.780
 6329SOL    HW219887   6.871   3.320   4.687
 6330SOL     OW19888   4.267   1.990   3.747
 6330SOL    HW119889   4.200   1.918   3.727
 6330SOL    HW219890   4.221   2.069   3.788
 6331SOL     OW19891   1.807   3.663   3.664
 6331SOL    HW119892   1.738   3.606   3.620
 6331SOL    HW219893   1.834   3.622   3.751
 6332SOL     OW19894   4.440   1.877   0.121
 6332SOL    HW119895   4.519   1.889   0.182
 6332SOL    HW219896   4.364   1.837   0.173
 6333SOL     OW19897   5.839   1.025   0.273
 6333SOL    HW119898   5.912   1.091   0.293
 6333SOL    HW219899   5.792   1.051   0.189
 6334SOL     OW19900   2.041   1.420   1.771
 6334SOL    HW119901   1.942   1.414   1.762
 6334SOL    HW219902   2.072   1.366   1.849
 6335SOL     OW19903   5.933   2.756   5.336
 6335SOL    HW119904   5.863   2.772   5.405
 6335SOL    HW219905   6.019   2.730   5.380
 6336SOL     OW19906   0.454   4.896   6.251
 6336SOL    HW119907   0.455   4.996   6.247
 6336SOL    HW219908   0.524   4.864   6.315
 6337SOL     OW19909   6.446   0.181   5.321
 6337SOL    HW119910   6.461   0.207   5.417
 6337SOL    HW219911   6.421   0.262   5.268
 6338SOL     OW19912   0.804   0.480   2.495
 6338SOL    HW119913   0.778   0.427   2.575
 6338SOL    HW219914   0.904   0.476   2.484
 6339SOL     OW19915   0.061   4.222   3.091
 6339SOL    HW119916   0.041   4.188   2.999
 6339SOL    HW219917   0.091   4.317   3.086
 6340SOL     OW19918   2.289   5.537   6.506
 6340SOL    HW119919   2.213   5.510   6.447
 6340SOL    HW219920   2.376   5.523   6.458
 6341SOL     OW19921   0.692   4.613   2.638
 6341SOL    HW119922   0.595   4.629   2.657
 6341SOL    HW219923   0.736   4.575   2.720
 6342SOL     OW19924   2.249   0.395   1.357
 6342SOL    HW119925   2.214   0.314   1.310
 6342SOL    HW219926   2.172   0.456   1.378
 6343SOL     OW19927   1.634   4.888   6.959
 6343SOL    HW119928   1.581   4.973   6.964
 6343SOL    HW219929   1.572   4.811   6.944
 6344SOL     OW19930   1.133   1.289   4.419
 6344SOL    HW119931   1.099   1.383   4.410
 6344SOL    HW219932   1.140   1.247   4.329
 6345SOL     OW19933   0.275   2.928   3.132
 6345SOL    HW119934   0.270   2.842   3.080
 6345SOL    HW219935   0.326   2.996   3.079
 6346SOL     OW19936   0.609   4.303   3.712
 6346SOL    HW119937   0.629   4.205   3.708
 6346SOL    HW219938   0.692   4.353   3.735
 6347SOL     OW19939   2.274   2.056   3.116
 6347SOL    HW119940   2.239   2.137   3.162
 6347SOL    HW219941   2.224   2.042   3.030
 6348SOL     OW19942   1.502   2.876   0.101
 6348SOL    HW119943   1.431   2.879   0.030
 6348SOL    HW219944   1.522   2.781   0.124
 6349SOL     OW19945   6.229   1.557   0.980
 6349SOL    HW119946   6.231   1.567   1.079
 6349SOL    HW219947   6.236   1.460   0.956
 6350SOL     OW19948   0.543   6.631   1.292
 6350SOL    HW119949   0.599   6.697   1.342
 6350SOL    HW219950   0.481   6.586   1.355
 6351SOL     OW19951   6.314   2.562   1.947
 6351SOL    HW119952   6.229   2.539   1.995
 6351SOL    HW219953   6.372   2.617   2.006
 6352SOL     OW19954   4.436   0.549   4.596
 6352SOL    HW119955   4.533   0.574   4.601
 6352SOL    HW219956   4.396   0.555   4.688
 6353SOL     OW19957   3.842   6.153   5.893
 6353SOL    HW119958   3.774   6.167   5.965
 6353SOL    HW219959   3.825   6.065   5.848
 6354SOL     OW19960   5.742   4.502   2.394
 6354SOL    HW119961   5.673   4.571   2.371
 6354SOL    HW219962   5.809   4.496   2.320
 6355SOL     OW19963   4.934   6.379   0.122
 6355SOL    HW119964   4.849   6.398   0.073
 6355SOL    HW219965   4.955   6.281   0.115
 6356SOL     OW19966   0.797   6.449   5.947
 6356SOL    HW119967   0.788   6.541   5.909
 6356SOL    HW219968   0.707   6.415   5.976
 6357SOL     OW19969   5.058   1.814   2.915
 6357SOL    HW119970   4.958   1.824   2.910
 6357SOL    HW219971   5.100   1.861   2.837
 6358SOL     OW19972   1.276   1.679   4.869
 6358SOL    HW119973   1.306   1.697   4.962
 6358SOL    HW219974   1.266   1.581   4.855
 6359SOL     OW19975   5.665   4.650   0.990
 6359SOL    HW119976   5.633   4.742   1.011
 6359SOL    HW219977   5.587   4.588   0.982
 6360SOL     OW19978   2.467   2.815   0.801
 6360SOL    HW119979   2.495   2.849   0.890
 6360SOL    HW219980   2.459   2.715   0.804
 6361SOL     OW19981   0.358   2.694   2.475
 6361SOL    HW119982   0.313   2.634   2.541
 6361SOL    HW219983   0.457   2.690   2.487
 6362SOL     OW19984   2.390   5.259   0.688
 6362SOL    HW119985   2.436   5.325   0.747
 6362SOL    HW219986   2.389   5.169   0.733
 6363SOL     OW19987   0.892   2.616   1.601
 6363SOL    HW119988   0.818   2.629   1.534
 6363SOL    HW219989   0.963   2.684   1.586
 6364SOL     OW19990   2.489   1.508   4.501
 6364SOL    HW119991   2.423   1.520   4.427
 6364SOL    HW219992   2.565   1.452   4.469
 6365SOL     OW19993   6.568   6.849   2.185
 6365SOL    HW119994   6.614   6.923   2.136
 6365SOL    HW219995   6.610   6.837   2.275
 6366SOL     OW19996   5.771   1.365   4.908
 6366SOL    HW119997   5.726   1.278   4.890
 6366SOL    HW219998   5.716   1.440   4.871
 6367SOL     OW19999   1.133   2.829   4.831
 6367SOL    HW120000   1.162   2.924   4.833
 6367SOL    HW220001   1.205   2.771   4.870
 6368SOL     OW20002   4.928   3.208   4.977
 6368SOL    HW120003   5.026   3.214   4.996
 6368SOL    HW220004   4.878   3.186   5.061
 6369SOL     OW20005   3.460   4.616   0.808
 6369SOL    HW120006   3.417   4.534   0.770
 6369SOL    HW220007   3.407   4.648   0.887
 6370SOL     OW20008   5.988   3.650   4.626
 6370SOL    HW120009   6.036   3.639   4.713
 6370SOL    HW220010   6.017   3.577   4.563
 6371SOL     OW20011   5.816   4.453   1.124
 6371SOL    HW120012   5.728   4.489   1.094
 6371SOL    HW220013   5.881   4.529   1.131
 6372SOL     OW20014   6.208   1.518   1.261
 6372SOL    HW120015   6.199   1.618   1.270
 6372SOL    HW220016   6.242   1.480   1.347
 6373SOL     OW20017   5.185   1.969   1.399
 6373SOL    HW120018   5.115   2.036   1.374
 6373SOL    HW220019   5.275   2.012   1.397
 6374SOL     OW20020   3.935   2.859   6.888
 6374SOL    HW120021   3.999   2.851   6.812
 6374SOL    HW220022   3.968   2.806   6.966
 6375SOL     OW20023   5.340   1.407   2.029
 6375SOL    HW120024   5.437   1.388   2.017
 6375SOL    HW220025   5.298   1.421   1.939
 6376SOL     OW20026   2.777   6.786   0.901
 6376SOL    HW120027   2.700   6.837   0.863
 6376SOL    HW220028   2.763   6.688   0.889
 6377SOL     OW20029   7.006   0.931   0.435
 6377SOL    HW120030   0.028   0.968   0.354
 6377SOL    HW220031   6.951   0.851   0.410
 6378SOL     OW20032   5.717   3.818   3.180
 6378SOL    HW120033   5.729   3.916   3.196
 6378SOL    HW220034   5.803   3.779   3.145
 6379SOL     OW20035   2.778   5.596   7.016
 6379SOL    HW120036   2.744   5.647   0.072
 6379SOL    HW220037   2.790   5.500   0.019
 6380SOL     OW20038   2.245   2.950   4.799
 6380SOL    HW120039   2.263   2.867   4.747
 6380SOL    HW220040   2.315   2.961   4.869
 6381SOL     OW20041   3.331   4.374   0.720
 6381SOL    HW120042   3.318   4.281   0.756
 6381SOL    HW220043   3.254   4.398   0.661
 6382SOL     OW20044   1.887   1.053   0.862
 6382SOL    HW120045   1.858   1.049   0.958
 6382SOL    HW220046   1.854   1.138   0.821
 6383SOL     OW20047   2.644   1.986   2.834
 6383SOL    HW120048   2.671   1.897   2.800
 6383SOL    HW220049   2.714   2.054   2.811
 6384SOL     OW20050   6.782   1.604   2.599
 6384SOL    HW120051   6.687   1.580   2.580
 6384SOL    HW220052   6.819   1.658   2.523
 6385SOL     OW20053   0.190   3.889   1.613
 6385SOL    HW120054   0.263   3.923   1.673
 6385SOL    HW220055   0.185   3.945   1.531
 6386SOL     OW20056   2.988   4.267   0.161
 6386SOL    HW120057   2.942   4.289   0.074
 6386SOL    HW220058   3.058   4.198   0.145
 6387SOL     OW20059   6.498   1.082   5.768
 6387SOL    HW120060   6.460   1.056   5.680
 6387SOL    HW220061   6.591   1.045   5.777
 6388SOL     OW20062   6.257   5.248   1.994
 6388SOL    HW120063   6.231   5.160   1.953
 6388SOL    HW220064   6.357   5.254   2.000
 6389SOL     OW20065   6.471   6.716   0.790
 6389SOL    HW120066   6.525   6.792   0.754
 6389SOL    HW220067   6.478   6.638   0.728
 6390SOL     OW20068   4.727   6.433   7.023
 6390SOL    HW120069   4.720   6.362   6.953
 6390SOL    HW220070   4.635   6.459   0.031
 6391SOL     OW20071   1.365   2.123   5.345
 6391SOL    HW120072   1.399   2.197   5.286
 6391SOL    HW220073   1.377   2.035   5.299
 6392SOL     OW20074   4.814   6.421   3.669
 6392SOL    HW120075   4.791   6.429   3.766
 6392SOL    HW220076   4.908   6.388   3.660
 6393SOL     OW20077   2.681   5.116   0.052
 6393SOL    HW120078   2.632   5.053   7.014
 6393SOL    HW220079   2.718   5.065   0.130
 6394SOL     OW20080   1.522   5.677   1.806
 6394SOL    HW120081   1.608   5.706   1.848
 6394SOL    HW220082   1.534   5.587   1.764
 6395SOL     OW20083   1.343   4.343   4.762
 6395SOL    HW120084   1.421   4.384   4.809
 6395SOL    HW220085   1.297   4.279   4.823
 6396SOL     OW20086   0.887   3.127   4.659
 6396SOL    HW120087   0.829   3.093   4.733
 6396SOL    HW220088   0.839   3.199   4.610
 6397SOL     OW20089   6.757   3.477   4.496
 6397SOL    HW120090   6.774   3.378   4.494
 6397SOL    HW220091   6.735   3.506   4.589
 6398SOL     OW20092   0.861   0.129   2.811
 6398SOL    HW120093   0.937   0.166   2.757
 6398SOL    HW220094   0.885   0.130   2.908
 6399SOL     OW20095   2.922   6.980   6.850
 6399SOL    HW120096   2.961   6.995   6.941
 6399SOL    HW220097   2.826   6.953   6.860
 6400SOL     OW20098   1.114   6.101   2.746
 6400SOL    HW120099   1.145   6.150   2.828
 6400SOL    HW220100   1.017   6.079   2.754
 6401SOL     OW20101   3.947   4.906   1.656
 6401SOL    HW120102   4.019   4.944   1.597
 6401SOL    HW220103   3.928   4.812   1.627
 6402SOL     OW20104   3.984   3.676   5.825
 6402SOL    HW120105   4.061   3.626   5.867
 6402SOL    HW220106   3.943   3.620   5.754
 6403SOL     OW20107   4.026   5.400   5.619
 6403SOL    HW120108   3.991   5.309   5.594
 6403SOL    HW220109   3.990   5.426   5.709
 6404SOL     OW20110   4.825   5.691   6.121
 6404SOL    HW120111   4.824   5.725   6.215
 6404SOL    HW220112   4.912   5.645   6.103
 6405SOL     OW20113   4.429   1.057   2.947
 6405SOL    HW120114   4.370   0.996   3.000
 6405SOL    HW220115   4.393   1.066   2.854
 6406SOL     OW20116   0.274   3.583   2.190
 6406SOL    HW120117   0.344   3.517   2.218
 6406SOL    HW220118   0.233   3.624   2.271
 6407SOL     OW20119   0.396   6.915   2.134
 6407SOL    HW120120   0.400   6.951   2.041
 6407SOL    HW220121   0.465   6.843   2.145
 6408SOL     OW20122   0.019   1.548   1.753
 6408SOL    HW120123   6.943   1.561   1.745
 6408SOL    HW220124   0.057   1.617   1.815
 6409SOL     OW20125   6.133   4.443   3.809
 6409SOL    HW120126   6.215   4.442   3.752
 6409SOL    HW220127   6.053   4.463   3.753
 6410SOL     OW20128   1.497   0.723   6.868
 6410SOL    HW120129   1.534   0.810   6.835
 6410SOL    HW220130   1.569   0.653   6.867
 6411SOL     OW20131   1.189   2.832   4.493
 6411SOL    HW120132   1.220   2.918   4.453
 6411SOL    HW220133   1.238   2.815   4.579
 6412SOL     OW20134   4.591   0.280   7.011
 6412SOL    HW120135   4.616   0.331   6.929
 6412SOL    HW220136   4.520   0.214   6.989
 6413SOL     OW20137   4.968   5.825   2.946
 6413SOL    HW120138   4.880   5.857   2.981
 6413SOL    HW220139   5.040   5.886   2.978
 6414SOL     OW20140   3.469   0.303   0.294
 6414SOL    HW120141   3.458   0.300   0.394
 6414SOL    HW220142   3.565   0.288   0.272
 6415SOL     OW20143   0.001   2.026   3.557
 6415SOL    HW120144   6.965   2.081   3.617
 6415SOL    HW220145   0.062   1.970   3.613
 6416SOL     OW20146   2.882   4.803   0.045
 6416SOL    HW120147   2.904   4.709   0.070
 6416SOL    HW220148   2.794   4.805   7.020
 6417SOL     OW20149   4.257   3.636   6.452
 6417SOL    HW120150   4.182   3.607   6.512
 6417SOL    HW220151   4.244   3.598   6.361
 6418SOL     OW20152   5.045   5.454   0.109
 6418SOL    HW120153   5.071   5.443   0.013
 6418SOL    HW220154   5.079   5.376   0.162
 6419SOL     OW20155   1.464   6.484   6.534
 6419SOL    HW120156   1.480   6.561   6.473
 6419SOL    HW220157   1.533   6.413   6.519
 6420SOL     OW20158   2.104   4.947   3.278
 6420SOL    HW120159   2.071   4.867   3.227
 6420SOL    HW220160   2.070   5.030   3.235
 6421SOL     OW20161   5.293   6.807   1.466
 6421SOL    HW120162   5.244   6.738   1.520
 6421SOL    HW220163   5.390   6.804   1.487
 6422SOL     OW20164   1.025   1.283   5.063
 6422SOL    HW120165   1.009   1.381   5.070
 6422SOL    HW220166   0.981   1.248   4.980
 6423SOL     OW20167   1.540   3.524   4.558
 6423SOL    HW120168   1.533   3.616   4.519
 6423SOL    HW220169   1.476   3.463   4.511
 6424SOL     OW20170   6.557   3.830   5.575
 6424SOL    HW120171   6.518   3.781   5.653
 6424SOL    HW220172   6.649   3.862   5.598
 6425SOL     OW20173   1.118   6.818   5.343
 6425SOL    HW120174   1.184   6.744   5.342
 6425SOL    HW220175   1.150   6.891   5.404
 6426SOL     OW20176   4.033   5.456   3.674
 6426SOL    HW120177   4.030   5.535   3.735
 6426SOL    HW220178   4.002   5.375   3.723
 6427SOL     OW20179   3.413   3.733   3.430
 6427SOL    HW120180   3.495   3.698   3.385
 6427SOL    HW220181   3.348   3.658   3.444
 6428SOL     OW20182   6.345   2.455   0.207
 6428SOL    HW120183   6.266   2.393   0.213
 6428SOL    HW220184   6.331   2.532   0.268
 6429SOL     OW20185   2.623   1.989   4.805
 6429SOL    HW120186   2.571   2.023   4.884
 6429SOL    HW220187   2.583   1.904   4.772
 6430SOL     OW20188   6.360   1.741   4.884
 6430SOL    HW120189   6.335   1.647   4.907
 6430SOL    HW220190   6.278   1.794   4.864
 6431SOL     OW20191   3.167   5.004   3.217
 6431SOL    HW120192   3.212   5.011   3.307
 6431SOL    HW220193   3.069   5.016   3.229
 6432SOL     OW20194   4.439   3.180   6.956
 6432SOL    HW120195   4.385   3.101   6.927
 6432SOL    HW220196   4.524   3.148   6.997
 6433SOL     OW20197   4.009   5.207   5.950
 6433SOL    HW120198   4.078   5.167   5.890
 6433SOL    HW220199   4.008   5.306   5.940
 6434SOL     OW20200   6.391   4.673   6.195
 6434SOL    HW120201   6.381   4.735   6.117
 6434SOL    HW220202   6.382   4.578   6.164
 6435SOL     OW20203   4.400   1.349   1.030
 6435SOL    HW120204   4.398   1.336   0.930
 6435SOL    HW220205   4.427   1.443   1.051
 6436SOL     OW20206   0.718   2.438   3.782
 6436SOL    HW120207   0.779   2.490   3.723
 6436SOL    HW220208   0.683   2.358   3.733
 6437SOL     OW20209   1.605   2.768   6.610
 6437SOL    HW120210   1.668   2.701   6.647
 6437SOL    HW220211   1.656   2.844   6.571
 6438SOL     OW20212   0.425   5.433   1.177
 6438SOL    HW120213   0.493   5.502   1.203
 6438SOL    HW220214   0.334   5.468   1.196
 6439SOL     OW20215   4.331   6.362   2.950
 6439SOL    HW120216   4.303   6.300   2.877
 6439SOL    HW220217   4.327   6.315   3.038
 6440SOL     OW20218   2.391   2.315   5.670
 6440SOL    HW120219   2.313   2.296   5.610
 6440SOL    HW220220   2.476   2.291   5.623
 6441SOL     OW20221   1.734   1.919   1.403
 6441SOL    HW120222   1.831   1.907   1.386
 6441SOL    HW220223   1.682   1.878   1.328
 6442SOL     OW20224   2.809   1.830   4.450
 6442SOL    HW120225   2.858   1.796   4.530
 6442SOL    HW220226   2.787   1.926   4.462
 6443SOL     OW20227   2.854   2.571   5.917
 6443SOL    HW120228   2.856   2.482   5.964
 6443SOL    HW220229   2.819   2.559   5.824
 6444SOL     OW20230   7.008   4.078   5.235
 6444SOL    HW120231   6.962   4.046   5.153
 6444SOL    HW220232   6.949   4.142   5.284
 6445SOL     OW20233   3.302   3.292   3.684
 6445SOL    HW120234   3.203   3.288   3.673
 6445SOL    HW220235   3.341   3.201   3.673
 6446SOL     OW20236   1.493   0.482   1.417
 6446SOL    HW120237   1.544   0.550   1.365
 6446SOL    HW220238   1.502   0.393   1.373
 6447SOL     OW20239   6.307   3.846   1.454
 6447SOL    HW120240   6.353   3.935   1.449
 6447SOL    HW220241   6.330   3.801   1.540
 6448SOL     OW20242   4.046   4.217   1.454
 6448SOL    HW120243   3.950   4.188   1.445
 6448SOL    HW220244   4.105   4.136   1.450
 6449SOL     OW20245   4.406   5.684   0.378
 6449SOL    HW120246   4.379   5.660   0.285
 6449SOL    HW220247   4.331   5.732   0.424
 6450SOL     OW20248   4.555   3.252   0.657
 6450SOL    HW120249   4.532   3.297   0.743
 6450SOL    HW220250   4.518   3.304   0.581
 6451SOL     OW20251   4.365   2.685   1.429
 6451SOL    HW120252   4.346   2.749   1.503
 6451SOL    HW220253   4.299   2.699   1.355
 6452SOL     OW20254   4.532   2.018   4.568
 6452SOL    HW120255   4.577   1.937   4.531
 6452SOL    HW220256   4.437   2.021   4.535
 6453SOL     OW20257   2.585   1.042   3.054
 6453SOL    HW120258   2.519   0.969   3.076
 6453SOL    HW220259   2.639   1.063   3.136
 6454SOL     OW20260   5.188   3.933   5.230
 6454SOL    HW120261   5.255   4.007   5.239
 6454SOL    HW220262   5.150   3.934   5.137
 6455SOL     OW20263   0.160   3.010   4.910
 6455SOL    HW120264   0.210   2.985   4.993
 6455SOL    HW220265   0.120   3.101   4.921
 6456SOL     OW20266   6.442   1.777   3.351
 6456SOL    HW120267   6.454   1.684   3.316
 6456SOL    HW220268   6.352   1.811   3.326
 6457SOL     OW20269   1.482   5.764   3.563
 6457SOL    HW120270   1.558   5.799   3.508
 6457SOL    HW220271   1.457   5.833   3.631
 6458SOL     OW20272   1.195   0.684   5.076
 6458SOL    HW120273   1.265   0.653   5.140
 6458SOL    HW220274   1.114   0.714   5.128
 6459SOL     OW20275   0.689   3.455   2.922
 6459SOL    HW120276   0.625   3.413   2.858
 6459SOL    HW220277   0.777   3.407   2.917
 6460SOL     OW20278   1.864   5.362   5.527
 6460SOL    HW120279   1.884   5.264   5.526
 6460SOL    HW220280   1.773   5.378   5.487
 6461SOL     OW20281   0.133   6.847   2.030
 6461SOL    HW120282   0.074   6.922   1.999
 6461SOL    HW220283   0.193   6.881   2.102
 6462SOL     OW20284   2.553   4.023   5.552
 6462SOL    HW120285   2.512   4.006   5.463
 6462SOL    HW220286   2.653   4.014   5.545
 6463SOL     OW20287   4.817   3.190   1.695
 6463SOL    HW120288   4.737   3.182   1.754
 6463SOL    HW220289   4.877   3.111   1.708
 6464SOL     OW20290   1.080   3.881   3.393
 6464SOL    HW120291   1.095   3.894   3.295
 6464SOL    HW220292   1.167   3.892   3.441
 6465SOL     OW20293   2.423   1.457   2.876
 6465SOL    HW120294   2.327   1.429   2.876
 6465SOL    HW220295   2.439   1.522   2.950
 6466SOL     OW20296   6.316   5.705   6.585
 6466SOL    HW120297   6.285   5.670   6.497
 6466SOL    HW220298   6.391   5.770   6.571
 6467SOL     OW20299   2.645   3.661   5.675
 6467SOL    HW120300   2.574   3.727   5.651
 6467SOL    HW220301   2.720   3.708   5.721
 6468SOL     OW20302   0.788   0.778   1.075
 6468SOL    HW120303   0.873   0.823   1.046
 6468SOL    HW220304   0.712   0.841   1.063
 6469SOL     OW20305   2.431   1.011   0.915
 6469SOL    HW120306   2.456   0.931   0.860
 6469SOL    HW220307   2.419   0.983   1.011
 6470SOL     OW20308   5.593   1.017   6.850
 6470SOL    HW120309   5.560   0.935   6.803
 6470SOL    HW220310   5.555   1.020   6.942
 6471SOL     OW20311   1.188   6.220   5.714
 6471SOL    HW120312   1.127   6.216   5.793
 6471SOL    HW220313   1.228   6.312   5.707
 6472SOL     OW20314   0.844   6.669   1.403
 6472SOL    HW120315   0.799   6.581   1.388
 6472SOL    HW220316   0.896   6.695   1.321
 6473SOL     OW20317   2.933   1.967   3.797
 6473SOL    HW120318   2.921   2.011   3.886
 6473SOL    HW220319   2.866   2.004   3.732
 6474SOL     OW20320   3.955   6.864   4.545
 6474SOL    HW120321   3.857   6.852   4.565
 6474SOL    HW220322   3.967   6.944   4.487
 6475SOL     OW20323   5.333   5.889   3.510
 6475SOL    HW120324   5.371   5.797   3.499
 6475SOL    HW220325   5.246   5.884   3.559
 6476SOL     OW20326   5.419   4.113   5.182
 6476SOL    HW120327   5.432   4.077   5.090
 6476SOL    HW220328   5.501   4.096   5.237
 6477SOL     OW20329   1.200   6.797   0.813
 6477SOL    HW120330   1.187   6.871   0.879
 6477SOL    HW220331   1.116   6.744   0.806
 6478SOL     OW20332   1.885   5.936   0.130
 6478SOL    HW120333   1.943   5.882   0.192
 6478SOL    HW220334   1.867   6.025   0.170
 6479SOL     OW20335   4.398   5.921   4.040
 6479SOL    HW120336   4.390   5.988   3.967
 6479SOL    HW220337   4.495   5.901   4.057
 6480SOL     OW20338   3.359   1.224   4.978
 6480SOL    HW120339   3.320   1.216   5.070
 6480SOL    HW220340   3.385   1.319   4.961
 6481SOL     OW20341   3.961   3.512   1.885
 6481SOL    HW120342   4.002   3.525   1.976
 6481SOL    HW220343   3.905   3.592   1.862
 6482SOL     OW20344   5.458   2.773   4.239
 6482SOL    HW120345   5.544   2.824   4.244
 6482SOL    HW220346   5.470   2.694   4.178
 6483SOL     OW20347   1.869   5.456   5.800
 6483SOL    HW120348   1.820   5.446   5.714
 6483SOL    HW220349   1.943   5.389   5.804
 6484SOL     OW20350   4.136   0.557   3.324
 6484SOL    HW120351   4.149   0.487   3.395
 6484SOL    HW220352   4.111   0.513   3.238
 6485SOL     OW20353   1.818   4.979   4.770
 6485SOL    HW120354   1.793   4.904   4.709
 6485SOL    HW220355   1.739   5.001   4.828
 6486SOL     OW20356   0.019   4.283   2.450
 6486SOL    HW120357   0.108   4.258   2.488
 6486SOL    HW220358   0.008   4.382   2.456
 6487SOL     OW20359   6.161   5.442   4.343
 6487SOL    HW120360   6.217   5.523   4.361
 6487SOL    HW220361   6.073   5.450   4.389
 6488SOL     OW20362   3.373   5.188   3.947
 6488SOL    HW120363   3.383   5.211   4.044
 6488SOL    HW220364   3.425   5.252   3.892
 6489SOL     OW20365   6.463   3.126   5.399
 6489SOL    HW120366   6.378   3.165   5.433
 6489SOL    HW220367   6.502   3.185   5.328
 6490SOL     OW20368   1.927   3.410   6.988
 6490SOL    HW120369   1.898   3.390   6.894
 6490SOL    HW220370   1.888   3.342   0.027
 6491SOL     OW20371   1.107   0.389   2.038
 6491SOL    HW120372   1.139   0.458   1.972
 6491SOL    HW220373   1.082   0.434   2.123
 6492SOL     OW20374   4.016   3.180   3.460
 6492SOL    HW120375   4.050   3.246   3.527
 6492SOL    HW220376   3.992   3.095   3.506
 6493SOL     OW20377   1.679   4.753   4.178
 6493SOL    HW120378   1.767   4.768   4.131
 6493SOL    HW220379   1.607   4.803   4.130
 6494SOL     OW20380   6.234   1.127   1.437
 6494SOL    HW120381   6.230   1.128   1.537
 6494SOL    HW220382   6.147   1.094   1.401
 6495SOL     OW20383   5.949   6.676   2.630
 6495SOL    HW120384   5.851   6.658   2.641
 6495SOL    HW220385   5.966   6.774   2.641
 6496SOL     OW20386   2.774   2.894   1.400
 6496SOL    HW120387   2.729   2.836   1.468
 6496SOL    HW220388   2.705   2.946   1.350
 6497SOL     OW20389   0.420   2.460   0.773
 6497SOL    HW120390   0.470   2.542   0.803
 6497SOL    HW220391   0.387   2.474   0.680
 6498SOL     OW20392   2.478   4.854   4.578
 6498SOL    HW120393   2.477   4.758   4.607
 6498SOL    HW220394   2.446   4.911   4.654
 6499SOL     OW20395   6.111   2.198   2.454
 6499SOL    HW120396   6.193   2.169   2.503
 6499SOL    HW220397   6.114   2.164   2.360
 6500SOL     OW20398   1.735   4.212   2.724
 6500SOL    HW120399   1.667   4.269   2.769
 6500SOL    HW220400   1.815   4.201   2.783
 6501SOL     OW20401   6.444   1.485   2.588
 6501SOL    HW120402   6.484   1.482   2.680
 6501SOL    HW220403   6.470   1.403   2.538
 6502SOL     OW20404   0.921   2.997   2.282
 6502SOL    HW120405   0.998   3.060   2.269
 6502SOL    HW220406   0.906   2.983   2.380
 6503SOL     OW20407   0.247   2.204   5.490
 6503SOL    HW120408   0.156   2.234   5.516
 6503SOL    HW220409   0.273   2.247   5.403
 6504SOL     OW20410   4.073   6.570   6.343
 6504SOL    HW120411   4.083   6.507   6.420
 6504SOL    HW220412   4.010   6.530   6.276
 6505SOL     OW20413   0.994   6.751   0.148
 6505SOL    HW120414   0.918   6.691   0.120
 6505SOL    HW220415   1.033   6.717   0.234
 6506SOL     OW20416   0.183   4.168   1.841
 6506SOL    HW120417   0.205   4.185   1.745
 6506SOL    HW220418   0.103   4.109   1.847
 6507SOL     OW20419   4.999   5.619   0.644
 6507SOL    HW120420   4.942   5.545   0.607
 6507SOL    HW220421   5.007   5.692   0.576
 6508SOL     OW20422   6.986   0.700   4.210
 6508SOL    HW120423   0.026   0.728   4.283
 6508SOL    HW220424   6.954   0.781   4.160
 6509SOL     OW20425   2.527   1.488   0.232
 6509SOL    HW120426   2.551   1.464   0.326
 6509SOL    HW220427   2.443   1.542   0.232
 6510SOL     OW20428   3.480   4.892   4.202
 6510SOL    HW120429   3.387   4.927   4.216
 6510SOL    HW220430   3.533   4.903   4.287
 6511SOL     OW20431   3.570   3.074   0.237
 6511SOL    HW120432   3.599   3.143   0.302
 6511SOL    HW220433   3.599   2.983   0.268
 6512SOL     OW20434   4.800   0.950   1.578
 6512SOL    HW120435   4.865   1.025   1.573
 6512SOL    HW220436   4.734   0.958   1.504
 6513SOL     OW20437   3.209   5.235   2.062
 6513SOL    HW120438   3.140   5.165   2.044
 6513SOL    HW220439   3.297   5.206   2.025
 6514SOL     OW20440   5.318   5.546   5.894
 6514SOL    HW120441   5.284   5.576   5.804
 6514SOL    HW220442   5.394   5.482   5.881
 6515SOL     OW20443   1.103   5.131   2.251
 6515SOL    HW120444   1.110   5.160   2.346
 6515SOL    HW220445   1.048   5.048   2.245
 6516SOL     OW20446   5.648   0.994   3.524
 6516SOL    HW120447   5.726   1.052   3.501
 6516SOL    HW220448   5.647   0.978   3.623
 6517SOL     OW20449   6.726   4.474   0.838
 6517SOL    HW120450   6.787   4.547   0.869
 6517SOL    HW220451   6.774   4.415   0.773
 6518SOL     OW20452   1.427   1.431   2.296
 6518SOL    HW120453   1.359   1.503   2.311
 6518SOL    HW220454   1.499   1.438   2.364
 6519SOL     OW20455   1.379   1.856   3.771
 6519SOL    HW120456   1.368   1.757   3.767
 6519SOL    HW220457   1.309   1.895   3.830
 6520SOL     OW20458   5.616   6.438   6.756
 6520SOL    HW120459   5.579   6.506   6.819
 6520SOL    HW220460   5.712   6.422   6.777
 6521SOL     OW20461   1.336   4.355   4.470
 6521SOL    HW120462   1.354   4.325   4.564
 6521SOL    HW220463   1.418   4.398   4.432
 6522SOL     OW20464   2.497   2.918   5.418
 6522SOL    HW120465   2.482   2.973   5.499
 6522SOL    HW220466   2.472   2.970   5.336
 6523SOL     OW20467   5.322   6.849   0.238
 6523SOL    HW120468   5.374   6.764   0.228
 6523SOL    HW220469   5.253   6.838   0.310
 6524SOL     OW20470   3.385   2.327   1.130
 6524SOL    HW120471   3.318   2.395   1.099
 6524SOL    HW220472   3.445   2.368   1.199
 6525SOL     OW20473   2.340   4.776   3.778
 6525SOL    HW120474   2.258   4.828   3.799
 6525SOL    HW220475   2.315   4.682   3.757
 6526SOL     OW20476   6.503   6.511   0.621
 6526SOL    HW120477   6.582   6.463   0.658
 6526SOL    HW220478   6.526   6.550   0.531
 6527SOL     OW20479   5.360   2.510   0.623
 6527SOL    HW120480   5.310   2.577   0.678
 6527SOL    HW220481   5.299   2.435   0.599
 6528SOL     OW20482   4.750   6.592   0.380
 6528SOL    HW120483   4.679   6.610   0.312
 6528SOL    HW220484   4.801   6.511   0.355
 6529SOL     OW20485   4.484   6.967   1.543
 6529SOL    HW120486   4.480   0.035   1.584
 6529SOL    HW220487   4.503   6.899   1.614
 6530SOL     OW20488   0.027   2.207   4.284
 6530SOL    HW120489   0.006   2.237   4.377
 6530SOL    HW220490   0.030   2.286   4.223
 6531SOL     OW20491   3.402   3.816   3.787
 6531SOL    HW120492   3.400   3.862   3.698
 6531SOL    HW220493   3.311   3.780   3.808
 6532SOL     OW20494   1.139   5.749   0.214
 6532SOL    HW120495   1.143   5.828   0.275
 6532SOL    HW220496   1.044   5.733   0.187
 6533SOL     OW20497   4.910   5.240   1.036
 6533SOL    HW120498   4.880   5.255   0.942
 6533SOL    HW220499   4.933   5.328   1.078
 6534SOL     OW20500   6.497   3.107   3.808
 6534SOL    HW120501   6.587   3.074   3.782
 6534SOL    HW220502   6.430   3.081   3.738
 6535SOL     OW20503   5.569   3.646   6.944
 6535SOL    HW120504   5.605   3.643   0.015
 6535SOL    HW220505   5.472   3.672   6.947
 6536SOL     OW20506   0.139   5.085   5.340
 6536SOL    HW120507   0.193   5.098   5.423
 6536SOL    HW220508   0.071   5.158   5.332
 6537SOL     OW20509   6.573   5.557   4.585
 6537SOL    HW120510   6.476   5.573   4.604
 6537SOL    HW220511   6.582   5.505   4.501
 6538SOL     OW20512   1.653   3.413   3.305
 6538SOL    HW120513   1.730   3.449   3.251
 6538SOL    HW220514   1.652   3.313   3.299
 6539SOL     OW20515   5.401   0.099   5.379
 6539SOL    HW120516   5.480   0.137   5.330
 6539SOL    HW220517   5.382   0.155   5.459
 6540SOL     OW20518   0.949   2.364   5.624
 6540SOL    HW120519   1.035   2.350   5.574
 6540SOL    HW220520   0.949   2.307   5.706
 6541SOL     OW20521   3.978   1.408   5.634
 6541SOL    HW120522   3.893   1.408   5.580
 6541SOL    HW220523   4.053   1.373   5.578
 6542SOL     OW20524   2.167   4.729   2.212
 6542SOL    HW120525   2.231   4.659   2.181
 6542SOL    HW220526   2.080   4.718   2.162
 6543SOL     OW20527   4.043   1.836   4.109
 6543SOL    HW120528   3.969   1.820   4.043
 6543SOL    HW220529   4.104   1.907   4.074
 6544SOL     OW20530   0.946   0.604   1.245
 6544SOL    HW120531   0.895   0.527   1.282
 6544SOL    HW220532   0.883   0.669   1.204
 6545SOL     OW20533   5.868   5.281   1.010
 6545SOL    HW120534   5.951   5.314   1.055
 6545SOL    HW220535   5.854   5.332   0.925
 6546SOL     OW20536   4.384   5.090   4.717
 6546SOL    HW120537   4.395   5.006   4.665
 6546SOL    HW220538   4.289   5.122   4.709
 6547SOL     OW20539   1.308   6.613   5.251
 6547SOL    HW120540   1.351   6.624   5.162
 6547SOL    HW220541   1.280   6.517   5.262
 6548SOL     OW20542   1.320   1.956   5.905
 6548SOL    HW120543   1.401   1.918   5.860
 6548SOL    HW220544   1.244   1.958   5.840
 6549SOL     OW20545   3.138   1.470   3.262
 6549SOL    HW120546   3.068   1.404   3.234
 6549SOL    HW220547   3.100   1.562   3.256
 6550SOL     OW20548   5.842   6.977   1.972
 6550SOL    HW120549   5.905   6.909   1.936
 6550SOL    HW220550   5.894   0.035   2.003
 6551SOL     OW20551   2.622   4.993   1.530
 6551SOL    HW120552   2.673   5.008   1.615
 6551SOL    HW220553   2.524   5.005   1.547
 6552SOL     OW20554   2.262   3.755   6.924
 6552SOL    HW120555   2.166   3.780   6.913
 6552SOL    HW220556   2.318   3.805   6.857
 6553SOL     OW20557   0.333   1.531   3.403
 6553SOL    HW120558   0.274   1.490   3.473
 6553SOL    HW220559   0.282   1.538   3.317
 6554SOL     OW20560   1.483   1.768   4.062
 6554SOL    HW120561   1.496   1.814   4.150
 6554SOL    HW220562   1.450   1.834   3.994
 6555SOL     OW20563   1.744   3.782   2.044
 6555SOL    HW120564   1.758   3.691   2.005
 6555SOL    HW220565   1.831   3.817   2.079
 6556SOL     OW20566   4.973   3.373   3.251
 6556SOL    HW120567   4.971   3.462   3.206
 6556SOL    HW220568   4.888   3.324   3.231
 6557SOL     OW20569   2.110   6.606   2.848
 6557SOL    HW120570   2.173   6.636   2.776
 6557SOL    HW220571   2.156   6.613   2.937
 6558SOL     OW20572   5.419   5.498   1.061
 6558SOL    HW120573   5.499   5.543   1.022
 6558SOL    HW220574   5.354   5.477   0.988
 6559SOL     OW20575   0.387   1.818   6.169
 6559SOL    HW120576   0.340   1.730   6.161
 6559SOL    HW220577   0.328   1.883   6.215
 6560SOL     OW20578   6.687   4.779   6.014
 6560SOL    HW120579   6.748   4.807   5.940
 6560SOL    HW220580   6.627   4.855   6.039
 6561SOL     OW20581   2.724   5.332   0.398
 6561SOL    HW120582   2.819   5.344   0.371
 6561SOL    HW220583   2.717   5.338   0.498
 6562SOL     OW20584   4.531   2.831   1.224
 6562SOL    HW120585   4.463   2.841   1.152
 6562SOL    HW220586   4.497   2.769   1.295
 6563SOL     OW20587   6.053   5.470   5.297
 6563SOL    HW120588   6.100   5.438   5.379
 6563SOL    HW220589   5.980   5.406   5.273
 6564SOL     OW20590   5.080   3.998   2.045
 6564SOL    HW120591   5.105   4.045   2.130
 6564SOL    HW220592   5.140   3.919   2.032
 6565SOL     OW20593   5.249   5.650   2.241
 6565SOL    HW120594   5.267   5.554   2.262
 6565SOL    HW220595   5.173   5.682   2.298
 6566SOL     OW20596   5.599   5.616   3.825
 6566SOL    HW120597   5.623   5.629   3.922
 6566SOL    HW220598   5.549   5.530   3.814
 6567SOL     OW20599   3.253   0.645   2.511
 6567SOL    HW120600   3.217   0.611   2.423
 6567SOL    HW220601   3.194   0.718   2.544
 6568SOL     OW20602   5.069   1.576   0.472
 6568SOL    HW120603   5.063   1.510   0.396
 6568SOL    HW220604   5.008   1.547   0.546
 6569SOL     OW20605   1.437   4.109   3.425
 6569SOL    HW120606   1.406   4.040   3.490
 6569SOL    HW220607   1.447   4.197   3.471
 6570SOL     OW20608   4.341   0.057   2.779
 6570SOL    HW120609   4.335   0.141   2.833
 6570SOL    HW220610   4.249   0.019   2.767
 6571SOL     OW20611   3.215   6.961   3.150
 6571SOL    HW120612   3.211   6.911   3.237
 6571SOL    HW220613   3.302   7.010   3.144
 6572SOL     OW20614   1.362   6.469   3.835
 6572SOL    HW120615   1.323   6.446   3.924
 6572SOL    HW220616   1.299   6.528   3.785
 6573SOL     OW20617   1.287   2.492   3.545
 6573SOL    HW120618   1.246   2.503   3.635
 6573SOL    HW220619   1.381   2.460   3.554
 6574SOL     OW20620   0.893   4.733   1.451
 6574SOL    HW120621   0.800   4.698   1.437
 6574SOL    HW220622   0.939   4.739   1.362
 6575SOL     OW20623   6.944   1.195   4.200
 6575SOL    HW120624   6.911   1.276   4.152
 6575SOL    HW220625   6.866   1.140   4.230
 6576SOL     OW20626   3.879   7.018   2.120
 6576SOL    HW120627   3.826   7.007   2.204
 6576SOL    HW220628   3.942   6.940   2.110
 6577SOL     OW20629   3.540   0.785   5.475
 6577SOL    HW120630   3.498   0.870   5.442
 6577SOL    HW220631   3.616   0.807   5.536
 6578SOL     OW20632   0.655   5.975   0.038
 6578SOL    HW120633   0.709   5.929   6.991
 6578SOL    HW220634   0.568   5.927   0.050
 6579SOL     OW20635   1.574   1.778   3.424
 6579SOL    HW120636   1.614   1.803   3.512
 6579SOL    HW220637   1.487   1.827   3.413
 6580SOL     OW20638   3.291   2.850   6.948
 6580SOL    HW120639   3.370   2.798   6.916
 6580SOL    HW220640   3.321   2.939   6.981
 6581SOL     OW20641   0.138   2.774   2.295
 6581SOL    HW120642   0.135   2.873   2.282
 6581SOL    HW220643   0.196   2.752   2.373
 6582SOL     OW20644   3.993   0.059   3.408
 6582SOL    HW120645   3.991   0.080   3.310
 6582SOL    HW220646   3.903   0.078   3.448
 6583SOL     OW20647   2.537   4.036   1.377
 6583SOL    HW120648   2.483   3.974   1.319
 6583SOL    HW220649   2.508   4.025   1.473
 6584SOL     OW20650   4.129   3.366   6.462
 6584SOL    HW120651   4.111   3.441   6.526
 6584SOL    HW220652   4.221   3.330   6.477
 6585SOL     OW20653   5.618   0.160   1.586
 6585SOL    HW120654   5.708   0.155   1.629
 6585SOL    HW220655   5.553   0.103   1.638
 6586SOL     OW20656   6.686   2.043   0.240
 6586SOL    HW120657   6.682   1.945   0.260
 6586SOL    HW220658   6.618   2.090   0.296
 6587SOL     OW20659   2.691   5.045   5.580
 6587SOL    HW120660   2.597   5.028   5.553
 6587SOL    HW220661   2.702   5.027   5.677
 6588SOL     OW20662   1.135   1.800   0.746
 6588SOL    HW120663   1.038   1.821   0.731
 6588SOL    HW220664   1.175   1.765   0.662
 6589SOL     OW20665   5.601   6.892   0.684
 6589SOL    HW120666   5.531   6.861   0.619
 6589SOL    HW220667   5.595   6.839   0.768
 6590SOL     OW20668   1.485   6.222   4.560
 6590SOL    HW120669   1.493   6.213   4.659
 6590SOL    HW220670   1.400   6.181   4.529
 6591SOL     OW20671   6.350   3.347   3.678
 6591SOL    HW120672   6.303   3.259   3.669
 6591SOL    HW220673   6.442   3.340   3.640
 6592SOL     OW20674   0.473   0.581   4.642
 6592SOL    HW120675   0.409   0.529   4.698
 6592SOL    HW220676   0.537   0.630   4.701
 6593SOL     OW20677   0.750   0.894   3.265
 6593SOL    HW120678   0.806   0.957   3.319
 6593SOL    HW220679   0.799   0.809   3.251
 6594SOL     OW20680   5.435   0.484   6.532
 6594SOL    HW120681   5.367   0.420   6.567
 6594SOL    HW220682   5.522   0.436   6.518
 6595SOL     OW20683   1.669   1.267   4.983
 6595SOL    HW120684   1.573   1.295   4.980
 6595SOL    HW220685   1.679   1.178   4.937
 6596SOL     OW20686   5.581   0.753   3.015
 6596SOL    HW120687   5.617   0.690   3.083
 6596SOL    HW220688   5.496   0.717   2.977
 6597SOL     OW20689   1.274   4.939   1.372
 6597SOL    HW120690   1.175   4.954   1.382
 6597SOL    HW220691   1.323   5.025   1.383
 6598SOL     OW20692   1.587   5.455   1.672
 6598SOL    HW120693   1.612   5.388   1.742
 6598SOL    HW220694   1.516   5.416   1.613
 6599SOL     OW20695   0.716   6.124   6.291
 6599SOL    HW120696   0.757   6.190   6.354
 6599SOL    HW220697   0.776   6.113   6.212
 6600SOL     OW20698   5.026   6.910   4.307
 6600SOL    HW120699   5.024   6.840   4.378
 6600SOL    HW220700   4.936   6.916   4.264
 6601SOL     OW20701   1.010   2.908   2.644
 6601SOL    HW120702   1.024   2.836   2.576
 6601SOL    HW220703   1.079   2.899   2.716
 6602SOL     OW20704   5.949   6.284   0.395
 6602SOL    HW120705   5.940   6.370   0.445
 6602SOL    HW220706   5.897   6.213   0.443
 6603SOL     OW20707   0.316   4.710   2.499
 6603SOL    HW120708   0.265   4.659   2.431
 6603SOL    HW220709   0.265   4.792   2.524
 6604SOL     OW20710   1.540   5.376   2.479
 6604SOL    HW120711   1.477   5.454   2.484
 6604SOL    HW220712   1.619   5.394   2.537
 6605SOL     OW20713   0.165   5.413   0.989
 6605SOL    HW120714   0.164   5.343   0.917
 6605SOL    HW220715   0.134   5.372   1.075
 6606SOL     OW20716   1.337   4.852   2.979
 6606SOL    HW120717   1.338   4.833   3.077
 6606SOL    HW220718   1.282   4.934   2.961
 6607SOL     OW20719   6.551   3.400   3.928
 6607SOL    HW120720   6.523   3.322   3.873
 6607SOL    HW220721   6.492   3.406   4.009
 6608SOL     OW20722   1.969   0.935   5.322
 6608SOL    HW120723   1.992   0.861   5.385
 6608SOL    HW220724   1.877   0.970   5.344
 6609SOL     OW20725   2.527   2.173   6.893
 6609SOL    HW120726   2.516   2.271   6.878
 6609SOL    HW220727   2.623   2.153   6.915
 6610SOL     OW20728   3.138   5.934   0.933
 6610SOL    HW120729   3.206   6.002   0.960
 6610SOL    HW220730   3.184   5.849   0.909
 6611SOL     OW20731   3.186   1.556   4.822
 6611SOL    HW120732   3.143   1.504   4.896
 6611SOL    HW220733   3.163   1.653   4.831
 6612SOL     OW20734   6.717   0.591   0.233
 6612SOL    HW120735   6.670   0.508   0.264
 6612SOL    HW220736   6.669   0.672   0.266
 6613SOL     OW20737   4.301   0.203   1.243
 6613SOL    HW120738   4.381   0.262   1.246
 6613SOL    HW220739   4.327   0.110   1.270
 6614SOL     OW20740   4.027   4.756   0.562
 6614SOL    HW120741   4.106   4.703   0.532
 6614SOL    HW220742   3.943   4.703   0.546
 6615SOL     OW20743   3.832   5.701   6.037
 6615SOL    HW120744   3.752   5.675   5.983
 6615SOL    HW220745   3.818   5.793   6.076
 6616SOL     OW20746   4.300   2.075   6.137
 6616SOL    HW120747   4.308   2.000   6.202
 6616SOL    HW220748   4.226   2.136   6.165
 6617SOL     OW20749   3.516   1.829   4.200
 6617SOL    HW120750   3.426   1.815   4.160
 6617SOL    HW220751   3.521   1.919   4.243
 6618SOL     OW20752   6.567   3.072   3.484
 6618SOL    HW120753   6.485   3.105   3.437
 6618SOL    HW220754   6.595   2.984   3.444
 6619SOL     OW20755   4.527   5.147   4.258
 6619SOL    HW120756   4.547   5.164   4.355
 6619SOL    HW220757   4.448   5.202   4.231
 6620SOL     OW20758   1.123   2.692   3.422
 6620SOL    HW120759   1.198   2.631   3.446
 6620SOL    HW220760   1.089   2.738   3.504
 6621SOL     OW20761   3.381   3.517   3.832
 6621SOL    HW120762   3.295   3.565   3.844
 6621SOL    HW220763   3.365   3.430   3.786
 6622SOL     OW20764   0.193   4.677   1.941
 6622SOL    HW120765   0.143   4.739   2.002
 6622SOL    HW220766   0.149   4.588   1.939
 6623SOL     OW20767   3.645   3.263   3.980
 6623SOL    HW120768   3.718   3.291   4.042
 6623SOL    HW220769   3.673   3.180   3.931
 6624SOL     OW20770   2.463   2.193   2.792
 6624SOL    HW120771   2.391   2.164   2.729
 6624SOL    HW220772   2.518   2.113   2.819
 6625SOL     OW20773   0.216   4.437   5.285
 6625SOL    HW120774   0.213   4.497   5.205
 6625SOL    HW220775   0.307   4.442   5.327
 6626SOL     OW20776   3.186   5.957   5.200
 6626SOL    HW120777   3.215   5.954   5.105
 6626SOL    HW220778   3.184   6.052   5.232
 6627SOL     OW20779   2.585   6.732   4.557
 6627SOL    HW120780   2.578   6.657   4.622
 6627SOL    HW220781   2.538   6.707   4.472
 6628SOL     OW20782   3.857   6.792   3.547
 6628SOL    HW120783   3.938   6.840   3.511
 6628SOL    HW220784   3.799   6.858   3.595
 6629SOL     OW20785   4.663   5.998   4.956
 6629SOL    HW120786   4.571   6.014   4.920
 6629SOL    HW220787   4.723   6.073   4.927
 6630SOL     OW20788   2.060   6.943   0.493
 6630SOL    HW120789   2.037   0.012   0.461
 6630SOL    HW220790   1.984   6.905   0.545
 6631SOL     OW20791   1.612   1.596   6.092
 6631SOL    HW120792   1.530   1.650   6.078
 6631SOL    HW220793   1.640   1.602   6.188
 6632SOL     OW20794   1.227   0.658   6.328
 6632SOL    HW120795   1.204   0.607   6.245
 6632SOL    HW220796   1.211   0.599   6.408
 6633SOL     OW20797   4.734   6.495   6.226
 6633SOL    HW120798   4.653   6.545   6.194
 6633SOL    HW220799   4.815   6.552   6.212
 6634SOL     OW20800   2.947   2.264   4.287
 6634SOL    HW120801   2.970   2.264   4.385
 6634SOL    HW220802   2.848   2.265   4.277
 6635SOL     OW20803   5.292   5.228   6.099
 6635SOL    HW120804   5.254   5.275   6.179
 6635SOL    HW220805   5.350   5.292   6.048
 6636SOL     OW20806   4.122   1.743   1.195
 6636SOL    HW120807   4.061   1.675   1.153
 6636SOL    HW220808   4.156   1.805   1.124
 6637SOL     OW20809   0.574   2.955   6.734
 6637SOL    HW120810   0.638   2.904   6.791
 6637SOL    HW220811   0.480   2.936   6.764
 6638SOL     OW20812   3.122   4.045   3.839
 6638SOL    HW120813   3.145   3.948   3.826
 6638SOL    HW220814   3.174   4.101   3.774
 6639SOL     OW20815   5.104   3.237   1.547
 6639SOL    HW120816   5.142   3.200   1.462
 6639SOL    HW220817   5.018   3.284   1.527
 6640SOL     OW20818   0.874   3.356   4.492
 6640SOL    HW120819   0.945   3.421   4.518
 6640SOL    HW220820   0.789   3.404   4.472
 6641SOL     OW20821   5.250   2.641   6.860
 6641SOL    HW120822   5.265   2.733   6.899
 6641SOL    HW220823   5.152   2.625   6.850
 6642SOL     OW20824   1.140   4.916   6.135
 6642SOL    HW120825   1.161   4.979   6.060
 6642SOL    HW220826   1.080   4.843   6.102
 6643SOL     OW20827   4.732   5.537   5.796
 6643SOL    HW120828   4.659   5.580   5.849
 6643SOL    HW220829   4.767   5.458   5.846
 6644SOL     OW20830   1.829   0.016   3.417
 6644SOL    HW120831   1.840   6.962   3.354
 6644SOL    HW220832   1.910   0.024   3.475
 6645SOL     OW20833   4.765   2.520   5.160
 6645SOL    HW120834   4.670   2.546   5.141
 6645SOL    HW220835   4.787   2.436   5.109
 6646SOL     OW20836   5.111   6.921   6.038
 6646SOL    HW120837   5.147   7.013   6.021
 6646SOL    HW220838   5.148   6.858   5.969
 6647SOL     OW20839   3.697   4.738   0.721
 6647SOL    HW120840   3.612   4.687   0.725
 6647SOL    HW220841   3.714   4.768   0.627
 6648SOL     OW20842   3.429   5.513   5.422
 6648SOL    HW120843   3.440   5.417   5.398
 6648SOL    HW220844   3.510   5.564   5.393
 6649SOL     OW20845   5.392   2.914   5.533
 6649SOL    HW120846   5.472   2.925   5.475
 6649SOL    HW220847   5.311   2.949   5.485
 6650SOL     OW20848   3.100   0.976   4.861
 6650SOL    HW120849   3.081   1.037   4.784
 6650SOL    HW220850   3.091   0.881   4.831
 6651SOL     OW20851   6.837   1.161   3.810
 6651SOL    HW120852   6.837   1.139   3.712
 6651SOL    HW220853   6.816   1.079   3.863
 6652SOL     OW20854   7.012   5.334   6.947
 6652SOL    HW120855   0.051   5.332   0.003
 6652SOL    HW220856   6.940   5.265   6.960
 6653SOL     OW20857   5.590   3.956   6.588
 6653SOL    HW120858   5.593   4.048   6.548
 6653SOL    HW220859   5.500   3.915   6.572
 6654SOL     OW20860   6.950   1.856   3.356
 6654SOL    HW120861   6.962   1.891   3.264
 6654SOL    HW220862   6.970   1.928   3.422
 6655SOL     OW20863   0.142   5.404   1.450
 6655SOL    HW120864   0.163   5.368   1.542
 6655SOL    HW220865   0.064   5.467   1.456
 6656SOL     OW20866   5.150   0.750   2.340
 6656SOL    HW120867   5.111   0.839   2.316
 6656SOL    HW220868   5.152   0.741   2.440
 6657SOL     OW20869   4.851   2.185   4.247
 6657SOL    HW120870   4.762   2.219   4.279
 6657SOL    HW220871   4.922   2.213   4.311
 6658SOL     OW20872   6.502   5.999   4.822
 6658SOL    HW120873   6.578   5.964   4.767
 6658SOL    HW220874   6.533   6.077   4.877
 6659SOL     OW20875   0.693   6.759   0.710
 6659SOL    HW120876   0.624   6.741   0.780
 6659SOL    HW220877   0.701   6.680   0.649
 6660SOL     OW20878   0.996   0.349   3.996
 6660SOL    HW120879   1.027   0.264   3.953
 6660SOL    HW220880   1.021   0.349   4.093
 6661SOL     OW20881   3.834   6.527   3.392
 6661SOL    HW120882   3.862   6.613   3.434
 6661SOL    HW220883   3.901   6.456   3.413
 6662SOL     OW20884   3.424   7.018   2.237
 6662SOL    HW120885   3.485   0.043   2.173
 6662SOL    HW220886   3.345   0.053   2.257
 6663SOL     OW20887   1.529   3.747   5.254
 6663SOL    HW120888   1.618   3.781   5.286
 6663SOL    HW220889   1.540   3.707   5.163
 6664SOL     OW20890   2.866   7.011   1.769
 6664SOL    HW120891   2.848   0.086   1.782
 6664SOL    HW220892   2.781   6.963   1.751
 6665SOL     OW20893   2.375   0.252   6.667
 6665SOL    HW120894   2.414   0.265   6.576
 6665SOL    HW220895   2.443   0.210   6.727
 6666SOL     OW20896   3.010   6.256   6.302
 6666SOL    HW120897   2.978   6.167   6.271
 6666SOL    HW220898   3.097   6.245   6.351
 6667SOL     OW20899   2.085   5.779   0.252
 6667SOL    HW120900   2.132   5.773   0.340
 6667SOL    HW220901   2.097   5.694   0.202
 6668SOL     OW20902   0.547   3.562   5.985
 6668SOL    HW120903   0.577   3.530   5.895
 6668SOL    HW220904   0.453   3.531   6.003
 6669SOL     OW20905   0.893   3.349   3.477
 6669SOL    HW120906   0.835   3.370   3.555
 6669SOL    HW220907   0.852   3.274   3.424
 6670SOL     OW20908   2.334   4.001   0.750
 6670SOL    HW120909   2.306   3.994   0.846
 6670SOL    HW220910   2.388   4.084   0.736
 6671SOL     OW20911   4.378   4.996   0.325
 6671SOL    HW120912   4.338   4.935   0.394
 6671SOL    HW220913   4.436   4.942   0.264
 6672SOL     OW20914   2.003   2.233   0.984
 6672SOL    HW120915   1.983   2.324   1.021
 6672SOL    HW220916   2.026   2.171   1.059
 6673SOL     OW20917   5.513   3.648   4.510
 6673SOL    HW120918   5.441   3.674   4.574
 6673SOL    HW220919   5.517   3.715   4.436
 6674SOL     OW20920   6.842   1.143   0.199
 6674SOL    HW120921   6.799   1.141   0.289
 6674SOL    HW220922   6.937   1.113   0.206
 6675SOL     OW20923   5.067   1.322   0.355
 6675SOL    HW120924   5.029   1.239   0.313
 6675SOL    HW220925   5.129   1.296   0.429
 6676SOL     OW20926   1.073   3.698   5.325
 6676SOL    HW120927   1.039   3.739   5.410
 6676SOL    HW220928   1.078   3.768   5.254
 6677SOL     OW20929   0.249   2.376   6.824
 6677SOL    HW120930   0.167   2.320   6.827
 6677SOL    HW220931   0.275   2.402   6.917
 6678SOL     OW20932   2.734   3.874   6.572
 6678SOL    HW120933   2.701   3.791   6.527
 6678SOL    HW220934   2.717   3.953   6.513
 6679SOL     OW20935   1.487   0.394   4.315
 6679SOL    HW120936   1.557   0.388   4.244
 6679SOL    HW220937   1.442   0.483   4.310
 6680SOL     OW20938   6.406   5.729   2.034
 6680SOL    HW120939   6.380   5.811   1.983
 6680SOL    HW220940   6.338   5.710   2.105
 6681SOL     OW20941   3.238   5.445   1.005
 6681SOL    HW120942   3.158   5.439   1.065
 6681SOL    HW220943   3.301   5.370   1.025
 6682SOL     OW20944   2.595   5.156   6.342
 6682SOL    HW120945   2.501   5.190   6.336
 6682SOL    HW220946   2.645   5.180   6.259
 6683SOL     OW20947   6.851   5.915   6.339
 6683SOL    HW120948   6.882   6.003   6.376
 6683SOL    HW220949   6.867   5.843   6.406
 6684SOL     OW20950   3.036   6.754   6.012
 6684SOL    HW120951   2.950   6.723   5.973
 6684SOL    HW220952   3.035   6.854   6.020
 6685SOL     OW20953   3.854   2.717   0.686
 6685SOL    HW120954   3.829   2.620   0.685
 6685SOL    HW220955   3.890   2.742   0.775
 6686SOL     OW20956   4.629   4.325   5.143
 6686SOL    HW120957   4.697   4.393   5.116
 6686SOL    HW220958   4.549   4.332   5.084
 6687SOL     OW20959   0.222   2.412   0.986
 6687SOL    HW120960   0.161   2.387   0.911
 6687SOL    HW220961   0.314   2.429   0.949
 6688SOL     OW20962   5.783   5.472   0.782
 6688SOL    HW120963   5.721   5.540   0.821
 6688SOL    HW220964   5.731   5.409   0.724
 6689SOL     OW20965   3.799   5.029   5.976
 6689SOL    HW120966   3.770   5.061   6.067
 6689SOL    HW220967   3.874   5.086   5.943
 6690SOL     OW20968   1.198   0.281   0.276
 6690SOL    HW120969   1.211   0.182   0.270
 6690SOL    HW220970   1.131   0.302   0.347
 6691SOL     OW20971   2.219   1.821   1.898
 6691SOL    HW120972   2.206   1.784   1.806
 6691SOL    HW220973   2.216   1.747   1.965
 6692SOL     OW20974   4.214   6.570   1.973
 6692SOL    HW120975   4.284   6.501   1.955
 6692SOL    HW220976   4.252   6.641   2.033
 6693SOL     OW20977   2.847   1.127   6.005
 6693SOL    HW120978   2.942   1.100   5.996
 6693SOL    HW220979   2.841   1.227   6.010
 6694SOL     OW20980   4.412   4.116   1.687
 6694SOL    HW120981   4.393   4.185   1.757
 6694SOL    HW220982   4.472   4.155   1.617
 6695SOL     OW20983   2.793   2.507   6.976
 6695SOL    HW120984   2.787   2.602   7.004
 6695SOL    HW220985   2.730   2.451   0.007
 6696SOL     OW20986   3.515   2.709   5.286
 6696SOL    HW120987   3.573   2.673   5.359
 6696SOL    HW220988   3.429   2.658   5.283
 6697SOL     OW20989   5.090   1.892   2.645
 6697SOL    HW120990   5.157   1.967   2.644
 6697SOL    HW220991   5.134   1.808   2.614
 6698SOL     OW20992   2.798   3.666   1.772
 6698SOL    HW120993   2.824   3.572   1.792
 6698SOL    HW220994   2.879   3.724   1.771
 6699SOL     OW20995   2.081   3.298   6.533
 6699SOL    HW120996   2.027   3.221   6.564
 6699SOL    HW220997   2.176   3.270   6.520
 6700SOL     OW20998   4.955   0.733   1.411
 6700SOL    HW120999   4.931   0.799   1.483
 6700SOL    HW221000   4.872   0.697   1.369
 6701SOL     OW21001   5.810   6.888   1.617
 6701SOL    HW121002   5.827   6.790   1.630
 6701SOL    HW221003   5.887   6.941   1.651
 6702SOL     OW21004   4.675   2.482   1.327
 6702SOL    HW121005   4.598   2.484   1.263
 6702SOL    HW221006   4.642   2.505   1.419
 6703SOL     OW21007   0.885   1.661   0.614
 6703SOL    HW121008   0.916   1.611   0.533
 6703SOL    HW221009   0.839   1.745   0.585
 6704SOL     OW21010   2.671   6.811   5.879
 6704SOL    HW121011   2.604   6.754   5.927
 6704SOL    HW221012   2.625   6.894   5.846
 6705SOL     OW21013   0.504   4.343   2.459
 6705SOL    HW121014   0.507   4.258   2.407
 6705SOL    HW221015   0.411   4.380   2.457
 6706SOL     OW21016   0.238   6.032   0.334
 6706SOL    HW121017   0.224   6.120   0.381
 6706SOL    HW221018   0.333   6.003   0.346
 6707SOL     OW21019   4.768   1.229   2.947
 6707SOL    HW121020   4.750   1.143   2.899
 6707SOL    HW221021   4.710   1.235   3.028
 6708SOL     OW21022   0.551   3.474   0.746
 6708SOL    HW121023   0.474   3.426   0.787
 6708SOL    HW221024   0.612   3.507   0.819
 6709SOL     OW21025   1.719   4.324   2.097
 6709SOL    HW121026   1.769   4.301   2.013
 6709SOL    HW221027   1.658   4.248   2.121
 6710SOL     OW21028   4.495   1.813   1.491
 6710SOL    HW121029   4.407   1.769   1.475
 6710SOL    HW221030   4.481   1.911   1.506
 6711SOL     OW21031   4.181   5.422   6.100
 6711SOL    HW121032   4.135   5.412   6.189
 6711SOL    HW221033   4.178   5.519   6.073
 6712SOL     OW21034   5.377   3.816   1.106
 6712SOL    HW121035   5.387   3.800   1.007
 6712SOL    HW221036   5.427   3.898   1.132
 6713SOL     OW21037   1.930   4.428   3.971
 6713SOL    HW121038   1.961   4.451   3.879
 6713SOL    HW221039   1.831   4.422   3.973
 6714SOL     OW21040   6.006   1.090   2.122
 6714SOL    HW121041   5.919   1.058   2.084
 6714SOL    HW221042   6.022   1.045   2.210
 6715SOL     OW21043   1.247   0.274   5.984
 6715SOL    HW121044   1.195   0.200   5.941
 6715SOL    HW221045   1.343   0.268   5.956
 6716SOL     OW21046   1.216   4.564   1.767
 6716SOL    HW121047   1.257   4.594   1.852
 6716SOL    HW221048   1.273   4.592   1.690
 6717SOL     OW21049   6.194   2.662   5.372
 6717SOL    HW121050   6.245   2.577   5.361
 6717SOL    HW221051   6.248   2.727   5.425
 6718SOL     OW21052   4.609   2.438   0.791
 6718SOL    HW121053   4.590   2.484   0.878
 6718SOL    HW221054   4.594   2.501   0.715
 6719SOL     OW21055   1.281   1.167   0.348
 6719SOL    HW121056   1.310   1.072   0.362
 6719SOL    HW221057   1.349   1.214   0.291
 6720SOL     OW21058   1.694   1.693   4.866
 6720SOL    HW121059   1.696   1.649   4.956
 6720SOL    HW221060   1.656   1.631   4.798
 6721SOL     OW21061   6.253   0.013   0.205
 6721SOL    HW121062   6.199   0.086   0.247
 6721SOL    HW221063   6.214   6.947   0.229
 6722SOL     OW21064   5.925   4.593   1.360
 6722SOL    HW121065   6.023   4.604   1.376
 6722SOL    HW221066   5.902   4.496   1.357
 6723SOL     OW21067   1.555   3.000   4.674
 6723SOL    HW121068   1.564   3.099   4.673
 6723SOL    HW221069   1.642   2.958   4.645
 6724SOL     OW21070   1.874   3.114   5.269
 6724SOL    HW121071   1.962   3.073   5.245
 6724SOL    HW221072   1.878   3.150   5.362
 6725SOL     OW21073   4.711   2.835   3.844
 6725SOL    HW121074   4.769   2.793   3.775
 6725SOL    HW221075   4.715   2.935   3.834
 6726SOL     OW21076   6.845   1.566   0.228
 6726SOL    HW121077   6.939   1.535   0.242
 6726SOL    HW221078   6.784   1.487   0.223
 6727SOL     OW21079   0.814   5.357   5.715
 6727SOL    HW121080   0.788   5.278   5.771
 6727SOL    HW221081   0.827   5.437   5.774
 6728SOL     OW21082   3.774   1.527   5.177
 6728SOL    HW121083   3.706   1.596   5.201
 6728SOL    HW221084   3.730   1.438   5.169
 6729SOL     OW21085   4.296   1.045   2.691
 6729SOL    HW121086   4.297   0.948   2.712
 6729SOL    HW221087   4.305   1.059   2.592
 6730SOL     OW21088   0.397   2.015   1.366
 6730SOL    HW121089   0.361   2.080   1.433
 6730SOL    HW221090   0.497   2.017   1.368
 6731SOL     OW21091   3.802   0.620   6.428
 6731SOL    HW121092   3.795   0.552   6.501
 6731SOL    HW221093   3.898   0.640   6.409
 6732SOL     OW21094   6.157   5.443   5.541
 6732SOL    HW121095   6.244   5.394   5.544
 6732SOL    HW221096   6.098   5.410   5.615
 6733SOL     OW21097   4.980   4.810   5.348
 6733SOL    HW121098   5.056   4.751   5.323
 6733SOL    HW221099   4.992   4.842   5.442
 6734SOL     OW21100   5.695   2.210   5.493
 6734SOL    HW121101   5.608   2.177   5.457
 6734SOL    HW221102   5.723   2.292   5.443
 6735SOL     OW21103   5.669   3.140   4.379
 6735SOL    HW121104   5.606   3.198   4.431
 6735SOL    HW221105   5.645   3.144   4.282
 6736SOL     OW21106   3.876   4.056   0.798
 6736SOL    HW121107   3.968   4.091   0.819
 6736SOL    HW221108   3.870   4.034   0.701
 6737SOL     OW21109   5.933   3.764   0.864
 6737SOL    HW121110   5.917   3.766   0.962
 6737SOL    HW221111   5.976   3.850   0.835
 6738SOL     OW21112   2.148   6.631   4.104
 6738SOL    HW121113   2.163   6.715   4.051
 6738SOL    HW221114   2.136   6.554   4.041
 6739SOL     OW21115   0.329   0.544   5.792
 6739SOL    HW121116   0.307   0.507   5.701
 6739SOL    HW221117   0.404   0.609   5.784
 6740SOL     OW21118   0.784   6.759   2.149
 6740SOL    HW121119   0.756   6.853   2.126
 6740SOL    HW221120   0.883   6.752   2.147
 6741SOL     OW21121   3.151   2.283   0.313
 6741SOL    HW121122   3.131   2.379   0.334
 6741SOL    HW221123   3.101   2.256   0.231
 6742SOL     OW21124   6.449   4.767   2.453
 6742SOL    HW121125   6.519   4.710   2.410
 6742SOL    HW221126   6.488   4.856   2.475
 6743SOL     OW21127   3.681   4.059   6.808
 6743SOL    HW121128   3.737   4.134   6.773
 6743SOL    HW221129   3.589   4.092   6.827
 6744SOL     OW21130   6.686   6.551   6.016
 6744SOL    HW121131   6.782   6.533   6.038
 6744SOL    HW221132   6.628   6.485   6.065
 6745SOL     OW21133   5.790   3.768   5.725
 6745SOL    HW121134   5.791   3.828   5.805
 6745SOL    HW221135   5.850   3.806   5.654
 6746SOL     OW21136   1.279   2.036   3.103
 6746SOL    HW121137   1.339   2.089   3.162
 6746SOL    HW221138   1.334   1.981   3.040
 6747SOL     OW21139   1.179   6.094   5.059
 6747SOL    HW121140   1.260   6.093   5.118
 6747SOL    HW221141   1.099   6.065   5.111
 6748SOL     OW21142   1.494   1.929   4.335
 6748SOL    HW121143   1.415   1.940   4.396
 6748SOL    HW221144   1.499   2.008   4.274
 6749SOL     OW21145   4.083   4.974   2.234
 6749SOL    HW121146   4.099   4.902   2.302
 6749SOL    HW221147   4.002   4.951   2.180
 6750SOL     OW21148   3.956   0.675   6.130
 6750SOL    HW121149   3.988   0.595   6.180
 6750SOL    HW221150   3.962   0.756   6.188
 6751SOL     OW21151   4.370   1.100   4.511
 6751SOL    HW121152   4.279   1.091   4.552
 6751SOL    HW221153   4.370   1.177   4.447
 6752SOL     OW21154   1.907   4.706   3.157
 6752SOL    HW121155   1.853   4.672   3.079
 6752SOL    HW221156   1.997   4.663   3.157
 6753SOL     OW21157   3.359   4.283   0.406
 6753SOL    HW121158   3.364   4.306   0.309
 6753SOL    HW221159   3.268   4.306   0.441
 6754SOL     OW21160   6.294   1.216   0.504
 6754SOL    HW121161   6.350   1.229   0.586
 6754SOL    HW221162   6.317   1.286   0.437
 6755SOL     OW21163   3.962   5.838   5.525
 6755SOL    HW121164   4.002   5.748   5.510
 6755SOL    HW221165   4.025   5.908   5.493
 6756SOL     OW21166   4.338   3.043   6.719
 6756SOL    HW121167   4.411   2.978   6.738
 6756SOL    HW221168   4.371   3.111   6.653
 6757SOL     OW21169   4.376   6.968   1.941
 6757SOL    HW121170   4.372   6.903   2.017
 6757SOL    HW221171   4.284   7.004   1.923
 6758SOL     OW21172   4.822   3.143   3.145
 6758SOL    HW121173   4.738   3.193   3.126
 6758SOL    HW221174   4.888   3.159   3.072
 6759SOL     OW21175   1.607   2.541   2.149
 6759SOL    HW121176   1.564   2.597   2.078
 6759SOL    HW221177   1.537   2.503   2.209
 6760SOL     OW21178   5.457   1.734   5.615
 6760SOL    HW121179   5.422   1.756   5.707
 6760SOL    HW221180   5.490   1.640   5.614
 6761SOL     OW21181   2.944   0.588   4.903
 6761SOL    HW121182   2.881   0.664   4.920
 6761SOL    HW221183   2.939   0.524   4.980
 6762SOL     OW21184   5.473   5.064   4.478
 6762SOL    HW121185   5.561   5.078   4.524
 6762SOL    HW221186   5.403   5.041   4.545
 6763SOL     OW21187   5.740   6.565   4.111
 6763SOL    HW121188   5.741   6.654   4.064
 6763SOL    HW221189   5.647   6.543   4.138
 6764SOL     OW21190   1.052   4.754   1.677
 6764SOL    HW121191   1.014   4.740   1.586
 6764SOL    HW221192   1.099   4.671   1.707
 6765SOL     OW21193   6.798   4.088   2.942
 6765SOL    HW121194   6.781   4.141   3.025
 6765SOL    HW221195   6.884   4.118   2.900
 6766SOL     OW21196   6.044   0.028   1.647
 6766SOL    HW121197   6.132   7.014   1.677
 6766SOL    HW221198   6.045   0.043   1.548
 6767SOL     OW21199   3.009   0.615   1.113
 6767SOL    HW121200   3.065   0.573   1.184
 6767SOL    HW221201   2.915   0.580   1.119
 6768SOL     OW21202   2.151   6.910   6.881
 6768SOL    HW121203   2.193   6.839   6.824
 6768SOL    HW221204   2.060   6.879   6.909
 6769SOL     OW21205   5.201   3.190   1.257
 6769SOL    HW121206   5.122   3.136   1.287
 6769SOL    HW221207   5.221   3.169   1.161
 6770SOL     OW21208   0.513   1.570   1.808
 6770SOL    HW121209   0.436   1.633   1.808
 6770SOL    HW221210   0.482   1.480   1.839
 6771SOL     OW21211   4.717   1.251   3.750
 6771SOL    HW121212   4.815   1.244   3.769
 6771SOL    HW221213   4.672   1.166   3.776
 6772SOL     OW21214   3.450   1.478   4.928
 6772SOL    HW121215   3.549   1.489   4.924
 6772SOL    HW221216   3.407   1.534   4.857
 6773SOL     OW21217   0.308   3.630   1.761
 6773SOL    HW121218   0.226   3.608   1.814
 6773SOL    HW221219   0.379   3.665   1.823
 6774SOL     OW21220   1.323   2.223   6.353
 6774SOL    HW121221   1.298   2.131   6.322
 6774SOL    HW221222   1.295   2.290   6.283
 6775SOL     OW21223   0.440   3.736   0.242
 6775SOL    HW121224   0.423   3.656   0.299
 6775SOL    HW221225   0.440   3.818   0.299
 6776SOL     OW21226   5.870   6.322   6.739
 6776SOL    HW121227   5.886   6.290   6.646
 6776SOL    HW221228   5.956   6.352   6.780
 6777SOL     OW21229   4.611   4.840   6.849
 6777SOL    HW121230   4.682   4.874   6.911
 6777SOL    HW221231   4.614   4.740   6.847
 6778SOL     OW21232   6.172   5.823   3.433
 6778SOL    HW121233   6.221   5.738   3.416
 6778SOL    HW221234   6.073   5.806   3.428
 6779SOL     OW21235   6.022   3.769   6.520
 6779SOL    HW121236   5.972   3.684   6.537
 6779SOL    HW221237   6.018   3.827   6.601
 6780SOL     OW21238   0.678   3.276   1.582
 6780SOL    HW121239   0.666   3.177   1.592
 6780SOL    HW221240   0.721   3.296   1.494
 6781SOL     OW21241   5.249   4.999   5.955
 6781SOL    HW121242   5.256   5.046   5.867
 6781SOL    HW221243   5.237   5.067   6.028
 6782SOL     OW21244   6.048   1.086   3.292
 6782SOL    HW121245   6.049   0.991   3.262
 6782SOL    HW221246   6.134   1.130   3.266
 6783SOL     OW21247   1.404   5.724   6.473
 6783SOL    HW121248   1.373   5.687   6.385
 6783SOL    HW221249   1.396   5.653   6.543
 6784SOL     OW21250   3.640   3.671   0.239
 6784SOL    HW121251   3.604   3.582   0.212
 6784SOL    HW221252   3.582   3.743   0.201
 6785SOL     OW21253   5.611   5.514   2.062
 6785SOL    HW121254   5.590   5.423   2.098
 6785SOL    HW221255   5.659   5.567   2.132
 6786SOL     OW21256   1.611   3.278   5.389
 6786SOL    HW121257   1.694   3.321   5.352
 6786SOL    HW221258   1.531   3.323   5.350
 6787SOL     OW21259   1.201   3.600   1.440
 6787SOL    HW121260   1.297   3.608   1.463
 6787SOL    HW221261   1.152   3.550   1.512
 6788SOL     OW21262   2.671   3.763   1.276
 6788SOL    HW121263   2.690   3.697   1.349
 6788SOL    HW221264   2.754   3.778   1.222
 6789SOL     OW21265   1.545   4.658   3.344
 6789SOL    HW121266   1.562   4.751   3.311
 6789SOL    HW221267   1.610   4.637   3.418
 6790SOL     OW21268   1.430   2.556   0.804
 6790SOL    HW121269   1.499   2.500   0.848
 6790SOL    HW221270   1.385   2.503   0.731
 6791SOL     OW21271   3.642   3.983   6.219
 6791SOL    HW121272   3.627   3.890   6.186
 6791SOL    HW221273   3.712   3.983   6.290
 6792SOL     OW21274   0.402   5.030   0.806
 6792SOL    HW121275   0.346   5.099   0.853
 6792SOL    HW221276   0.355   4.942   0.809
 6793SOL     OW21277   5.304   1.637   1.058
 6793SOL    HW121278   5.256   1.724   1.071
 6793SOL    HW221279   5.293   1.581   1.140
 6794SOL     OW21280   3.573   1.171   4.557
 6794SOL    HW121281   3.667   1.198   4.576
 6794SOL    HW221282   3.568   1.124   4.469
 6795SOL     OW21283   3.412   6.143   0.076
 6795SOL    HW121284   3.391   6.239   0.091
 6795SOL    HW221285   3.494   6.118   0.128
 6796SOL     OW21286   4.285   1.834   2.246
 6796SOL    HW121287   4.335   1.920   2.234
 6796SOL    HW221288   4.191   1.854   2.273
 6797SOL     OW21289   6.598   2.165   2.650
 6797SOL    HW121290   6.635   2.152   2.742
 6797SOL    HW221291   6.498   2.166   2.654
 6798SOL     OW21292   6.644   6.762   2.458
 6798SOL    HW121293   6.719   6.822   2.430
 6798SOL    HW221294   6.669   6.667   2.439
 6799SOL     OW21295   5.590   6.019   1.790
 6799SOL    HW121296   5.510   5.966   1.819
 6799SOL    HW221297   5.563   6.114   1.775
 6800SOL     OW21298   3.258   4.106   6.607
 6800SOL    HW121299   3.191   4.053   6.554
 6800SOL    HW221300   3.348   4.096   6.566
 6801SOL     OW21301   0.809   3.102   2.987
 6801SOL    HW121302   0.840   3.008   2.999
 6801SOL    HW221303   0.808   3.149   3.076
 6802SOL     OW21304   3.074   4.870   2.556
 6802SOL    HW121305   3.084   4.799   2.627
 6802SOL    HW221306   3.112   4.837   2.470
 6803SOL     OW21307   3.950   1.960   0.924
 6803SOL    HW121308   3.932   2.057   0.935
 6803SOL    HW221309   4.028   1.933   0.981
 6804SOL     OW21310   1.181   6.614   3.378
 6804SOL    HW121311   1.205   6.525   3.419
 6804SOL    HW221312   1.264   6.658   3.344
 6805SOL     OW21313   5.677   1.155   5.609
 6805SOL    HW121314   5.767   1.126   5.642
 6805SOL    HW221315   5.611   1.081   5.621
 6806SOL     OW21316   5.428   6.294   4.800
 6806SOL    HW121317   5.401   6.306   4.896
 6806SOL    HW221318   5.496   6.362   4.775
 6807SOL     OW21319   3.332   3.466   7.011
 6807SOL    HW121320   3.337   3.469   0.089
 6807SOL    HW221321   3.419   3.434   6.975
 6808SOL     OW21322   2.131   3.826   4.061
 6808SOL    HW121323   2.148   3.770   4.142
 6808SOL    HW221324   2.166   3.918   4.075
 6809SOL     OW21325   1.664   4.126   0.046
 6809SOL    HW121326   1.669   4.061   6.992
 6809SOL    HW221327   1.574   4.121   0.088
 6810SOL     OW21328   5.869   1.380   3.730
 6810SOL    HW121329   5.925   1.411   3.807
 6810SOL    HW221330   5.775   1.367   3.760
 6811SOL     OW21331   5.108   5.847   1.972
 6811SOL    HW121332   5.104   5.747   1.979
 6811SOL    HW221333   5.044   5.888   2.037
 6812SOL     OW21334   3.627   2.991   2.796
 6812SOL    HW121335   3.621   3.072   2.854
 6812SOL    HW221336   3.562   2.922   2.827
 6813SOL     OW21337   5.131   3.752   1.280
 6813SOL    HW121338   5.034   3.732   1.270
 6813SOL    HW221339   5.148   3.795   1.368
 6814SOL     OW21340   2.225   2.825   0.667
 6814SOL    HW121341   2.196   2.769   0.745
 6814SOL    HW221342   2.320   2.854   0.680
 6815SOL     OW21343   1.515   0.309   0.560
 6815SOL    HW121344   1.532   0.392   0.508
 6815SOL    HW221345   1.451   0.328   0.634
 6816SOL     OW21346   5.466   4.467   1.599
 6816SOL    HW121347   5.399   4.423   1.659
 6816SOL    HW221348   5.444   4.445   1.504
 6817SOL     OW21349   0.558   2.797   6.084
 6817SOL    HW121350   0.611   2.754   6.157
 6817SOL    HW221351   0.599   2.776   5.995
 6818SOL     OW21352   3.959   5.290   1.410
 6818SOL    HW121353   4.014   5.272   1.492
 6818SOL    HW221354   3.899   5.211   1.392
 6819SOL     OW21355   2.502   1.759   4.080
 6819SOL    HW121356   2.517   1.830   4.011
 6819SOL    HW221357   2.405   1.736   4.083
 6820SOL     OW21358   1.601   5.256   4.608
 6820SOL    HW121359   1.549   5.171   4.610
 6820SOL    HW221360   1.698   5.238   4.624
 6821SOL     OW21361   2.158   3.052   4.055
 6821SOL    HW121362   2.209   2.966   4.062
 6821SOL    HW221363   2.160   3.098   4.144
 6822SOL     OW21364   4.994   1.481   5.914
 6822SOL    HW121365   4.955   1.569   5.886
 6822SOL    HW221366   5.015   1.427   5.833
 6823SOL     OW21367   4.028   3.541   2.156
 6823SOL    HW121368   3.933   3.519   2.178
 6823SOL    HW221369   4.087   3.464   2.182
 6824SOL     OW21370   0.733   5.372   5.241
 6824SOL    HW121371   0.768   5.458   5.205
 6824SOL    HW221372   0.753   5.298   5.177
 6825SOL     OW21373   5.576   0.037   3.573
 6825SOL    HW121374   5.546   7.021   3.486
 6825SOL    HW221375   5.665   7.021   3.598
 6826SOL     OW21376   1.504   2.927   2.858
 6826SOL    HW121377   1.559   2.976   2.790
 6826SOL    HW221378   1.428   2.984   2.887
 6827SOL     OW21379   4.814   5.423   5.259
 6827SOL    HW121380   4.860   5.337   5.279
 6827SOL    HW221381   4.853   5.496   5.316
 6828SOL     OW21382   2.371   1.784   0.996
 6828SOL    HW121383   2.392   1.693   0.959
 6828SOL    HW221384   2.319   1.836   0.929
 6829SOL     OW21385   5.695   4.679   3.739
 6829SOL    HW121386   5.598   4.691   3.757
 6829SOL    HW221387   5.719   4.724   3.653
 6830SOL     OW21388   5.040   1.973   4.126
 6830SOL    HW121389   5.019   2.022   4.210
 6830SOL    HW221390   5.001   1.881   4.130
 6831SOL     OW21391   0.179   1.269   5.627
 6831SOL    HW121392   0.091   1.264   5.675
 6831SOL    HW221393   0.217   1.361   5.638
 6832SOL     OW21394   3.564   4.703   1.206
 6832SOL    HW121395   3.597   4.704   1.300
 6832SOL    HW221396   3.487   4.639   1.198
 6833SOL     OW21397   4.505   5.906   0.501
 6833SOL    HW121398   4.472   5.821   0.460
 6833SOL    HW221399   4.433   5.974   0.500
 6834SOL     OW21400   3.174   5.337   2.636
 6834SOL    HW121401   3.168   5.310   2.540
 6834SOL    HW221402   3.083   5.356   2.672
 6835SOL     OW21403   3.738   0.354   4.868
 6835SOL    HW121404   3.837   0.351   4.885
 6835SOL    HW221405   3.720   0.398   4.781
 6836SOL     OW21406   4.059   5.689   0.065
 6836SOL    HW121407   4.024   5.780   0.089
 6836SOL    HW221408   4.016   5.620   0.122
 6837SOL     OW21409   0.598   2.922   3.003
 6837SOL    HW121410   0.562   2.877   3.085
 6837SOL    HW221411   0.682   2.972   3.026
 6838SOL     OW21412   2.803   1.656   1.264
 6838SOL    HW121413   2.815   1.680   1.360
 6838SOL    HW221414   2.806   1.738   1.208
 6839SOL     OW21415   4.411   1.161   1.673
 6839SOL    HW121416   4.388   1.121   1.761
 6839SOL    HW221417   4.486   1.226   1.684
 6840SOL     OW21418   1.131   1.120   6.598
 6840SOL    HW121419   1.147   1.022   6.612
 6840SOL    HW221420   1.063   1.132   6.526
 6841SOL     OW21421   0.244   3.034   5.701
 6841SOL    HW121422   0.301   2.964   5.659
 6841SOL    HW221423   0.213   3.002   5.791
 6842SOL     OW21424   2.521   4.515   2.307
 6842SOL    HW121425   2.589   4.513   2.234
 6842SOL    HW221426   2.551   4.577   2.379
 6843SOL     OW21427   4.502   0.391   1.315
 6843SOL    HW121428   4.590   0.345   1.332
 6843SOL    HW221429   4.469   0.431   1.401
 6844SOL     OW21430   5.588   0.284   5.285
 6844SOL    HW121431   5.668   0.231   5.258
 6844SOL    HW221432   5.608   0.382   5.272
 6845SOL     OW21433   5.522   1.736   2.722
 6845SOL    HW121434   5.449   1.684   2.768
 6845SOL    HW221435   5.481   1.807   2.665
 6846SOL     OW21436   1.997   3.610   0.134
 6846SOL    HW121437   2.061   3.565   0.196
 6846SOL    HW221438   1.954   3.542   0.075
 6847SOL     OW21439   6.985   2.350   4.528
 6847SOL    HW121440   6.907   2.294   4.556
 6847SOL    HW221441   7.012   2.410   4.603
 6848SOL     OW21442   6.914   5.080   3.845
 6848SOL    HW121443   6.900   5.176   3.822
 6848SOL    HW221444   6.839   5.049   3.903
 6849SOL     OW21445   3.047   4.505   5.641
 6849SOL    HW121446   3.010   4.477   5.552
 6849SOL    HW221447   3.114   4.578   5.627
 6850SOL     OW21448   4.984   0.217   4.272
 6850SOL    HW121449   5.017   0.254   4.185
 6850SOL    HW221450   5.024   0.268   4.348
 6851SOL     OW21451   1.914   4.219   2.980
 6851SOL    HW121452   1.952   4.132   2.947
 6851SOL    HW221453   1.853   4.202   3.057
 6852SOL     OW21454   4.220   3.511   0.272
 6852SOL    HW121455   4.177   3.592   0.312
 6852SOL    HW221456   4.179   3.493   0.183
 6853SOL     OW21457   3.965   4.797   6.015
 6853SOL    HW121458   3.908   4.876   5.991
 6853SOL    HW221459   3.946   4.771   6.110
 6854SOL     OW21460   4.949   5.903   5.845
 6854SOL    HW121461   4.881   5.937   5.910
 6854SOL    HW221462   5.035   5.952   5.858
 6855SOL     OW21463   4.123   5.183   3.178
 6855SOL    HW121464   4.211   5.178   3.131
 6855SOL    HW221465   4.054   5.218   3.115
 6856SOL     OW21466   6.385   2.600   0.778
 6856SOL    HW121467   6.308   2.602   0.841
 6856SOL    HW221468   6.357   2.557   0.693
 6857SOL     OW21469   1.143   4.523   5.835
 6857SOL    HW121470   1.194   4.561   5.758
 6857SOL    HW221471   1.066   4.468   5.801
 6858SOL     OW21472   1.158   2.967   1.331
 6858SOL    HW121473   1.120   3.054   1.364
 6858SOL    HW221474   1.241   2.985   1.279
 6859SOL     OW21475   2.201   2.169   0.818
 6859SOL    HW121476   2.189   2.070   0.829
 6859SOL    HW221477   2.121   2.216   0.855
 6860SOL     OW21478   0.767   6.589   6.916
 6860SOL    HW121479   0.849   6.563   6.865
 6860SOL    HW221480   0.703   6.635   6.854
 6861SOL     OW21481   6.708   3.282   6.924
 6861SOL    HW121482   6.643   3.334   6.868
 6861SOL    HW221483   6.723   3.192   6.883
 6862SOL     OW21484   0.369   4.589   3.560
 6862SOL    HW121485   0.287   4.572   3.505
 6862SOL    HW221486   0.449   4.549   3.515
 6863SOL     OW21487   5.103   1.355   5.345
 6863SOL    HW121488   5.084   1.360   5.443
 6863SOL    HW221489   5.134   1.262   5.322
 6864SOL     OW21490   2.235   3.648   6.607
 6864SOL    HW121491   2.144   3.617   6.636
 6864SOL    HW221492   2.301   3.624   6.678
 6865SOL     OW21493   2.007   0.149   4.292
 6865SOL    HW121494   1.935   0.081   4.276
 6865SOL    HW221495   1.975   0.239   4.263
 6866SOL     OW21496   1.876   4.892   6.849
 6866SOL    HW121497   1.799   4.890   6.913
 6866SOL    HW221498   1.959   4.863   6.896
 6867SOL     OW21499   2.011   2.253   6.207
 6867SOL    HW121500   2.073   2.330   6.192
 6867SOL    HW221501   1.921   2.288   6.235
 6868SOL     OW21502   3.511   4.920   3.456
 6868SOL    HW121503   3.558   4.911   3.544
 6868SOL    HW221504   3.427   4.973   3.469
 6869SOL     OW21505   1.603   0.917   5.537
 6869SOL    HW121506   1.602   0.861   5.454
 6869SOL    HW221507   1.685   0.897   5.590
 6870SOL     OW21508   5.310   2.897   6.455
 6870SOL    HW121509   5.295   2.809   6.500
 6870SOL    HW221510   5.385   2.945   6.501
 6871SOL     OW21511   6.578   2.505   2.953
 6871SOL    HW121512   6.671   2.513   2.916
 6871SOL    HW221513   6.582   2.478   3.049
 6872SOL     OW21514   1.533   4.530   0.894
 6872SOL    HW121515   1.600   4.489   0.832
 6872SOL    HW221516   1.552   4.628   0.902
 6873SOL     OW21517   0.533   4.283   2.736
 6873SOL    HW121518   0.550   4.316   2.643
 6873SOL    HW221519   0.598   4.210   2.758
 6874SOL     OW21520   4.497   6.478   2.082
 6874SOL    HW121521   4.528   6.398   2.031
 6874SOL    HW221522   4.456   6.449   2.169
 6875SOL     OW21523   2.681   0.957   6.526
 6875SOL    HW121524   2.765   1.003   6.555
 6875SOL    HW221525   2.682   0.862   6.559
 6876SOL     OW21526   5.781   5.098   3.439
 6876SOL    HW121527   5.789   5.193   3.409
 6876SOL    HW221528   5.870   5.064   3.468
 6877SOL     OW21529   0.417   4.371   1.595
 6877SOL    HW121530   0.403   4.442   1.664
 6877SOL    HW221531   0.335   4.315   1.588
 6878SOL     OW21532   2.013   0.653   4.306
 6878SOL    HW121533   1.998   0.570   4.253
 6878SOL    HW221534   1.927   0.705   4.310
 6879SOL     OW21535   1.131   1.453   2.044
 6879SOL    HW121536   1.211   1.482   1.993
 6879SOL    HW221537   1.105   1.360   2.018
 6880SOL     OW21538   2.031   6.322   0.926
 6880SOL    HW121539   2.042   6.263   0.846
 6880SOL    HW221540   2.067   6.413   0.905
 6881SOL     OW21541   6.956   3.645   0.226
 6881SOL    HW121542   6.893   3.711   0.267
 6881SOL    HW221543   6.903   3.577   0.175
 6882SOL     OW21544   2.795   6.681   0.509
 6882SOL    HW121545   2.724   6.750   0.519
 6882SOL    HW221546   2.773   6.620   0.433
 6883SOL     OW21547   5.101   0.256   1.078
 6883SOL    HW121548   5.023   0.314   1.056
 6883SOL    HW221549   5.074   0.160   1.073
 6884SOL     OW21550   1.809   5.065   3.486
 6884SOL    HW121551   1.714   5.047   3.511
 6884SOL    HW221552   1.818   5.067   3.386
 6885SOL     OW21553   5.323   5.168   4.857
 6885SOL    HW121554   5.309   5.135   4.951
 6885SOL    HW221555   5.302   5.095   4.793
 6886SOL     OW21556   5.484   3.587   0.496
 6886SOL    HW121557   5.529   3.525   0.431
 6886SOL    HW221558   5.481   3.679   0.458
 6887SOL     OW21559   5.555   6.486   5.653
 6887SOL    HW121560   5.506   6.559   5.606
 6887SOL    HW221561   5.649   6.483   5.619
 6888SOL     OW21562   6.940   4.377   0.617
 6888SOL    HW121563   6.995   4.460   0.615
 6888SOL    HW221564   6.982   4.308   0.559
 6889SOL     OW21565   0.071   2.369   5.918
 6889SOL    HW121566   7.009   2.421   5.929
 6889SOL    HW221567   0.149   2.426   5.946
 6890SOL     OW21568   4.713   4.602   4.326
 6890SOL    HW121569   4.689   4.699   4.322
 6890SOL    HW221570   4.635   4.547   4.295
 6891SOL     OW21571   2.124   1.610   0.570
 6891SOL    HW121572   2.187   1.687   0.570
 6891SOL    HW221573   2.096   1.590   0.476
 6892SOL     OW21574   2.422   0.941   4.706
 6892SOL    HW121575   2.482   0.907   4.634
 6892SOL    HW221576   2.377   1.024   4.675
 6893SOL     OW21577   5.882   3.081   0.221
 6893SOL    HW121578   5.850   2.998   0.175
 6893SOL    HW221579   5.919   3.057   0.311
 6894SOL     OW21580   5.447   4.896   0.226
 6894SOL    HW121581   5.545   4.888   0.244
 6894SOL    HW221582   5.421   4.832   0.153
 6895SOL     OW21583   1.257   5.438   1.803
 6895SOL    HW121584   1.306   5.444   1.889
 6895SOL    HW221585   1.165   5.476   1.813
 6896SOL     OW21586   5.393   1.102   6.149
 6896SOL    HW121587   5.399   1.051   6.235
 6896SOL    HW221588   5.452   1.059   6.081
 6897SOL     OW21589   4.495   2.561   5.092
 6897SOL    HW121590   4.499   2.491   5.021
 6897SOL    HW221591   4.408   2.554   5.141
 6898SOL     OW21592   1.693   6.815   1.371
 6898SOL    HW121593   1.729   6.750   1.438
 6898SOL    HW221594   1.768   6.852   1.316
 6899SOL     OW21595   5.319   5.380   2.338
 6899SOL    HW121596   5.329   5.438   2.419
 6899SOL    HW221597   5.225   5.345   2.333
 6900SOL     OW21598   6.961   3.933   4.513
 6900SOL    HW121599   6.886   3.894   4.460
 6900SOL    HW221600   0.008   3.968   4.451
 6901SOL     OW21601   4.789   4.618   6.180
 6901SOL    HW121602   4.698   4.575   6.173
 6901SOL    HW221603   4.780   4.707   6.225
 6902SOL     OW21604   0.048   5.504   6.004
 6902SOL    HW121605   0.067   5.600   5.986
 6902SOL    HW221606   7.009   5.468   5.933
 6903SOL     OW21607   1.925   6.108   5.647
 6903SOL    HW121608   1.937   6.182   5.580
 6903SOL    HW221609   1.956   6.022   5.606
 6904SOL     OW21610   1.059   0.670   5.938
 6904SOL    HW121611   1.038   0.620   5.854
 6904SOL    HW221612   0.975   0.714   5.972
 6905SOL     OW21613   4.607   6.110   5.535
 6905SOL    HW121614   4.697   6.104   5.493
 6905SOL    HW221615   4.552   6.178   5.487
 6906SOL     OW21616   3.177   1.274   3.608
 6906SOL    HW121617   3.146   1.259   3.702
 6906SOL    HW221618   3.100   1.266   3.546
 6907SOL     OW21619   5.581   2.527   0.475
 6907SOL    HW121620   5.496   2.513   0.525
 6907SOL    HW221621   5.570   2.495   0.381
 6908SOL     OW21622   4.155   6.115   0.445
 6908SOL    HW121623   4.182   6.188   0.382
 6908SOL    HW221624   4.056   6.112   0.451
 6909SOL     OW21625   5.495   4.146   1.796
 6909SOL    HW121626   5.427   4.208   1.834
 6909SOL    HW221627   5.556   4.114   1.869
 6910SOL     OW21628   1.790   2.162   1.962
 6910SOL    HW121629   1.852   2.093   2.000
 6910SOL    HW221630   1.802   2.248   2.011
 6911SOL     OW21631   2.836   6.523   5.451
 6911SOL    HW121632   2.820   6.527   5.550
 6911SOL    HW221633   2.906   6.590   5.426
 6912SOL     OW21634   3.303   4.554   6.616
 6912SOL    HW121635   3.340   4.642   6.586
 6912SOL    HW221636   3.269   4.563   6.710
 6913SOL     OW21637   3.977   5.512   5.868
 6913SOL    HW121638   3.931   5.586   5.918
 6913SOL    HW221639   4.073   5.536   5.853
 6914SOL     OW21640   0.536   2.411   2.774
 6914SOL    HW121641   0.608   2.422   2.706
 6914SOL    HW221642   0.447   2.409   2.729
 6915SOL     OW21643   0.119   3.320   4.242
 6915SOL    HW121644   0.036   3.266   4.229
 6915SOL    HW221645   0.161   3.338   4.153
 6916SOL     OW21646   4.676   6.190   5.794
 6916SOL    HW121647   4.666   6.153   5.701
 6916SOL    HW221648   4.657   6.117   5.860
 6917SOL     OW21649   4.021   6.210   2.287
 6917SOL    HW121650   3.942   6.174   2.337
 6917SOL    HW221651   3.989   6.279   2.221
 6918SOL     OW21652   1.792   3.725   0.258
 6918SOL    HW121653   1.870   3.677   0.219
 6918SOL    HW221654   1.818   3.820   0.278
 6919SOL     OW21655   6.376   5.978   3.136
 6919SOL    HW121656   6.341   6.058   3.088
 6919SOL    HW221657   6.323   5.963   3.219
 6920SOL     OW21658   0.100   2.791   5.528
 6920SOL    HW121659   0.117   2.857   5.456
 6920SOL    HW221660   0.185   2.742   5.548
 6921SOL     OW21661   3.113   0.237   4.275
 6921SOL    HW121662   3.015   0.245   4.260
 6921SOL    HW221663   3.143   0.143   4.256
 6922SOL     OW21664   2.985   5.188   6.795
 6922SOL    HW121665   3.031   5.218   6.711
 6922SOL    HW221666   2.899   5.143   6.771
 6923SOL     OW21667   5.001   0.001   3.169
 6923SOL    HW121668   5.065   0.023   3.095
 6923SOL    HW221669   5.027   0.051   3.252
 6924SOL     OW21670   3.008   5.044   2.017
 6924SOL    HW121671   2.912   5.055   1.989
 6924SOL    HW221672   3.036   4.949   2.005
 6925SOL     OW21673   6.782   6.434   4.466
 6925SOL    HW121674   6.860   6.402   4.519
 6925SOL    HW221675   6.726   6.495   4.521
 6926SOL     OW21676   2.662   2.533   0.593
 6926SOL    HW121677   2.655   2.548   0.494
 6926SOL    HW221678   2.756   2.510   0.617
 6927SOL     OW21679   3.485   0.065   6.573
 6927SOL    HW121680   3.504   7.017   6.641
 6927SOL    HW221681   3.386   0.080   6.568
 6928SOL     OW21682   4.389   6.192   0.531
 6928SOL    HW121683   4.298   6.151   0.525
 6928SOL    HW221684   4.414   6.203   0.628
 6929SOL     OW21685   4.637   5.126   3.061
 6929SOL    HW121686   4.689   5.194   3.010
 6929SOL    HW221687   4.625   5.044   3.005
 6930SOL     OW21688   0.865   6.241   1.718
 6930SOL    HW121689   0.925   6.310   1.759
 6930SOL    HW221690   0.921   6.166   1.683
 6931SOL     OW21691   3.436   3.213   0.929
 6931SOL    HW121692   3.397   3.123   0.946
 6931SOL    HW221693   3.467   3.253   1.015
 6932SOL     OW21694   4.112   0.644   6.643
 6932SOL    HW121695   4.116   0.604   6.735
 6932SOL    HW221696   4.204   0.645   6.603
 6933SOL     OW21697   3.548   6.130   6.037
 6933SOL    HW121698   3.452   6.147   6.014
 6933SOL    HW221699   3.553   6.076   6.121
 6934SOL     OW21700   4.975   4.940   0.172
 6934SOL    HW121701   5.060   4.929   0.121
 6934SOL    HW221702   4.993   4.931   0.270
 6935SOL     OW21703   4.364   5.815   2.157
 6935SOL    HW121704   4.349   5.911   2.131
 6935SOL    HW221705   4.281   5.762   2.138
 6936SOL     OW21706   0.966   1.904   6.997
 6936SOL    HW121707   0.968   1.995   0.016
 6936SOL    HW221708   0.949   1.913   6.898
 6937SOL     OW21709   5.662   4.544   0.316
 6937SOL    HW121710   5.743   4.598   0.337
 6937SOL    HW221711   5.581   4.590   0.353
 6938SOL     OW21712   3.435   0.464   4.915
 6938SOL    HW121713   3.522   0.429   4.949
 6938SOL    HW221714   3.374   0.481   4.992
 6939SOL     OW21715   5.493   2.862   3.342
 6939SOL    HW121716   5.558   2.892   3.272
 6939SOL    HW221717   5.454   2.774   3.316
 6940SOL     OW21718   2.180   6.410   1.621
 6940SOL    HW121719   2.224   6.334   1.668
 6940SOL    HW221720   2.136   6.376   1.537
 6941SOL     OW21721   3.872   3.033   2.998
 6941SOL    HW121722   3.796   2.970   2.977
 6941SOL    HW221723   3.835   3.121   3.028
 6942SOL     OW21724   6.501   4.812   3.185
 6942SOL    HW121725   6.442   4.734   3.206
 6942SOL    HW221726   6.590   4.800   3.229
 6943SOL     OW21727   3.707   5.291   5.505
 6943SOL    HW121728   3.656   5.374   5.485
 6943SOL    HW221729   3.664   5.245   5.583
 6944SOL     OW21730   0.609   5.055   5.198
 6944SOL    HW121731   0.623   4.982   5.131
 6944SOL    HW221732   0.657   5.031   5.283
 6945SOL     OW21733   4.384   1.348   0.543
 6945SOL    HW121734   4.358   1.264   0.495
 6945SOL    HW221735   4.422   1.413   0.478
 6946SOL     OW21736   5.723   5.843   2.694
 6946SOL    HW121737   5.794   5.912   2.707
 6946SOL    HW221738   5.681   5.856   2.604
 6947SOL     OW21739   6.211   4.281   5.272
 6947SOL    HW121740   6.240   4.196   5.315
 6947SOL    HW221741   6.166   4.339   5.339
 6948SOL     OW21742   0.019   4.559   6.497
 6948SOL    HW121743   0.082   4.570   6.574
 6948SOL    HW221744   0.045   4.478   6.444
 6949SOL     OW21745   2.468   1.306   3.204
 6949SOL    HW121746   2.520   1.233   3.249
 6949SOL    HW221747   2.530   1.376   3.170
 6950SOL     OW21748   2.192   1.361   3.854
 6950SOL    HW121749   2.289   1.367   3.830
 6950SOL    HW221750   2.136   1.382   3.774
 6951SOL     OW21751   1.326   3.925   6.886
 6951SOL    HW121752   1.338   3.967   6.976
 6951SOL    HW221753   1.341   3.827   6.893
 6952SOL     OW21754   4.532   5.759   3.398
 6952SOL    HW121755   4.480   5.695   3.454
 6952SOL    HW221756   4.602   5.709   3.346
 6953SOL     OW21757   0.230   0.903   1.917
 6953SOL    HW121758   0.153   0.933   1.860
 6953SOL    HW221759   0.228   0.803   1.925
 6954SOL     OW21760   6.304   4.842   5.974
 6954SOL    HW121761   6.334   4.838   5.878
 6954SOL    HW221762   6.231   4.909   5.983
 6955SOL     OW21763   4.503   5.855   2.660
 6955SOL    HW121764   4.582   5.910   2.687
 6955SOL    HW221765   4.454   5.901   2.586
 6956SOL     OW21766   5.781   5.221   1.447
 6956SOL    HW121767   5.702   5.230   1.508
 6956SOL    HW221768   5.850   5.162   1.489
 6957SOL     OW21769   6.185   4.498   4.922
 6957SOL    HW121770   6.281   4.517   4.942
 6957SOL    HW221771   6.164   4.402   4.944
 6958SOL     OW21772   3.095   3.625   2.475
 6958SOL    HW121773   3.032   3.614   2.552
 6958SOL    HW221774   3.102   3.722   2.452
 6959SOL     OW21775   1.303   3.946   2.807
 6959SOL    HW121776   1.238   3.872   2.825
 6959SOL    HW221777   1.342   3.978   2.894
 6960SOL     OW21778   5.216   4.962   1.237
 6960SOL    HW121779   5.235   4.933   1.144
 6960SOL    HW221780   5.140   4.909   1.275
 6961SOL     OW21781   5.347   2.149   4.831
 6961SOL    HW121782   5.249   2.132   4.821
 6961SOL    HW221783   5.362   2.225   4.895
 6962SOL     OW21784   2.531   6.144   0.728
 6962SOL    HW121785   2.520   6.045   0.729
 6962SOL    HW221786   2.625   6.167   0.752
 6963SOL     OW21787   0.887   6.627   6.591
 6963SOL    HW121788   0.980   6.657   6.611
 6963SOL    HW221789   0.846   6.689   6.524
 6964SOL     OW21790   2.280   1.784   4.803
 6964SOL    HW121791   2.365   1.772   4.750
 6964SOL    HW221792   2.213   1.716   4.772
 6965SOL     OW21793   1.823   1.374   6.973
 6965SOL    HW121794   1.905   1.411   6.928
 6965SOL    HW221795   1.745   1.433   6.953
 6966SOL     OW21796   1.626   6.686   1.151
 6966SOL    HW121797   1.679   6.719   1.228
 6966SOL    HW221798   1.539   6.736   1.146
 6967SOL     OW21799   3.902   0.213   6.596
 6967SOL    HW121800   3.889   0.312   6.605
 6967SOL    HW221801   3.831   0.174   6.538
 6968SOL     OW21802   3.349   0.423   2.055
 6968SOL    HW121803   3.423   0.472   2.009
 6968SOL    HW221804   3.387   0.363   2.125
 6969SOL     OW21805   1.479   3.216   2.729
 6969SOL    HW121806   1.558   3.181   2.678
 6969SOL    HW221807   1.477   3.316   2.721
 6970SOL     OW21808   3.527   6.280   5.669
 6970SOL    HW121809   3.577   6.365   5.686
 6970SOL    HW221810   3.503   6.274   5.573
 6971SOL     OW21811   6.747   4.283   6.474
 6971SOL    HW121812   6.812   4.269   6.548
 6971SOL    HW221813   6.788   4.255   6.387
 6972SOL     OW21814   5.417   3.862   1.756
 6972SOL    HW121815   5.472   3.788   1.795
 6972SOL    HW221816   5.475   3.922   1.702
 6973SOL     OW21817   1.197   1.603   3.216
 6973SOL    HW121818   1.282   1.604   3.164
 6973SOL    HW221819   1.145   1.686   3.196
 6974SOL     OW21820   3.993   3.661   3.110
 6974SOL    HW121821   4.057   3.584   3.101
 6974SOL    HW221822   3.900   3.626   3.114
 6975SOL     OW21823   3.043   5.382   4.946
 6975SOL    HW121824   3.113   5.425   4.889
 6975SOL    HW221825   3.045   5.422   5.038
 6976SOL     OW21826   4.735   5.093   6.186
 6976SOL    HW121827   4.743   5.034   6.266
 6976SOL    HW221828   4.653   5.150   6.193
 6977SOL     OW21829   4.817   4.888   2.460
 6977SOL    HW121830   4.799   4.805   2.512
 6977SOL    HW221831   4.816   4.867   2.362
 6978SOL     OW21832   1.192   3.787   1.234
 6978SOL    HW121833   1.190   3.708   1.295
 6978SOL    HW221834   1.234   3.761   1.147
 6979SOL     OW21835   1.130   3.876   3.123
 6979SOL    HW121836   1.118   3.842   3.030
 6979SOL    HW221837   1.223   3.857   3.154
 6980SOL     OW21838   2.149   4.605   3.144
 6980SOL    HW121839   2.230   4.567   3.190
 6980SOL    HW221840   2.153   4.585   3.046
 6981SOL     OW21841   4.158   2.394   0.061
 6981SOL    HW121842   4.214   2.311   0.063
 6981SOL    HW221843   4.204   2.464   0.007
 6982SOL     OW21844   6.680   0.308   1.965
 6982SOL    HW121845   6.696   0.274   2.058
 6982SOL    HW221846   6.724   0.248   1.899
 6983SOL     OW21847   0.118   0.297   3.951
 6983SOL    HW121848   0.113   0.397   3.963
 6983SOL    HW221849   0.074   0.252   4.028
 6984SOL     OW21850   1.977   4.284   3.552
 6984SOL    HW121851   2.003   4.296   3.456
 6984SOL    HW221852   1.924   4.200   3.562
 6985SOL     OW21853   5.075   3.185   0.701
 6985SOL    HW121854   5.145   3.198   0.631
 6985SOL    HW221855   5.059   3.271   0.749
 6986SOL     OW21856   3.408   5.877   5.030
 6986SOL    HW121857   3.503   5.846   5.025
 6986SOL    HW221858   3.359   5.823   5.099
 6987SOL     OW21859   6.969   1.077   6.884
 6987SOL    HW121860   0.041   1.107   6.897
 6987SOL    HW221861   6.926   1.131   6.813
 6988SOL     OW21862   2.322   0.671   5.939
 6988SOL    HW121863   2.343   0.710   6.028
 6988SOL    HW221864   2.285   0.742   5.878
 6989SOL     OW21865   0.849   3.410   2.301
 6989SOL    HW121866   0.767   3.379   2.252
 6989SOL    HW221867   0.928   3.406   2.240
 6990SOL     OW21868   3.733   4.400   6.793
 6990SOL    HW121869   3.793   4.431   6.719
 6990SOL    HW221870   3.788   4.362   6.867
 6991SOL     OW21871   5.013   4.052   3.432
 6991SOL    HW121872   4.952   4.051   3.511
 6991SOL    HW221873   5.029   3.959   3.400
 6992SOL     OW21874   1.971   5.316   6.138
 6992SOL    HW121875   1.893   5.371   6.169
 6992SOL    HW221876   1.942   5.222   6.123
 6993SOL     OW21877   4.268   2.551   1.763
 6993SOL    HW121878   4.201   2.490   1.720
 6993SOL    HW221879   4.331   2.497   1.819
 6994SOL     OW21880   2.466   1.158   2.847
 6994SOL    HW121881   2.480   1.098   2.925
 6994SOL    HW221882   2.470   1.253   2.877
 6995SOL     OW21883   0.027   4.446   0.896
 6995SOL    HW121884   0.001   4.404   0.808
 6995SOL    HW221885   0.005   4.543   0.894
 6996SOL     OW21886   0.825   1.584   6.535
 6996SOL    HW121887   0.864   1.624   6.452
 6996SOL    HW221888   0.891   1.591   6.609
 6997SOL     OW21889   5.807   6.203   5.918
 6997SOL    HW121890   5.898   6.207   5.959
 6997SOL    HW221891   5.744   6.260   5.972
 6998SOL     OW21892   0.528   0.602   0.189
 6998SOL    HW121893   0.620   0.636   0.168
 6998SOL    HW221894   0.530   0.502   0.195
 6999SOL     OW21895   0.362   2.822   0.150
 6999SOL    HW121896   0.263   2.810   0.139
 6999SOL    HW221897   0.380   2.915   0.183
 7000SOL     OW21898   0.732   5.038   3.566
 7000SOL    HW121899   0.657   4.980   3.535
 7000SOL    HW221900   0.697   5.104   3.633
 7001SOL     OW21901   0.597   1.243   4.056
 7001SOL    HW121902   0.532   1.254   3.982
 7001SOL    HW221903   0.690   1.261   4.022
 7002SOL     OW21904   1.159   4.684   2.668
 7002SOL    HW121905   1.089   4.635   2.617
 7002SOL    HW221906   1.128   4.697   2.763
 7003SOL     OW21907   0.725   5.475   6.141
 7003SOL    HW121908   0.713   5.376   6.152
 7003SOL    HW221909   0.735   5.517   6.231
 7004SOL     OW21910   1.248   0.838   6.596
 7004SOL    HW121911   1.293   0.863   6.681
 7004SOL    HW221912   1.209   0.747   6.604
 7005SOL     OW21913   1.873   5.271   0.290
 7005SOL    HW121914   1.937   5.324   0.346
 7005SOL    HW221915   1.923   5.223   0.218
 7006SOL     OW21916   0.847   0.503   3.798
 7006SOL    HW121917   0.774   0.464   3.743
 7006SOL    HW221918   0.877   0.436   3.866
 7007SOL     OW21919   1.979   0.209   6.437
 7007SOL    HW121920   2.078   0.224   6.431
 7007SOL    HW221921   1.931   0.296   6.427
 7008SOL     OW21922   5.209   3.268   2.405
 7008SOL    HW121923   5.201   3.259   2.504
 7008SOL    HW221924   5.297   3.231   2.375
 7009SOL     OW21925   5.535   6.110   2.355
 7009SOL    HW121926   5.460   6.175   2.369
 7009SOL    HW221927   5.504   6.018   2.378
 7010SOL     OW21928   5.151   3.510   2.247
 7010SOL    HW121929   5.057   3.478   2.231
 7010SOL    HW221930   5.189   3.462   2.326
 7011SOL     OW21931   2.312   6.360   6.260
 7011SOL    HW121932   2.340   6.362   6.355
 7011SOL    HW221933   2.274   6.450   6.235
 7012SOL     OW21934   0.139   4.181   0.477
 7012SOL    HW121935   0.149   4.105   0.413
 7012SOL    HW221936   0.191   4.260   0.444
 7013SOL     OW21937   2.819   2.794   0.307
 7013SOL    HW121938   2.814   2.838   0.396
 7013SOL    HW221939   2.768   2.708   0.310
 7014SOL     OW21940   6.312   3.600   0.450
 7014SOL    HW121941   6.234   3.659   0.429
 7014SOL    HW221942   6.352   3.566   0.365
 7015SOL     OW21943   6.053   6.471   1.187
 7015SOL    HW121944   6.070   6.415   1.106
 7015SOL    HW221945   6.023   6.562   1.159
 7016SOL     OW21946   3.380   5.297   1.188
 7016SOL    HW121947   3.441   5.375   1.193
 7016SOL    HW221948   3.412   5.225   1.249
 7017SOL     OW21949   6.355   4.596   6.452
 7017SOL    HW121950   6.439   4.544   6.467
 7017SOL    HW221951   6.355   4.633   6.359
 7018SOL     OW21952   5.592   2.910   5.026
 7018SOL    HW121953   5.649   2.837   4.988
 7018SOL    HW221954   5.645   2.960   5.095
 7019SOL     OW21955   3.933   5.766   2.261
 7019SOL    HW121956   3.951   5.802   2.352
 7019SOL    HW221957   3.921   5.841   2.196
 7020SOL     OW21958   0.259   1.660   0.706
 7020SOL    HW121959   0.359   1.650   0.703
 7020SOL    HW221960   0.236   1.756   0.716
 7021SOL     OW21961   0.570   1.951   4.985
 7021SOL    HW121962   0.647   1.996   4.941
 7021SOL    HW221963   0.502   2.020   5.012
 7022SOL     OW21964   1.944   3.870   0.809
 7022SOL    HW121965   1.919   3.778   0.780
 7022SOL    HW221966   1.920   3.883   0.906
 7023SOL     OW21967   0.206   1.804   1.289
 7023SOL    HW121968   0.139   1.848   1.229
 7023SOL    HW221969   0.283   1.866   1.304
 7024SOL     OW21970   3.663   3.979   5.506
 7024SOL    HW121971   3.614   3.895   5.484
 7024SOL    HW221972   3.757   3.957   5.532
 7025SOL     OW21973   2.737   0.991   0.990
 7025SOL    HW121974   2.732   0.966   1.086
 7025SOL    HW221975   2.771   1.085   0.981
 7026SOL     OW21976   2.708   2.283   1.012
 7026SOL    HW121977   2.609   2.270   1.016
 7026SOL    HW221978   2.744   2.240   0.928
 7027SOL     OW21979   3.051   4.597   1.233
 7027SOL    HW121980   2.972   4.601   1.171
 7027SOL    HW221981   3.022   4.562   1.322
 7028SOL     OW21982   3.358   0.337   3.167
 7028SOL    HW121983   3.395   0.318   3.076
 7028SOL    HW221984   3.424   0.311   3.237
 7029SOL     OW21985   3.279   4.093   3.634
 7029SOL    HW121986   3.379   4.102   3.628
 7029SOL    HW221987   3.243   4.065   3.545
 7030SOL     OW21988   6.201   6.683   4.967
 7030SOL    HW121989   6.259   6.606   4.993
 7030SOL    HW221990   6.204   6.752   5.039
 7031SOL     OW21991   5.618   5.298   0.605
 7031SOL    HW121992   5.582   5.205   0.606
 7031SOL    HW221993   5.672   5.313   0.522
 7032SOL     OW21994   4.044   5.180   4.400
 7032SOL    HW121995   4.038   5.269   4.446
 7032SOL    HW221996   4.076   5.111   4.465
 7033SOL     OW21997   2.100   2.083   5.245
 7033SOL    HW121998   2.063   2.160   5.298
 7033SOL    HW221999   2.194   2.066   5.274
 7034SOL     OW22000   6.673   2.090   2.342
 7034SOL    HW122001   6.657   2.188   2.351
 7034SOL    HW222002   6.768   2.073   2.316
 7035SOL     OW22003   2.730   2.555   0.994
 7035SOL    HW122004   2.735   2.456   1.001
 7035SOL    HW222005   2.639   2.581   0.961
 7036SOL     OW22006   6.528   1.882   1.888
 7036SOL    HW122007   6.624   1.854   1.883
 7036SOL    HW222008   6.491   1.855   1.976
 7037SOL     OW22009   1.349   0.902   6.257
 7037SOL    HW122010   1.330   0.822   6.314
 7037SOL    HW222011   1.291   0.978   6.286
 7038SOL     OW22012   0.463   5.279   6.966
 7038SOL    HW122013   0.543   5.322   6.924
 7038SOL    HW222014   0.486   5.187   6.996
 7039SOL     OW22015   6.864   0.032   1.319
 7039SOL    HW122016   6.892   0.127   1.328
 7039SOL    HW222017   6.824   0.000   1.405
 7040SOL     OW22018   5.135   2.679   4.577
 7040SOL    HW122019   5.104   2.712   4.487
 7040SOL    HW222020   5.152   2.757   4.637
 7041SOL     OW22021   0.856   6.919   3.811
 7041SOL    HW122022   0.805   6.840   3.778
 7041SOL    HW222023   0.890   6.972   3.734
 7042SOL     OW22024   5.626   5.892   5.136
 7042SOL    HW122025   5.568   5.874   5.057
 7042SOL    HW222026   5.629   5.811   5.195
 7043SOL     OW22027   1.936   5.679   0.580
 7043SOL    HW122028   1.850   5.695   0.532
 7043SOL    HW222029   1.968   5.764   0.621
 7044SOL     OW22030   4.230   6.316   5.089
 7044SOL    HW122031   4.233   6.226   5.133
 7044SOL    HW222032   4.189   6.383   5.152
 7045SOL     OW22033   5.498   6.583   1.688
 7045SOL    HW122034   5.562   6.659   1.672
 7045SOL    HW222035   5.485   6.571   1.786
 7046SOL     OW22036   2.614   1.146   2.614
 7046SOL    HW122037   2.661   1.231   2.592
 7046SOL    HW222038   2.586   1.147   2.711
 7047SOL     OW22039   1.662   6.829   0.880
 7047SOL    HW122040   1.628   6.807   0.971
 7047SOL    HW222041   1.586   6.826   0.814
 7048SOL     OW22042   0.492   5.762   4.015
 7048SOL    HW122043   0.444   5.848   3.999
 7048SOL    HW222044   0.591   5.776   4.007
 7049SOL     OW22045   3.066   1.348   4.642
 7049SOL    HW122046   3.013   1.410   4.584
 7049SOL    HW222047   3.125   1.401   4.703
 7050SOL     OW22048   4.135   4.370   0.892
 7050SOL    HW122049   4.208   4.430   0.925
 7050SOL    HW222050   4.055   4.380   0.952
 7051SOL     OW22051   1.768   1.311   1.987
 7051SOL    HW122052   1.782   1.348   1.896
 7051SOL    HW222053   1.678   1.337   2.020
 7052SOL     OW22054   5.334   2.417   3.043
 7052SOL    HW122055   5.353   2.512   3.018
 7052SOL    HW222056   5.403   2.357   3.002
 7053SOL     OW22057   1.273   4.695   4.107
 7053SOL    HW122058   1.220   4.732   4.183
 7053SOL    HW222059   1.344   4.760   4.080
 7054SOL     OW22060   5.263   0.481   0.090
 7054SOL    HW122061   5.192   0.432   0.040
 7054SOL    HW222062   5.290   0.428   0.170
 7055SOL     OW22063   2.139   0.141   6.944
 7055SOL    HW122064   2.100   0.197   6.870
 7055SOL    HW222065   2.130   0.044   6.921
 7056SOL     OW22066   6.817   5.450   0.819
 7056SOL    HW122067   6.743   5.389   0.790
 7056SOL    HW222068   6.833   5.519   0.749
 7057SOL     OW22069   3.012   5.494   4.616
 7057SOL    HW122070   2.991   5.460   4.525
 7057SOL    HW222071   3.093   5.447   4.651
 7058SOL     OW22072   5.887   2.031   6.273
 7058SOL    HW122073   5.819   2.062   6.339
 7058SOL    HW222074   5.864   2.067   6.182
 7059SOL     OW22075   1.745   1.021   4.834
 7059SOL    HW122076   1.689   0.974   4.766
 7059SOL    HW222077   1.837   1.034   4.798
 7060SOL     OW22078   3.078   2.230   1.705
 7060SOL    HW122079   3.175   2.210   1.715
 7060SOL    HW222080   3.045   2.279   1.785
 7061SOL     OW22081   1.895   0.562   1.093
 7061SOL    HW122082   1.842   0.490   1.138
 7061SOL    HW222083   1.933   0.526   1.007
 7062SOL     OW22084   3.829   0.818   5.268
 7062SOL    HW122085   3.849   0.762   5.348
 7062SOL    HW222086   3.908   0.818   5.207
 7063SOL     OW22087   0.483   1.029   1.778
 7063SOL    HW122088   0.517   0.939   1.753
 7063SOL    HW222089   0.385   1.024   1.798
 7064SOL     OW22090   2.924   1.242   5.302
 7064SOL    HW122091   2.999   1.201   5.354
 7064SOL    HW222092   2.867   1.170   5.263
 7065SOL     OW22093   3.062   6.862   4.333
 7065SOL    HW122094   3.054   6.800   4.254
 7065SOL    HW222095   3.146   6.841   4.383
 7066SOL     OW22096   3.898   0.628   1.047
 7066SOL    HW122097   3.894   0.622   1.147
 7066SOL    HW222098   3.973   0.689   1.020
 7067SOL     OW22099   2.518   4.572   6.517
 7067SOL    HW122100   2.474   4.571   6.607
 7067SOL    HW222101   2.469   4.633   6.456
 7068SOL     OW22102   4.828   4.649   3.228
 7068SOL    HW122103   4.738   4.658   3.270
 7068SOL    HW222104   4.891   4.608   3.295
 7069SOL     OW22105   4.374   0.884   5.010
 7069SOL    HW122106   4.423   0.928   5.085
 7069SOL    HW222107   4.336   0.796   5.041
 7070SOL     OW22108   6.914   1.060   5.972
 7070SOL    HW122109   6.980   1.000   6.018
 7070SOL    HW222110   6.905   1.145   6.024
 7071SOL     OW22111   4.511   5.498   6.381
 7071SOL    HW122112   4.483   5.487   6.476
 7071SOL    HW222113   4.540   5.592   6.366
 7072SOL     OW22114   0.970   3.820   6.175
 7072SOL    HW122115   1.012   3.761   6.243
 7072SOL    HW222116   0.929   3.899   6.220
 7073SOL     OW22117   4.031   0.829   3.788
 7073SOL    HW122118   4.063   0.805   3.879
 7073SOL    HW222119   3.934   0.806   3.779
 7074SOL     OW22120   6.125   3.775   1.886
 7074SOL    HW122121   6.144   3.680   1.910
 7074SOL    HW222122   6.132   3.832   1.968
 7075SOL     OW22123   2.337   5.255   2.591
 7075SOL    HW122124   2.291   5.230   2.676
 7075SOL    HW222125   2.311   5.348   2.565
 7076SOL     OW22126   5.833   2.684   0.560
 7076SOL    HW122127   5.737   2.666   0.537
 7076SOL    HW222128   5.847   2.670   0.658
 7077SOL     OW22129   3.705   5.940   1.556
 7077SOL    HW122130   3.756   5.944   1.471
 7077SOL    HW222131   3.622   5.996   1.548
 7078SOL     OW22132   0.040   1.940   6.424
 7078SOL    HW122133   0.026   1.858   6.480
 7078SOL    HW222134   7.005   1.935   6.343
 7079SOL     OW22135   2.245   5.534   5.444
 7079SOL    HW122136   2.215   5.476   5.368
 7079SOL    HW222137   2.267   5.477   5.523
 7080SOL     OW22138   3.887   1.737   5.787
 7080SOL    HW122139   3.920   1.768   5.877
 7080SOL    HW222140   3.925   1.796   5.716
 7081SOL     OW22141   2.463   6.282   0.274
 7081SOL    HW122142   2.391   6.234   0.324
 7081SOL    HW222143   2.524   6.328   0.339
 7082SOL     OW22144   1.203   4.793   2.236
 7082SOL    HW122145   1.260   4.838   2.305
 7082SOL    HW222146   1.118   4.843   2.226
 7083SOL     OW22147   5.475   3.131   2.410
 7083SOL    HW122148   5.513   3.060   2.351
 7083SOL    HW222149   5.479   3.101   2.506
 7084SOL     OW22150   1.123   5.469   0.316
 7084SOL    HW122151   1.169   5.547   0.274
 7084SOL    HW222152   1.104   5.489   0.412
 7085SOL     OW22153   0.173   3.680   2.397
 7085SOL    HW122154   0.116   3.659   2.476
 7085SOL    HW222155   0.168   3.778   2.377
 7086SOL     OW22156   4.301   0.696   3.702
 7086SOL    HW122157   4.213   0.742   3.711
 7086SOL    HW222158   4.366   0.734   3.768
 7087SOL     OW22159   5.095   2.915   3.471
 7087SOL    HW122160   5.174   2.976   3.470
 7087SOL    HW222161   5.112   2.837   3.411
 7088SOL     OW22162   6.040   2.354   5.350
 7088SOL    HW122163   6.044   2.256   5.370
 7088SOL    HW222164   6.043   2.406   5.435
 7089SOL     OW22165   3.134   6.214   1.160
 7089SOL    HW122166   3.204   6.235   1.091
 7089SOL    HW222167   3.127   6.114   1.171
 7090SOL     OW22168   4.839   3.778   1.249
 7090SOL    HW122169   4.828   3.866   1.202
 7090SOL    HW222170   4.790   3.780   1.336
 7091SOL     OW22171   6.107   0.955   6.689
 7091SOL    HW122172   6.118   1.047   6.650
 7091SOL    HW222173   6.191   0.903   6.676
 7092SOL     OW22174   4.288   6.743   6.005
 7092SOL    HW122175   4.193   6.724   5.981
 7092SOL    HW222176   4.322   6.819   5.951
 7093SOL     OW22177   4.257   2.862   0.661
 7093SOL    HW122178   4.323   2.890   0.590
 7093SOL    HW222179   4.281   2.771   0.694
 7094SOL     OW22180   4.430   0.825   4.449
 7094SOL    HW122181   4.406   0.920   4.468
 7094SOL    HW222182   4.381   0.765   4.512
 7095SOL     OW22183   2.038   4.490   3.746
 7095SOL    HW122184   2.137   4.501   3.742
 7095SOL    HW222185   2.008   4.432   3.670
 7096SOL     OW22186   6.956   5.864   0.331
 7096SOL    HW122187   7.022   5.811   0.278
 7096SOL    HW222188   6.905   5.924   0.270
 7097SOL     OW22189   4.842   2.001   2.534
 7097SOL    HW122190   4.931   1.964   2.562
 7097SOL    HW222191   4.848   2.035   2.440
 7098SOL     OW22192   0.677   1.392   2.761
 7098SOL    HW122193   0.772   1.371   2.739
 7098SOL    HW222194   0.656   1.363   2.854
 7099SOL     OW22195   3.520   1.943   4.615
 7099SOL    HW122196   3.502   1.863   4.672
 7099SOL    HW222197   3.450   2.012   4.632
 7100SOL     OW22198   0.656   3.838   1.712
 7100SOL    HW122199   0.563   3.873   1.715
 7100SOL    HW222200   0.699   3.864   1.625
 7101SOL     OW22201   2.469   5.499   4.399
 7101SOL    HW122202   2.551   5.468   4.448
 7101SOL    HW222203   2.486   5.589   4.359
 7102SOL     OW22204   5.756   1.412   2.755
 7102SOL    HW122205   5.764   1.508   2.731
 7102SOL    HW222206   5.668   1.395   2.799
 7103SOL     OW22207   5.797   3.804   4.100
 7103SOL    HW122208   5.734   3.875   4.133
 7103SOL    HW222209   5.794   3.725   4.161
 7104SOL     OW22210   4.672   2.724   4.086
 7104SOL    HW122211   4.610   2.646   4.083
 7104SOL    HW222212   4.680   2.764   3.995
 7105SOL     OW22213   2.986   3.908   2.118
 7105SOL    HW122214   2.934   3.980   2.164
 7105SOL    HW222215   3.082   3.934   2.112
 7106SOL     OW22216   2.772   2.269   2.541
 7106SOL    HW122217   2.820   2.238   2.459
 7106SOL    HW222218   2.711   2.345   2.518
 7107SOL     OW22219   4.261   0.671   0.538
 7107SOL    HW122220   4.315   0.676   0.454
 7107SOL    HW222221   4.184   0.609   0.524
 7108SOL     OW22222   3.100   6.743   1.708
 7108SOL    HW122223   3.110   6.821   1.770
 7108SOL    HW222224   3.176   6.742   1.643
 7109SOL     OW22225   2.708   5.103   5.866
 7109SOL    HW122226   2.619   5.145   5.879
 7109SOL    HW222227   2.755   5.097   5.955
 7110SOL     OW22228   2.793   5.684   5.655
 7110SOL    HW122229   2.878   5.735   5.660
 7110SOL    HW222230   2.740   5.700   5.738
 7111SOL     OW22231   6.844   0.841   4.881
 7111SOL    HW122232   6.824   0.938   4.863
 7111SOL    HW222233   6.816   0.818   4.974
 7112SOL     OW22234   6.517   5.037   5.150
 7112SOL    HW122235   6.588   5.054   5.218
 7112SOL    HW222236   6.498   5.121   5.100
 7113SOL     OW22237   3.306   0.031   4.881
 7113SOL    HW122238   3.380   6.990   4.904
 7113SOL    HW222239   3.345   0.115   4.844
 7114SOL     OW22240   5.494   4.301   0.085
 7114SOL    HW122241   5.450   4.211   0.089
 7114SOL    HW222242   5.554   4.312   0.164
 7115SOL     OW22243   4.708   2.859   5.722
 7115SOL    HW122244   4.665   2.884   5.635
 7115SOL    HW222245   4.638   2.854   5.793
 7116SOL     OW22246   6.338   5.167   4.684
 7116SOL    HW122247   6.410   5.182   4.616
 7116SOL    HW222248   6.266   5.235   4.672
 7117SOL     OW22249   4.344   0.159   3.334
 7117SOL    HW122250   4.386   0.101   3.403
 7117SOL    HW222251   4.266   0.208   3.373
 7118SOL     OW22252   4.696   4.069   5.638
 7118SOL    HW122253   4.762   4.112   5.577
 7118SOL    HW222254   4.646   4.139   5.688
 7119SOL     OW22255   2.734   6.458   4.315
 7119SOL    HW122256   2.748   6.557   4.312
 7119SOL    HW222257   2.667   6.432   4.246
 7120SOL     OW22258   4.397   1.592   2.272
 7120SOL    HW122259   4.389   1.688   2.245
 7120SOL    HW222260   4.311   1.545   2.254
 7121SOL     OW22261   1.129   5.930   2.002
 7121SOL    HW122262   1.143   5.988   1.921
 7121SOL    HW222263   1.089   5.984   2.075
 7122SOL     OW22264   3.151   1.908   6.200
 7122SOL    HW122265   3.171   1.811   6.187
 7122SOL    HW222266   3.122   1.924   6.294
 7123SOL     OW22267   5.099   4.546   6.754
 7123SOL    HW122268   5.101   4.496   6.667
 7123SOL    HW222269   5.176   4.517   6.811
 7124SOL     OW22270   2.989   2.719   6.522
 7124SOL    HW122271   3.065   2.654   6.520
 7124SOL    HW222272   2.930   2.700   6.600
 7125SOL     OW22273   1.131   6.341   1.333
 7125SOL    HW122274   1.063   6.280   1.374
 7125SOL    HW222275   1.125   6.431   1.375
 7126SOL     OW22276   4.005   4.902   1.028
 7126SOL    HW122277   3.953   4.818   1.011
 7126SOL    HW222278   4.100   4.888   1.001
 7127SOL     OW22279   2.859   6.700   5.167
 7127SOL    HW122280   2.894   6.729   5.256
 7127SOL    HW222281   2.760   6.707   5.166
 7128SOL     OW22282   3.334   4.357   0.141
 7128SOL    HW122283   3.428   4.329   0.122
 7128SOL    HW222284   3.272   4.280   0.122
 7129SOL     OW22285   6.987   1.907   0.332
 7129SOL    HW122286   7.005   2.005   0.342
 7129SOL    HW222287   6.889   1.891   0.325
 7130SOL     OW22288   3.571   0.330   4.068
 7130SOL    HW122289   3.473   0.342   4.087
 7130SOL    HW222290   3.601   0.242   4.104
 7131SOL     OW22291   2.169   1.368   2.883
 7131SOL    HW122292   2.113   1.286   2.896
 7131SOL    HW222293   2.111   1.443   2.851
 7132SOL     OW22294   5.437   4.804   1.712
 7132SOL    HW122295   5.454   4.886   1.767
 7132SOL    HW222296   5.512   4.739   1.726
 7133SOL     OW22297   3.211   5.918   2.412
 7133SOL    HW122298   3.143   5.976   2.367
 7133SOL    HW222299   3.301   5.959   2.403
 7134SOL     OW22300   4.749   4.981   0.019
 7134SOL    HW122301   4.817   4.943   0.082
 7134SOL    HW222302   4.749   5.081   0.025
 7135SOL     OW22303   2.166   4.472   1.340
 7135SOL    HW122304   2.120   4.434   1.260
 7135SOL    HW222305   2.256   4.431   1.350
 7136SOL     OW22306   1.538   3.255   2.322
 7136SOL    HW122307   1.479   3.300   2.255
 7136SOL    HW222308   1.560   3.162   2.292
 7137SOL     OW22309   1.669   6.972   2.193
 7137SOL    HW122310   1.742   6.905   2.180
 7137SOL    HW222311   1.704   0.041   2.175
 7138SOL     OW22312   6.624   3.658   0.220
 7138SOL    HW122313   6.635   3.743   0.169
 7138SOL    HW222314   6.672   3.664   0.307
 7139SOL     OW22315   5.619   5.952   1.028
 7139SOL    HW122316   5.591   5.998   0.944
 7139SOL    HW222317   5.539   5.909   1.070
 7140SOL     OW22318   0.093   4.941   0.673
 7140SOL    HW122319   0.154   4.971   0.599
 7140SOL    HW222320   0.146   4.890   0.741
 7141SOL     OW22321   2.704   1.839   0.784
 7141SOL    HW122322   2.695   1.826   0.883
 7141SOL    HW222323   2.656   1.765   0.736
 7142SOL     OW22324   4.641   6.524   5.818
 7142SOL    HW122325   4.695   6.574   5.751
 7142SOL    HW222326   4.680   6.432   5.831
 7143SOL     OW22327   3.441   3.038   5.922
 7143SOL    HW122328   3.421   3.131   5.952
 7143SOL    HW222329   3.382   2.974   5.971
 7144SOL     OW22330   6.372   1.473   5.650
 7144SOL    HW122331   6.275   1.458   5.671
 7144SOL    HW222332   6.407   1.395   5.598
 7145SOL     OW22333   0.323   3.358   6.660
 7145SOL    HW122334   0.336   3.318   6.751
 7145SOL    HW222335   0.318   3.286   6.591
 7146SOL     OW22336   0.189   1.614   4.536
 7146SOL    HW122337   0.260   1.567   4.484
 7146SOL    HW222338   0.221   1.704   4.564
 7147SOL     OW22339   6.957   6.941   0.636
 7147SOL    HW122340   7.002   6.952   0.547
 7147SOL    HW222341   6.983   6.853   0.676
 7148SOL     OW22342   5.403   6.467   0.831
 7148SOL    HW122343   5.392   6.445   0.735
 7148SOL    HW222344   5.464   6.546   0.841
 7149SOL     OW22345   5.908   4.264   6.560
 7149SOL    HW122346   5.925   4.349   6.511
 7149SOL    HW222347   5.812   4.236   6.546
 7150SOL     OW22348   3.015   2.224   0.065
 7150SOL    HW122349   2.917   2.214   0.049
 7150SOL    HW222350   3.065   2.174   7.016
 7151SOL     OW22351   5.464   2.095   0.128
 7151SOL    HW122352   5.458   2.012   0.072
 7151SOL    HW222353   5.559   2.125   0.134
 7152SOL     OW22354   5.331   0.322   5.147
 7152SOL    HW122355   5.415   0.306   5.199
 7152SOL    HW222356   5.334   0.412   5.104
 7153SOL     OW22357   5.298   5.941   0.667
 7153SOL    HW122358   5.314   5.843   0.654
 7153SOL    HW222359   5.355   5.974   0.742
 7154SOL     OW22360   4.900   0.363   1.652
 7154SOL    HW122361   4.926   0.326   1.741
 7154SOL    HW222362   4.968   0.429   1.621
 7155SOL     OW22363   1.937   0.190   1.046
 7155SOL    HW122364   2.008   0.176   1.115
 7155SOL    HW222365   1.928   0.107   0.991
 7156SOL     OW22366   6.263   3.193   5.146
 7156SOL    HW122367   6.356   3.176   5.113
 7156SOL    HW222368   6.220   3.106   5.171
 7157SOL     OW22369   6.625   3.531   5.236
 7157SOL    HW122370   6.611   3.576   5.149
 7157SOL    HW222371   6.573   3.578   5.307
 7158SOL     OW22372   4.761   0.266   3.804
 7158SOL    HW122373   4.707   0.197   3.852
 7158SOL    HW222374   4.784   0.341   3.866
 7159SOL     OW22375   0.469   6.322   2.959
 7159SOL    HW122376   0.454   6.391   2.888
 7159SOL    HW222377   0.555   6.274   2.942
 7160SOL     OW22378   5.440   6.782   2.763
 7160SOL    HW122379   5.371   6.842   2.802
 7160SOL    HW222380   5.403   6.738   2.681
 7161SOL     OW22381   3.778   3.278   1.991
 7161SOL    HW122382   3.777   3.371   2.028
 7161SOL    HW222383   3.758   3.281   1.893
 7162SOL     OW22384   0.858   6.186   0.582
 7162SOL    HW122385   0.796   6.237   0.642
 7162SOL    HW222386   0.810   6.163   0.497
 7163SOL     OW22387   6.922   0.054   0.151
 7163SOL    HW122388   6.849   7.013   0.175
 7163SOL    HW222389   7.006   0.003   0.132
 7164SOL     OW22390   1.623   6.570   6.980
 7164SOL    HW122391   1.536   6.547   7.021
 7164SOL    HW222392   1.697   6.552   0.022
 7165SOL     OW22393   3.992   2.162   6.620
 7165SOL    HW122394   3.991   2.228   6.694
 7165SOL    HW222395   3.901   2.157   6.578
 7166SOL     OW22396   6.652   6.455   4.813
 7166SOL    HW122397   6.618   6.542   4.849
 7166SOL    HW222398   6.748   6.465   4.787
 7167SOL     OW22399   0.682   3.211   5.454
 7167SOL    HW122400   0.608   3.156   5.414
 7167SOL    HW222401   0.755   3.223   5.386
 7168SOL     OW22402   1.201   0.073   2.426
 7168SOL    HW122403   1.111   0.031   2.431
 7168SOL    HW222404   1.262   0.029   2.491
 7169SOL     OW22405   1.773   4.633   5.782
 7169SOL    HW122406   1.786   4.546   5.830
 7169SOL    HW222407   1.675   4.653   5.776
 7170SOL     OW22408   4.182   2.185   1.313
 7170SOL    HW122409   4.117   2.257   1.337
 7170SOL    HW222410   4.138   2.096   1.321
 7171SOL     OW22411   0.387   5.227   0.994
 7171SOL    HW122412   0.334   5.151   1.032
 7171SOL    HW222413   0.388   5.303   1.060
 7172SOL     OW22414   1.022   2.768   3.663
 7172SOL    HW122415   1.027   2.711   3.744
 7172SOL    HW222416   0.971   2.851   3.683
 7173SOL     OW22417   3.400   5.347   4.581
 7173SOL    HW122418   3.372   5.300   4.664
 7173SOL    HW222419   3.386   5.446   4.592
 7174SOL     OW22420   6.668   3.702   2.290
 7174SOL    HW122421   6.703   3.773   2.351
 7174SOL    HW222422   6.702   3.613   2.320
 7175SOL     OW22423   6.504   3.232   6.157
 7175SOL    HW122424   6.603   3.245   6.151
 7175SOL    HW222425   6.469   3.196   6.070
 7176SOL     OW22426   6.811   1.756   6.882
 7176SOL    HW122427   6.797   1.691   6.957
 7176SOL    HW222428   6.742   1.829   6.889
 7177SOL     OW22429   0.937   5.897   3.391
 7177SOL    HW122430   0.936   5.822   3.325
 7177SOL    HW222431   1.028   5.902   3.434
 7178SOL     OW22432   1.299   6.713   5.624
 7178SOL    HW122433   1.295   6.613   5.616
 7178SOL    HW222434   1.271   6.740   5.716
 7179SOL     OW22435   5.046   4.162   5.646
 7179SOL    HW122436   4.964   4.182   5.594
 7179SOL    HW222437   5.104   4.099   5.594
 7180SOL     OW22438   6.962   2.178   2.055
 7180SOL    HW122439   6.920   2.090   2.031
 7180SOL    HW222440   6.952   2.241   1.978
 7181SOL     OW22441   3.288   0.090   0.138
 7181SOL    HW122442   3.338   0.060   0.220
 7181SOL    HW222443   3.280   0.190   0.139
 7182SOL     OW22444   1.973   1.151   2.838
 7182SOL    HW122445   2.058   1.133   2.788
 7182SOL    HW222446   1.923   1.225   2.793
 7183SOL     OW22447   1.639   0.102   1.152
 7183SOL    HW122448   1.710   0.038   1.182
 7183SOL    HW222449   1.675   0.195   1.152
 7184SOL     OW22450   0.146   1.396   3.529
 7184SOL    HW122451   0.065   1.455   3.524
 7184SOL    HW222452   0.130   1.312   3.478
 7185SOL     OW22453   4.131   0.314   3.493
 7185SOL    HW122454   4.070   0.234   3.484
 7185SOL    HW222455   4.159   0.323   3.588
 7186SOL     OW22456   6.555   1.915   6.904
 7186SOL    HW122457   6.577   1.886   6.997
 7186SOL    HW222458   6.573   2.013   6.894
 7187SOL     OW22459   3.710   3.526   4.149
 7187SOL    HW122460   3.633   3.495   4.206
 7187SOL    HW222461   3.796   3.497   4.191
 7188SOL     OW22462   5.099   4.384   0.051
 7188SOL    HW122463   5.018   4.442   0.047
 7188SOL    HW222464   5.070   4.288   0.050
 7189SOL     OW22465   6.808   2.008   5.895
 7189SOL    HW122466   6.792   2.106   5.908
 7189SOL    HW222467   6.722   1.962   5.876
 7190SOL     OW22468   5.809   6.116   0.565
 7190SOL    HW122469   5.890   6.060   0.545
 7190SOL    HW222470   5.756   6.073   0.638
 7191SOL     OW22471   0.086   4.901   2.810
 7191SOL    HW122472   0.105   4.899   2.712
 7191SOL    HW222473   0.167   4.868   2.860
 7192SOL     OW22474   3.309   3.977   5.603
 7192SOL    HW122475   3.375   4.019   5.541
 7192SOL    HW222476   3.347   3.972   5.695
 7193SOL     OW22477   3.598   1.546   3.291
 7193SOL    HW122478   3.687   1.554   3.335
 7193SOL    HW222479   3.568   1.451   3.293
 7194SOL     OW22480   3.496   2.203   5.377
 7194SOL    HW122481   3.590   2.228   5.351
 7194SOL    HW222482   3.469   2.258   5.456
 7195SOL     OW22483   0.449   4.421   5.485
 7195SOL    HW122484   0.538   4.401   5.444
 7195SOL    HW222485   0.461   4.473   5.569
 7196SOL     OW22486   2.987   3.888   1.811
 7196SOL    HW122487   3.078   3.924   1.790
 7196SOL    HW222488   2.981   3.866   1.908
 7197SOL     OW22489   3.664   4.563   6.298
 7197SOL    HW122490   3.590   4.569   6.230
 7197SOL    HW222491   3.637   4.612   6.381
 7198SOL     OW22492   1.059   0.265   2.303
 7198SOL    HW122493   0.980   0.210   2.329
 7198SOL    HW222494   1.141   0.207   2.303
 7199SOL     OW22495   6.048   0.820   3.278
 7199SOL    HW122496   6.127   0.760   3.294
 7199SOL    HW222497   5.976   0.768   3.233
 7200SOL     OW22498   0.632   3.957   6.662
 7200SOL    HW122499   0.576   3.881   6.694
 7200SOL    HW222500   0.635   3.956   6.562
 7201SOL     OW22501   5.467   6.022   4.431
 7201SOL    HW122502   5.484   5.947   4.368
 7201SOL    HW222503   5.506   6.001   4.520
 7202SOL     OW22504   4.974   0.812   6.141
 7202SOL    HW122505   5.039   0.888   6.136
 7202SOL    HW222506   5.021   0.727   6.114
 7203SOL     OW22507   1.144   1.936   1.292
 7203SOL    HW122508   1.218   1.874   1.266
 7203SOL    HW222509   1.073   1.885   1.341
 7204SOL     OW22510   5.935   0.557   2.969
 7204SOL    HW122511   5.877   0.615   3.026
 7204SOL    HW222512   5.878   0.486   2.926
 7205SOL     OW22513   3.236   1.681   4.239
 7205SOL    HW122514   3.298   1.603   4.238
 7205SOL    HW222515   3.241   1.729   4.152
 7206SOL     OW22516   2.185   3.049   6.389
 7206SOL    HW122517   2.102   2.994   6.381
 7206SOL    HW222518   2.184   3.120   6.319
 7207SOL     OW22519   1.721   2.166   3.468
 7207SOL    HW122520   1.696   2.117   3.384
 7207SOL    HW222521   1.819   2.156   3.484
 7208SOL     OW22522   3.163   0.070   3.529
 7208SOL    HW122523   3.145   0.039   3.623
 7208SOL    HW222524   3.259   0.051   3.506
 7209SOL     OW22525   4.131   0.473   2.038
 7209SOL    HW122526   4.179   0.402   1.986
 7209SOL    HW222527   4.180   0.490   2.124
 7210SOL     OW22528   3.285   1.265   4.385
 7210SOL    HW122529   3.268   1.184   4.441
 7210SOL    HW222530   3.213   1.332   4.401
 7211SOL     OW22531   4.407   6.012   5.849
 7211SOL    HW122532   4.342   5.964   5.908
 7211SOL    HW222533   4.368   6.099   5.821
 7212SOL     OW22534   0.700   6.068   4.380
 7212SOL    HW122535   0.688   6.123   4.297
 7212SOL    HW222536   0.741   5.980   4.356
 7213SOL     OW22537   4.497   2.488   0.121
 7213SOL    HW122538   4.496   2.463   0.024
 7213SOL    HW222539   4.497   2.588   0.129
 7214SOL     OW22540   6.353   1.187   5.955
 7214SOL    HW122541   6.408   1.140   5.887
 7214SOL    HW222542   6.402   1.190   6.042
 7215SOL     OW22543   6.154   1.634   2.799
 7215SOL    HW122544   6.209   1.575   2.739
 7215SOL    HW222545   6.213   1.705   2.839
 7216SOL     OW22546   5.766   6.795   3.996
 7216SOL    HW122547   5.720   6.884   3.995
 7216SOL    HW222548   5.817   6.784   3.911
 7217SOL     OW22549   1.220   3.312   3.277
 7217SOL    HW122550   1.255   3.317   3.370
 7217SOL    HW222551   1.148   3.381   3.264
 7218SOL     OW22552   6.675   2.673   5.371
 7218SOL    HW122553   6.700   2.715   5.458
 7218SOL    HW222554   6.669   2.744   5.301
 7219SOL     OW22555   3.169   5.883   1.913
 7219SOL    HW122556   3.175   5.800   1.968
 7219SOL    HW222557   3.078   5.890   1.873
 7220SOL     OW22558   6.860   3.404   3.684
 7220SOL    HW122559   6.892   3.313   3.657
 7220SOL    HW222560   6.885   3.420   3.780
 7221SOL     OW22561   4.630   5.122   3.563
 7221SOL    HW122562   4.681   5.154   3.642
 7221SOL    HW222563   4.579   5.039   3.586
 7222SOL     OW22564   6.684   6.181   3.927
 7222SOL    HW122565   6.702   6.110   3.860
 7222SOL    HW222566   6.597   6.162   3.974
 7223SOL     OW22567   6.938   6.005   1.885
 7223SOL    HW122568   6.924   6.086   1.828
 7223SOL    HW222569   0.012   5.997   1.910
 7224SOL     OW22570   4.769   2.412   2.265
 7224SOL    HW122571   4.698   2.363   2.316
 7224SOL    HW222572   4.792   2.361   2.182
 7225SOL     OW22573   0.837   5.669   0.143
 7225SOL    HW122574   0.833   5.721   0.058
 7225SOL    HW222575   0.844   5.571   0.123
 7226SOL     OW22576   6.224   6.509   0.236
 7226SOL    HW122577   6.321   6.512   0.260
 7226SOL    HW222578   6.193   6.414   0.234
 7227SOL     OW22579   2.031   1.083   1.969
 7227SOL    HW122580   2.120   1.086   1.924
 7227SOL    HW222581   2.022   1.161   2.031
 7228SOL     OW22582   5.790   3.023   2.829
 7228SOL    HW122583   5.776   2.925   2.843
 7228SOL    HW222584   5.702   3.070   2.828
 7229SOL     OW22585   6.563   0.323   5.063
 7229SOL    HW122586   6.643   0.278   5.103
 7229SOL    HW222587   6.593   0.396   5.001
 7230SOL     OW22588   2.114   4.773   4.925
 7230SOL    HW122589   2.211   4.786   4.948
 7230SOL    HW222590   2.095   4.675   4.917
 7231SOL     OW22591   3.785   3.277   6.406
 7231SOL    HW122592   3.875   3.233   6.412
 7231SOL    HW222593   3.735   3.261   6.491
 7232SOL     OW22594   4.443   6.034   3.454
 7232SOL    HW122595   4.343   6.037   3.448
 7232SOL    HW222596   4.474   5.941   3.434
 7233SOL     OW22597   0.195   1.646   6.212
 7233SOL    HW122598   0.099   1.674   6.213
 7233SOL    HW222599   0.234   1.658   6.303
 7234SOL     OW22600   5.635   4.961   2.845
 7234SOL    HW122601   5.714   4.909   2.876
 7234SOL    HW222602   5.604   4.926   2.757
 7235SOL     OW22603   6.737   0.659   1.572
 7235SOL    HW122604   6.798   0.737   1.583
 7235SOL    HW222605   6.724   0.615   1.661
 7236SOL     OW22606   0.516   3.836   2.802
 7236SOL    HW122607   0.553   3.773   2.734
 7236SOL    HW222608   0.458   3.786   2.866
 7237SOL     OW22609   5.305   1.150   0.214
 7237SOL    HW122610   5.288   1.145   0.313
 7237SOL    HW222611   5.289   1.244   0.182
 7238SOL     OW22612   4.392   3.273   0.251
 7238SOL    HW122613   4.329   3.349   0.265
 7238SOL    HW222614   4.450   3.291   0.171
 7239SOL     OW22615   5.632   2.731   1.790
 7239SOL    HW122616   5.664   2.821   1.763
 7239SOL    HW222617   5.663   2.663   1.724
 7240SOL     OW22618   0.331   2.116   0.078
 7240SOL    HW122619   0.262   2.045   0.093
 7240SOL    HW222620   0.287   2.206   0.082
 7241SOL     OW22621   2.043   0.284   2.641
 7241SOL    HW122622   2.014   0.191   2.620
 7241SOL    HW222623   1.968   0.347   2.623
 7242SOL     OW22624   6.268   4.055   5.461
 7242SOL    HW122625   6.359   4.058   5.501
 7242SOL    HW222626   6.200   4.069   5.533
 7243SOL     OW22627   5.614   4.573   6.218
 7243SOL    HW122628   5.566   4.489   6.193
 7243SOL    HW222629   5.647   4.618   6.135
 7244SOL     OW22630   6.807   5.966   6.625
 7244SOL    HW122631   6.711   5.948   6.605
 7244SOL    HW222632   6.854   5.879   6.642
 7245SOL     OW22633   1.393   2.121   0.029
 7245SOL    HW122634   1.368   2.196   6.991
 7245SOL    HW222635   1.480   2.082   7.022
 7246SOL     OW22636   4.300   6.667   3.903
 7246SOL    HW122637   4.395   6.685   3.927
 7246SOL    HW222638   4.263   6.596   3.963
 7247SOL     OW22639   3.494   4.156   4.758
 7247SOL    HW122640   3.496   4.179   4.661
 7247SOL    HW222641   3.457   4.233   4.810
 7248SOL     OW22642   2.550   1.584   5.387
 7248SOL    HW122643   2.559   1.646   5.309
 7248SOL    HW222644   2.497   1.629   5.459
 7249SOL     OW22645   3.282   5.802   2.859
 7249SOL    HW122646   3.221   5.810   2.938
 7249SOL    HW222647   3.316   5.892   2.833
 7250SOL     OW22648   5.019   5.242   5.664
 7250SOL    HW122649   5.015   5.332   5.621
 7250SOL    HW222650   5.112   5.205   5.654
 7251SOL     OW22651   0.944   6.196   4.445
 7251SOL    HW122652   0.949   6.252   4.528
 7251SOL    HW222653   0.858   6.146   4.444
 7252SOL     OW22654   4.073   3.817   2.202
 7252SOL    HW122655   4.170   3.833   2.190
 7252SOL    HW222656   4.054   3.719   2.198
 7253SOL     OW22657   2.026   5.065   5.115
 7253SOL    HW122658   1.997   4.970   5.106
 7253SOL    HW222659   2.118   5.068   5.155
 7254SOL     OW22660   6.700   3.646   3.928
 7254SOL    HW122661   6.674   3.700   3.848
 7254SOL    HW222662   6.650   3.559   3.928
 7255SOL     OW22663   4.662   4.071   0.503
 7255SOL    HW122664   4.675   4.168   0.522
 7255SOL    HW222665   4.751   4.026   0.501
 7256SOL     OW22666   3.085   6.665   4.125
 7256SOL    HW122667   3.157   6.610   4.166
 7256SOL    HW222668   3.028   6.608   4.066
 7257SOL     OW22669   0.898   1.109   5.258
 7257SOL    HW122670   0.935   1.168   5.186
 7257SOL    HW222671   0.801   1.128   5.270
 7258SOL     OW22672   6.389   2.373   2.461
 7258SOL    HW122673   6.474   2.422   2.482
 7258SOL    HW222674   6.328   2.375   2.541
 7259SOL     OW22675   0.993   4.116   2.511
 7259SOL    HW122676   0.929   4.060   2.563
 7259SOL    HW222677   0.945   4.162   2.436
 7260SOL     OW22678   6.144   3.349   1.163
 7260SOL    HW122679   6.052   3.372   1.132
 7260SOL    HW222680   6.208   3.418   1.130
 7261SOL     OW22681   0.397   4.348   6.920
 7261SOL    HW122682   0.454   4.425   6.948
 7261SOL    HW222683   0.454   4.266   6.908
 7262SOL     OW22684   4.050   0.530   5.246
 7262SOL    HW122685   4.100   0.454   5.288
 7262SOL    HW222686   3.981   0.564   5.310
 7263SOL     OW22687   6.332   5.431   5.126
 7263SOL    HW122688   6.243   5.430   5.171
 7263SOL    HW222689   6.328   5.492   5.046
 7264SOL     OW22690   5.472   1.266   1.546
 7264SOL    HW122691   5.458   1.364   1.532
 7264SOL    HW222692   5.440   1.215   1.466
 7265SOL     OW22693   3.556   0.243   6.014
 7265SOL    HW122694   3.602   0.279   6.095
 7265SOL    HW222695   3.624   0.218   5.945
 7266SOL     OW22696   6.975   0.888   3.339
 7266SOL    HW122697   0.021   0.817   3.324
 7266SOL    HW222698   6.903   0.881   3.270
 7267SOL     OW22699   6.910   4.260   4.989
 7267SOL    HW122700   6.890   4.165   4.965
 7267SOL    HW222701   6.833   4.297   5.042
 7268SOL     OW22702   5.564   6.301   4.385
 7268SOL    HW122703   5.584   6.287   4.482
 7268SOL    HW222704   5.508   6.225   4.351
 7269SOL     OW22705   2.888   5.434   4.374
 7269SOL    HW122706   2.832   5.449   4.292
 7269SOL    HW222707   2.828   5.423   4.454
 7270SOL     OW22708   0.546   0.289   4.697
 7270SOL    HW122709   0.601   0.331   4.770
 7270SOL    HW222710   0.556   0.343   4.613
 7271SOL     OW22711   0.652   4.780   3.286
 7271SOL    HW122712   0.741   4.812   3.319
 7271SOL    HW222713   0.645   4.795   3.187
 7272SOL     OW22714   6.094   4.268   1.736
 7272SOL    HW122715   6.140   4.199   1.792
 7272SOL    HW222716   6.032   4.222   1.672
 7273SOL     OW22717   0.407   1.161   5.422
 7273SOL    HW122718   0.329   1.100   5.440
 7273SOL    HW222719   0.490   1.120   5.459
 7274SOL     OW22720   0.297   5.127   6.191
 7274SOL    HW122721   0.222   5.079   6.236
 7274SOL    HW222722   0.317   5.083   6.103
 7275SOL     OW22723   0.885   5.204   3.425
 7275SOL    HW122724   0.833   5.135   3.475
 7275SOL    HW222725   0.831   5.287   3.417
 7276SOL     OW22726   4.823   6.265   3.462
 7276SOL    HW122727   4.740   6.256   3.406
 7276SOL    HW222728   4.802   6.317   3.545
 7277SOL     OW22729   5.007   0.729   0.400
 7277SOL    HW122730   5.101   0.694   0.391
 7277SOL    HW222731   5.009   0.820   0.442
 7278SOL     OW22732   3.554   2.852   2.326
 7278SOL    HW122733   3.598   2.885   2.409
 7278SOL    HW222734   3.611   2.781   2.284
 7279SOL     OW22735   3.705   6.719   5.963
 7279SOL    HW122736   3.635   6.790   5.951
 7279SOL    HW222737   3.701   6.684   6.056
 7280SOL     OW22738   4.951   1.059   6.348
 7280SOL    HW122739   4.987   0.982   6.294
 7280SOL    HW222740   4.858   1.081   6.316
 7281SOL     OW22741   5.615   1.379   6.130
 7281SOL    HW122742   5.553   1.345   6.200
 7281SOL    HW222743   5.614   1.316   6.052
 7282SOL     OW22744   5.896   6.062   2.714
 7282SOL    HW122745   5.989   6.026   2.715
 7282SOL    HW222746   5.886   6.131   2.786
 7283SOL     OW22747   2.306   1.651   3.816
 7283SOL    HW122748   2.376   1.715   3.782
 7283SOL    HW222749   2.341   1.558   3.811
 7284SOL     OW22750   1.453   1.821   5.587
 7284SOL    HW122751   1.481   1.910   5.550
 7284SOL    HW222752   1.358   1.803   5.561
 7285SOL     OW22753   6.072   5.404   1.847
 7285SOL    HW122754   6.093   5.336   1.917
 7285SOL    HW222755   5.975   5.426   1.849
 7286SOL     OW22756   1.666   3.940   0.758
 7286SOL    HW122757   1.641   4.029   0.797
 7286SOL    HW222758   1.765   3.935   0.748
 7287SOL     OW22759   6.432   1.735   5.717
 7287SOL    HW122760   6.435   1.641   5.685
 7287SOL    HW222761   6.419   1.797   5.640
 7288SOL     OW22762   2.946   0.340   0.320
 7288SOL    HW122763   2.878   0.297   0.261
 7288SOL    HW222764   3.003   0.270   0.362
 7289SOL     OW22765   4.594   2.272   4.289
 7289SOL    HW122766   4.567   2.266   4.193
 7289SOL    HW222767   4.513   2.272   4.347
 7290SOL     OW22768   2.278   5.651   4.560
 7290SOL    HW122769   2.340   5.607   4.494
 7290SOL    HW222770   2.183   5.636   4.532
 7291SOL     OW22771   3.576   4.605   1.480
 7291SOL    HW122772   3.643   4.625   1.551
 7291SOL    HW222773   3.536   4.515   1.496
 7292SOL     OW22774   3.329   0.266   4.752
 7292SOL    HW122775   3.377   0.305   4.673
 7292SOL    HW222776   3.337   0.327   4.830
 7293SOL     OW22777   2.191   1.214   6.751
 7293SOL    HW122778   2.250   1.223   6.671
 7293SOL    HW222779   2.128   1.291   6.755
 7294SOL     OW22780   5.413   5.341   0.018
 7294SOL    HW122781   5.394   5.270   6.972
 7294SOL    HW222782   5.504   5.379   0.001
 7295SOL     OW22783   4.736   0.266   1.359
 7295SOL    HW122784   4.758   0.201   1.432
 7295SOL    HW222785   4.770   0.357   1.383
 7296SOL     OW22786   4.320   5.292   1.232
 7296SOL    HW122787   4.375   5.300   1.148
 7296SOL    HW222788   4.223   5.296   1.209
 7297SOL     OW22789   5.022   6.714   2.163
 7297SOL    HW122790   5.112   6.751   2.184
 7297SOL    HW222791   4.955   6.788   2.157
 7298SOL     OW22792   6.428   3.446   4.230
 7298SOL    HW122793   6.431   3.347   4.243
 7298SOL    HW222794   6.364   3.487   4.295
 7299SOL     OW22795   5.871   3.537   6.549
 7299SOL    HW122796   5.793   3.593   6.522
 7299SOL    HW222797   5.868   3.449   6.501
 7300SOL     OW22798   4.873   5.795   1.749
 7300SOL    HW122799   4.894   5.718   1.808
 7300SOL    HW222800   4.886   5.769   1.654
 7301SOL     OW22801   6.687   1.419   6.497
 7301SOL    HW122802   6.682   1.513   6.529
 7301SOL    HW222803   6.761   1.410   6.431
 7302SOL     OW22804   5.773   0.885   6.184
 7302SOL    HW122805   5.839   0.823   6.141
 7302SOL    HW222806   5.727   0.838   6.259
 7303SOL     OW22807   3.963   0.773   0.693
 7303SOL    HW122808   3.902   0.806   0.765
 7303SOL    HW222809   4.016   0.695   0.727
 7304SOL     OW22810   3.758   3.130   5.269
 7304SOL    HW122811   3.739   3.159   5.175
 7304SOL    HW222812   3.769   3.031   5.272
 7305SOL     OW22813   5.414   1.937   0.358
 7305SOL    HW122814   5.410   2.000   0.435
 7305SOL    HW222815   5.427   1.988   0.273
 7306SOL     OW22816   4.714   4.962   2.175
 7306SOL    HW122817   4.783   5.020   2.217
 7306SOL    HW222818   4.735   4.949   2.078
 7307SOL     OW22819   4.380   6.375   2.309
 7307SOL    HW122820   4.350   6.306   2.242
 7307SOL    HW222821   4.387   6.334   2.399
 7308SOL     OW22822   5.978   0.800   4.257
 7308SOL    HW122823   5.954   0.766   4.166
 7308SOL    HW222824   5.896   0.834   4.302
 7309SOL     OW22825   4.521   5.273   1.723
 7309SOL    HW122826   4.598   5.228   1.768
 7309SOL    HW222827   4.514   5.241   1.629
 7310SOL     OW22828   1.951   5.826   1.874
 7310SOL    HW122829   2.009   5.829   1.793
 7310SOL    HW222830   2.008   5.808   1.954
 7311SOL     OW22831   2.715   1.971   2.241
 7311SOL    HW122832   2.655   1.929   2.174
 7311SOL    HW222833   2.733   1.906   2.315
 7312SOL     OW22834   6.895   2.383   6.185
 7312SOL    HW122835   6.843   2.342   6.111
 7312SOL    HW222836   6.857   2.352   6.273
 7313SOL     OW22837   3.570   2.376   6.299
 7313SOL    HW122838   3.507   2.400   6.373
 7313SOL    HW222839   3.644   2.443   6.296
 7314SOL     OW22840   0.745   2.636   4.368
 7314SOL    HW122841   0.756   2.671   4.276
 7314SOL    HW222842   0.760   2.710   4.434
 7315SOL     OW22843   0.174   0.760   5.869
 7315SOL    HW122844   0.224   0.674   5.857
 7315SOL    HW222845   0.076   0.743   5.861
 7316SOL     OW22846   3.769   3.137   4.784
 7316SOL    HW122847   3.752   3.210   4.717
 7316SOL    HW222848   3.710   3.151   4.864
 7317SOL     OW22849   2.672   0.979   4.132
 7317SOL    HW122850   2.755   1.033   4.115
 7317SOL    HW222851   2.646   0.987   4.228
 7318SOL     OW22852   1.403   1.539   1.075
 7318SOL    HW122853   1.381   1.454   1.028
 7318SOL    HW222854   1.498   1.565   1.054
 7319SOL     OW22855   0.177   3.916   6.287
 7319SOL    HW122856   0.196   3.862   6.205
 7319SOL    HW222857   0.082   3.903   6.315
 7320SOL     OW22858   0.374   1.672   2.335
 7320SOL    HW122859   0.426   1.742   2.385
 7320SOL    HW222860   0.389   1.583   2.378
 7321SOL     OW22861   2.844   1.564   4.270
 7321SOL    HW122862   2.934   1.530   4.297
 7321SOL    HW222863   2.835   1.659   4.299
 7322SOL     OW22864   0.256   3.461   1.465
 7322SOL    HW122865   0.193   3.519   1.516
 7322SOL    HW222866   0.303   3.399   1.527
 7323SOL     OW22867   2.193   3.812   3.140
 7323SOL    HW122868   2.236   3.881   3.082
 7323SOL    HW222869   2.129   3.758   3.085
 7324SOL     OW22870   5.194   4.783   3.047
 7324SOL    HW122871   5.264   4.757   3.113
 7324SOL    HW222872   5.121   4.834   3.093
 7325SOL     OW22873   2.807   6.039   0.176
 7325SOL    HW122874   2.886   5.978   0.182
 7325SOL    HW222875   2.738   6.011   0.242
 7326SOL     OW22876   2.464   0.772   4.335
 7326SOL    HW122877   2.440   0.777   4.238
 7326SOL    HW222878   2.380   0.775   4.390
 7327SOL     OW22879   1.332   2.959   5.465
 7327SOL    HW122880   1.355   2.875   5.514
 7327SOL    HW222881   1.303   2.936   5.372
 7328SOL     OW22882   2.248   0.042   6.521
 7328SOL    HW122883   2.285   0.126   6.560
 7328SOL    HW222884   2.219   7.003   6.595
 7329SOL     OW22885   4.575   3.584   1.673
 7329SOL    HW122886   4.542   3.600   1.580
 7329SOL    HW222887   4.533   3.501   1.710
 7330SOL     OW22888   4.531   2.172   0.762
 7330SOL    HW122889   4.610   2.115   0.782
 7330SOL    HW222890   4.552   2.267   0.784
 7331SOL     OW22891   4.644   1.354   1.662
 7331SOL    HW122892   4.739   1.329   1.644
 7331SOL    HW222893   4.616   1.424   1.596
 7332SOL     OW22894   3.830   5.966   0.623
 7332SOL    HW122895   3.806   5.874   0.654
 7332SOL    HW222896   3.906   6.001   0.677
 7333SOL     OW22897   0.378   4.987   2.771
 7333SOL    HW122898   0.399   5.054   2.842
 7333SOL    HW222899   0.340   5.033   2.691
 7334SOL     OW22900   2.913   0.230   4.709
 7334SOL    HW122901   2.978   0.205   4.780
 7334SOL    HW222902   2.903   0.153   4.646
 7335SOL     OW22903   2.083   3.464   2.815
 7335SOL    HW122904   2.107   3.482   2.720
 7335SOL    HW222905   2.166   3.466   2.871
 7336SOL     OW22906   1.734   6.143   3.959
 7336SOL    HW122907   1.758   6.051   3.991
 7336SOL    HW222908   1.777   6.211   4.018
 7337SOL     OW22909   4.925   2.631   2.000
 7337SOL    HW122910   4.846   2.681   2.036
 7337SOL    HW222911   4.940   2.656   1.905
 7338SOL     OW22912   0.047   3.001   0.005
 7338SOL    HW122913   0.051   3.089   0.054
 7338SOL    HW222914   6.974   2.976   7.014
 7339SOL     OW22915   1.154   5.704   4.881
 7339SOL    HW122916   1.166   5.632   4.813
 7339SOL    HW222917   1.241   5.749   4.897
 7340SOL     OW22918   2.673   6.529   0.132
 7340SOL    HW122919   2.638   6.510   0.040
 7340SOL    HW222920   2.634   6.614   0.165
 7341SOL     OW22921   6.604   1.706   0.831
 7341SOL    HW122922   6.569   1.614   0.850
 7341SOL    HW222923   6.693   1.718   0.874
 7342SOL     OW22924   0.715   6.307   2.329
 7342SOL    HW122925   0.716   6.376   2.257
 7342SOL    HW222926   0.671   6.224   2.295
 7343SOL     OW22927   6.091   3.196   0.481
 7343SOL    HW122928   6.155   3.250   0.426
 7343SOL    HW222929   6.139   3.156   0.559
 7344SOL     OW22930   2.861   6.493   5.767
 7344SOL    HW122931   2.804   6.415   5.741
 7344SOL    HW222932   2.925   6.466   5.839
 7345SOL     OW22933   3.510   5.977   5.680
 7345SOL    HW122934   3.520   6.076   5.689
 7345SOL    HW222935   3.581   5.943   5.619
 7346SOL     OW22936   4.031   5.267   2.051
 7346SOL    HW122937   3.945   5.265   2.000
 7346SOL    HW222938   4.033   5.348   2.110
 7347SOL     OW22939   6.047   1.356   0.096
 7347SOL    HW122940   6.009   1.358   0.003
 7347SOL    HW222941   5.972   1.365   0.162
 7348SOL     OW22942   6.805   5.002   0.349
 7348SOL    HW122943   6.822   4.905   0.330
 7348SOL    HW222944   6.707   5.017   0.358
 7349SOL     OW22945   3.815   1.819   1.512
 7349SOL    HW122946   3.835   1.733   1.559
 7349SOL    HW222947   3.819   1.894   1.578
 7350SOL     OW22948   3.803   0.873   4.391
 7350SOL    HW122949   3.790   0.886   4.489
 7350SOL    HW222950   3.734   0.926   4.341
 7351SOL     OW22951   2.076   4.531   4.207
 7351SOL    HW122952   2.098   4.624   4.236
 7351SOL    HW222953   1.978   4.524   4.190
 7352SOL     OW22954   6.110   3.370   4.051
 7352SOL    HW122955   6.190   3.430   4.049
 7352SOL    HW222956   6.041   3.409   4.111
 7353SOL     OW22957   6.346   1.046   5.518
 7353SOL    HW122958   6.254   1.043   5.557
 7353SOL    HW222959   6.373   1.142   5.506
 7354SOL     OW22960   0.941   1.783   2.859
 7354SOL    HW122961   0.873   1.856   2.847
 7354SOL    HW222962   0.960   1.741   2.770
 7355SOL     OW22963   3.263   1.340   0.839
 7355SOL    HW122964   3.220   1.325   0.750
 7355SOL    HW222965   3.238   1.431   0.873
 7356SOL     OW22966   4.419   4.254   6.220
 7356SOL    HW122967   4.379   4.163   6.231
 7356SOL    HW222968   4.497   4.264   6.282
 7357SOL     OW22969   5.047   6.418   2.165
 7357SOL    HW122970   5.027   6.510   2.132
 7357SOL    HW222971   5.144   6.398   2.153
 7358SOL     OW22972   5.019   0.363   3.221
 7358SOL    HW122973   4.996   0.405   3.309
 7358SOL    HW222974   4.967   0.409   3.149
 7359SOL     OW22975   4.006   6.720   2.109
 7359SOL    HW122976   4.047   6.631   2.089
 7359SOL    HW222977   3.934   6.709   2.177
 7360SOL     OW22978   2.856   3.742   5.175
 7360SOL    HW122979   2.864   3.644   5.155
 7360SOL    HW222980   2.892   3.795   5.099
 7361SOL     OW22981   6.742   0.412   3.004
 7361SOL    HW122982   6.751   0.433   3.102
 7361SOL    HW222983   6.664   0.352   2.990
 7362SOL     OW22984   3.598   5.524   0.170
 7362SOL    HW122985   3.552   5.597   0.220
 7362SOL    HW222986   3.613   5.553   0.076
 7363SOL     OW22987   4.104   0.803   0.995
 7363SOL    HW122988   4.167   0.854   1.054
 7363SOL    HW222989   4.055   0.867   0.936
 7364SOL     OW22990   6.323   6.311   1.933
 7364SOL    HW122991   6.231   6.281   1.957
 7364SOL    HW222992   6.356   6.375   2.003
 7365SOL     OW22993   4.884   3.666   2.456
 7365SOL    HW122994   4.859   3.763   2.451
 7365SOL    HW222995   4.855   3.620   2.372
 7366SOL     OW22996   2.164   6.963   3.457
 7366SOL    HW122997   2.200   0.033   3.450
 7366SOL    HW222998   2.217   6.902   3.397
 7367SOL     OW22999   4.225   1.042   6.699
 7367SOL    HW123000   4.278   1.014   6.779
 7367SOL    HW223001   4.285   1.087   6.633
 7368SOL     OW23002   3.264   3.529   3.513
 7368SOL    HW123003   3.165   3.541   3.518
 7368SOL    HW223004   3.295   3.470   3.588
 7369SOL     OW23005   5.985   3.765   6.957
 7369SOL    HW123006   5.955   3.807   0.020
 7369SOL    HW223007   5.913   3.703   6.925
 7370SOL     OW23008   1.596   1.462   4.700
 7370SOL    HW123009   1.570   1.505   4.613
 7370SOL    HW223010   1.667   1.394   4.684
 7371SOL     OW23011   3.880   0.742   3.185
 7371SOL    HW123012   3.825   0.703   3.260
 7371SOL    HW223013   3.976   0.745   3.212
 7372SOL     OW23014   4.836   0.922   5.326
 7372SOL    HW123015   4.918   0.975   5.303
 7372SOL    HW223016   4.862   0.834   5.366
 7373SOL     OW23017   5.916   3.204   4.463
 7373SOL    HW123018   5.828   3.180   4.423
 7373SOL    HW223019   5.957   3.123   4.505
 7374SOL     OW23020   0.818   2.529   6.906
 7374SOL    HW123021   0.751   2.479   6.852
 7374SOL    HW223022   0.883   2.574   6.845
 7375SOL     OW23023   2.400   3.259   0.306
 7375SOL    HW123024   2.386   3.222   0.214
 7375SOL    HW223025   2.314   3.297   0.340
 7376SOL     OW23026   6.560   4.765   0.366
 7376SOL    HW123027   6.472   4.740   0.408
 7376SOL    HW223028   6.571   4.864   0.367
 7377SOL     OW23029   2.613   5.571   1.089
 7377SOL    HW123030   2.654   5.499   1.145
 7377SOL    HW223031   2.550   5.530   1.023
 7378SOL     OW23032   1.635   4.866   5.468
 7378SOL    HW123033   1.577   4.826   5.539
 7378SOL    HW223034   1.708   4.802   5.446
 7379SOL     OW23035   4.615   1.876   2.451
 7379SOL    HW123036   4.698   1.926   2.475
 7379SOL    HW223037   4.639   1.785   2.417
 7380SOL     OW23038   5.133   3.591   1.789
 7380SOL    HW123039   5.160   3.652   1.863
 7380SOL    HW223040   5.036   3.568   1.798
 7381SOL     OW23041   3.648   6.542   1.708
 7381SOL    HW123042   3.689   6.537   1.799
 7381SOL    HW223043   3.713   6.584   1.645
 7382SOL     OW23044   0.438   2.058   6.367
 7382SOL    HW123045   0.409   2.037   6.461
 7382SOL    HW223046   0.537   2.064   6.364
 7383SOL     OW23047   2.069   6.766   1.004
 7383SOL    HW123048   2.112   6.761   1.094
 7383SOL    HW223049   2.120   6.830   0.946
 7384SOL     OW23050   6.727   6.860   0.204
 7384SOL    HW123051   6.633   6.880   0.232
 7384SOL    HW223052   6.725   6.807   0.119
 7385SOL     OW23053   6.215   4.810   3.130
 7385SOL    HW123054   6.223   4.745   3.054
 7385SOL    HW223055   6.306   4.843   3.156
 7386SOL     OW23056   5.903   4.334   6.807
 7386SOL    HW123057   5.929   4.428   6.788
 7386SOL    HW223058   5.895   4.283   6.721
 7387SOL     OW23059   6.651   5.361   3.983
 7387SOL    HW123060   6.569   5.347   4.038
 7387SOL    HW223061   6.635   5.331   3.889
 7388SOL     OW23062   2.360   4.331   2.529
 7388SOL    HW123063   2.424   4.332   2.452
 7388SOL    HW223064   2.275   4.377   2.503
 7389SOL     OW23065   6.684   3.139   0.551
 7389SOL    HW123066   6.605   3.099   0.504
 7389SOL    HW223067   6.688   3.104   0.645
 7390SOL     OW23068   2.820   2.265   3.755
 7390SOL    HW123069   2.847   2.245   3.849
 7390SOL    HW223070   2.744   2.206   3.728
 7391SOL     OW23071   3.218   4.039   2.866
 7391SOL    HW123072   3.290   4.090   2.914
 7391SOL    HW223073   3.147   4.012   2.930
 7392SOL     OW23074   3.356   6.631   0.797
 7392SOL    HW123075   3.270   6.608   0.842
 7392SOL    HW223076   3.432   6.616   0.861
 7393SOL     OW23077   5.289   5.790   3.198
 7393SOL    HW123078   5.219   5.732   3.238
 7393SOL    HW223079   5.295   5.773   3.099
 7394SOL     OW23080   2.265   2.057   6.180
 7394SOL    HW123081   2.172   2.040   6.214
 7394SOL    HW223082   2.314   2.114   6.245
 7395SOL     OW23083   2.882   6.324   1.261
 7395SOL    HW123084   2.950   6.264   1.219
 7395SOL    HW223085   2.909   6.419   1.250
 7396SOL     OW23086   1.372   5.176   2.145
 7396SOL    HW123087   1.283   5.154   2.185
 7396SOL    HW223088   1.376   5.274   2.124
 7397SOL     OW23089   6.129   4.391   4.073
 7397SOL    HW123090   6.143   4.402   3.974
 7397SOL    HW223091   6.164   4.302   4.101
 7398SOL     OW23092   3.172   4.843   2.312
 7398SOL    HW123093   3.131   4.836   2.221
 7398SOL    HW223094   3.269   4.865   2.304
 7399SOL     OW23095   6.118   1.423   5.727
 7399SOL    HW123096   6.093   1.370   5.646
 7399SOL    HW223097   6.041   1.423   5.792
 7400SOL     OW23098   4.148   3.421   5.834
 7400SOL    HW123099   4.248   3.428   5.841
 7400SOL    HW223100   4.122   3.412   5.738
 7401SOL     OW23101   1.535   2.577   3.965
 7401SOL    HW123102   1.495   2.604   3.877
 7401SOL    HW223103   1.609   2.640   3.988
 7402SOL     OW23104   3.524   5.519   4.330
 7402SOL    HW123105   3.544   5.447   4.396
 7402SOL    HW223106   3.593   5.591   4.336
 7403SOL     OW23107   1.646   4.404   4.010
 7403SOL    HW123108   1.594   4.399   3.924
 7403SOL    HW223109   1.592   4.452   4.079
 7404SOL     OW23110   2.743   4.140   0.721
 7404SOL    HW123111   2.786   4.050   0.728
 7404SOL    HW223112   2.648   4.129   0.693
 7405SOL     OW23113   3.799   6.762   5.406
 7405SOL    HW123114   3.726   6.826   5.380
 7405SOL    HW223115   3.796   6.682   5.346
 7406SOL     OW23116   0.557   2.355   4.431
 7406SOL    HW123117   0.656   2.362   4.445
 7406SOL    HW223118   0.518   2.291   4.497
 7407SOL     OW23119   1.344   6.444   5.599
 7407SOL    HW123120   1.292   6.411   5.520
 7407SOL    HW223121   1.414   6.377   5.623
 7408SOL     OW23122   4.340   5.391   5.137
 7408SOL    HW123123   4.366   5.296   5.121
 7408SOL    HW223124   4.422   5.445   5.153
 7409SOL     OW23125   6.306   4.955   1.680
 7409SOL    HW123126   6.333   5.027   1.616
 7409SOL    HW223127   6.286   4.871   1.629
 7410SOL     OW23128   6.633   1.107   1.078
 7410SOL    HW123129   6.718   1.140   1.118
 7410SOL    HW223130   6.563   1.101   1.149
 7411SOL     OW23131   3.627   1.695   5.330
 7411SOL    HW123132   3.529   1.707   5.347
 7411SOL    HW223133   3.673   1.671   5.415
 7412SOL     OW23134   4.192   6.787   0.026
 7412SOL    HW123135   4.138   6.789   6.964
 7412SOL    HW223136   4.185   6.696   0.067
 7413SOL     OW23137   5.098   0.911   3.508
 7413SOL    HW123138   5.122   1.007   3.520
 7413SOL    HW223139   5.132   0.859   3.587
 7414SOL     OW23140   2.619   1.114   3.769
 7414SOL    HW123141   2.610   1.181   3.843
 7414SOL    HW223142   2.674   1.037   3.800
 7415SOL     OW23143   4.063   0.206   6.368
 7415SOL    HW123144   4.025   0.190   6.459
 7415SOL    HW223145   4.146   0.262   6.376
 7416SOL     OW23146   1.593   0.346   1.684
 7416SOL    HW123147   1.590   0.433   1.735
 7416SOL    HW223148   1.595   0.365   1.586
 7417SOL     OW23149   0.448   0.553   2.398
 7417SOL    HW123150   0.544   0.530   2.415
 7417SOL    HW223151   0.390   0.500   2.460
 7418SOL     OW23152   1.426   3.795   6.002
 7418SOL    HW123153   1.508   3.786   6.058
 7418SOL    HW223154   1.405   3.892   5.990
 7419SOL     OW23155   6.404   3.154   4.265
 7419SOL    HW123156   6.385   3.110   4.176
 7419SOL    HW223157   6.470   3.098   4.316
 7420SOL     OW23158   0.027   6.453   1.174
 7420SOL    HW123159   0.080   6.501   1.244
 7420SOL    HW223160   0.009   6.515   1.098
 7421SOL     OW23161   5.795   3.973   1.059
 7421SOL    HW123162   5.834   4.061   1.033
 7421SOL    HW223163   5.865   3.917   1.104
 7422SOL     OW23164   5.355   3.498   1.641
 7422SOL    HW123165   5.309   3.439   1.575
 7422SOL    HW223166   5.288   3.539   1.702
 7423SOL     OW23167   4.733   2.580   6.014
 7423SOL    HW123168   4.730   2.482   6.035
 7423SOL    HW223169   4.737   2.632   6.099
 7424SOL     OW23170   0.475   2.335   4.125
 7424SOL    HW123171   0.495   2.248   4.079
 7424SOL    HW223172   0.517   2.335   4.216
 7425SOL     OW23173   5.761   0.500   1.371
 7425SOL    HW123174   5.758   0.592   1.333
 7425SOL    HW223175   5.682   0.448   1.339
 7426SOL     OW23176   3.270   2.967   5.702
 7426SOL    HW123177   3.316   2.911   5.633
 7426SOL    HW223178   3.333   2.982   5.778
 7427SOL     OW23179   2.411   0.370   2.799
 7427SOL    HW123180   2.400   0.319   2.713
 7427SOL    HW223181   2.363   0.457   2.793
 7428SOL     OW23182   2.811   0.296   5.083
 7428SOL    HW123183   2.848   0.304   5.175
 7428SOL    HW223184   2.869   0.237   5.028
 7429SOL     OW23185   1.132   0.687   2.216
 7429SOL    HW123186   1.196   0.704   2.140
 7429SOL    HW223187   1.077   0.769   2.232
 7430SOL     OW23188   0.010   4.144   2.826
 7430SOL    HW123189   0.023   4.238   2.796
 7430SOL    HW223190   0.093   4.091   2.807
 7431SOL     OW23191   0.812   2.180   4.514
 7431SOL    HW123192   0.764   2.184   4.426
 7431SOL    HW223193   0.820   2.085   4.543
 7432SOL     OW23194   1.592   1.157   2.849
 7432SOL    HW123195   1.634   1.230   2.903
 7432SOL    HW223196   1.654   1.127   2.777
 7433SOL     OW23197   3.578   6.876   6.748
 7433SOL    HW123198   3.642   6.937   6.794
 7433SOL    HW223199   3.498   6.860   6.807
 7434SOL     OW23200   4.418   0.122   3.633
 7434SOL    HW123201   4.391   0.211   3.669
 7434SOL    HW223202   4.383   0.050   3.693
 7435SOL     OW23203   5.195   4.601   2.818
 7435SOL    HW123204   5.116   4.584   2.759
 7435SOL    HW223205   5.173   4.674   2.883
 7436SOL     OW23206   5.102   2.899   5.743
 7436SOL    HW123207   5.148   2.816   5.712
 7436SOL    HW223208   5.169   2.972   5.755
 7437SOL     OW23209   3.034   0.979   1.290
 7437SOL    HW123210   3.066   1.056   1.345
 7437SOL    HW223211   3.103   0.907   1.290
 7438SOL     OW23212   1.968   0.289   6.774
 7438SOL    HW123213   2.002   0.378   6.745
 7438SOL    HW223214   1.906   0.252   6.704
 7439SOL     OW23215   1.395   4.436   6.138
 7439SOL    HW123216   1.384   4.505   6.067
 7439SOL    HW223217   1.349   4.352   6.111
 7440SOL     OW23218   5.297   3.493   3.690
 7440SOL    HW123219   5.351   3.526   3.613
 7440SOL    HW223220   5.265   3.400   3.671
 7441SOL     OW23221   4.370   6.137   1.077
 7441SOL    HW123222   4.347   6.049   1.119
 7441SOL    HW223223   4.323   6.145   0.990
 7442SOL     OW23224   5.898   1.378   5.880
 7442SOL    HW123225   5.809   1.334   5.880
 7442SOL    HW223226   5.932   1.387   5.974
 7443SOL     OW23227   0.149   0.246   1.215
 7443SOL    HW123228   0.184   0.317   1.154
 7443SOL    HW223229   0.203   0.162   1.204
 7444SOL     OW23230   1.429   6.315   6.748
 7444SOL    HW123231   1.474   6.233   6.712
 7444SOL    HW223232   1.443   6.391   6.685
 7445SOL     OW23233   3.735   5.446   2.575
 7445SOL    HW123234   3.660   5.381   2.593
 7445SOL    HW223235   3.789   5.414   2.498
 7446SOL     OW23236   6.319   4.908   0.135
 7446SOL    HW123237   6.382   4.946   0.204
 7446SOL    HW223238   6.273   4.983   0.087
 7447SOL     OW23239   1.024   5.826   0.898
 7447SOL    HW123240   1.044   5.843   0.801
 7447SOL    HW223241   1.095   5.768   0.937
 7448SOL     OW23242   4.255   5.020   6.956
 7448SOL    HW123243   4.330   5.086   6.950
 7448SOL    HW223244   4.226   4.994   6.864
 7449SOL     OW23245   6.479   4.176   6.518
 7449SOL    HW123246   6.575   4.204   6.517
 7449SOL    HW223247   6.421   4.256   6.503
 7450SOL     OW23248   5.630   2.789   6.897
 7450SOL    HW123249   5.643   2.690   6.893
 7450SOL    HW223250   5.646   2.828   6.807
 7451SOL     OW23251   4.571   4.506   3.051
 7451SOL    HW123252   4.497   4.571   3.066
 7451SOL    HW223253   4.659   4.550   3.071
 7452SOL     OW23254   6.559   5.973   6.260
 7452SOL    HW123255   6.652   5.994   6.230
 7452SOL    HW223256   6.508   5.932   6.184
 7453SOL     OW23257   4.057   5.428   6.360
 7453SOL    HW123258   3.957   5.437   6.366
 7453SOL    HW223259   4.100   5.514   6.388
 7454SOL     OW23260   4.229   1.897   0.986
 7454SOL    HW123261   4.208   1.977   0.929
 7454SOL    HW223262   4.324   1.902   1.018
 7455SOL     OW23263   6.473   0.575   3.259
 7455SOL    HW123264   6.454   0.671   3.240
 7455SOL    HW223265   6.440   0.519   3.183
 7456SOL     OW23266   2.900   1.853   5.954
 7456SOL    HW123267   2.907   1.921   6.027
 7456SOL    HW223268   2.921   1.896   5.866
 7457SOL     OW23269   1.162   1.459   2.858
 7457SOL    HW123270   1.111   1.541   2.834
 7457SOL    HW223271   1.260   1.478   2.856
 7458SOL     OW23272   0.409   5.465   4.863
 7458SOL    HW123273   0.328   5.407   4.851
 7458SOL    HW223274   0.392   5.532   4.935
 7459SOL     OW23275   5.803   0.000   3.353
 7459SOL    HW123276   5.792   6.924   3.347
 7459SOL    HW223277   5.738   0.045   3.291
 7460SOL     OW23278   0.814   0.385   1.309
 7460SOL    HW123279   0.870   0.351   1.385
 7460SOL    HW223280   0.729   0.331   1.304
 7461SOL     OW23281   1.966   4.604   4.557
 7461SOL    HW123282   1.917   4.517   4.552
 7461SOL    HW223283   2.058   4.588   4.591
 7462SOL     OW23284   1.871   4.626   0.090
 7462SOL    HW123285   1.787   4.591   0.132
 7462SOL    HW223286   1.938   4.552   0.086
 7463SOL     OW23287   4.713   5.148   1.872
 7463SOL    HW123288   4.799   5.184   1.836
 7463SOL    HW223289   4.715   5.048   1.872
 7464SOL     OW23290   5.142   5.580   4.785
 7464SOL    HW123291   5.064   5.517   4.792
 7464SOL    HW223292   5.139   5.646   4.860
 7465SOL     OW23293   1.559   4.182   6.519
 7465SOL    HW123294   1.486   4.133   6.470
 7465SOL    HW223295   1.638   4.192   6.460
 7466SOL     OW23296   0.826   0.686   5.336
 7466SOL    HW123297   0.897   0.753   5.311
 7466SOL    HW223298   0.783   0.714   5.422
 7467SOL     OW23299   0.647   3.484   4.457
 7467SOL    HW123300   0.702   3.551   4.507
 7467SOL    HW223301   0.564   3.529   4.422
 7468SOL     OW23302   5.256   2.699   5.646
 7468SOL    HW123303   5.289   2.611   5.681
 7468SOL    HW223304   5.333   2.760   5.629
 7469SOL     OW23305   0.291   2.271   0.342
 7469SOL    HW123306   0.334   2.199   0.396
 7469SOL    HW223307   0.191   2.263   0.348
 7470SOL     OW23308   5.087   3.098   3.986
 7470SOL    HW123309   5.171   3.119   4.036
 7470SOL    HW223310   5.084   3.000   3.965
 7471SOL     OW23311   3.740   6.761   0.030
 7471SOL    HW123312   3.820   6.795   0.080
 7471SOL    HW223313   3.770   6.692   6.986
 7472SOL     OW23314   0.922   0.130   5.864
 7472SOL    HW123315   0.862   0.210   5.869
 7472SOL    HW223316   0.883   0.063   5.802
 7473SOL     OW23317   4.019   6.076   3.238
 7473SOL    HW123318   4.080   6.073   3.318
 7473SOL    HW223319   4.062   6.029   3.161
 7474SOL     OW23320   6.097   2.352   0.267
 7474SOL    HW123321   6.082   2.293   0.347
 7474SOL    HW223322   6.031   2.428   0.269
 7475SOL     OW23323   5.104   2.620   1.067
 7475SOL    HW123324   5.041   2.552   1.028
 7475SOL    HW223325   5.193   2.577   1.084
 7476SOL     OW23326   2.208   1.111   2.717
 7476SOL    HW123327   2.199   1.209   2.699
 7476SOL    HW223328   2.298   1.093   2.757
 7477SOL     OW23329   2.734   3.913   5.793
 7477SOL    HW123330   2.762   3.984   5.858
 7477SOL    HW223331   2.804   3.903   5.723
 7478SOL     OW23332   0.200   2.085   6.186
 7478SOL    HW123333   0.281   2.113   6.239
 7478SOL    HW223334   0.206   2.122   6.094
 7479SOL     OW23335   4.945   2.752   1.452
 7479SOL    HW123336   4.946   2.655   1.427
 7479SOL    HW223337   4.922   2.762   1.549
 7480SOL     OW23338   3.641   6.125   2.691
 7480SOL    HW123339   3.705   6.118   2.768
 7480SOL    HW223340   3.643   6.039   2.639
 7481SOL     OW23341   6.987   3.472   6.217
 7481SOL    HW123342   6.902   3.521   6.237
 7481SOL    HW223343   0.042   3.531   6.239
 7482SOL     OW23344   4.730   2.588   4.320
 7482SOL    HW123345   4.632   2.604   4.330
 7482SOL    HW223346   4.760   2.615   4.228
 7483SOL     OW23347   4.860   1.432   6.164
 7483SOL    HW123348   4.906   1.440   6.075
 7483SOL    HW223349   4.905   1.492   6.230
 7484SOL     OW23350   2.528   0.513   4.374
 7484SOL    HW123351   2.595   0.508   4.448
 7484SOL    HW223352   2.499   0.608   4.362
 7485SOL     OW23353   4.234   0.359   6.897
 7485SOL    HW123354   4.230   0.292   6.971
 7485SOL    HW223355   4.248   0.450   6.936
 7486SOL     OW23356   4.297   6.752   1.015
 7486SOL    HW123357   4.319   6.686   1.087
 7486SOL    HW223358   4.377   6.808   0.996
 7487SOL     OW23359   3.063   6.225   4.085
 7487SOL    HW123360   2.977   6.215   4.035
 7487SOL    HW223361   3.135   6.257   4.024
 7488SOL     OW23362   1.414   5.892   4.055
 7488SOL    HW123363   1.425   5.990   4.073
 7488SOL    HW223364   1.396   5.844   4.140
 7489SOL     OW23365   5.061   3.038   6.516
 7489SOL    HW123366   5.136   3.009   6.457
 7489SOL    HW223367   5.077   3.004   6.609
 7490SOL     OW23368   1.950   2.919   1.844
 7490SOL    HW123369   1.864   2.944   1.888
 7490SOL    HW223370   1.933   2.845   1.778
 7491SOL     OW23371   4.064   3.977   0.039
 7491SOL    HW123372   3.970   4.004   0.061
 7491SOL    HW223373   4.128   4.034   0.090
 7492SOL     OW23374   1.732   0.706   4.008
 7492SOL    HW123375   1.667   0.654   3.952
 7492SOL    HW223376   1.682   0.774   4.062
 7493SOL     OW23377   6.552   5.213   4.483
 7493SOL    HW123378   6.633   5.180   4.532
 7493SOL    HW223379   6.573   5.300   4.439
 7494SOL     OW23380   6.229   1.304   2.123
 7494SOL    HW123381   6.141   1.257   2.115
 7494SOL    HW223382   6.216   1.392   2.168
 7495SOL     OW23383   1.133   3.139   4.539
 7495SOL    HW123384   1.206   3.104   4.597
 7495SOL    HW223385   1.044   3.117   4.579
 7496SOL     OW23386   6.282   3.761   2.528
 7496SOL    HW123387   6.187   3.757   2.560
 7496SOL    HW223388   6.344   3.753   2.606
 7497SOL     OW23389   6.465   0.058   1.422
 7497SOL    HW123390   6.389   0.069   1.358
 7497SOL    HW223391   6.548   0.032   1.372
 7498SOL     OW23392   2.535   6.512   3.875
 7498SOL    HW123393   2.505   6.578   3.944
 7498SOL    HW223394   2.626   6.539   3.842
 7499SOL     OW23395   2.955   1.672   3.442
 7499SOL    HW123396   2.930   1.576   3.448
 7499SOL    HW223397   3.021   1.694   3.514
 7500SOL     OW23398   3.893   1.140   3.938
 7500SOL    HW123399   3.798   1.164   3.916
 7500SOL    HW223400   3.936   1.100   3.857
 7501SOL     OW23401   6.252   2.089   3.872
 7501SOL    HW123402   6.251   2.088   3.972
 7501SOL    HW223403   6.163   2.061   3.838
 7502SOL     OW23404   3.957   1.062   3.673
 7502SOL    HW123405   4.000   0.975   3.699
 7502SOL    HW223406   3.892   1.046   3.599
 7503SOL     OW23407   1.377   6.098   1.373
 7503SOL    HW123408   1.392   6.192   1.340
 7503SOL    HW223409   1.464   6.052   1.383
 7504SOL     OW23410   5.740   6.477   4.803
 7504SOL    HW123411   5.725   6.493   4.900
 7504SOL    HW223412   5.837   6.463   4.785
 7505SOL     OW23413   1.064   6.517   5.755
 7505SOL    HW123414   1.039   6.524   5.659
 7505SOL    HW223415   1.028   6.432   5.792
 7506SOL     OW23416   3.426   2.141   4.332
 7506SOL    HW123417   3.379   2.102   4.411
 7506SOL    HW223418   3.523   2.153   4.353
 7507SOL     OW23419   6.732   3.902   6.167
 7507SOL    HW123420   6.646   3.931   6.209
 7507SOL    HW223421   6.755   3.810   6.197
 7508SOL     OW23422   3.161   6.353   0.747
 7508SOL    HW123423   3.096   6.428   0.761
 7508SOL    HW223424   3.146   6.313   0.656
 7509SOL     OW23425   6.236   4.887   2.076
 7509SOL    HW123426   6.184   4.925   1.999
 7509SOL    HW223427   6.176   4.882   2.156
 7510SOL     OW23428   3.202   3.988   1.658
 7510SOL    HW123429   3.148   3.949   1.583
 7510SOL    HW223430   3.185   4.087   1.663
 7511SOL     OW23431   4.374   6.012   3.768
 7511SOL    HW123432   4.364   6.013   3.668
 7511SOL    HW223433   4.400   6.103   3.800
 7512SOL     OW23434   4.344   0.227   0.907
 7512SOL    HW123435   4.305   0.172   0.980
 7512SOL    HW223436   4.434   0.261   0.934
 7513SOL     OW23437   1.021   0.880   1.931
 7513SOL    HW123438   0.992   0.917   2.019
 7513SOL    HW223439   1.088   0.942   1.889
 7514SOL     OW23440   0.288   6.990   0.669
 7514SOL    HW123441   0.199   6.995   0.625
 7514SOL    HW223442   0.277   6.962   0.764
 7515SOL     OW23443   0.231   4.858   5.175
 7515SOL    HW123444   0.225   4.850   5.075
 7515SOL    HW223445   0.153   4.910   5.209
 7516SOL     OW23446   2.145   6.350   5.076
 7516SOL    HW123447   2.164   6.252   5.067
 7516SOL    HW223448   2.210   6.391   5.140
 7517SOL     OW23449   0.765   2.378   6.326
 7517SOL    HW123450   0.695   2.448   6.310
 7517SOL    HW223451   0.823   2.406   6.402
 7518SOL     OW23452   3.978   1.865   4.480
 7518SOL    HW123453   3.949   1.912   4.397
 7518SOL    HW223454   3.907   1.799   4.508
 7519SOL     OW23455   3.395   6.856   4.662
 7519SOL    HW123456   3.331   6.934   4.662
 7519SOL    HW223457   3.468   6.874   4.729
 7520SOL     OW23458   1.759   1.294   0.767
 7520SOL    HW123459   1.799   1.380   0.798
 7520SOL    HW223460   1.783   1.279   0.671
 7521SOL     OW23461   4.136   1.057   5.359
 7521SOL    HW123462   4.152   1.156   5.358
 7521SOL    HW223463   4.091   1.029   5.275
 7522SOL     OW23464   1.596   6.644   4.396
 7522SOL    HW123465   1.678   6.608   4.440
 7522SOL    HW223466   1.527   6.572   4.390
 7523SOL     OW23467   5.646   1.774   0.356
 7523SOL    HW123468   5.681   1.798   0.266
 7523SOL    HW223469   5.575   1.839   0.383
 7524SOL     OW23470   0.450   3.377   5.496
 7524SOL    HW123471   0.462   3.457   5.555
 7524SOL    HW223472   0.539   3.332   5.483
 7525SOL     OW23473   2.257   4.850   5.617
 7525SOL    HW123474   2.327   4.783   5.593
 7525SOL    HW223475   2.263   4.870   5.715
 7526SOL     OW23476   1.644   4.224   0.797
 7526SOL    HW123477   1.676   4.290   0.729
 7526SOL    HW223478   1.545   4.211   0.787
 7527SOL     OW23479   2.775   5.006   2.712
 7527SOL    HW123480   2.835   5.053   2.777
 7527SOL    HW223481   2.782   5.050   2.623
 7528SOL     OW23482   5.794   2.549   6.607
 7528SOL    HW123483   5.713   2.501   6.573
 7528SOL    HW223484   5.869   2.483   6.618
 7529SOL     OW23485   5.518   3.219   4.620
 7529SOL    HW123486   5.504   3.264   4.709
 7529SOL    HW223487   5.433   3.176   4.591
 7530SOL     OW23488   1.534   2.653   2.831
 7530SOL    HW123489   1.438   2.629   2.848
 7530SOL    HW223490   1.541   2.752   2.818
 7531SOL     OW23491   3.827   1.835   3.906
 7531SOL    HW123492   3.868   1.764   3.847
 7531SOL    HW223493   3.727   1.828   3.901
 7532SOL     OW23494   5.205   5.465   6.264
 7532SOL    HW123495   5.192   5.526   6.342
 7532SOL    HW223496   5.131   5.480   6.197
 7533SOL     OW23497   4.422   4.553   2.008
 7533SOL    HW123498   4.504   4.560   2.065
 7533SOL    HW223499   4.416   4.461   1.970
 7534SOL     OW23500   4.217   5.825   5.330
 7534SOL    HW123501   4.203   5.780   5.241
 7534SOL    HW223502   4.294   5.782   5.377
 7535SOL     OW23503   0.240   6.752   4.526
 7535SOL    HW123504   0.177   6.796   4.463
 7535SOL    HW223505   0.329   6.799   4.522
 7536SOL     OW23506   6.790   6.395   3.054
 7536SOL    HW123507   6.783   6.380   3.152
 7536SOL    HW223508   6.815   6.309   3.009
 7537SOL     OW23509   1.744   0.178   2.794
 7537SOL    HW123510   1.804   0.120   2.740
 7537SOL    HW223511   1.703   0.125   2.868
 7538SOL     OW23512   0.161   5.064   0.159
 7538SOL    HW123513   0.148   4.995   0.088
 7538SOL    HW223514   0.182   5.152   0.116
 7539SOL     OW23515   6.305   0.574   4.000
 7539SOL    HW123516   6.316   0.578   3.901
 7539SOL    HW223517   6.380   0.521   4.040
 7540SOL     OW23518   5.159   4.365   3.007
 7540SOL    HW123519   5.178   4.420   2.926
 7540SOL    HW223520   5.220   4.393   3.081
 7541SOL     OW23521   2.457   4.051   6.533
 7541SOL    HW123522   2.455   4.057   6.433
 7541SOL    HW223523   2.364   4.055   6.568
 7542SOL     OW23524   6.088   5.725   4.697
 7542SOL    HW123525   6.050   5.649   4.749
 7542SOL    HW223526   6.023   5.754   4.627
 7543SOL     OW23527   2.282   0.956   0.348
 7543SOL    HW123528   2.219   0.967   0.271
 7543SOL    HW223529   2.299   0.859   0.363
 7544SOL     OW23530   6.027   1.432   4.663
 7544SOL    HW123531   6.005   1.340   4.697
 7544SOL    HW223532   6.077   1.425   4.577
 7545SOL     OW23533   1.400   5.508   5.318
 7545SOL    HW123534   1.422   5.491   5.222
 7545SOL    HW223535   1.468   5.463   5.376
 7546SOL     OW23536   2.324   2.839   1.909
 7546SOL    HW123537   2.340   2.818   2.006
 7546SOL    HW223538   2.274   2.925   1.902
 7547SOL     OW23539   4.066   6.904   1.873
 7547SOL    HW123540   4.026   6.816   1.896
 7547SOL    HW223541   3.993   6.969   1.852
 7548SOL     OW23542   2.566   2.203   6.458
 7548SOL    HW123543   2.543   2.200   6.361
 7548SOL    HW223544   2.567   2.298   6.490
 7549SOL     OW23545   5.397   0.825   4.491
 7549SOL    HW123546   5.431   0.821   4.397
 7549SOL    HW223547   5.367   0.734   4.520
 7550SOL     OW23548   2.340   6.036   4.604
 7550SOL    HW123549   2.401   6.020   4.681
 7550SOL    HW223550   2.247   6.012   4.630
 7551SOL     OW23551   6.201   3.330   6.445
 7551SOL    HW123552   6.145   3.398   6.397
 7551SOL    HW223553   6.296   3.362   6.448
 7552SOL     OW23554   2.689   6.024   4.879
 7552SOL    HW123555   2.709   6.062   4.969
 7552SOL    HW223556   2.622   6.082   4.833
 7553SOL     OW23557   6.289   6.707   6.012
 7553SOL    HW123558   6.342   6.624   5.993
 7553SOL    HW223559   6.349   6.787   6.006
 7554SOL     OW23560   4.567   1.536   1.449
 7554SOL    HW123561   4.576   1.634   1.464
 7554SOL    HW223562   4.471   1.514   1.431
 7555SOL     OW23563   4.298   5.251   4.152
 7555SOL    HW123564   4.235   5.301   4.092
 7555SOL    HW223565   4.260   5.160   4.171
 7556SOL     OW23566   1.339   5.793   0.934
 7556SOL    HW123567   1.437   5.774   0.939
 7556SOL    HW223568   1.311   5.850   1.011
 7557SOL     OW23569   4.368   6.248   1.326
 7557SOL    HW123570   4.377   6.225   1.229
 7557SOL    HW223571   4.282   6.211   1.362
 7558SOL     OW23572   0.502   1.842   3.682
 7558SOL    HW123573   0.488   1.843   3.583
 7558SOL    HW223574   0.589   1.799   3.703
 7559SOL     OW23575   2.973   0.517   5.179
 7559SOL    HW123576   2.892   0.517   5.238
 7559SOL    HW223577   3.017   0.607   5.184
 7560SOL     OW23578   1.188   1.099   5.715
 7560SOL    HW123579   1.214   1.170   5.650
 7560SOL    HW223580   1.249   1.020   5.704
 7561SOL     OW23581   5.245   1.143   5.159
 7561SOL    HW123582   5.337   1.179   5.149
 7561SOL    HW223583   5.196   1.151   5.073
 7562SOL     OW23584   2.449   5.379   3.723
 7562SOL    HW123585   2.474   5.282   3.722
 7562SOL    HW223586   2.527   5.434   3.694
 7563SOL     OW23587   2.750   6.269   3.350
 7563SOL    HW123588   2.772   6.360   3.315
 7563SOL    HW223589   2.819   6.203   3.318
 7564SOL     OW23590   4.712   2.547   5.432
 7564SOL    HW123591   4.769   2.504   5.502
 7564SOL    HW223592   4.741   2.516   5.342
 7565SOL     OW23593   6.720   3.000   5.441
 7565SOL    HW123594   6.743   2.945   5.521
 7565SOL    HW223595   6.642   3.060   5.462
 7566SOL     OW23596   5.019   4.815   1.346
 7566SOL    HW123597   4.932   4.828   1.394
 7566SOL    HW223598   5.078   4.757   1.401
 7567SOL     OW23599   1.558   0.365   4.052
 7567SOL    HW123600   1.518   0.451   4.020
 7567SOL    HW223601   1.591   0.312   3.974
 7568SOL     OW23602   6.475   4.364   1.189
 7568SOL    HW123603   6.382   4.401   1.197
 7568SOL    HW223604   6.502   4.324   1.276
 7569SOL     OW23605   4.591   3.353   0.937
 7569SOL    HW123606   4.599   3.260   0.972
 7569SOL    HW223607   4.673   3.405   0.958
 7570SOL     OW23608   0.777   2.991   2.059
 7570SOL    HW123609   0.830   2.955   2.135
 7570SOL    HW223610   0.762   2.919   1.991
 7571SOL     OW23611   4.758   1.786   2.889
 7571SOL    HW123612   4.745   1.874   2.842
 7571SOL    HW223613   4.669   1.749   2.915
 7572SOL     OW23614   4.452   6.505   3.317
 7572SOL    HW123615   4.497   6.537   3.400
 7572SOL    HW223616   4.419   6.584   3.265
 7573SOL     OW23617   4.772   6.330   6.701
 7573SOL    HW123618   4.747   6.335   6.604
 7573SOL    HW223619   4.840   6.259   6.715
 7574SOL     OW23620   0.424   2.747   4.102
 7574SOL    HW123621   0.462   2.838   4.084
 7574SOL    HW223622   0.477   2.678   4.052
 7575SOL     OW23623   6.990   6.732   1.039
 7575SOL    HW123624   6.914   6.772   1.089
 7575SOL    HW223625   0.052   6.780   1.061
 7576SOL     OW23626   4.258   2.575   6.921
 7576SOL    HW123627   4.287   2.659   6.965
 7576SOL    HW223628   4.297   2.570   6.829
 7577SOL     OW23629   0.356   0.434   6.369
 7577SOL    HW123630   0.314   0.501   6.308
 7577SOL    HW223631   0.446   0.408   6.333
 7578SOL     OW23632   6.250   6.158   2.935
 7578SOL    HW123633   6.195   6.081   2.904
 7578SOL    HW223634   6.206   6.244   2.908
 7579SOL     OW23635   0.885   1.392   6.838
 7579SOL    HW123636   0.819   1.369   6.909
 7579SOL    HW223637   0.849   1.367   6.748
 7580SOL     OW23638   1.714   5.442   3.115
 7580SOL    HW123639   1.699   5.474   3.021
 7580SOL    HW223640   1.641   5.476   3.174
 7581SOL     OW23641   0.124   7.008   0.951
 7581SOL    HW123642   0.130   0.085   0.957
 7581SOL    HW223643   0.032   6.978   0.976
 7582SOL     OW23644   2.259   1.412   6.149
 7582SOL    HW123645   2.199   1.355   6.204
 7582SOL    HW223646   2.225   1.415   6.055
 7583SOL     OW23647   5.828   3.439   2.072
 7583SOL    HW123648   5.779   3.355   2.052
 7583SOL    HW223649   5.764   3.511   2.098
 7584SOL     OW23650   0.121   1.143   3.415
 7584SOL    HW123651   0.204   1.096   3.444
 7584SOL    HW223652   0.054   1.075   3.385
 7585SOL     OW23653   1.113   1.357   5.550
 7585SOL    HW123654   1.111   1.275   5.494
 7585SOL    HW223655   1.108   1.438   5.491
 7586SOL     OW23656   1.689   6.187   3.684
 7586SOL    HW123657   1.659   6.283   3.687
 7586SOL    HW223658   1.727   6.161   3.773
 7587SOL     OW23659   4.814   0.114   1.564
 7587SOL    HW123660   4.862   0.190   1.607
 7587SOL    HW223661   4.881   0.053   1.521
 7588SOL     OW23662   1.819   3.438   4.879
 7588SOL    HW123663   1.810   3.369   4.951
 7588SOL    HW223664   1.907   3.484   4.887
 7589SOL     OW23665   6.451   0.153   2.315
 7589SOL    HW123666   6.542   0.115   2.332
 7589SOL    HW223667   6.388   0.122   2.387
 7590SOL     OW23668   6.175   1.259   0.916
 7590SOL    HW123669   6.112   1.267   0.839
 7590SOL    HW223670   6.126   1.273   1.001
 7591SOL     OW23671   3.061   4.106   4.867
 7591SOL    HW123672   2.977   4.160   4.868
 7591SOL    HW223673   3.107   4.113   4.956
 7592SOL     OW23674   0.715   6.662   3.987
 7592SOL    HW123675   0.619   6.682   3.968
 7592SOL    HW223676   0.729   6.563   3.988
 7593SOL     OW23677   6.741   1.109   6.296
 7593SOL    HW123678   6.776   1.047   6.366
 7593SOL    HW223679   6.806   1.182   6.279
 7594SOL     OW23680   6.730   3.401   5.606
 7594SOL    HW123681   6.760   3.328   5.544
 7594SOL    HW223682   6.763   3.489   5.571
 7595SOL     OW23683   0.440   3.458   6.409
 7595SOL    HW123684   0.409   3.548   6.378
 7595SOL    HW223685   0.398   3.438   6.498
 7596SOL     OW23686   2.581   1.618   0.658
 7596SOL    HW123687   2.517   1.594   0.732
 7596SOL    HW223688   2.602   1.537   0.604
 7597SOL     OW23689   2.318   4.392   0.838
 7597SOL    HW123690   2.406   4.435   0.861
 7597SOL    HW223691   2.277   4.356   0.922
 7598SOL     OW23692   5.627   0.879   2.320
 7598SOL    HW123693   5.636   0.801   2.258
 7598SOL    HW223694   5.661   0.854   2.411
 7599SOL     OW23695   3.273   3.672   0.457
 7599SOL    HW123696   3.353   3.653   0.514
 7599SOL    HW223697   3.194   3.623   0.493
 7600SOL     OW23698   1.017   0.120   3.667
 7600SOL    HW123699   1.043   0.117   3.764
 7600SOL    HW223700   1.098   0.137   3.611
 7601SOL     OW23701   3.173   6.768   1.269
 7601SOL    HW123702   3.102   6.792   1.203
 7601SOL    HW223703   3.260   6.807   1.239
 7602SOL     OW23704   0.842   1.939   1.210
 7602SOL    HW123705   0.933   1.980   1.218
 7602SOL    HW223706   0.837   1.885   1.127
 7603SOL     OW23707   4.384   0.912   6.441
 7603SOL    HW123708   4.420   0.856   6.365
 7603SOL    HW223709   4.452   0.913   6.515
 7604SOL     OW23710   2.159   2.530   5.367
 7604SOL    HW123711   2.256   2.540   5.346
 7604SOL    HW223712   2.148   2.464   5.442
 7605SOL     OW23713   3.045   5.893   6.940
 7605SOL    HW123714   3.087   5.936   7.020
 7605SOL    HW223715   3.052   5.794   6.947
 7606SOL     OW23716   6.746   0.832   3.159
 7606SOL    HW123717   6.697   0.790   3.083
 7606SOL    HW223718   6.697   0.815   3.244
 7607SOL     OW23719   1.708   5.763   5.456
 7607SOL    HW123720   1.626   5.727   5.501
 7607SOL    HW223721   1.784   5.700   5.470
 7608SOL     OW23722   0.031   2.207   6.461
 7608SOL    HW123723   0.082   2.246   6.384
 7608SOL    HW223724   0.014   2.110   6.444
 7609SOL     OW23725   3.748   0.763   4.854
 7609SOL    HW123726   3.800   0.704   4.916
 7609SOL    HW223727   3.678   0.708   4.807
 7610SOL     OW23728   4.048   4.915   4.521
 7610SOL    HW123729   4.127   4.877   4.570
 7610SOL    HW223730   4.035   4.865   4.435
 7611SOL     OW23731   4.782   2.163   6.982
 7611SOL    HW123732   4.822   2.217   6.908
 7611SOL    HW223733   4.844   2.162   0.038
 7612SOL     OW23734   4.440   1.982   2.865
 7612SOL    HW123735   4.446   1.884   2.879
 7612SOL    HW223736   4.532   2.019   2.847
 7613SOL     OW23737   0.628   0.866   6.805
 7613SOL    HW123738   0.701   0.921   6.765
 7613SOL    HW223739   0.626   0.776   6.762
 7614SOL     OW23740   5.884   4.683   0.200
 7614SOL    HW123741   5.885   4.749   0.125
 7614SOL    HW223742   5.913   4.593   0.166
 7615SOL     OW23743   5.964   3.142   6.217
 7615SOL    HW123744   5.913   3.078   6.160
 7615SOL    HW223745   6.039   3.182   6.164
 7616SOL     OW23746   6.720   6.531   2.376
 7616SOL    HW123747   6.652   6.489   2.436
 7616SOL    HW223748   6.713   6.492   2.285
 7617SOL     OW23749   6.070   4.010   2.808
 7617SOL    HW123750   6.083   3.923   2.854
 7617SOL    HW223751   5.972   4.031   2.803
 7618SOL     OW23752   2.383   1.950   6.954
 7618SOL    HW123753   2.303   1.947   6.894
 7618SOL    HW223754   2.441   2.027   6.929
 7619SOL     OW23755   0.970   0.494   5.459
 7619SOL    HW123756   0.911   0.553   5.402
 7619SOL    HW223757   1.017   0.429   5.401
 7620SOL     OW23758   3.026   3.753   0.283
 7620SOL    HW123759   2.964   3.797   0.347
 7620SOL    HW223760   3.120   3.781   0.302
 7621SOL     OW23761   6.216   5.167   0.105
 7621SOL    HW123762   6.149   5.167   0.031
 7621SOL    HW223763   6.196   5.243   0.167
 7622SOL     OW23764   3.234   3.671   1.759
 7622SOL    HW123765   3.328   3.694   1.735
 7622SOL    HW223766   3.222   3.678   1.858
 7623SOL     OW23767   5.147   4.828   2.237
 7623SOL    HW123768   5.086   4.753   2.263
 7623SOL    HW223769   5.119   4.912   2.284
 7624SOL     OW23770   0.448   3.056   2.475
 7624SOL    HW123771   0.466   2.970   2.426
 7624SOL    HW223772   0.533   3.109   2.481
 7625SOL     OW23773   5.276   0.241   1.677
 7625SOL    HW123774   5.319   0.151   1.680
 7625SOL    HW223775   5.313   0.295   1.602
 7626SOL     OW23776   4.577   0.043   0.219
 7626SOL    HW123777   4.619   6.997   0.278
 7626SOL    HW223778   4.635   0.124   0.215
 7627SOL     OW23779   4.215   2.595   6.031
 7627SOL    HW123780   4.309   2.583   5.998
 7627SOL    HW223781   4.213   2.666   6.102
 7628SOL     OW23782   3.116   2.975   0.676
 7628SOL    HW123783   3.051   3.050   0.670
 7628SOL    HW223784   3.155   2.956   0.586
 7629SOL     OW23785   5.871   2.707   3.232
 7629SOL    HW123786   5.859   2.649   3.313
 7629SOL    HW223787   5.965   2.738   3.226
 7630SOL     OW23788   1.013   6.208   3.804
 7630SOL    HW123789   0.979   6.250   3.719
 7630SOL    HW223790   1.021   6.278   3.875
 7631SOL     OW23791   1.626   0.944   6.209
 7631SOL    HW123792   1.554   0.874   6.209
 7631SOL    HW223793   1.595   1.024   6.261
 7632SOL     OW23794   3.808   5.752   1.134
 7632SOL    HW123795   3.889   5.763   1.077
 7632SOL    HW223796   3.829   5.693   1.212
 7633SOL     OW23797   5.243   0.920   1.616
 7633SOL    HW123798   5.336   0.910   1.580
 7633SOL    HW223799   5.184   0.961   1.547
 7634SOL     OW23800   0.401   2.022   6.639
 7634SOL    HW123801   0.380   1.929   6.666
 7634SOL    HW223802   0.493   2.046   6.672
 7635SOL     OW23803   1.360   3.328   5.806
 7635SOL    HW123804   1.381   3.409   5.751
 7635SOL    HW223805   1.405   3.248   5.767
 7636SOL     OW23806   6.611   3.411   3.586
 7636SOL    HW123807   6.636   3.353   3.508
 7636SOL    HW223808   6.691   3.425   3.645
 7637SOL     OW23809   1.022   4.145   5.160
 7637SOL    HW123810   0.937   4.174   5.115
 7637SOL    HW223811   1.014   4.159   5.259
 7638SOL     OW23812   0.559   6.335   1.200
 7638SOL    HW123813   0.622   6.389   1.257
 7638SOL    HW223814   0.517   6.263   1.256
 7639SOL     OW23815   2.563   6.379   0.548
 7639SOL    HW123816   2.576   6.294   0.598
 7639SOL    HW223817   2.491   6.433   0.592
 7640SOL     OW23818   3.185   0.726   0.920
 7640SOL    HW123819   3.123   0.681   0.984
 7640SOL    HW223820   3.139   0.804   0.877
 7641SOL     OW23821   6.802   5.047   4.900
 7641SOL    HW123822   6.702   5.035   4.900
 7641SOL    HW223823   6.833   5.066   4.993
 7642SOL     OW23824   5.683   1.010   3.814
 7642SOL    HW123825   5.778   1.042   3.813
 7642SOL    HW223826   5.681   0.911   3.798
 7643SOL     OW23827   5.426   2.568   4.770
 7643SOL    HW123828   5.395   2.590   4.678
 7643SOL    HW223829   5.524   2.590   4.779
 7644SOL     OW23830   5.409   4.447   0.651
 7644SOL    HW123831   5.326   4.392   0.637
 7644SOL    HW223832   5.415   4.515   0.578
 7645SOL     OW23833   4.635   5.237   6.522
 7645SOL    HW123834   4.689   5.156   6.543
 7645SOL    HW223835   4.612   5.238   6.425
 7646SOL     OW23836   6.796   1.813   1.781
 7646SOL    HW123837   6.856   1.829   1.860
 7646SOL    HW223838   6.832   1.863   1.702
 7647SOL     OW23839   6.543   1.796   4.086
 7647SOL    HW123840   6.551   1.697   4.085
 7647SOL    HW223841   6.549   1.831   3.992
 7648SOL     OW23842   1.744   2.104   1.154
 7648SOL    HW123843   1.663   2.144   1.111
 7648SOL    HW223844   1.789   2.173   1.210
 7649SOL     OW23845   4.075   0.721   0.146
 7649SOL    HW123846   4.070   0.719   0.046
 7649SOL    HW223847   4.061   0.814   0.178
 7650SOL     OW23848   3.318   2.380   0.540
 7650SOL    HW123849   3.379   2.458   0.525
 7650SOL    HW223850   3.280   2.351   0.452
 7651SOL     OW23851   3.662   5.420   6.601
 7651SOL    HW123852   3.633   5.516   6.601
 7651SOL    HW223853   3.606   5.368   6.537
 7652SOL     OW23854   0.187   0.810   5.184
 7652SOL    HW123855   0.192   0.908   5.164
 7652SOL    HW223856   0.160   0.761   5.102
 7653SOL     OW23857   1.984   6.531   6.902
 7653SOL    HW123858   2.032   6.443   6.903
 7653SOL    HW223859   1.944   6.548   6.992
 7654SOL     OW23860   0.026   2.332   5.614
 7654SOL    HW123861   0.037   2.420   5.568
 7654SOL    HW223862   0.026   2.345   5.713
 7655SOL     OW23863   3.711   1.563   4.899
 7655SOL    HW123864   3.754   1.635   4.845
 7655SOL    HW223865   3.761   1.550   4.984
 7656SOL     OW23866   5.937   3.905   6.721
 7656SOL    HW123867   5.964   3.881   6.814
 7656SOL    HW223868   5.845   3.871   6.703
 7657SOL     OW23869   0.977   3.629   4.784
 7657SOL    HW123870   1.066   3.670   4.801
 7657SOL    HW223871   0.915   3.650   4.860
 7658SOL     OW23872   2.590   0.647   1.590
 7658SOL    HW123873   2.589   0.731   1.536
 7658SOL    HW223874   2.503   0.636   1.636
 7659SOL     OW23875   5.089   4.769   5.854
 7659SOL    HW123876   5.066   4.690   5.911
 7659SOL    HW223877   5.181   4.802   5.878
 7660SOL     OW23878   6.623   6.378   5.634
 7660SOL    HW123879   6.545   6.427   5.595
 7660SOL    HW223880   6.601   6.280   5.640
 7661SOL     OW23881   2.881   0.764   5.424
 7661SOL    HW123882   2.879   0.680   5.370
 7661SOL    HW223883   2.812   0.760   5.496
 7662SOL     OW23884   0.161   6.213   1.292
 7662SOL    HW123885   0.092   6.281   1.316
 7662SOL    HW223886   0.117   6.126   1.269
 7663SOL     OW23887   1.096   5.940   4.625
 7663SOL    HW123888   1.020   6.003   4.641
 7663SOL    HW223889   1.120   5.894   4.710
 7664SOL     OW23890   5.475   2.262   2.375
 7664SOL    HW123891   5.386   2.217   2.385
 7664SOL    HW223892   5.476   2.347   2.427
 7665SOL     OW23893   3.236   0.766   5.799
 7665SOL    HW123894   3.268   0.714   5.720
 7665SOL    HW223895   3.159   0.717   5.842
 7666SOL     OW23896   5.975   5.402   4.133
 7666SOL    HW123897   6.061   5.391   4.084
 7666SOL    HW223898   5.983   5.476   4.199
 7667SOL     OW23899   4.248   5.571   1.885
 7667SOL    HW123900   4.177   5.542   1.948
 7667SOL    HW223901   4.242   5.670   1.869
 7668SOL     OW23902   1.816   5.556   0.242
 7668SOL    HW123903   1.914   5.558   0.222
 7668SOL    HW223904   1.769   5.625   0.186
 7669SOL     OW23905   2.922   1.830   6.628
 7669SOL    HW123906   2.859   1.850   6.553
 7669SOL    HW223907   2.924   1.731   6.645
 7670SOL     OW23908   1.182   0.276   0.764
 7670SOL    HW123909   1.118   0.223   0.820
 7670SOL    HW223910   1.272   0.276   0.809
 7671SOL     OW23911   3.270   0.125   1.480
 7671SOL    HW123912   3.198   0.070   1.522
 7671SOL    HW223913   3.357   0.109   1.528
 7672SOL     OW23914   5.524   3.311   2.063
 7672SOL    HW123915   5.477   3.223   2.059
 7672SOL    HW223916   5.577   3.316   2.148
 7673SOL     OW23917   2.118   6.600   4.893
 7673SOL    HW123918   2.018   6.602   4.885
 7673SOL    HW223919   2.146   6.513   4.933
 7674SOL     OW23920   3.410   5.605   4.006
 7674SOL    HW123921   3.498   5.639   4.039
 7674SOL    HW223922   3.355   5.576   4.085
 7675SOL     OW23923   3.884   6.375   3.017
 7675SOL    HW123924   3.958   6.430   3.055
 7675SOL    HW223925   3.835   6.330   3.091
 7676SOL     OW23926   2.959   3.124   5.127
 7676SOL    HW123927   2.955   3.183   5.047
 7676SOL    HW223928   2.866   3.107   5.161
 7677SOL     OW23929   0.193   5.585   6.743
 7677SOL    HW123930   0.125   5.612   6.811
 7677SOL    HW223931   0.163   5.502   6.698
 7678SOL     OW23932   3.798   1.117   6.079
 7678SOL    HW123933   3.814   1.105   5.981
 7678SOL    HW223934   3.761   1.208   6.097
 7679SOL     OW23935   2.641   4.730   4.254
 7679SOL    HW123936   2.682   4.768   4.171
 7679SOL    HW223937   2.712   4.722   4.325
 7680SOL     OW23938   1.963   6.715   4.303
 7680SOL    HW123939   2.021   6.692   4.226
 7680SOL    HW223940   1.925   6.807   4.291
 7681SOL     OW23941   2.049   2.100   5.865
 7681SOL    HW123942   1.960   2.114   5.822
 7681SOL    HW223943   2.108   2.048   5.804
 7682SOL     OW23944   3.073   0.427   2.017
 7682SOL    HW123945   3.033   0.419   2.108
 7682SOL    HW223946   3.173   0.432   2.024
 7683SOL     OW23947   0.266   4.367   4.401
 7683SOL    HW123948   0.304   4.293   4.455
 7683SOL    HW223949   0.253   4.448   4.459
 7684SOL     OW23950   4.793   3.465   1.779
 7684SOL    HW123951   4.722   3.515   1.730
 7684SOL    HW223952   4.798   3.371   1.744
 7685SOL     OW23953   2.625   0.305   6.995
 7685SOL    HW123954   2.704   0.273   0.024
 7685SOL    HW223955   2.654   0.331   6.903
 7686SOL     OW23956   6.721   0.375   3.764
 7686SOL    HW123957   6.718   0.474   3.782
 7686SOL    HW223958   6.814   0.349   3.737
 7687SOL     OW23959   5.379   3.348   5.784
 7687SOL    HW123960   5.365   3.424   5.848
 7687SOL    HW223961   5.476   3.338   5.765
 7688SOL     OW23962   6.390   3.118   0.011
 7688SOL    HW123963   6.340   3.032   0.019
 7688SOL    HW223964   6.420   3.148   0.102
 7689SOL     OW23965   5.617   0.242   2.391
 7689SOL    HW123966   5.567   0.327   2.406
 7689SOL    HW223967   5.701   0.261   2.340
 7690SOL     OW23968   5.847   4.244   2.064
 7690SOL    HW123969   5.928   4.230   2.122
 7690SOL    HW223970   5.874   4.293   1.982
 7691SOL     OW23971   5.490   2.779   3.650
 7691SOL    HW123972   5.515   2.785   3.554
 7691SOL    HW223973   5.467   2.870   3.684
 7692SOL     OW23974   2.338   7.018   2.235
 7692SOL    HW123975   2.417   0.014   2.294
 7692SOL    HW223976   2.370   7.003   2.141
 7693SOL     OW23977   2.779   1.881   1.099
 7693SOL    HW123978   2.723   1.916   1.174
 7693SOL    HW223979   2.847   1.950   1.073
 7694SOL     OW23980   4.230   2.419   0.841
 7694SOL    HW123981   4.158   2.468   0.891
 7694SOL    HW223982   4.238   2.457   0.749
 7695SOL     OW23983   5.320   6.706   3.534
 7695SOL    HW123984   5.317   6.645   3.455
 7695SOL    HW223985   5.361   6.658   3.612
 7696SOL     OW23986   3.337   1.864   5.442
 7696SOL    HW123987   3.418   1.888   5.495
 7696SOL    HW223988   3.279   1.945   5.430
 7697SOL     OW23989   5.826   6.659   2.941
 7697SOL    HW123990   5.845   6.752   2.972
 7697SOL    HW223991   5.908   6.603   2.949
 7698SOL     OW23992   6.406   2.897   1.115
 7698SOL    HW123993   6.318   2.850   1.125
 7698SOL    HW223994   6.394   2.978   1.058
 7699SOL     OW23995   3.919   6.406   6.180
 7699SOL    HW123996   3.973   6.397   6.096
 7699SOL    HW223997   3.944   6.333   6.244
 7700SOL     OW23998   6.585   5.282   2.224
 7700SOL    HW123999   6.591   5.296   2.126
 7700SOL    HW224000   6.676   5.268   2.262
 7701SOL     OW24001   3.249   1.448   6.455
 7701SOL    HW124002   3.278   1.418   6.546
 7701SOL    HW224003   3.303   1.400   6.386
 7702SOL     OW24004   6.037   6.268   5.717
 7702SOL    HW124005   6.024   6.182   5.667
 7702SOL    HW224006   6.069   6.248   5.810
 7703SOL     OW24007   6.960   6.540   6.152
 7703SOL    HW124008   7.017   6.587   6.084
 7703SOL    HW224009   6.989   6.445   6.161
 7704SOL     OW24010   1.740   1.966   4.853
 7704SOL    HW124011   1.709   1.991   4.761
 7704SOL    HW224012   1.727   1.868   4.868
 7705SOL     OW24013   0.886   4.383   0.400
 7705SOL    HW124014   0.920   4.464   0.448
 7705SOL    HW224015   0.881   4.306   0.463
 7706SOL     OW24016   3.235   3.437   2.657
 7706SOL    HW124017   3.191   3.513   2.611
 7706SOL    HW224018   3.193   3.351   2.629
 7707SOL     OW24019   7.010   4.779   6.337
 7707SOL    HW124020   0.083   4.764   6.309
 7707SOL    HW224021   6.974   4.697   6.380
 7708SOL     OW24022   0.751   0.213   4.349
 7708SOL    HW124023   0.698   0.275   4.408
 7708SOL    HW224024   0.829   0.263   4.310
 7709SOL     OW24025   6.146   4.747   1.031
 7709SOL    HW124026   6.233   4.785   1.060
 7709SOL    HW224027   6.156   4.704   0.941
 7710SOL     OW24028   6.287   3.145   2.608
 7710SOL    HW124029   6.212   3.086   2.578
 7710SOL    HW224030   6.300   3.135   2.707
 7711SOL     OW24031   0.815   4.076   3.425
 7711SOL    HW124032   0.778   4.081   3.518
 7711SOL    HW224033   0.872   3.995   3.416
 7712SOL     OW24034   1.306   4.768   4.383
 7712SOL    HW124035   1.262   4.843   4.332
 7712SOL    HW224036   1.246   4.739   4.457
 7713SOL     OW24037   0.983   5.436   0.730
 7713SOL    HW124038   1.042   5.363   0.696
 7713SOL    HW224039   0.889   5.402   0.738
 7714SOL     OW24040   5.919   1.660   5.154
 7714SOL    HW124041   5.910   1.562   5.167
 7714SOL    HW224042   6.013   1.688   5.173
 7715SOL     OW24043   3.766   3.776   6.824
 7715SOL    HW124044   3.741   3.872   6.838
 7715SOL    HW224045   3.801   3.763   6.731
 7716SOL     OW24046   1.279   0.992   6.834
 7716SOL    HW124047   1.233   1.077   6.860
 7716SOL    HW224048   1.305   0.941   6.916
 7717SOL     OW24049   0.904   1.419   5.925
 7717SOL    HW124050   0.967   1.442   5.850
 7717SOL    HW224051   0.810   1.429   5.893
 7718SOL     OW24052   0.513   3.346   3.360
 7718SOL    HW124053   0.505   3.250   3.384
 7718SOL    HW224054   0.583   3.389   3.417
 7719SOL     OW24055   2.038   6.011   4.871
 7719SOL    HW124056   2.065   5.965   4.786
 7719SOL    HW224057   1.997   5.945   4.933
 7720SOL     OW24058   4.506   1.504   6.737
 7720SOL    HW124059   4.469   1.592   6.710
 7720SOL    HW224060   4.576   1.476   6.671
 7721SOL     OW24061   5.924   5.987   2.426
 7721SOL    HW124062   5.849   5.921   2.418
 7721SOL    HW224063   5.890   6.072   2.464
 7722SOL     OW24064   0.212   5.936   4.251
 7722SOL    HW124065   0.148   5.877   4.203
 7722SOL    HW224066   0.278   5.974   4.187
 7723SOL     OW24067   4.018   4.640   6.743
 7723SOL    HW124068   3.931   4.660   6.788
 7723SOL    HW224069   4.094   4.671   6.801
 7724SOL     OW24070   1.424   4.103   0.156
 7724SOL    HW124071   1.409   4.039   0.232
 7724SOL    HW224072   1.342   4.159   0.144
 7725SOL     OW24073   5.405   3.262   4.975
 7725SOL    HW124074   5.383   3.177   4.927
 7725SOL    HW224075   5.492   3.297   4.942
 7726SOL     OW24076   1.897   3.052   0.202
 7726SOL    HW124077   1.944   3.078   0.286
 7726SOL    HW224078   1.885   2.953   0.200
 7727SOL     OW24079   5.834   0.546   2.509
 7727SOL    HW124080   5.780   0.629   2.523
 7727SOL    HW224081   5.852   0.503   2.597
 7728SOL     OW24082   2.063   3.393   5.152
 7728SOL    HW124083   2.063   3.391   5.052
 7728SOL    HW224084   2.150   3.358   5.187
 7729SOL     OW24085   6.750   1.257   2.789
 7729SOL    HW124086   6.778   1.195   2.863
 7729SOL    HW224087   6.800   1.343   2.797
 7730SOL     OW24088   5.802   4.295   6.055
 7730SOL    HW124089   5.780   4.198   6.067
 7730SOL    HW224090   5.840   4.331   6.140
 7731SOL     OW24091   0.079   0.471   6.305
 7731SOL    HW124092   0.048   0.469   6.400
 7731SOL    HW224093   0.150   0.402   6.292
 7732SOL     OW24094   4.306   0.915   6.935
 7732SOL    HW124095   4.388   0.888   6.985
 7732SOL    HW224096   4.252   0.834   6.912
 7733SOL     OW24097   6.386   5.722   1.116
 7733SOL    HW124098   6.434   5.681   1.038
 7733SOL    HW224099   6.380   5.821   1.104
 7734SOL     OW24100   3.846   3.971   3.225
 7734SOL    HW124101   3.907   3.993   3.149
 7734SOL    HW224102   3.885   3.897   3.279
 7735SOL     OW24103   1.473   5.624   0.739
 7735SOL    HW124104   1.389   5.670   0.710
 7735SOL    HW224105   1.552   5.676   0.706
 7736SOL     OW24106   1.601   1.620   0.624
 7736SOL    HW124107   1.556   1.534   0.647
 7736SOL    HW224108   1.558   1.695   0.675
 7737SOL     OW24109   4.655   4.529   6.485
 7737SOL    HW124110   4.567   4.497   6.520
 7737SOL    HW224111   4.681   4.613   6.532
 7738SOL     OW24112   1.695   1.423   5.368
 7738SOL    HW124113   1.674   1.344   5.310
 7738SOL    HW224114   1.705   1.393   5.463
 7739SOL     OW24115   1.058   2.827   0.163
 7739SOL    HW124116   1.018   2.864   0.079
 7739SOL    HW224117   1.121   2.753   0.140
 7740SOL     OW24118   2.168   1.177   4.298
 7740SOL    HW124119   2.105   1.122   4.353
 7740SOL    HW224120   2.136   1.179   4.204
 7741SOL     OW24121   7.007   3.839   6.023
 7741SOL    HW124122   6.921   3.824   6.072
 7741SOL    HW224123   0.003   3.938   6.020
 7742SOL     OW24124   4.404   2.105   3.547
 7742SOL    HW124125   4.336   2.066   3.609
 7742SOL    HW224126   4.365   2.114   3.455
 7743SOL     OW24127   3.206   1.090   6.616
 7743SOL    HW124128   3.250   1.160   6.671
 7743SOL    HW224129   3.245   1.092   6.523
 7744SOL     OW24130   0.544   6.695   4.869
 7744SOL    HW124131   0.623   6.643   4.837
 7744SOL    HW224132   0.464   6.635   4.870
 7745SOL     OW24133   2.701   0.063   0.663
 7745SOL    HW124134   2.678   0.145   0.611
 7745SOL    HW224135   2.796   0.066   0.692
 7746SOL     OW24136   7.003   6.698   0.770
 7746SOL    HW124137   6.966   6.704   0.862
 7746SOL    HW224138   0.069   6.651   0.772
 7747SOL     OW24139   0.373   6.084   1.791
 7747SOL    HW124140   0.304   6.044   1.731
 7747SOL    HW224141   0.461   6.088   1.743
 7748SOL     OW24142   4.131   0.843   6.375
 7748SOL    HW124143   4.209   0.879   6.427
 7748SOL    HW224144   4.073   0.919   6.345
 7749SOL     OW24145   3.377   3.846   2.710
 7749SOL    HW124146   3.345   3.855   2.804
 7749SOL    HW224147   3.299   3.833   2.649
 7750SOL     OW24148   5.310   4.777   6.091
 7750SOL    HW124149   5.368   4.778   6.173
 7750SOL    HW224150   5.307   4.869   6.051
 7751SOL     OW24151   0.355   1.079   5.124
 7751SOL    HW124152   0.405   1.073   5.038
 7751SOL    HW224153   0.399   1.022   5.193
 7752SOL     OW24154   6.435   4.467   5.442
 7752SOL    HW124155   6.353   4.418   5.412
 7752SOL    HW224156   6.440   4.466   5.541
 7753SOL     OW24157   3.190   0.700   4.835
 7753SOL    HW124158   3.110   0.648   4.865
 7753SOL    HW224159   3.238   0.736   4.916
 7754SOL     OW24160   6.650   0.825   1.373
 7754SOL    HW124161   6.638   0.735   1.414
 7754SOL    HW224162   6.592   0.833   1.292
 7755SOL     OW24163   1.574   6.013   4.985
 7755SOL    HW124164   1.551   6.107   5.010
 7755SOL    HW224165   1.626   5.971   5.059
 7756SOL     OW24166   4.188   6.003   3.048
 7756SOL    HW124167   4.131   5.985   2.968
 7756SOL    HW224168   4.251   5.927   3.063
 7757SOL     OW24169   3.314   0.337   5.765
 7757SOL    HW124170   3.278   0.264   5.824
 7757SOL    HW224171   3.255   0.346   5.685
 7758SOL     OW24172   2.299   2.303   6.362
 7758SOL    HW124173   2.306   2.253   6.448
 7758SOL    HW224174   2.355   2.386   6.367
 7759SOL     OW24175   1.679   0.654   4.464
 7759SOL    HW124176   1.733   0.579   4.503
 7759SOL    HW224177   1.635   0.622   4.380
 7760SOL     OW24178   5.367   2.011   3.083
 7760SOL    HW124179   5.332   2.050   2.998
 7760SOL    HW224180   5.321   1.924   3.101
 7761SOL     OW24181   4.466   1.226   6.804
 7761SOL    HW124182   4.376   1.221   6.847
 7761SOL    HW224183   4.471   1.309   6.749
 7762SOL     OW24184   1.109   2.575   0.694
 7762SOL    HW124185   1.092   2.673   0.701
 7762SOL    HW224186   1.189   2.558   0.636
 7763SOL     OW24187   2.369   2.485   1.113
 7763SOL    HW124188   2.409   2.488   1.205
 7763SOL    HW224189   2.431   2.438   1.050
 7764SOL     OW24190   3.156   3.286   1.999
 7764SOL    HW124191   3.225   3.262   2.068
 7764SOL    HW224192   3.075   3.229   2.012
 7765SOL     OW24193   6.761   1.554   1.756
 7765SOL    HW124194   6.765   1.653   1.771
 7765SOL    HW224195   6.721   1.536   1.666
 7766SOL     OW24196   6.839   2.803   6.645
 7766SOL    HW124197   6.862   2.758   6.731
 7766SOL    HW224198   6.751   2.770   6.612
 7767SOL     OW24199   5.728   3.910   5.035
 7767SOL    HW124200   5.815   3.931   4.989
 7767SOL    HW224201   5.656   3.968   4.997
 7768SOL     OW24202   3.718   5.331   1.609
 7768SOL    HW124203   3.804   5.343   1.657
 7768SOL    HW224204   3.728   5.260   1.539
 7769SOL     OW24205   5.613   2.340   2.648
 7769SOL    HW124206   5.590   2.422   2.595
 7769SOL    HW224207   5.707   2.314   2.630
 7770SOL     OW24208   3.543   6.026   0.917
 7770SOL    HW124209   3.567   6.109   0.866
 7770SOL    HW224210   3.535   5.949   0.853
 7771SOL     OW24211   1.446   1.249   4.537
 7771SOL    HW124212   1.485   1.259   4.446
 7771SOL    HW224213   1.385   1.169   4.538
 7772SOL     OW24214   5.653   0.861   5.340
 7772SOL    HW124215   5.729   0.838   5.400
 7772SOL    HW224216   5.680   0.934   5.278
 7773SOL     OW24217   3.892   4.410   6.292
 7773SOL    HW124218   3.799   4.447   6.295
 7773SOL    HW224219   3.955   4.483   6.267
 7774SOL     OW24220   5.323   1.957   6.474
 7774SOL    HW124221   5.308   1.977   6.378
 7774SOL    HW224222   5.421   1.941   6.490
 7775SOL     OW24223   1.410   6.978   2.121
 7775SOL    HW124224   1.369   0.047   2.126
 7775SOL    HW224225   1.509   6.985   2.129
 7776SOL     OW24226   3.459   4.088   0.912
 7776SOL    HW124227   3.515   4.130   0.841
 7776SOL    HW224228   3.493   4.115   1.002
 7777SOL     OW24229   0.804   0.531   6.393
 7777SOL    HW124230   0.793   0.499   6.298
 7777SOL    HW224231   0.716   0.561   6.429
 7778SOL     OW24232   4.373   1.654   1.910
 7778SOL    HW124233   4.434   1.598   1.853
 7778SOL    HW224234   4.425   1.692   1.986
 7779SOL     OW24235   4.060   3.105   0.360
 7779SOL    HW124236   4.157   3.088   0.342
 7779SOL    HW224237   4.034   3.061   0.446
 7780SOL     OW24238   0.998   0.215   4.680
 7780SOL    HW124239   1.029   0.181   4.769
 7780SOL    HW224240   1.077   0.224   4.619
 7781SOL     OW24241   1.732   3.864   5.355
 7781SOL    HW124242   1.707   3.949   5.309
 7781SOL    HW224243   1.830   3.865   5.376
 7782SOL     OW24244   4.606   4.591   0.038
 7782SOL    HW124245   4.548   4.666   0.070
 7782SOL    HW224246   4.594   4.511   0.098
 7783SOL     OW24247   2.993   6.230   0.352
 7783SOL    HW124248   2.951   6.142   0.330
 7783SOL    HW224249   2.927   6.288   0.398
 7784SOL     OW24250   6.489   3.862   0.414
 7784SOL    HW124251   6.451   3.823   0.498
 7784SOL    HW224252   6.415   3.891   0.354
 7785SOL     OW24253   1.647   5.872   6.421
 7785SOL    HW124254   1.558   5.833   6.443
 7785SOL    HW224255   1.712   5.799   6.401
 7786SOL     OW24256   3.471   4.153   5.411
 7786SOL    HW124257   3.481   4.154   5.312
 7786SOL    HW224258   3.556   4.121   5.453
 7787SOL     OW24259   3.128   2.265   5.443
 7787SOL    HW124260   3.139   2.311   5.355
 7787SOL    HW224261   3.082   2.177   5.429
 7788SOL     OW24262   6.890   2.107   0.915
 7788SOL    HW124263   6.960   2.038   0.934
 7788SOL    HW224264   6.835   2.078   0.837
 7789SOL     OW24265   1.765   0.210   1.879
 7789SOL    HW124266   1.780   0.274   1.954
 7789SOL    HW224267   1.690   0.243   1.821
 7790SOL     OW24268   6.755   3.421   2.338
 7790SOL    HW124269   6.666   3.387   2.368
 7790SOL    HW224270   6.817   3.427   2.416
 7791SOL     OW24271   0.169   5.307   5.669
 7791SOL    HW124272   0.171   5.343   5.575
 7791SOL    HW224273   0.199   5.378   5.732
 7792SOL     OW24274   1.852   5.672   6.407
 7792SOL    HW124275   1.854   5.657   6.506
 7792SOL    HW224276   1.933   5.724   6.380
 7793SOL     OW24277   2.297   0.757   6.224
 7793SOL    HW124278   2.354   0.837   6.207
 7793SOL    HW224279   2.232   0.777   6.297
 7794SOL     OW24280   5.689   5.213   2.848
 7794SOL    HW124281   5.614   5.268   2.813
 7794SOL    HW224282   5.661   5.117   2.853
 7795SOL     OW24283   1.232   4.153   6.446
 7795SOL    HW124284   1.268   4.092   6.516
 7795SOL    HW224285   1.235   4.247   6.479
 7796SOL     OW24286   4.179   3.477   4.742
 7796SOL    HW124287   4.145   3.383   4.742
 7796SOL    HW224288   4.250   3.487   4.812
 7797SOL     OW24289   1.311   6.939   3.422
 7797SOL    HW124290   1.365   6.856   3.407
 7797SOL    HW224291   1.214   6.918   3.409
 7798SOL     OW24292   4.095   5.721   6.184
 7798SOL    HW124293   4.003   5.697   6.155
 7798SOL    HW224294   4.114   5.680   6.273
 7799SOL     OW24295   6.050   6.175   1.853
 7799SOL    HW124296   6.054   6.088   1.804
 7799SOL    HW224297   6.024   6.158   1.948
 7800SOL     OW24298   0.927   6.136   2.218
 7800SOL    HW124299   0.979   6.215   2.183
 7800SOL    HW224300   0.836   6.167   2.247
 7801SOL     OW24301   4.292   2.060   5.056
 7801SOL    HW124302   4.271   1.971   5.096
 7801SOL    HW224303   4.269   2.059   4.959
 7802SOL     OW24304   5.729   2.385   6.866
 7802SOL    HW124305   5.635   2.417   6.874
 7802SOL    HW224306   5.791   2.464   6.867
 7803SOL     OW24307   3.425   3.592   5.720
 7803SOL    HW124308   3.496   3.659   5.742
 7803SOL    HW224309   3.369   3.627   5.645
 7804SOL     OW24310   5.140   0.773   6.445
 7804SOL    HW124311   5.145   0.873   6.443
 7804SOL    HW224312   5.052   0.745   6.484
 7805SOL     OW24313   5.350   3.107   1.654
 7805SOL    HW124314   5.292   3.131   1.731
 7805SOL    HW224315   5.301   3.044   1.593
 7806SOL     OW24316   5.053   3.413   0.158
 7806SOL    HW124317   5.015   3.329   0.117
 7806SOL    HW224318   5.084   3.394   0.251
 7807SOL     OW24319   0.702   3.514   6.989
 7807SOL    HW124320   0.700   3.497   6.891
 7807SOL    HW224321   0.647   3.596   7.010
 7808SOL     OW24322   0.244   0.833   5.460
 7808SOL    HW124323   0.175   0.821   5.531
 7808SOL    HW224324   0.205   0.810   5.371
 7809SOL     OW24325   1.543   5.590   5.612
 7809SOL    HW124326   1.563   5.517   5.547
 7809SOL    HW224327   1.477   5.557   5.680
 7810SOL     OW24328   2.855   1.476   6.944
 7810SOL    HW124329   2.947   1.499   6.978
 7810SOL    HW224330   2.788   1.536   6.988
 7811SOL     OW24331   6.725   4.615   5.060
 7811SOL    HW124332   6.666   4.660   5.127
 7811SOL    HW224333   6.812   4.663   5.054
 7812SOL     OW24334   0.243   1.787   3.311
 7812SOL    HW124335   0.308   1.801   3.386
 7812SOL    HW224336   0.153   1.822   3.338
 7813SOL     OW24337   6.301   2.323   0.880
 7813SOL    HW124338   6.267   2.239   0.923
 7813SOL    HW224339   6.358   2.373   0.945
 7814SOL     OW24340   1.996   2.812   5.072
 7814SOL    HW124341   1.910   2.842   5.115
 7814SOL    HW224342   2.073   2.844   5.128
 7815SOL     OW24343   6.764   1.922   5.451
 7815SOL    HW124344   6.762   1.849   5.520
 7815SOL    HW224345   6.839   1.985   5.472
 7816SOL     OW24346   0.607   4.848   5.024
 7816SOL    HW124347   0.564   4.864   4.935
 7816SOL    HW224348   0.546   4.791   5.080
 7817SOL     OW24349   5.328   3.046   5.784
 7817SOL    HW124350   5.345   3.145   5.787
 7817SOL    HW224351   5.344   3.012   5.691
 7818SOL     OW24352   5.407   3.551   3.450
 7818SOL    HW124353   5.335   3.617   3.430
 7818SOL    HW224354   5.496   3.593   3.432
 7819SOL     OW24355   0.975   1.425   1.173
 7819SOL    HW124356   0.991   1.504   1.114
 7819SOL    HW224357   0.964   1.343   1.117
 7820SOL     OW24358   2.957   6.931   6.469
 7820SOL    HW124359   2.970   6.884   6.556
 7820SOL    HW224360   3.047   6.956   6.431
 7821SOL     OW24361   2.978   5.480   1.106
 7821SOL    HW124362   2.894   5.426   1.117
 7821SOL    HW224363   2.953   5.573   1.079
 7822SOL     OW24364   1.588   6.355   5.715
 7822SOL    HW124365   1.605   6.334   5.812
 7822SOL    HW224366   1.668   6.401   5.677
 7823SOL     OW24367   2.085   3.311   5.448
 7823SOL    HW124368   2.061   3.380   5.380
 7823SOL    HW224369   2.002   3.271   5.486
 7824SOL     OW24370   0.844   3.009   5.210
 7824SOL    HW124371   0.902   2.952   5.153
 7824SOL    HW224372   0.896   3.037   5.292
 7825SOL     OW24373   2.636   0.589   7.000
 7825SOL    HW124374   2.544   0.613   6.967
 7825SOL    HW224375   2.668   0.507   6.954
 7826SOL     OW24376   0.814   3.807   5.974
 7826SOL    HW124377   0.719   3.813   6.002
 7826SOL    HW224378   0.873   3.813   6.054
 7827SOL     OW24379   5.853   4.888   4.335
 7827SOL    HW124380   5.928   4.925   4.389
 7827SOL    HW224381   5.885   4.867   4.243
 7828SOL     OW24382   1.201   5.534   5.992
 7828SOL    HW124383   1.228   5.566   6.082
 7828SOL    HW224384   1.101   5.535   5.985
 7829SOL     OW24385   4.403   4.884   0.730
 7829SOL    HW124386   4.382   4.795   0.688
 7829SOL    HW224387   4.356   4.891   0.817
 7830SOL     OW24388   2.251   5.013   3.584
 7830SOL    HW124389   2.262   4.965   3.671
 7830SOL    HW224390   2.170   4.977   3.537
 7831SOL     OW24391   1.740   0.238   6.164
 7831SOL    HW124392   1.683   0.224   6.245
 7831SOL    HW224393   1.743   0.335   6.141
 7832SOL     OW24394   6.678   1.411   5.754
 7832SOL    HW124395   6.695   1.360   5.670
 7832SOL    HW224396   6.596   1.375   5.800
 7833SOL     OW24397   0.886   0.279   3.058
 7833SOL    HW124398   0.841   0.359   3.017
 7833SOL    HW224399   0.884   0.287   3.158
 7834SOL     OW24400   6.537   3.633   5.012
 7834SOL    HW124401   6.536   3.733   5.017
 7834SOL    HW224402   6.461   3.602   4.954
 7835SOL     OW24403   3.596   2.298   5.743
 7835SOL    HW124404   3.536   2.325   5.669
 7835SOL    HW224405   3.545   2.244   5.810
 7836SOL     OW24406   2.997   3.762   4.937
 7836SOL    HW124407   2.949   3.785   4.853
 7836SOL    HW224408   3.095   3.780   4.926
 7837SOL     OW24409   1.184   5.448   6.555
 7837SOL    HW124410   1.165   5.507   6.634
 7837SOL    HW224411   1.100   5.401   6.528
 7838SOL     OW24412   4.182   5.195   1.750
 7838SOL    HW124413   4.276   5.171   1.774
 7838SOL    HW224414   4.144   5.125   1.688
 7839SOL     OW24415   5.951   4.059   4.646
 7839SOL    HW124416   5.956   4.153   4.611
 7839SOL    HW224417   5.965   3.995   4.571
 7840SOL     OW24418   1.911   2.637   3.688
 7840SOL    HW124419   1.989   2.699   3.697
 7840SOL    HW224420   1.927   2.573   3.612
 7841SOL     OW24421   4.470   1.796   5.740
 7841SOL    HW124422   4.482   1.701   5.712
 7841SOL    HW224423   4.406   1.800   5.817
 7842SOL     OW24424   1.114   0.667   0.982
 7842SOL    HW124425   1.073   0.628   0.900
 7842SOL    HW224426   1.050   0.662   1.058
 7843SOL     OW24427   6.848   6.475   1.960
 7843SOL    HW124428   6.934   6.520   1.986
 7843SOL    HW224429   6.774   6.542   1.958
 7844SOL     OW24430   4.049   0.140   2.317
 7844SOL    HW124431   4.023   0.045   2.334
 7844SOL    HW224432   3.969   0.190   2.283
 7845SOL     OW24433   6.168   2.995   1.484
 7845SOL    HW124434   6.266   2.985   1.470
 7845SOL    HW224435   6.137   3.082   1.446
 7846SOL     OW24436   0.861   1.497   0.826
 7846SOL    HW124437   0.841   1.543   0.739
 7846SOL    HW224438   0.960   1.492   0.839
 7847SOL     OW24439   5.231   4.492   6.058
 7847SOL    HW124440   5.262   4.522   6.148
 7847SOL    HW224441   5.131   4.490   6.056
 7848SOL     OW24442   3.943   4.929   0.333
 7848SOL    HW124443   3.967   5.026   0.332
 7848SOL    HW224444   3.979   4.886   0.415
 7849SOL     OW24445   4.465   5.376   6.667
 7849SOL    HW124446   4.540   5.333   6.617
 7849SOL    HW224447   4.380   5.327   6.649
 7850SOL     OW24448   0.153   0.662   3.408
 7850SOL    HW124449   0.127   0.573   3.369
 7850SOL    HW224450   0.103   0.677   3.493
 7851SOL     OW24451   0.728   4.930   0.497
 7851SOL    HW124452   0.653   4.991   0.520
 7851SOL    HW224453   0.701   4.835   0.515
 7852SOL     OW24454   1.365   3.523   6.012
 7852SOL    HW124455   1.358   3.458   5.936
 7852SOL    HW224456   1.398   3.611   5.978
 7853SOL     OW24457   4.095   3.122   1.743
 7853SOL    HW124458   4.194   3.106   1.747
 7853SOL    HW224459   4.073   3.176   1.662
 7854SOL     OW24460   3.945   0.706   1.319
 7854SOL    HW124461   4.020   0.758   1.278
 7854SOL    HW224462   3.920   0.746   1.407
 7855SOL     OW24463   5.358   6.464   3.978
 7855SOL    HW124464   5.302   6.382   3.964
 7855SOL    HW224465   5.455   6.440   3.977
 7856SOL     OW24466   2.179   6.391   5.849
 7856SOL    HW124467   2.261   6.446   5.833
 7856SOL    HW224468   2.182   6.310   5.790
 7857SOL     OW24469   6.531   5.033   0.324
 7857SOL    HW124470   6.571   5.125   0.330
 7857SOL    HW224471   6.444   5.031   0.372
 7858SOL     OW24472   0.590   3.802   6.145
 7858SOL    HW124473   0.602   3.715   6.097
 7858SOL    HW224474   0.500   3.840   6.125
 7859SOL     OW24475   4.853   2.149   0.916
 7859SOL    HW124476   4.951   2.134   0.906
 7859SOL    HW224477   4.819   2.101   0.997
 7860SOL     OW24478   2.055   1.752   3.350
 7860SOL    HW124479   2.101   1.669   3.382
 7860SOL    HW224480   2.095   1.832   3.394
 7861SOL     OW24481   1.849   5.725   0.942
 7861SOL    HW124482   1.886   5.633   0.948
 7861SOL    HW224483   1.921   5.791   0.964
 7862SOL     OW24484   1.498   6.885   6.952
 7862SOL    HW124485   1.525   6.806   6.898
 7862SOL    HW224486   1.507   6.864   0.027
 7863SOL     OW24487   0.384   3.809   3.685
 7863SOL    HW124488   0.339   3.891   3.649
 7863SOL    HW224489   0.442   3.769   3.614
 7864SOL     OW24490   3.124   5.234   5.259
 7864SOL    HW124491   3.215   5.228   5.301
 7864SOL    HW224492   3.094   5.330   5.260
 7865SOL     OW24493   6.011   4.789   4.039
 7865SOL    HW124494   6.088   4.779   3.976
 7865SOL    HW224495   5.940   4.722   4.017
 7866SOL     OW24496   1.375   1.202   5.336
 7866SOL    HW124497   1.441   1.173   5.266
 7866SOL    HW224498   1.417   1.192   5.426
 7867SOL     OW24499   3.772   5.134   3.618
 7867SOL    HW124500   3.722   5.200   3.563
 7867SOL    HW224501   3.853   5.104   3.568
 7868SOL     OW24502   3.505   6.111   1.463
 7868SOL    HW124503   3.512   6.105   1.363
 7868SOL    HW224504   3.482   6.205   1.489
 7869SOL     OW24505   5.615   4.687   0.056
 7869SOL    HW124506   5.654   4.636   0.132
 7869SOL    HW224507   5.669   4.672   6.996
 7870SOL     OW24508   6.841   6.961   3.890
 7870SOL    HW124509   6.907   6.888   3.905
 7870SOL    HW224510   6.842   6.988   3.793
 7871SOL     OW24511   4.747   1.226   0.552
 7871SOL    HW124512   4.689   1.195   0.627
 7871SOL    HW224513   4.837   1.250   0.587
 7872SOL     OW24514   6.879   4.367   3.455
 7872SOL    HW124515   6.905   4.459   3.482
 7872SOL    HW224516   6.782   4.365   3.432
 7873SOL     OW24517   4.393   2.599   6.676
 7873SOL    HW124518   4.363   2.671   6.614
 7873SOL    HW224519   4.451   2.535   6.627
 7874SOL     OW24520   6.536   2.958   6.840
 7874SOL    HW124521   6.498   2.984   6.929
 7874SOL    HW224522   6.508   3.026   6.772
 7875SOL     OW24523   0.024   4.622   6.922
 7875SOL    HW124524   6.974   4.658   6.864
 7875SOL    HW224525   7.014   4.614   7.016
 7876SOL     OW24526   1.406   6.561   3.217
 7876SOL    HW124527   1.348   6.631   3.175
 7876SOL    HW224528   1.377   6.470   3.188
 7877SOL     OW24529   0.423   2.852   2.060
 7877SOL    HW124530   0.513   2.831   2.021
 7877SOL    HW224531   0.390   2.939   2.022
 7878SOL     OW24532   3.836   0.324   2.359
 7878SOL    HW124533   3.848   0.345   2.456
 7878SOL    HW224534   3.754   0.268   2.347
 7879SOL     OW24535   2.944   5.924   2.713
 7879SOL    HW124536   3.019   5.858   2.713
 7879SOL    HW224537   2.965   5.998   2.649
 7880SOL     OW24538   0.852   4.267   2.311
 7880SOL    HW124539   0.821   4.356   2.346
 7880SOL    HW224540   0.907   4.282   2.229
 7881SOL     OW24541   4.904   2.775   3.666
 7881SOL    HW124542   4.948   2.852   3.621
 7881SOL    HW224543   4.966   2.697   3.670
 7882SOL     OW24544   0.031   2.904   6.520
 7882SOL    HW124545   0.084   2.824   6.495
 7882SOL    HW224546   6.964   2.876   6.554
 7883SOL     OW24547   0.573   6.782   4.265
 7883SOL    HW124548   0.531   6.759   4.178
 7883SOL    HW224549   0.646   6.716   4.286
 7884SOL     OW24550   1.783   2.626   4.158
 7884SOL    HW124551   1.726   2.705   4.181
 7884SOL    HW224552   1.741   2.543   4.194
 7885SOL     OW24553   0.048   6.125   6.852
 7885SOL    HW124554   0.013   6.047   6.799
 7885SOL    HW224555   6.996   6.189   6.869
 7886SOL     OW24556   4.883   4.012   0.783
 7886SOL    HW124557   4.969   4.006   0.832
 7886SOL    HW224558   4.889   3.961   0.698
 7887SOL     OW24559   4.594   2.338   6.071
 7887SOL    HW124560   4.586   2.239   6.078
 7887SOL    HW224561   4.515   2.375   6.022
 7888SOL     OW24562   3.997   5.807   4.419
 7888SOL    HW124563   4.061   5.870   4.462
 7888SOL    HW224564   4.021   5.795   4.323
 7889SOL     OW24565   6.519   5.139   3.744
 7889SOL    HW124566   6.523   5.105   3.839
 7889SOL    HW224567   6.426   5.134   3.710
 7890SOL     OW24568   1.768   3.833   2.671
 7890SOL    HW124569   1.822   3.878   2.600
 7890SOL    HW224570   1.813   3.747   2.696
 7891SOL     OW24571   0.836   4.266   2.987
 7891SOL    HW124572   0.917   4.217   3.018
 7891SOL    HW224573   0.756   4.206   2.995
 7892SOL     OW24574   2.156   2.203   4.979
 7892SOL    HW124575   2.159   2.154   4.892
 7892SOL    HW224576   2.092   2.157   5.041
 7893SOL     OW24577   5.206   6.546   1.058
 7893SOL    HW124578   5.220   6.448   1.044
 7893SOL    HW224579   5.270   6.597   1.001
 7894SOL     OW24580   2.862   0.319   1.478
 7894SOL    HW124581   2.941   0.308   1.417
 7894SOL    HW224582   2.860   0.413   1.513
 7895SOL     OW24583   0.410   1.689   3.896
 7895SOL    HW124584   0.428   1.594   3.874
 7895SOL    HW224585   0.384   1.738   3.813
 7896SOL     OW24586   3.445   2.179   6.564
 7896SOL    HW124587   3.472   2.184   6.661
 7896SOL    HW224588   3.350   2.210   6.555
 7897SOL     OW24589   2.914   3.559   6.809
 7897SOL    HW124590   2.924   3.517   6.899
 7897SOL    HW224591   2.849   3.508   6.755
 7898SOL     OW24592   5.343   1.419   4.416
 7898SOL    HW124593   5.299   1.348   4.361
 7898SOL    HW224594   5.293   1.505   4.405
 7899SOL     OW24595   4.418   1.015   2.387
 7899SOL    HW124596   4.387   1.034   2.294
 7899SOL    HW224597   4.431   1.101   2.437
 7900SOL     OW24598   0.716   5.848   1.565
 7900SOL    HW124599   0.694   5.937   1.525
 7900SOL    HW224600   0.655   5.779   1.528
 7901SOL     OW24601   6.176   4.917   1.357
 7901SOL    HW124602   6.119   4.841   1.387
 7901SOL    HW224603   6.130   4.966   1.283
 7902SOL     OW24604   5.120   4.513   5.686
 7902SOL    HW124605   5.083   4.585   5.745
 7902SOL    HW224606   5.057   4.435   5.687
 7903SOL     OW24607   6.919   2.809   1.880
 7903SOL    HW124608   6.906   2.809   1.979
 7903SOL    HW224609   6.975   2.887   1.853
 7904SOL     OW24610   5.724   2.208   3.271
 7904SOL    HW124611   5.687   2.181   3.182
 7904SOL    HW224612   5.696   2.302   3.291
 7905SOL     OW24613   1.764   1.603   2.106
 7905SOL    HW124614   1.803   1.633   2.019
 7905SOL    HW224615   1.786   1.506   2.120
 7906SOL     OW24616   0.791   4.942   6.799
 7906SOL    HW124617   0.890   4.956   6.788
 7906SOL    HW224618   0.764   4.857   6.754
 7907SOL     OW24619   0.673   2.746   2.655
 7907SOL    HW124620   0.581   2.783   2.666
 7907SOL    HW224621   0.717   2.739   2.745
 7908SOL     OW24622   0.337   1.801   2.852
 7908SOL    HW124623   0.267   1.730   2.843
 7908SOL    HW224624   0.409   1.768   2.913
 7909SOL     OW24625   4.432   6.635   4.924
 7909SOL    HW124626   4.478   6.718   4.955
 7909SOL    HW224627   4.440   6.564   4.993
 7910SOL     OW24628   6.726   2.771   5.610
 7910SOL    HW124629   6.776   2.784   5.696
 7910SOL    HW224630   6.635   2.735   5.630
 7911SOL     OW24631   0.216   5.591   6.417
 7911SOL    HW124632   0.236   5.683   6.451
 7911SOL    HW224633   0.134   5.595   6.359
 7912SOL     OW24634   0.039   5.659   5.323
 7912SOL    HW124635   6.983   5.716   5.346
 7912SOL    HW224636   0.071   5.612   5.405
 7913SOL     OW24637   1.313   6.132   6.402
 7913SOL    HW124638   1.302   6.226   6.434
 7913SOL    HW224639   1.409   6.113   6.384
 7914SOL     OW24640   6.213   4.827   0.719
 7914SOL    HW124641   6.139   4.781   0.671
 7914SOL    HW224642   6.226   4.918   0.679
 7915SOL     OW24643   2.846   0.968   2.596
 7915SOL    HW124644   2.893   1.011   2.673
 7915SOL    HW224645   2.753   1.006   2.588
 7916SOL     OW24646   4.430   3.870   5.345
 7916SOL    HW124647   4.447   3.845   5.440
 7916SOL    HW224648   4.332   3.862   5.326
 7917SOL     OW24649   3.907   3.914   3.608
 7917SOL    HW124650   3.994   3.882   3.647
 7917SOL    HW224651   3.891   3.868   3.521
 7918SOL     OW24652   5.513   1.774   1.880
 7918SOL    HW124653   5.545   1.767   1.974
 7918SOL    HW224654   5.588   1.755   1.817
 7919SOL     OW24655   5.316   3.964   2.622
 7919SOL    HW124656   5.293   3.879   2.575
 7919SOL    HW224657   5.327   4.037   2.555
 7920SOL     OW24658   0.508   6.651   0.877
 7920SOL    HW124659   0.595   6.628   0.922
 7920SOL    HW224660   0.433   6.638   0.942
 7921SOL     OW24661   3.389   5.504   2.128
 7921SOL    HW124662   3.312   5.465   2.078
 7921SOL    HW224663   3.468   5.512   2.066
 7922SOL     OW24664   0.974   4.493   5.132
 7922SOL    HW124665   0.987   4.403   5.173
 7922SOL    HW224666   0.979   4.563   5.203
 7923SOL     OW24667   1.067   1.988   3.488
 7923SOL    HW124668   1.138   2.031   3.544
 7923SOL    HW224669   1.058   2.037   3.402
 7924SOL     OW24670   2.229   0.979   3.691
 7924SOL    HW124671   2.242   0.883   3.668
 7924SOL    HW224672   2.131   0.998   3.702
 7925SOL     OW24673   0.732   1.287   0.018
 7925SOL    HW124674   0.808   1.241   0.063
 7925SOL    HW224675   0.666   1.219   7.008
 7926SOL     OW24676   2.948   0.621   1.869
 7926SOL    HW124677   2.999   0.703   1.842
 7926SOL    HW224678   3.004   0.566   1.931
 7927SOL     OW24679   4.569   5.172   4.532
 7927SOL    HW124680   4.526   5.138   4.615
 7927SOL    HW224681   4.668   5.159   4.538
 7928SOL     OW24682   0.540   3.719   0.004
 7928SOL    HW124683   0.493   3.727   0.091
 7928SOL    HW224684   0.598   3.799   7.012
 7929SOL     OW24685   3.881   4.178   5.030
 7929SOL    HW124686   3.887   4.208   4.934
 7929SOL    HW224687   3.807   4.112   5.039
 7930SOL     OW24688   3.969   6.903   2.396
 7930SOL    HW124689   3.895   6.878   2.458
 7930SOL    HW224690   4.054   6.860   2.425
 7931SOL     OW24691   3.134   3.263   5.809
 7931SOL    HW124692   3.130   3.172   5.770
 7931SOL    HW224693   3.045   3.308   5.801
 7932SOL     OW24694   3.034   1.047   0.149
 7932SOL    HW124695   3.074   1.107   0.079
 7932SOL    HW224696   2.956   1.093   0.191
 7933SOL     OW24697   2.268   1.224   6.496
 7933SOL    HW124698   2.299   1.318   6.484
 7933SOL    HW224699   2.189   1.208   6.437
 7934SOL     OW24700   4.379   2.266   5.923
 7934SOL    HW124701   4.423   2.207   5.855
 7934SOL    HW224702   4.350   2.211   6.001
 7935SOL     OW24703   5.018   5.611   2.011
 7935SOL    HW124704   4.944   5.573   1.957
 7935SOL    HW224705   4.992   5.610   2.108
 7936SOL     OW24706   3.833   6.471   1.928
 7936SOL    HW124707   3.839   6.472   2.028
 7936SOL    HW224708   3.920   6.439   1.890
 7937SOL     OW24709   6.022   1.660   6.178
 7937SOL    HW124710   6.086   1.705   6.241
 7937SOL    HW224711   6.065   1.652   6.088
 7938SOL     OW24712   6.903   4.532   3.908
 7938SOL    HW124713   6.873   4.449   3.956
 7938SOL    HW224714   6.986   4.511   3.855
 7939SOL     OW24715   6.994   6.238   3.336
 7939SOL    HW124716   0.029   6.287   3.270
 7939SOL    HW224717   6.901   6.274   3.332
 7940SOL     OW24718   1.777   6.109   0.742
 7940SOL    HW124719   1.762   6.158   0.656
 7940SOL    HW224720   1.691   6.069   0.773
 7941SOL     OW24721   0.593   0.630   0.752
 7941SOL    HW124722   0.618   0.709   0.696
 7941SOL    HW224723   0.542   0.565   0.696
 7942SOL     OW24724   1.001   0.250   1.825
 7942SOL    HW124725   0.962   0.158   1.814
 7942SOL    HW224726   1.032   0.262   1.919
 7943SOL     OW24727   6.075   2.159   0.465
 7943SOL    HW124728   5.995   2.114   0.425
 7943SOL    HW224729   6.140   2.090   0.497
 7944SOL     OW24730   6.719   4.056   2.050
 7944SOL    HW124731   6.779   4.067   2.129
 7944SOL    HW224732   6.716   3.959   2.024
 7945SOL     OW24733   5.768   0.080   1.167
 7945SOL    HW124734   5.840   0.136   1.208
 7945SOL    HW224735   5.682   0.093   1.217
 7946SOL     OW24736   2.349   1.369   5.602
 7946SOL    HW124737   2.447   1.357   5.619
 7946SOL    HW224738   2.336   1.420   5.517
 7947SOL     OW24739   4.518   5.260   6.238
 7947SOL    HW124740   4.508   5.346   6.288
 7947SOL    HW224741   4.458   5.261   6.158
 7948SOL     OW24742   1.007   5.329   5.489
 7948SOL    HW124743   1.061   5.408   5.460
 7948SOL    HW224744   0.951   5.354   5.567
 7949SOL     OW24745   6.785   3.530   4.208
 7949SOL    HW124746   6.701   3.582   4.194
 7949SOL    HW224747   6.767   3.454   4.271
 7950SOL     OW24748   3.124   5.134   4.066
 7950SOL    HW124749   3.111   5.219   4.117
 7950SOL    HW224750   3.193   5.148   3.995
 7951SOL     OW24751   2.088   3.460   0.675
 7951SOL    HW124752   2.034   3.518   0.736
 7951SOL    HW224753   2.173   3.507   0.650
 7952SOL     OW24754   5.837   4.510   0.820
 7952SOL    HW124755   5.776   4.434   0.800
 7952SOL    HW224756   5.808   4.555   0.904
 7953SOL     OW24757   1.967   3.989   1.944
 7953SOL    HW124758   2.024   3.909   1.961
 7953SOL    HW224759   1.889   3.963   1.888
 7954SOL     OW24760   5.573   4.920   4.273
 7954SOL    HW124761   5.528   4.979   4.339
 7954SOL    HW224762   5.671   4.917   4.293
 7955SOL     OW24763   1.894   6.334   6.367
 7955SOL    HW124764   1.869   6.332   6.270
 7955SOL    HW224765   1.933   6.246   6.393
 7956SOL     OW24766   5.654   5.982   2.954
 7956SOL    HW124767   5.669   5.941   2.864
 7956SOL    HW224768   5.695   5.923   3.024
 7957SOL     OW24769   1.714   2.400   0.854
 7957SOL    HW124770   1.720   2.302   0.838
 7957SOL    HW224771   1.755   2.423   0.942
 7958SOL     OW24772   2.622   5.562   3.626
 7958SOL    HW124773   2.570   5.626   3.682
 7958SOL    HW224774   2.719   5.586   3.629
 7959SOL     OW24775   4.798   5.531   1.875
 7959SOL    HW124776   4.701   5.539   1.852
 7959SOL    HW224777   4.838   5.454   1.825
 7960SOL     OW24778   1.835   2.295   1.363
 7960SOL    HW124779   1.808   2.389   1.383
 7960SOL    HW224780   1.931   2.282   1.387
 7961SOL     OW24781   0.738   5.816   0.372
 7961SOL    HW124782   0.773   5.760   0.297
 7961SOL    HW224783   0.815   5.855   0.423
 7962SOL     OW24784   1.433   0.191   2.675
 7962SOL    HW124785   1.473   0.105   2.703
 7962SOL    HW224786   1.481   0.226   2.595
 7963SOL     OW24787   0.523   6.584   6.212
 7963SOL    HW124788   0.465   6.512   6.173
 7963SOL    HW224789   0.521   6.664   6.153
 7964SOL     OW24790   6.122   5.461   3.351
 7964SOL    HW124791   6.123   5.361   3.356
 7964SOL    HW224792   6.202   5.497   3.399
 7965SOL     OW24793   4.136   1.445   0.404
 7965SOL    HW124794   4.200   1.501   0.352
 7965SOL    HW224795   4.169   1.351   0.408
 7966SOL     OW24796   0.157   0.977   3.850
 7966SOL    HW124797   0.112   0.962   3.938
 7966SOL    HW224798   0.123   1.061   3.809
 7967SOL     OW24799   3.250   0.428   3.461
 7967SOL    HW124800   3.310   0.358   3.500
 7967SOL    HW224801   3.157   0.392   3.453
 7968SOL     OW24802   2.211   0.808   1.124
 7968SOL    HW124803   2.282   0.738   1.121
 7968SOL    HW224804   2.149   0.795   1.046
 7969SOL     OW24805   3.489   1.667   3.521
 7969SOL    HW124806   3.539   1.659   3.435
 7969SOL    HW224807   3.416   1.598   3.523
 7970SOL     OW24808   0.605   4.545   3.430
 7970SOL    HW124809   0.612   4.630   3.378
 7970SOL    HW224810   0.679   4.539   3.496
 7971SOL     OW24811   2.996   1.904   2.285
 7971SOL    HW124812   3.082   1.863   2.256
 7971SOL    HW224813   2.960   1.962   2.212
 7972SOL     OW24814   5.869   6.218   1.650
 7972SOL    HW124815   5.939   6.226   1.721
 7972SOL    HW224816   5.825   6.128   1.657
 7973SOL     OW24817   5.232   1.802   3.146
 7973SOL    HW124818   5.169   1.796   3.068
 7973SOL    HW224819   5.180   1.793   3.231
 7974SOL     OW24820   5.014   5.990   4.454
 7974SOL    HW124821   5.054   5.918   4.396
 7974SOL    HW224822   4.944   6.039   4.403
 7975SOL     OW24823   1.629   1.895   2.493
 7975SOL    HW124824   1.550   1.956   2.483
 7975SOL    HW224825   1.710   1.941   2.455
 7976SOL     OW24826   1.494   6.911   6.580
 7976SOL    HW124827   1.594   6.916   6.576
 7976SOL    HW224828   1.466   6.848   6.652
 7977SOL     OW24829   5.323   6.198   1.255
 7977SOL    HW124830   5.401   6.228   1.199
 7977SOL    HW224831   5.340   6.106   1.290
 7978SOL     OW24832   3.224   1.776   5.854
 7978SOL    HW124833   3.153   1.843   5.834
 7978SOL    HW224834   3.295   1.818   5.910
 7979SOL     OW24835   4.895   5.813   4.217
 7979SOL    HW124836   4.958   5.746   4.178
 7979SOL    HW224837   4.850   5.774   4.297
 7980SOL     OW24838   2.702   0.525   2.127
 7980SOL    HW124839   2.651   0.611   2.129
 7980SOL    HW224840   2.751   0.517   2.041
 7981SOL     OW24841   0.881   6.251   2.517
 7981SOL    HW124842   0.827   6.279   2.438
 7981SOL    HW224843   0.972   6.293   2.511
 7982SOL     OW24844   0.267   3.071   0.597
 7982SOL    HW124845   0.246   3.046   0.691
 7982SOL    HW224846   0.365   3.057   0.579
 7983SOL     OW24847   5.393   2.319   1.140
 7983SOL    HW124848   5.311   2.271   1.171
 7983SOL    HW224849   5.470   2.296   1.200
 7984SOL     OW24850   6.512   0.745   0.865
 7984SOL    HW124851   6.583   0.686   0.827
 7984SOL    HW224852   6.427   0.693   0.876
 7985SOL     OW24853   1.179   1.329   0.880
 7985SOL    HW124854   1.117   1.267   0.927
 7985SOL    HW224855   1.173   1.421   0.921
 7986SOL     OW24856   4.663   3.673   0.704
 7986SOL    HW124857   4.586   3.619   0.740
 7986SOL    HW224858   4.631   3.731   0.630
 7987SOL     OW24859   0.419   3.113   5.014
 7987SOL    HW124860   0.466   3.028   4.990
 7987SOL    HW224861   0.382   3.156   4.932
 7988SOL     OW24862   3.146   1.132   5.486
 7988SOL    HW124863   3.161   1.041   5.527
 7988SOL    HW224864   3.079   1.182   5.541
 7989SOL     OW24865   3.426   3.495   6.678
 7989SOL    HW124866   3.370   3.508   6.596
 7989SOL    HW224867   3.446   3.583   6.719
 7990SOL     OW24868   2.230   2.707   4.694
 7990SOL    HW124869   2.214   2.701   4.596
 7990SOL    HW224870   2.191   2.626   4.739
 7991SOL     OW24871   2.581   3.094   6.266
 7991SOL    HW124872   2.673   3.117   6.233
 7991SOL    HW224873   2.525   3.177   6.269
 7992SOL     OW24874   2.852   1.479   0.891
 7992SOL    HW124875   2.881   1.512   0.801
 7992SOL    HW224876   2.827   1.383   0.885
 7993SOL     OW24877   2.837   5.423   6.276
 7993SOL    HW124878   2.863   5.515   6.247
 7993SOL    HW224879   2.763   5.389   6.219
 7994SOL     OW24880   5.836   0.521   4.266
 7994SOL    HW124881   5.853   0.511   4.364
 7994SOL    HW224882   5.923   0.522   4.218
 7995SOL     OW24883   4.414   5.392   2.518
 7995SOL    HW124884   4.374   5.455   2.451
 7995SOL    HW224885   4.465   5.321   2.471
 7996SOL     OW24886   4.388   1.413   5.474
 7996SOL    HW124887   4.478   1.417   5.433
 7996SOL    HW224888   4.390   1.456   5.564
 7997SOL     OW24889   5.255   3.102   0.995
 7997SOL    HW124890   5.237   3.008   1.024
 7997SOL    HW224891   5.240   3.110   0.897
 7998SOL     OW24892   6.559   5.004   6.062
 7998SOL    HW124893   6.606   5.092   6.057
 7998SOL    HW224894   6.468   5.011   6.022
 7999SOL     OW24895   2.730   2.502   5.661
 7999SOL    HW124896   2.786   2.566   5.608
 7999SOL    HW224897   2.740   2.410   5.624
 8000SOL     OW24898   4.784   0.450   5.934
 8000SOL    HW124899   4.762   0.355   5.955
 8000SOL    HW224900   4.725   0.510   5.987
 8001SOL     OW24901   2.421   5.049   0.221
 8001SOL    HW124902   2.346   5.034   0.286
 8001SOL    HW224903   2.497   5.094   0.268
 8002SOL     OW24904   4.800   2.123   5.712
 8002SOL    HW124905   4.838   2.048   5.659
 8002SOL    HW224906   4.710   2.098   5.746
 8003SOL     OW24907   4.961   5.326   3.134
 8003SOL    HW124908   5.039   5.278   3.173
 8003SOL    HW224909   4.896   5.259   3.096
 8004SOL     OW24910   0.942   4.292   3.293
 8004SOL    HW124911   0.901   4.224   3.354
 8004SOL    HW224912   1.003   4.247   3.228
 8005SOL     OW24913   1.913   0.744   2.368
 8005SOL    HW124914   1.844   0.743   2.441
 8005SOL    HW224915   1.995   0.792   2.400
 8006SOL     OW24916   4.179   6.069   2.113
 8006SOL    HW124917   4.134   6.112   2.192
 8006SOL    HW224918   4.110   6.044   2.045
 8007SOL     OW24919   0.177   1.125   4.310
 8007SOL    HW124920   0.147   1.030   4.311
 8007SOL    HW224921   0.103   1.183   4.276
 8008SOL     OW24922   5.796   5.669   1.543
 8008SOL    HW124923   5.783   5.608   1.465
 8008SOL    HW224924   5.707   5.688   1.586
 8009SOL     OW24925   6.964   6.837   3.166
 8009SOL    HW124926   7.009   6.858   3.252
 8009SOL    HW224927   6.884   6.897   3.155
 8010SOL     OW24928   2.096   2.088   6.866
 8010SOL    HW124929   2.075   2.136   6.952
 8010SOL    HW224930   2.183   2.122   6.830
 8011SOL     OW24931   2.312   3.160   0.056
 8011SOL    HW124932   2.369   3.238   0.029
 8011SOL    HW224933   2.255   3.132   7.001
 8012SOL     OW24934   2.422   6.487   3.354
 8012SOL    HW124935   2.428   6.563   3.419
 8012SOL    HW224936   2.503   6.429   3.362
 8013SOL     OW24937   6.439   5.224   4.932
 8013SOL    HW124938   6.492   5.308   4.920
 8013SOL    HW224939   6.410   5.190   4.842
 8014SOL     OW24940   2.675   6.872   6.887
 8014SOL    HW124941   2.632   6.856   6.799
 8014SOL    HW224942   2.704   6.784   6.927
 8015SOL     OW24943   1.531   2.076   0.500
 8015SOL    HW124944   1.599   2.003   0.490
 8015SOL    HW224945   1.445   2.045   0.459
 8016SOL     OW24946   4.064   6.385   1.840
 8016SOL    HW124947   4.092   6.458   1.903
 8016SOL    HW224948   4.140   6.364   1.778
 8017SOL     OW24949   6.276   3.329   5.411
 8017SOL    HW124950   6.256   3.405   5.474
 8017SOL    HW224951   6.292   3.365   5.319
 8018SOL     OW24952   5.380   3.020   3.763
 8018SOL    HW124953   5.406   3.046   3.671
 8018SOL    HW224954   5.317   3.089   3.801
 8019SOL     OW24955   3.533   5.116   1.312
 8019SOL    HW124956   3.499   5.172   1.387
 8019SOL    HW224957   3.616   5.069   1.340
 8020SOL     OW24958   5.805   0.476   6.670
 8020SOL    HW124959   5.735   0.444   6.607
 8020SOL    HW224960   5.764   0.538   6.737
 8021SOL     OW24961   6.424   1.354   1.138
 8021SOL    HW124962   6.419   1.258   1.167
 8021SOL    HW224963   6.352   1.406   1.184
 8022SOL     OW24964   5.072   5.283   3.540
 8022SOL    HW124965   4.997   5.224   3.510
 8022SOL    HW224966   5.042   5.379   3.535
 8023SOL     OW24967   0.324   5.991   4.010
 8023SOL    HW124968   0.354   6.062   3.947
 8023SOL    HW224969   0.225   5.978   4.001
 8024SOL     OW24970   4.264   5.710   4.533
 8024SOL    HW124971   4.245   5.651   4.612
 8024SOL    HW224972   4.223   5.670   4.451
 8025SOL     OW24973   3.479   5.745   0.410
 8025SOL    HW124974   3.576   5.721   0.412
 8025SOL    HW224975   3.424   5.662   0.423
 8026SOL     OW24976   2.193   1.479   6.484
 8026SOL    HW124977   2.113   1.419   6.488
 8026SOL    HW224978   2.165   1.569   6.449
 8027SOL     OW24979   4.350   3.085   5.390
 8027SOL    HW124980   4.370   3.132   5.476
 8027SOL    HW224981   4.434   3.043   5.355
 8028SOL     OW24982   6.038   5.052   0.526
 8028SOL    HW124983   5.978   5.043   0.446
 8028SOL    HW224984   5.989   5.021   0.608
 8029SOL     OW24985   3.292   4.297   6.289
 8029SOL    HW124986   3.235   4.279   6.210
 8029SOL    HW224987   3.258   4.377   6.338
 8030SOL     OW24988   6.553   3.722   0.846
 8030SOL    HW124989   6.642   3.689   0.814
 8030SOL    HW224990   6.567   3.780   0.927
 8031SOL     OW24991   3.809   6.201   1.009
 8031SOL    HW124992   3.739   6.155   1.065
 8031SOL    HW224993   3.766   6.274   0.956
 8032SOL     OW24994   4.671   3.714   5.721
 8032SOL    HW124995   4.758   3.760   5.737
 8032SOL    HW224996   4.595   3.779   5.733
 8033SOL     OW24997   6.395   1.721   1.644
 8033SOL    HW124998   6.434   1.748   1.732
 8033SOL    HW224999   6.301   1.753   1.638
 8034SOL     OW25000   6.585   1.791   5.952
 8034SOL    HW125001   6.553   1.873   5.999
 8034SOL    HW225002   6.523   1.769   5.877
 8035SOL     OW25003   5.438   5.945   5.911
 8035SOL    HW125004   5.460   5.872   5.976
 8035SOL    HW225005   5.519   5.964   5.855
 8036SOL     OW25006   1.916   4.716   2.099
 8036SOL    HW125007   1.954   4.631   2.061
 8036SOL    HW225008   1.829   4.696   2.143
 8037SOL     OW25009   2.142   3.316   1.757
 8037SOL    HW125010   2.195   3.375   1.818
 8037SOL    HW225011   2.173   3.330   1.662
 8038SOL     OW25012   5.654   1.382   4.076
 8038SOL    HW125013   5.710   1.304   4.104
 8038SOL    HW225014   5.605   1.359   3.991
 8039SOL     OW25015   2.031   5.795   4.104
 8039SOL    HW125016   2.109   5.812   4.042
 8039SOL    HW225017   2.047   5.711   4.155
 8040SOL     OW25018   5.775   6.112   6.915
 8040SOL    HW125019   5.778   6.164   7.001
 8040SOL    HW225020   5.789   6.175   6.838
 8041SOL     OW25021   3.328   2.212   1.393
 8041SOL    HW125022   3.363   2.244   1.305
 8041SOL    HW225023   3.280   2.286   1.439
 8042SOL     OW25024   1.993   5.164   6.846
 8042SOL    HW125025   1.987   5.073   6.803
 8042SOL    HW225026   2.081   5.205   6.822
 8043SOL     OW25027   2.809   0.835   1.239
 8043SOL    HW125028   2.837   0.742   1.216
 8043SOL    HW225029   2.889   0.890   1.260
 8044SOL     OW25030   3.144   2.974   2.287
 8044SOL    HW125031   3.109   3.065   2.310
 8044SOL    HW225032   3.086   2.905   2.330
 8045SOL     OW25033   6.466   2.582   3.450
 8045SOL    HW125034   6.492   2.493   3.412
 8045SOL    HW225035   6.428   2.569   3.542
 8046SOL     OW25036   6.780   5.577   5.032
 8046SOL    HW125037   6.840   5.512   5.077
 8046SOL    HW225038   6.767   5.657   5.091
 8047SOL     OW25039   2.150   6.926   4.620
 8047SOL    HW125040   2.069   6.984   4.621
 8047SOL    HW225041   2.230   6.980   4.646
 8048SOL     OW25042   5.538   0.453   5.589
 8048SOL    HW125043   5.534   0.532   5.649
 8048SOL    HW225044   5.560   0.483   5.496
 8049SOL     OW25045   1.871   6.897   6.984
 8049SOL    HW125046   1.810   6.967   7.020
 8049SOL    HW225047   1.819   6.830   6.932
 8050SOL     OW25048   0.030   3.043   1.844
 8050SOL    HW125049   7.003   3.130   1.853
 8050SOL    HW225050   0.127   3.062   1.829
 8051SOL     OW25051   2.682   1.684   3.778
 8051SOL    HW125052   2.765   1.710   3.826
 8051SOL    HW225053   2.609   1.668   3.845
 8052SOL     OW25054   3.824   1.547   2.655
 8052SOL    HW125055   3.909   1.574   2.611
 8052SOL    HW225056   3.755   1.617   2.641
 8053SOL     OW25057   4.260   3.542   1.553
 8053SOL    HW125058   4.162   3.556   1.568
 8053SOL    HW225059   4.286   3.452   1.589
 8054SOL     OW25060   4.729   6.345   4.494
 8054SOL    HW125061   4.802   6.305   4.437
 8054SOL    HW225062   4.686   6.273   4.548
 8055SOL     OW25063   1.309   0.101   5.710
 8055SOL    HW125064   1.399   0.103   5.753
 8055SOL    HW225065   1.246   0.050   5.769
 8056SOL     OW25066   4.463   1.270   2.503
 8056SOL    HW125067   4.520   1.275   2.585
 8056SOL    HW225068   4.389   1.337   2.509
 8057SOL     OW25069   3.371   7.013   3.745
 8057SOL    HW125070   3.410   0.028   3.829
 8057SOL    HW225071   3.274   6.993   3.759
 8058SOL     OW25072   1.955   7.019   3.046
 8058SOL    HW125073   1.921   0.027   2.956
 8058SOL    HW225074   2.037   0.048   3.070
 8059SOL     OW25075   1.564   1.292   4.282
 8059SOL    HW125076   1.510   1.334   4.210
 8059SOL    HW225077   1.654   1.336   4.286
 8060SOL     OW25078   0.523   2.675   5.089
 8060SOL    HW125079   0.574   2.632   5.163
 8060SOL    HW225080   0.487   2.605   5.028
 8061SOL     OW25081   5.829   6.777   3.269
 8061SOL    HW125082   5.791   6.684   3.271
 8061SOL    HW225083   5.805   6.821   3.183
 8062SOL     OW25084   1.376   2.849   1.677
 8062SOL    HW125085   1.392   2.944   1.649
 8062SOL    HW225086   1.457   2.815   1.726
 8063SOL     OW25087   2.570   3.011   5.935
 8063SOL    HW125088   2.551   3.059   6.020
 8063SOL    HW225089   2.504   2.937   5.923
 8064SOL     OW25090   6.420   2.511   5.416
 8064SOL    HW125091   6.492   2.580   5.408
 8064SOL    HW225092   6.461   2.422   5.436
 8065SOL     OW25093   4.631   6.943   6.466
 8065SOL    HW125094   4.556   6.877   6.465
 8065SOL    HW225095   4.656   6.967   6.373
 8066SOL     OW25096   1.820   0.156   1.602
 8066SOL    HW125097   1.795   0.129   1.695
 8066SOL    HW225098   1.829   0.255   1.597
 8067SOL     OW25099   4.531   2.530   2.572
 8067SOL    HW125100   4.532   2.606   2.637
 8067SOL    HW225101   4.461   2.464   2.598
 8068SOL     OW25102   6.589   4.839   4.516
 8068SOL    HW125103   6.615   4.867   4.608
 8068SOL    HW225104   6.665   4.790   4.473
 8069SOL     OW25105   1.061   6.392   2.140
 8069SOL    HW125106   1.032   6.478   2.181
 8069SOL    HW225107   1.158   6.377   2.157
 8070SOL     OW25108   3.538   0.351   2.250
 8070SOL    HW125109   3.588   0.379   2.332
 8070SOL    HW225110   3.582   0.389   2.169
 8071SOL     OW25111   5.209   4.937   0.019
 8071SOL    HW125112   5.235   4.871   6.971
 8071SOL    HW225113   5.270   5.015   0.015
 8072SOL     OW25114   3.992   0.636   2.939
 8072SOL    HW125115   3.949   0.684   3.015
 8072SOL    HW225116   3.925   0.620   2.867
 8073SOL     OW25117   5.076   0.306   6.211
 8073SOL    HW125118   5.014   0.237   6.250
 8073SOL    HW225119   5.090   0.379   6.277
 8074SOL     OW25120   2.757   3.955   0.117
 8074SOL    HW125121   2.763   3.994   0.210
 8074SOL    HW225122   2.845   3.915   0.093
 8075SOL     OW25123   6.063   1.809   4.024
 8075SOL    HW125124   5.964   1.803   4.032
 8075SOL    HW225125   6.100   1.860   4.102
 8076SOL     OW25126   4.820   3.196   6.603
 8076SOL    HW125127   4.905   3.145   6.614
 8076SOL    HW225128   4.776   3.170   6.517
 8077SOL     OW25129   0.788   0.436   0.253
 8077SOL    HW125130   0.837   0.404   0.334
 8077SOL    HW225131   0.854   0.461   0.182
 8078SOL     OW25132   5.911   3.413   1.014
 8078SOL    HW125133   5.868   3.418   0.923
 8078SOL    HW225134   5.896   3.499   1.062
 8079SOL     OW25135   1.161   2.383   0.902
 8079SOL    HW125136   1.206   2.302   0.867
 8079SOL    HW225137   1.183   2.462   0.844
 8080SOL     OW25138   4.018   5.324   6.726
 8080SOL    HW125139   3.976   5.375   6.801
 8080SOL    HW225140   3.948   5.273   6.676
 8081SOL     OW25141   5.749   2.349   4.791
 8081SOL    HW125142   5.823   2.286   4.767
 8081SOL    HW225143   5.688   2.305   4.857
 8082SOL     OW25144   6.314   3.581   4.801
 8082SOL    HW125145   6.218   3.555   4.793
 8082SOL    HW225146   6.371   3.518   4.749
 8083SOL     OW25147   5.817   1.786   4.917
 8083SOL    HW125148   5.840   1.731   4.837
 8083SOL    HW225149   5.853   1.741   4.999
 8084SOL     OW25150   6.243   0.355   0.343
 8084SOL    HW125151   6.213   0.280   0.401
 8084SOL    HW225152   6.295   0.420   0.399
 8085SOL     OW25153   4.848   2.397   0.597
 8085SOL    HW125154   4.786   2.413   0.674
 8085SOL    HW225155   4.795   2.387   0.513
 8086SOL     OW25156   2.337   5.570   5.802
 8086SOL    HW125157   2.306   5.561   5.897
 8086SOL    HW225158   2.273   5.627   5.751
 8087SOL     OW25159   2.575   3.617   0.812
 8087SOL    HW125160   2.512   3.663   0.875
 8087SOL    HW225161   2.570   3.518   0.826
 8088SOL     OW25162   4.675   0.817   3.246
 8088SOL    HW125163   4.705   0.882   3.316
 8088SOL    HW225164   4.581   0.788   3.266
 8089SOL     OW25165   6.714   3.041   0.803
 8089SOL    HW125166   6.638   2.984   0.835
 8089SOL    HW225167   6.794   2.984   0.789
 8090SOL     OW25168   4.543   1.601   4.965
 8090SOL    HW125169   4.633   1.558   4.976
 8090SOL    HW225170   4.555   1.698   4.944
 8091SOL     OW25171   1.833   3.429   5.316
 8091SOL    HW125172   1.891   3.378   5.251
 8091SOL    HW225173   1.812   3.519   5.278
 8092SOL     OW25174   6.205   1.934   4.495
 8092SOL    HW125175   6.125   1.900   4.446
 8092SOL    HW225176   6.189   2.029   4.523
 8093SOL     OW25177   6.039   5.510   0.671
 8093SOL    HW125178   6.076   5.603   0.666
 8093SOL    HW225179   5.945   5.513   0.707
 8094SOL     OW25180   0.301   3.544   4.183
 8094SOL    HW125181   0.201   3.542   4.185
 8094SOL    HW225182   0.336   3.451   4.170
 8095SOL     OW25183   6.291   3.181   4.526
 8095SOL    HW125184   6.326   3.252   4.588
 8095SOL    HW225185   6.358   3.164   4.454
 8096SOL     OW25186   4.535   0.134   0.675
 8096SOL    HW125187   4.518   0.232   0.681
 8096SOL    HW225188   4.449   0.086   0.659
 8097SOL     OW25189   4.438   2.045   4.222
 8097SOL    HW125190   4.492   2.093   4.153
 8097SOL    HW225191   4.497   1.986   4.276
 8098SOL     OW25192   1.900   1.674   4.539
 8098SOL    HW125193   1.916   1.740   4.612
 8098SOL    HW225194   1.834   1.713   4.474
 8099SOL     OW25195   3.672   6.640   4.566
 8099SOL    HW125196   3.632   6.549   4.556
 8099SOL    HW225197   3.684   6.681   4.476
 8100SOL     OW25198   6.594   6.072   1.283
 8100SOL    HW125199   6.588   6.121   1.196
 8100SOL    HW225200   6.669   6.110   1.337
 8101SOL     OW25201   0.826   5.035   1.788
 8101SOL    HW125202   0.848   4.943   1.819
 8101SOL    HW225203   0.911   5.086   1.774
 8102SOL     OW25204   6.666   7.002   5.869
 8102SOL    HW125205   6.766   6.998   5.874
 8102SOL    HW225206   6.638   7.006   5.773
 8103SOL     OW25207   2.535   2.536   2.320
 8103SOL    HW125208   2.616   2.570   2.367
 8103SOL    HW225209   2.562   2.483   2.239
 8104SOL     OW25210   2.616   0.082   6.306
 8104SOL    HW125211   2.679   0.006   6.317
 8104SOL    HW225212   2.534   0.050   6.258
 8105SOL     OW25213   2.110   2.578   3.152
 8105SOL    HW125214   2.070   2.517   3.083
 8105SOL    HW225215   2.083   2.546   3.243
 8106SOL     OW25216   0.752   4.094   5.520
 8106SOL    HW125217   0.659   4.128   5.512
 8106SOL    HW225218   0.753   4.013   5.578
 8107SOL     OW25219   0.964   5.197   6.532
 8107SOL    HW125220   1.017   5.149   6.462
 8107SOL    HW225221   0.993   5.167   6.623
 8108SOL     OW25222   2.228   2.848   6.059
 8108SOL    HW125223   2.303   2.877   6.119
 8108SOL    HW225224   2.265   2.827   5.969
 8109SOL     OW25225   0.397   5.521   5.489
 8109SOL    HW125226   0.396   5.617   5.460
 8109SOL    HW225227   0.401   5.462   5.409
 8110SOL     OW25228   1.117   4.859   0.475
 8110SOL    HW125229   1.046   4.929   0.489
 8110SOL    HW225230   1.207   4.898   0.496
 8111SOL     OW25231   3.145   5.960   4.083
 8111SOL    HW125232   3.086   6.040   4.088
 8111SOL    HW225233   3.234   5.986   4.046
 8112SOL     OW25234   4.037   1.377   3.991
 8112SOL    HW125235   3.977   1.301   4.016
 8112SOL    HW225236   4.054   1.376   3.893
 8113SOL     OW25237   3.296   2.581   5.761
 8113SOL    HW125238   3.313   2.678   5.746
 8113SOL    HW225239   3.218   2.552   5.706
 8114SOL     OW25240   3.085   3.806   1.438
 8114SOL    HW125241   2.992   3.806   1.403
 8114SOL    HW225242   3.103   3.719   1.484
 8115SOL     OW25243   3.951   2.882   0.913
 8115SOL    HW125244   3.876   2.929   0.959
 8115SOL    HW225245   4.028   2.945   0.901
 8116SOL     OW25246   5.272   1.510   5.594
 8116SOL    HW125247   5.243   1.597   5.633
 8116SOL    HW225248   5.303   1.523   5.500
 8117SOL     OW25249   3.282   2.868   6.051
 8117SOL    HW125250   3.338   2.786   6.055
 8117SOL    HW225251   3.189   2.847   6.081
 8118SOL     OW25252   1.039   2.136   4.111
 8118SOL    HW125253   1.009   2.187   4.030
 8118SOL    HW225254   1.084   2.199   4.175
 8119SOL     OW25255   1.631   6.618   2.455
 8119SOL    HW125256   1.576   6.666   2.387
 8119SOL    HW225257   1.577   6.545   2.497
 8120SOL     OW25258   4.538   4.492   2.499
 8120SOL    HW125259   4.519   4.464   2.594
 8120SOL    HW225260   4.495   4.580   2.482
 8121SOL     OW25261   6.833   5.873   2.997
 8121SOL    HW125262   6.858   5.776   2.989
 8121SOL    HW225263   6.799   5.906   2.909
 8122SOL     OW25264   0.128   5.646   1.675
 8122SOL    HW125265   0.047   5.679   1.724
 8122SOL    HW225266   0.100   5.609   1.587
 8123SOL     OW25267   1.313   5.229   6.941
 8123SOL    HW125268   1.314   5.329   6.940
 8123SOL    HW225269   1.224   5.198   6.975
 8124SOL     OW25270   2.183   6.316   2.880
 8124SOL    HW125271   2.142   6.404   2.904
 8124SOL    HW225272   2.161   6.295   2.784
 8125SOL     OW25273   5.430   4.986   3.063
 8125SOL    HW125274   5.519   4.955   3.031
 8125SOL    HW225275   5.368   4.908   3.071
 8126SOL     OW25276   6.949   4.823   1.772
 8126SOL    HW125277   0.024   4.822   1.753
 8126SOL    HW225278   6.934   4.806   1.870
 8127SOL     OW25279   3.884   5.308   0.940
 8127SOL    HW125280   3.784   5.318   0.941
 8127SOL    HW225281   3.925   5.393   0.906
 8128SOL     OW25282   4.004   1.863   5.525
 8128SOL    HW125283   4.098   1.895   5.538
 8128SOL    HW225284   3.946   1.939   5.494
 8129SOL     OW25285   4.766   6.070   6.523
 8129SOL    HW125286   4.848   6.084   6.578
 8129SOL    HW225287   4.734   6.158   6.488
 8130SOL     OW25288   0.606   0.309   6.275
 8130SOL    HW125289   0.645   0.268   6.357
 8130SOL    HW225290   0.679   0.354   6.223
 8131SOL     OW25291   2.415   1.849   1.269
 8131SOL    HW125292   2.509   1.879   1.281
 8131SOL    HW225293   2.396   1.833   1.172
 8132SOL     OW25294   5.618   4.472   2.913
 8132SOL    HW125295   5.586   4.380   2.934
 8132SOL    HW225296   5.579   4.501   2.825
 8133SOL     OW25297   0.392   5.525   1.962
 8133SOL    HW125298   0.400   5.447   1.900
 8133SOL    HW225299   0.481   5.543   2.004
 8134SOL     OW25300   2.669   2.826   1.647
 8134SOL    HW125301   2.648   2.747   1.704
 8134SOL    HW225302   2.584   2.868   1.615
 8135SOL     OW25303   3.907   6.530   2.524
 8135SOL    HW125304   3.913   6.591   2.603
 8135SOL    HW225305   3.978   6.461   2.530
 8136SOL     OW25306   2.457   5.924   1.913
 8136SOL    HW125307   2.513   6.001   1.945
 8136SOL    HW225308   2.510   5.868   1.850
 8137SOL     OW25309   3.053   3.802   5.382
 8137SOL    HW125310   2.996   3.825   5.461
 8137SOL    HW225311   2.996   3.765   5.310
 8138SOL     OW25312   4.428   1.201   3.638
 8138SOL    HW125313   4.487   1.146   3.696
 8138SOL    HW225314   4.447   1.181   3.542
 8139SOL     OW25315   1.505   3.062   6.202
 8139SOL    HW125316   1.452   3.122   6.141
 8139SOL    HW225317   1.481   3.082   6.297
 8140SOL     OW25318   4.881   1.582   1.266
 8140SOL    HW125319   4.822   1.502   1.263
 8140SOL    HW225320   4.906   1.608   1.173
 8141SOL     OW25321   5.981   1.013   5.185
 8141SOL    HW125322   5.885   1.031   5.161
 8141SOL    HW225323   6.041   1.054   5.117
 8142SOL     OW25324   3.546   5.508   0.735
 8142SOL    HW125325   3.491   5.456   0.670
 8142SOL    HW225326   3.592   5.583   0.688
 8143SOL     OW25327   5.625   4.894   6.879
 8143SOL    HW125328   5.622   4.863   6.974
 8143SOL    HW225329   5.706   4.856   6.835
 8144SOL     OW25330   1.412   5.503   6.674
 8144SOL    HW125331   1.334   5.471   6.619
 8144SOL    HW225332   1.497   5.484   6.625
 8145SOL     OW25333   5.298   5.710   5.601
 8145SOL    HW125334   5.392   5.745   5.601
 8145SOL    HW225335   5.234   5.787   5.600
 8146SOL     OW25336   7.022   6.210   4.854
 8146SOL    HW125337   7.014   6.127   4.798
 8146SOL    HW225338   6.968   6.198   4.938
 8147SOL     OW25339   2.384   0.057   4.684
 8147SOL    HW125340   2.361   0.138   4.738
 8147SOL    HW225341   2.438   7.016   4.739
 8148SOL     OW25342   5.290   4.495   0.195
 8148SOL    HW125343   5.369   4.454   0.150
 8148SOL    HW225344   5.206   4.454   0.159
 8149SOL     OW25345   1.759   6.723   5.360
 8149SOL    HW125346   1.853   6.722   5.394
 8149SOL    HW225347   1.743   6.809   5.311
 8150SOL     OW25348   0.377   4.268   0.661
 8150SOL    HW125349   0.349   4.303   0.572
 8150SOL    HW225350   0.462   4.216   0.652
 8151SOL     OW25351   6.425   4.006   1.857
 8151SOL    HW125352   6.424   3.969   1.950
 8151SOL    HW225353   6.364   4.085   1.851
 8152SOL     OW25354   5.081   2.296   3.842
 8152SOL    HW125355   5.017   2.360   3.884
 8152SOL    HW225356   5.098   2.323   3.747
 8153SOL     OW25357   0.187   1.531   1.190
 8153SOL    HW125358   0.219   1.625   1.206
 8153SOL    HW225359   0.097   1.519   1.232
 8154SOL     OW25360   0.910   0.943   3.759
 8154SOL    HW125361   0.840   0.932   3.689
 8154SOL    HW225362   0.913   0.862   3.817
 8155SOL     OW25363   0.810   4.691   4.608
 8155SOL    HW125364   0.750   4.653   4.538
 8155SOL    HW225365   0.821   4.625   4.682
 8156SOL     OW25366   1.434   4.084   0.525
 8156SOL    HW125367   1.527   4.097   0.491
 8156SOL    HW225368   1.401   3.994   0.497
 8157SOL     OW25369   6.053   4.591   4.481
 8157SOL    HW125370   6.040   4.681   4.524
 8157SOL    HW225371   6.001   4.588   4.396
 8158SOL     OW25372   6.204   5.042   6.347
 8158SOL    HW125373   6.140   4.970   6.322
 8158SOL    HW225374   6.296   5.004   6.356
 8159SOL     OW25375   2.600   6.767   5.216
 8159SOL    HW125376   2.621   6.843   5.156
 8159SOL    HW225377   2.620   6.793   5.311
 8160SOL     OW25378   5.359   2.634   2.888
 8160SOL    HW125379   5.321   2.588   2.807
 8160SOL    HW225380   5.454   2.660   2.870
 8161SOL     OW25381   0.385   2.570   1.791
 8161SOL    HW125382   0.456   2.635   1.763
 8161SOL    HW225383   0.419   2.512   1.865
 8162SOL     OW25384   0.306   5.767   5.683
 8162SOL    HW125385   0.336   5.761   5.587
 8162SOL    HW225386   0.310   5.676   5.725
 8163SOL     OW25387   3.311   5.155   5.734
 8163SOL    HW125388   3.222   5.157   5.688
 8163SOL    HW225389   3.305   5.100   5.817
 8164SOL     OW25390   5.168   1.833   0.437
 8164SOL    HW125391   5.134   1.747   0.473
 8164SOL    HW225392   5.256   1.818   0.392
 8165SOL     OW25393   0.677   2.653   6.271
 8165SOL    HW125394   0.711   2.744   6.292
 8165SOL    HW225395   0.619   2.621   6.346
 8166SOL     OW25396   2.720   2.076   4.547
 8166SOL    HW125397   2.695   2.058   4.642
 8166SOL    HW225398   2.686   2.166   4.519
 8167SOL     OW25399   1.515   2.682   3.276
 8167SOL    HW125400   1.564   2.753   3.327
 8167SOL    HW225401   1.567   2.597   3.280
 8168SOL     OW25402   1.572   6.343   2.562
 8168SOL    HW125403   1.582   6.383   2.653
 8168SOL    HW225404   1.661   6.318   2.527
 8169SOL     OW25405   4.788   4.313   0.516
 8169SOL    HW125406   4.827   4.395   0.474
 8169SOL    HW225407   4.793   4.322   0.616
 8170SOL     OW25408   0.036   4.487   3.132
 8170SOL    HW125409   6.980   4.523   3.182
 8170SOL    HW225410   0.036   4.523   3.039
 8171SOL     OW25411   1.862   1.685   1.626
 8171SOL    HW125412   1.954   1.692   1.587
 8171SOL    HW225413   1.799   1.741   1.572
 8172SOL     OW25414   1.357   4.735   0.548
 8172SOL    HW125415   1.394   4.644   0.529
 8172SOL    HW225416   1.257   4.729   0.557
 8173SOL     OW25417   5.563   6.844   1.510
 8173SOL    HW125418   5.638   6.881   1.565
 8173SOL    HW225419   5.565   6.886   1.419
 8174SOL     OW25420   2.552   6.355   4.096
 8174SOL    HW125421   2.541   6.401   4.008
 8174SOL    HW225422   2.465   6.312   4.122
 8175SOL     OW25423   0.474   1.887   5.831
 8175SOL    HW125424   0.459   1.920   5.738
 8175SOL    HW225425   0.417   1.806   5.847
 8176SOL     OW25426   3.077   4.977   6.990
 8176SOL    HW125427   3.017   4.909   0.011
 8176SOL    HW225428   3.030   5.017   6.911
 8177SOL     OW25429   3.388   0.858   2.300
 8177SOL    HW125430   3.442   0.930   2.255
 8177SOL    HW225431   3.384   0.876   2.398
 8178SOL     OW25432   2.656   5.889   1.383
 8178SOL    HW125433   2.640   5.809   1.441
 8178SOL    HW225434   2.754   5.896   1.362
 8179SOL     OW25435   6.609   6.823   3.992
 8179SOL    HW125436   6.645   6.736   4.027
 8179SOL    HW225437   6.679   6.867   3.935
 8180SOL     OW25438   4.882   5.092   0.586
 8180SOL    HW125439   4.954   5.039   0.541
 8180SOL    HW225440   4.798   5.037   0.592
 8181SOL     OW25441   6.350   0.798   6.645
 8181SOL    HW125442   6.432   0.767   6.693
 8181SOL    HW225443   6.289   0.720   6.630
 8182SOL     OW25444   3.311   3.740   3.002
 8182SOL    HW125445   3.318   3.816   3.067
 8182SOL    HW225446   3.400   3.696   2.993
 8183SOL     OW25447   0.242   0.442   5.527
 8183SOL    HW125448   0.212   0.498   5.450
 8183SOL    HW225449   0.257   0.348   5.496
 8184SOL     OW25450   0.200   6.153   5.176
 8184SOL    HW125451   0.288   6.192   5.149
 8184SOL    HW225452   0.194   6.058   5.146
 8185SOL     OW25453   0.487   5.871   4.905
 8185SOL    HW125454   0.418   5.815   4.950
 8185SOL    HW225455   0.451   5.903   4.817
 8186SOL     OW25456   1.573   5.511   0.428
 8186SOL    HW125457   1.599   5.607   0.417
 8186SOL    HW225458   1.552   5.494   0.524
 8187SOL     OW25459   1.308   6.626   4.559
 8187SOL    HW125460   1.341   6.577   4.478
 8187SOL    HW225461   1.375   6.619   4.632
 8188SOL     OW25462   1.333   2.796   2.522
 8188SOL    HW125463   1.308   2.893   2.527
 8188SOL    HW225464   1.250   2.740   2.522
 8189SOL     OW25465   6.616   5.423   4.343
 8189SOL    HW125466   6.663   5.355   4.286
 8189SOL    HW225467   6.527   5.444   4.303
 8190SOL     OW25468   5.751   3.544   2.487
 8190SOL    HW125469   5.750   3.512   2.582
 8190SOL    HW225470   5.730   3.642   2.485
 8191SOL     OW25471   4.807   5.289   0.777
 8191SOL    HW125472   4.839   5.201   0.743
 8191SOL    HW225473   4.720   5.313   0.733
 8192SOL     OW25474   0.083   5.952   3.411
 8192SOL    HW125475   7.021   5.901   3.396
 8192SOL    HW225476   0.067   6.049   3.393
 8193SOL     OW25477   0.143   4.731   4.179
 8193SOL    HW125478   0.241   4.718   4.166
 8193SOL    HW225479   0.120   4.827   4.162
 8194SOL     OW25480   5.417   0.285   1.902
 8194SOL    HW125481   5.489   0.351   1.880
 8194SOL    HW225482   5.399   0.228   1.822
 8195SOL     OW25483   6.768   6.605   3.355
 8195SOL    HW125484   6.681   6.571   3.320
 8195SOL    HW225485   6.757   6.700   3.385
 8196SOL     OW25486   5.090   0.151   2.449
 8196SOL    HW125487   5.056   0.243   2.468
 8196SOL    HW225488   5.018   0.085   2.465
 8197SOL     OW25489   3.870   1.583   3.364
 8197SOL    HW125490   3.898   1.620   3.276
 8197SOL    HW225491   3.947   1.536   3.407
 8198SOL     OW25492   2.248   5.371   0.495
 8198SOL    HW125493   2.163   5.394   0.543
 8198SOL    HW225494   2.314   5.332   0.559
 8199SOL     OW25495   5.961   2.583   0.334
 8199SOL    HW125496   5.994   2.660   0.280
 8199SOL    HW225497   5.908   2.617   0.411
 8200SOL     OW25498   6.182   4.310   0.176
 8200SOL    HW125499   6.217   4.320   0.270
 8200SOL    HW225500   6.259   4.313   0.112
 8201SOL     OW25501   5.637   0.546   5.228
 8201SOL    HW125502   5.615   0.641   5.247
 8201SOL    HW225503   5.704   0.541   5.154
 8202SOL     OW25504   0.892   5.841   1.759
 8202SOL    HW125505   0.825   5.839   1.684
 8202SOL    HW225506   0.969   5.899   1.733
 8203SOL     OW25507   1.522   2.972   0.503
 8203SOL    HW125508   1.589   3.041   0.529
 8203SOL    HW225509   1.493   2.988   0.408
 8204SOL     OW25510   1.483   3.369   0.437
 8204SOL    HW125511   1.554   3.299   0.445
 8204SOL    HW225512   1.448   3.391   0.528
 8205SOL     OW25513   0.141   3.643   5.949
 8205SOL    HW125514   0.131   3.580   5.873
 8205SOL    HW225515   0.057   3.697   5.960
 8206SOL     OW25516   3.320   0.866   1.299
 8206SOL    HW125517   3.374   0.931   1.244
 8206SOL    HW225518   3.299   0.785   1.244
 8207SOL     OW25519   4.105   3.715   4.316
 8207SOL    HW125520   4.101   3.779   4.393
 8207SOL    HW225521   4.074   3.624   4.347
 8208SOL     OW25522   2.631   0.132   6.753
 8208SOL    HW125523   2.611   0.067   6.680
 8208SOL    HW225524   2.719   0.110   6.795
 8209SOL     OW25525   5.921   2.210   3.870
 8209SOL    HW125526   5.857   2.286   3.879
 8209SOL    HW225527   5.968   2.196   3.957
 8210SOL     OW25528   2.087   2.700   6.235
 8210SOL    HW125529   2.154   2.740   6.173
 8210SOL    HW225530   2.042   2.772   6.288
 8211SOL     OW25531   4.272   4.568   1.069
 8211SOL    HW125532   4.238   4.504   1.138
 8211SOL    HW225533   4.364   4.541   1.041
 8212SOL     OW25534   2.064   2.999   3.045
 8212SOL    HW125535   2.061   3.071   3.115
 8212SOL    HW225536   1.973   2.962   3.031
 8213SOL     OW25537   6.308   5.008   0.532
 8213SOL    HW125538   6.338   5.083   0.591
 8213SOL    HW225539   6.209   5.016   0.516
 8214SOL     OW25540   4.891   3.603   3.110
 8214SOL    HW125541   4.927   3.625   3.019
 8214SOL    HW225542   4.852   3.685   3.151
 8215SOL     OW25543   3.777   5.232   1.938
 8215SOL    HW125544   3.820   5.258   1.851
 8215SOL    HW225545   3.749   5.136   1.935
 8216SOL     OW25546   5.510   3.539   3.897
 8216SOL    HW125547   5.430   3.523   3.839
 8216SOL    HW225548   5.579   3.589   3.845
 8217SOL     OW25549   2.264   5.789   0.488
 8217SOL    HW125550   2.232   5.822   0.577
 8217SOL    HW225551   2.336   5.721   0.502
 8218SOL     OW25552   4.979   2.161   6.574
 8218SOL    HW125553   4.970   2.126   6.481
 8218SOL    HW225554   5.053   2.227   6.579
 8219SOL     OW25555   5.092   1.950   0.199
 8219SOL    HW125556   5.141   1.924   0.282
 8219SOL    HW225557   5.081   1.870   0.140
 8220SOL     OW25558   3.992   3.576   1.605
 8220SOL    HW125559   3.938   3.527   1.537
 8220SOL    HW225560   3.931   3.631   1.662
 8221SOL     OW25561   5.985   4.063   3.574
 8221SOL    HW125562   5.991   3.979   3.628
 8221SOL    HW225563   5.929   4.130   3.623
 8222SOL     OW25564   6.429   0.839   3.155
 8222SOL    HW125565   6.331   0.846   3.138
 8222SOL    HW225566   6.477   0.832   3.067
 8223SOL     OW25567   0.369   5.089   6.681
 8223SOL    HW125568   0.381   5.008   6.738
 8223SOL    HW225569   0.319   5.159   6.733
 8224SOL     OW25570   0.862   3.881   2.321
 8224SOL    HW125571   0.868   3.792   2.365
 8224SOL    HW225572   0.791   3.936   2.365
 8225SOL     OW25573   4.975   1.352   1.435
 8225SOL    HW125574   5.040   1.413   1.391
 8225SOL    HW225575   4.912   1.315   1.366
 8226SOL     OW25576   3.845   0.333   6.908
 8226SOL    HW125577   3.939   0.364   6.899
 8226SOL    HW225578   3.844   0.235   6.927
 8227SOL     OW25579   6.519   4.152   3.353
 8227SOL    HW125580   6.523   4.134   3.452
 8227SOL    HW225581   6.441   4.105   3.314
 8228SOL     OW25582   0.212   1.437   3.944
 8228SOL    HW125583   0.166   1.462   4.029
 8228SOL    HW225584   0.157   1.370   3.894
 8229SOL     OW25585   5.400   5.684   0.649
 8229SOL    HW125586   5.356   5.682   0.559
 8229SOL    HW225587   5.372   5.604   0.702
 8230SOL     OW25588   5.189   6.892   2.867
 8230SOL    HW125589   5.190   6.981   2.914
 8230SOL    HW225590   5.108   6.887   2.808
 8231SOL     OW25591   3.894   5.562   1.284
 8231SOL    HW125592   3.879   5.488   1.349
 8231SOL    HW225593   3.982   5.605   1.302
 8232SOL     OW25594   2.737   1.642   0.098
 8232SOL    HW125595   2.674   1.580   0.144
 8232SOL    HW225596   2.688   1.725   0.069
 8233SOL     OW25597   0.544   5.576   5.973
 8233SOL    HW125598   0.585   5.516   6.042
 8233SOL    HW225599   0.585   5.558   5.884
 8234SOL     OW25600   2.521   3.263   6.743
 8234SOL    HW125601   2.609   3.303   6.719
 8234SOL    HW225602   2.480   3.220   6.662
 8235SOL     OW25603   4.718   2.476   6.344
 8235SOL    HW125604   4.806   2.514   6.317
 8235SOL    HW225605   4.694   2.400   6.283
 8236SOL     OW25606   6.109   2.767   1.130
 8236SOL    HW125607   6.045   2.837   1.162
 8236SOL    HW225608   6.144   2.715   1.208
 8237SOL     OW25609   3.911   6.433   5.826
 8237SOL    HW125610   3.816   6.459   5.840
 8237SOL    HW225611   3.920   6.333   5.834
 8238SOL     OW25612   1.058   0.898   6.374
 8238SOL    HW125613   1.115   0.865   6.449
 8238SOL    HW225614   1.046   0.824   6.307
 8239SOL     OW25615   5.762   1.212   0.057
 8239SOL    HW125616   5.781   1.280   0.127
 8239SOL    HW225617   5.664   1.191   0.055
 8240SOL     OW25618   3.673   3.360   3.190
 8240SOL    HW125619   3.618   3.331   3.269
 8240SOL    HW225620   3.770   3.343   3.209
 8241SOL     OW25621   4.790   6.069   1.723
 8241SOL    HW125622   4.770   6.107   1.814
 8241SOL    HW225623   4.831   5.979   1.733
 8242SOL     OW25624   1.369   4.108   5.240
 8242SOL    HW125625   1.369   4.071   5.333
 8242SOL    HW225626   1.291   4.069   5.190
 8243SOL     OW25627   0.150   3.173   4.646
 8243SOL    HW125628   0.137   3.083   4.686
 8243SOL    HW225629   0.237   3.212   4.678
 8244SOL     OW25630   2.495   5.275   5.415
 8244SOL    HW125631   2.465   5.184   5.447
 8244SOL    HW225632   2.592   5.272   5.393
 8245SOL     OW25633   4.459   3.691   1.274
 8245SOL    HW125634   4.470   3.603   1.228
 8245SOL    HW225635   4.382   3.687   1.337
 8246SOL     OW25636   5.359   3.547   5.051
 8246SOL    HW125637   5.370   3.450   5.029
 8246SOL    HW225638   5.275   3.560   5.103
 8247SOL     OW25639   1.020   6.472   6.972
 8247SOL    HW125640   0.972   6.415   0.015
 8247SOL    HW225641   1.083   6.532   7.020
 8248SOL     OW25642   0.174   4.043   3.311
 8248SOL    HW125643   0.266   4.066   3.343
 8248SOL    HW225644   0.144   4.111   3.244
 8249SOL     OW25645   1.010   5.321   3.052
 8249SOL    HW125646   0.993   5.227   3.024
 8249SOL    HW225647   1.040   5.374   2.972
 8250SOL     OW25648   3.251   3.467   2.253
 8250SOL    HW125649   3.277   3.371   2.250
 8250SOL    HW225650   3.204   3.486   2.339
 8251SOL     OW25651   5.901   0.932   4.673
 8251SOL    HW125652   5.996   0.902   4.669
 8251SOL    HW225653   5.848   0.887   4.601
 8252SOL     OW25654   1.000   3.607   4.306
 8252SOL    HW125655   1.012   3.663   4.224
 8252SOL    HW225656   0.911   3.628   4.348
 8253SOL     OW25657   2.997   3.575   5.710
 8253SOL    HW125658   2.931   3.509   5.746
 8253SOL    HW225659   3.018   3.553   5.615
 8254SOL     OW25660   4.881   5.553   3.029
 8254SOL    HW125661   4.932   5.476   3.067
 8254SOL    HW225662   4.939   5.635   3.029
 8255SOL     OW25663   3.931   4.844   3.674
 8255SOL    HW125664   3.832   4.846   3.688
 8255SOL    HW225665   3.951   4.848   3.576
 8256SOL     OW25666   5.743   2.390   3.603
 8256SOL    HW125667   5.806   2.420   3.674
 8256SOL    HW225668   5.659   2.356   3.646
 8257SOL     OW25669   6.227   4.703   3.894
 8257SOL    HW125670   6.183   4.618   3.866
 8257SOL    HW225671   6.290   4.734   3.822
 8258SOL     OW25672   5.395   1.911   6.951
 8258SOL    HW125673   5.356   1.822   6.930
 8258SOL    HW225674   5.454   1.940   6.876
 8259SOL     OW25675   4.768   1.146   0.911
 8259SOL    HW125676   4.746   1.050   0.924
 8259SOL    HW225677   4.698   1.188   0.852
 8260SOL     OW25678   3.414   5.882   6.766
 8260SOL    HW125679   3.512   5.901   6.765
 8260SOL    HW225680   3.363   5.968   6.755
 8261SOL     OW25681   4.904   1.218   1.654
 8261SOL    HW125682   4.908   1.254   1.561
 8261SOL    HW225683   4.992   1.233   1.700
 8262SOL     OW25684   6.608   2.232   1.542
 8262SOL    HW125685   6.634   2.248   1.638
 8262SOL    HW225686   6.673   2.277   1.482
 8263SOL     OW25687   5.238   1.576   0.804
 8263SOL    HW125688   5.140   1.593   0.792
 8263SOL    HW225689   5.267   1.613   0.892
 8264SOL     OW25690   1.674   4.378   1.294
 8264SOL    HW125691   1.587   4.410   1.256
 8264SOL    HW225692   1.718   4.317   1.229
 8265SOL     OW25693   1.770   0.430   2.718
 8265SOL    HW125694   1.681   0.473   2.702
 8265SOL    HW225695   1.756   0.338   2.755
 8266SOL     OW25696   3.436   0.580   3.151
 8266SOL    HW125697   3.401   0.486   3.148
 8266SOL    HW225698   3.430   0.615   3.244
 8267SOL     OW25699   6.809   3.894   0.693
 8267SOL    HW125700   6.890   3.895   0.752
 8267SOL    HW225701   6.739   3.955   0.731
 8268SOL     OW25702   3.106   5.570   6.659
 8268SOL    HW125703   3.176   5.641   6.648
 8268SOL    HW225704   3.020   5.613   6.687
 8269SOL     OW25705   6.276   2.617   0.460
 8269SOL    HW125706   6.180   2.643   0.446
 8269SOL    HW225707   6.280   2.531   0.510
 8270SOL     OW25708   2.578   6.162   4.388
 8270SOL    HW125709   2.494   6.187   4.437
 8270SOL    HW225710   2.599   6.066   4.406
 8271SOL     OW25711   6.664   2.266   3.147
 8271SOL    HW125712   6.676   2.279   3.245
 8271SOL    HW225713   6.754   2.254   3.104
 8272SOL     OW25714   3.489   1.267   4.183
 8272SOL    HW125715   3.424   1.284   4.257
 8272SOL    HW225716   3.553   1.344   4.177
 8273SOL     OW25717   1.988   6.563   2.026
 8273SOL    HW125718   1.939   6.643   2.061
 8273SOL    HW225719   1.954   6.480   2.070
 8274SOL     OW25720   5.364   4.012   3.655
 8274SOL    HW125721   5.313   3.939   3.700
 8274SOL    HW225722   5.362   4.094   3.711
 8275SOL     OW25723   5.276   2.220   0.293
 8275SOL    HW125724   5.250   2.299   0.238
 8275SOL    HW225725   5.340   2.163   0.241
 8276SOL     OW25726   0.410   1.540   2.663
 8276SOL    HW125727   0.315   1.573   2.665
 8276SOL    HW225728   0.412   1.444   2.689
 8277SOL     OW25729   0.161   1.598   6.944
 8277SOL    HW125730   0.201   1.519   6.991
 8277SOL    HW225731   0.154   1.674   7.008
 8278SOL     OW25732   1.340   2.828   0.842
 8278SOL    HW125733   1.390   2.746   0.813
 8278SOL    HW225734   1.309   2.878   0.761
 8279SOL     OW25735   0.502   6.149   3.710
 8279SOL    HW125736   0.536   6.241   3.693
 8279SOL    HW225737   0.417   6.135   3.660
 8280SOL     OW25738   3.717   2.401   6.008
 8280SOL    HW125739   3.659   2.478   5.981
 8280SOL    HW225740   3.679   2.358   6.090
 8281SOL     OW25741   4.808   5.391   2.519
 8281SOL    HW125742   4.811   5.292   2.532
 8281SOL    HW225743   4.880   5.433   2.574
 8282SOL     OW25744   6.207   2.679   6.087
 8282SOL    HW125745   6.252   2.609   6.031
 8282SOL    HW225746   6.116   2.696   6.051
 8283SOL     OW25747   1.790   2.667   6.039
 8283SOL    HW125748   1.740   2.667   5.952
 8283SOL    HW225749   1.883   2.635   6.024
 8284SOL     OW25750   6.296   4.467   1.790
 8284SOL    HW125751   6.369   4.459   1.723
 8284SOL    HW225752   6.237   4.386   1.786
 8285SOL     OW25753   4.069   3.374   3.653
 8285SOL    HW125754   4.168   3.371   3.664
 8285SOL    HW225755   4.025   3.344   3.737
 8286SOL     OW25756   0.555   2.369   6.827
 8286SOL    HW125757   0.583   2.273   6.818
 8286SOL    HW225758   0.455   2.375   6.825
 8287SOL     OW25759   1.543   6.518   4.047
 8287SOL    HW125760   1.604   6.443   4.070
 8287SOL    HW225761   1.497   6.498   3.961
 8288SOL     OW25762   2.785   1.708   3.236
 8288SOL    HW125763   2.777   1.806   3.214
 8288SOL    HW225764   2.862   1.695   3.298
 8289SOL     OW25765   0.318   6.012   6.850
 8289SOL    HW125766   0.238   6.062   6.882
 8289SOL    HW225767   0.291   5.949   6.777
 8290SOL     OW25768   5.938   2.363   0.944
 8290SOL    HW125769   5.951   2.278   0.894
 8290SOL    HW225770   6.007   2.370   1.016
 8291SOL     OW25771   4.120   0.903   0.497
 8291SOL    HW125772   4.198   0.840   0.502
 8291SOL    HW225773   4.051   0.876   0.565
 8292SOL     OW25774   3.067   0.420   6.099
 8292SOL    HW125775   3.130   0.497   6.090
 8292SOL    HW225776   2.980   0.442   6.054
 8293SOL     OW25777   5.805   5.144   5.014
 8293SOL    HW125778   5.870   5.099   4.953
 8293SOL    HW225779   5.716   5.150   4.969
 8294SOL     OW25780   6.287   3.238   6.801
 8294SOL    HW125781   6.346   3.196   6.732
 8294SOL    HW225782   6.298   3.189   6.888
 8295SOL     OW25783   5.123   3.463   6.820
 8295SOL    HW125784   5.029   3.443   6.847
 8295SOL    HW225785   5.184   3.444   6.897
 8296SOL     OW25786   1.171   5.037   5.897
 8296SOL    HW125787   1.137   5.040   5.803
 8296SOL    HW225788   1.215   5.124   5.920
 8297SOL     OW25789   1.594   2.827   4.194
 8297SOL    HW125790   1.618   2.890   4.120
 8297SOL    HW225791   1.514   2.862   4.243
 8298SOL     OW25792   4.639   1.569   1.832
 8298SOL    HW125793   4.670   1.644   1.774
 8298SOL    HW225794   4.678   1.483   1.800
 8299SOL     OW25795   6.111   2.350   1.642
 8299SOL    HW125796   6.135   2.441   1.674
 8299SOL    HW225797   6.175   2.322   1.570
 8300SOL     OW25798   1.452   5.562   3.229
 8300SOL    HW125799   1.444   5.518   3.318
 8300SOL    HW225800   1.375   5.535   3.171
 8301SOL     OW25801   2.574   2.014   6.685
 8301SOL    HW125802   2.542   2.064   6.766
 8301SOL    HW225803   2.552   2.066   6.603
 8302SOL     OW25804   5.684   5.638   5.282
 8302SOL    HW125805   5.694   5.550   5.235
 8302SOL    HW225806   5.766   5.694   5.266
 8303SOL     OW25807   0.018   0.220   6.480
 8303SOL    HW125808   0.074   0.138   6.471
 8303SOL    HW225809   6.967   0.204   6.546
 8304SOL     OW25810   0.269   3.599   0.739
 8304SOL    HW125811   0.288   3.538   0.661
 8304SOL    HW225812   0.344   3.664   0.749
 8305SOL     OW25813   3.503   5.461   3.088
 8305SOL    HW125814   3.562   5.387   3.118
 8305SOL    HW225815   3.520   5.542   3.142
 8306SOL     OW25816   1.786   3.107   4.357
 8306SOL    HW125817   1.782   3.019   4.405
 8306SOL    HW225818   1.868   3.110   4.300
 8307SOL     OW25819   4.052   5.750   0.953
 8307SOL    HW125820   4.118   5.705   1.012
 8307SOL    HW225821   4.095   5.827   0.907
 8308SOL     OW25822   3.052   0.351   2.273
 8308SOL    HW125823   3.136   0.310   2.309
 8308SOL    HW225824   2.986   0.278   2.253
 8309SOL     OW25825   5.818   6.918   2.264
 8309SOL    HW125826   5.841   7.015   2.266
 8309SOL    HW225827   5.762   6.898   2.183
 8310SOL     OW25828   6.443   4.775   6.674
 8310SOL    HW125829   6.374   4.705   6.654
 8310SOL    HW225830   6.519   4.734   6.723
 8311SOL     OW25831   5.970   0.285   6.236
 8311SOL    HW125832   6.020   0.207   6.200
 8311SOL    HW225833   6.026   0.334   6.302
 8312SOL     OW25834   4.947   6.261   1.549
 8312SOL    HW125835   4.883   6.192   1.582
 8312SOL    HW225836   4.898   6.347   1.533
 8313SOL     OW25837   3.688   1.308   2.588
 8313SOL    HW125838   3.735   1.391   2.617
 8313SOL    HW225839   3.608   1.294   2.646
 8314SOL     OW25840   0.145   6.360   3.180
 8314SOL    HW125841   0.146   6.390   3.084
 8314SOL    HW225842   0.138   6.440   3.240
 8315SOL     OW25843   5.037   4.529   6.292
 8315SOL    HW125844   4.942   4.501   6.276
 8315SOL    HW225845   5.048   4.625   6.267
 8316SOL     OW25846   2.866   5.677   6.478
 8316SOL    HW125847   2.836   5.772   6.469
 8316SOL    HW225848   2.843   5.643   6.569
 8317SOL     OW25849   1.975   4.275   1.616
 8317SOL    HW125850   1.940   4.182   1.607
 8317SOL    HW225851   2.071   4.272   1.645
 8318SOL     OW25852   3.127   0.993   5.877
 8318SOL    HW125853   3.043   1.009   5.825
 8318SOL    HW225854   3.170   0.909   5.846
 8319SOL     OW25855   3.365   0.599   5.617
 8319SOL    HW125856   3.431   0.649   5.561
 8319SOL    HW225857   3.413   0.525   5.665
 8320SOL     OW25858   4.473   4.982   1.094
 8320SOL    HW125859   4.431   5.071   1.075
 8320SOL    HW225860   4.542   4.992   1.166
 8321SOL     OW25861   6.787   1.002   0.863
 8321SOL    HW125862   6.718   1.055   0.913
 8321SOL    HW225863   6.830   0.937   0.925
 8322SOL     OW25864   5.650   6.988   6.897
 8322SOL    HW125865   5.570   7.007   6.954
 8322SOL    HW225866   5.694   6.904   6.929
 8323SOL     OW25867   1.875   1.116   1.709
 8323SOL    HW125868   1.864   1.070   1.797
 8323SOL    HW225869   1.969   1.148   1.699
 8324SOL     OW25870   6.514   1.278   2.403
 8324SOL    HW125871   6.609   1.286   2.433
 8324SOL    HW225872   6.510   1.285   2.303
 8325SOL     OW25873   4.049   3.730   4.872
 8325SOL    HW125874   4.073   3.643   4.830
 8325SOL    HW225875   3.964   3.765   4.831
 8326SOL     OW25876   4.238   2.765   6.510
 8326SOL    HW125877   4.187   2.763   6.424
 8326SOL    HW225878   4.186   2.818   6.578
 8327SOL     OW25879   5.432   2.232   6.389
 8327SOL    HW125880   5.349   2.177   6.386
 8327SOL    HW225881   5.424   2.308   6.325
 8328SOL     OW25882   2.346   2.810   4.120
 8328SOL    HW125883   2.373   2.715   4.108
 8328SOL    HW225884   2.315   2.824   4.214
 8329SOL     OW25885   0.637   2.314   4.869
 8329SOL    HW125886   0.732   2.335   4.891
 8329SOL    HW225887   0.602   2.244   4.932
 8330SOL     OW25888   2.366   6.760   0.752
 8330SOL    HW125889   2.304   6.824   0.798
 8330SOL    HW225890   2.460   6.789   0.765
 8331SOL     OW25891   3.004   6.860   1.100
 8331SOL    HW125892   2.941   6.852   1.023
 8331SOL    HW225893   3.066   6.937   1.085
 8332SOL     OW25894   5.066   6.320   3.698
 8332SOL    HW125895   5.089   6.224   3.707
 8332SOL    HW225896   5.146   6.371   3.664
 8333SOL     OW25897   1.566   5.014   5.806
 8333SOL    HW125898   1.579   5.015   5.905
 8333SOL    HW225899   1.573   4.920   5.772
 8334SOL     OW25900   6.386   6.938   4.333
 8334SOL    HW125901   6.390   0.003   4.284
 8334SOL    HW225902   6.411   6.952   4.428
 8335SOL     OW25903   6.274   6.238   5.519
 8335SOL    HW125904   6.216   6.189   5.454
 8335SOL    HW225905   6.219   6.304   5.570
 8336SOL     OW25906   1.060   1.838   3.113
 8336SOL    HW125907   0.997   1.822   3.037
 8336SOL    HW225908   1.132   1.901   3.084
 8337SOL     OW25909   0.446   6.446   2.355
 8337SOL    HW125910   0.382   6.387   2.403
 8337SOL    HW225911   0.539   6.412   2.368
 8338SOL     OW25912   1.830   4.788   0.857
 8338SOL    HW125913   1.732   4.774   0.871
 8338SOL    HW225914   1.849   4.798   0.760
 8339SOL     OW25915   5.804   0.710   3.188
 8339SOL    HW125916   5.757   0.656   3.257
 8339SOL    HW225917   5.755   0.796   3.173
 8340SOL     OW25918   4.732   3.755   1.507
 8340SOL    HW125919   4.647   3.775   1.555
 8340SOL    HW225920   4.730   3.661   1.472
 8341SOL     OW25921   2.449   7.008   0.833
 8341SOL    HW125922   2.374   0.049   0.817
 8341SOL    HW225923   2.537   0.032   0.823
 8342SOL     OW25924   5.262   6.919   1.221
 8342SOL    HW125925   5.280   6.888   1.314
 8342SOL    HW225926   5.166   6.902   1.198
 8343SOL     OW25927   0.516   5.061   5.766
 8343SOL    HW125928   0.509   5.158   5.791
 8343SOL    HW225929   0.612   5.037   5.751
 8344SOL     OW25930   4.055   0.076   5.015
 8344SOL    HW125931   4.071   0.011   4.941
 8344SOL    HW225932   3.972   0.049   5.065
 8345SOL     OW25933   6.255   1.218   3.173
 8345SOL    HW125934   6.214   1.309   3.180
 8345SOL    HW225935   6.306   1.211   3.087
 8346SOL     OW25936   3.617   5.461   1.955
 8346SOL    HW125937   3.681   5.392   1.920
 8346SOL    HW225938   3.668   5.541   1.985
 8347SOL     OW25939   3.372   5.105   4.388
 8347SOL    HW125940   3.357   5.008   4.406
 8347SOL    HW225941   3.292   5.157   4.418
 8348SOL     OW25942   1.781   0.585   0.608
 8348SOL    HW125943   1.775   0.675   0.650
 8348SOL    HW225944   1.707   0.573   0.542
 8349SOL     OW25945   6.247   5.578   1.742
 8349SOL    HW125946   6.192   5.510   1.790
 8349SOL    HW225947   6.204   5.599   1.654
 8350SOL     OW25948   6.633   0.542   4.881
 8350SOL    HW125949   6.703   0.592   4.933
 8350SOL    HW225950   6.594   0.602   4.812
 8351SOL     OW25951   3.001   6.297   1.969
 8351SOL    HW125952   2.973   6.271   1.877
 8351SOL    HW225953   3.080   6.243   1.997
 8352SOL     OW25954   6.563   6.120   1.890
 8352SOL    HW125955   6.526   6.027   1.886
 8352SOL    HW225956   6.496   6.181   1.931
 8353SOL     OW25957   1.611   3.432   2.017
 8353SOL    HW125958   1.623   3.496   2.093
 8353SOL    HW225959   1.602   3.483   1.931
 8354SOL     OW25960   2.585   0.587   0.255
 8354SOL    HW125961   2.584   0.495   0.292
 8354SOL    HW225962   2.588   0.583   0.155
 8355SOL     OW25963   2.999   1.114   0.549
 8355SOL    HW125964   2.962   1.103   0.457
 8355SOL    HW225965   3.047   1.201   0.556
 8356SOL     OW25966   2.727   5.343   0.664
 8356SOL    HW125967   2.812   5.381   0.700
 8356SOL    HW225968   2.710   5.253   0.704
 8357SOL     OW25969   4.608   6.218   3.318
 8357SOL    HW125970   4.543   6.268   3.261
 8357SOL    HW225971   4.560   6.144   3.365
 8358SOL     OW25972   2.912   2.217   5.140
 8358SOL    HW125973   2.871   2.177   5.058
 8358SOL    HW225974   3.004   2.248   5.120
 8359SOL     OW25975   4.189   4.717   3.721
 8359SOL    HW125976   4.212   4.688   3.629
 8359SOL    HW225977   4.095   4.751   3.723
 8360SOL     OW25978   4.099   0.384   2.714
 8360SOL    HW125979   4.101   0.324   2.794
 8360SOL    HW225980   4.142   0.338   2.637
 8361SOL     OW25981   1.315   0.402   2.796
 8361SOL    HW125982   1.377   0.437   2.866
 8361SOL    HW225983   1.356   0.323   2.752
 8362SOL     OW25984   1.988   3.074   0.462
 8362SOL    HW125985   1.928   2.995   0.477
 8362SOL    HW225986   2.031   3.100   0.548
 8363SOL     OW25987   0.615   3.406   1.145
 8363SOL    HW125988   0.688   3.378   1.208
 8363SOL    HW225989   0.532   3.425   1.197
 8364SOL     OW25990   6.682   4.346   5.093
 8364SOL    HW125991   6.618   4.314   5.023
 8364SOL    HW225992   6.682   4.446   5.095
 8365SOL     OW25993   1.172   3.886   6.005
 8365SOL    HW125994   1.098   3.887   6.072
 8365SOL    HW225995   1.197   3.791   5.984
 8366SOL     OW25996   2.213   6.980   2.768
 8366SOL    HW125997   2.287   0.005   2.721
 8366SOL    HW225998   2.241   6.957   2.861
 8367SOL     OW25999   5.071   5.792   3.609
 8367SOL    HW126000   5.116   5.742   3.683
 8367SOL    HW226001   4.977   5.759   3.598
 8368SOL     OW26002   3.474   5.727   6.290
 8368SOL    HW126003   3.480   5.815   6.244
 8368SOL    HW226004   3.492   5.653   6.225
 8369SOL     OW26005   2.538   1.592   1.543
 8369SOL    HW126006   2.440   1.580   1.532
 8369SOL    HW226007   2.571   1.661   1.478
 8370SOL     OW26008   1.719   1.354   0.212
 8370SOL    HW126009   1.622   1.330   0.210
 8370SOL    HW226010   1.754   1.358   0.119
 8371SOL     OW26011   1.910   2.356   0.187
 8371SOL    HW126012   1.894   2.346   0.285
 8371SOL    HW226013   1.920   2.453   0.165
 8372SOL     OW26014   6.670   0.603   1.173
 8372SOL    HW126015   6.643   0.507   1.180
 8372SOL    HW226016   6.590   0.661   1.186
 8373SOL     OW26017   1.395   6.443   4.360
 8373SOL    HW126018   1.309   6.419   4.315
 8373SOL    HW226019   1.430   6.363   4.409
 8374SOL     OW26020   6.685   0.729   5.816
 8374SOL    HW126021   6.776   0.702   5.846
 8374SOL    HW226022   6.629   0.648   5.800
 8375SOL     OW26023   4.059   0.577   6.373
 8375SOL    HW126024   4.083   0.674   6.377
 8375SOL    HW226025   4.119   0.526   6.434
 8376SOL     OW26026   4.354   0.041   4.401
 8376SOL    HW126027   4.351   0.126   4.348
 8376SOL    HW226028   4.430   7.007   4.368
 8377SOL     OW26029   5.707   5.144   1.195
 8377SOL    HW126030   5.727   5.185   1.283
 8377SOL    HW226031   5.775   5.173   1.128
 8378SOL     OW26032   4.828   3.087   3.832
 8378SOL    HW126033   4.813   3.168   3.775
 8378SOL    HW226034   4.888   3.111   3.908
 8379SOL     OW26035   5.171   2.768   1.891
 8379SOL    HW126036   5.172   2.716   1.976
 8379SOL    HW226037   5.257   2.819   1.883
 8380SOL     OW26038   5.452   1.519   3.497
 8380SOL    HW126039   5.486   1.433   3.535
 8380SOL    HW226040   5.524   1.560   3.440
 8381SOL     OW26041   1.903   5.334   4.185
 8381SOL    HW126042   1.907   5.400   4.110
 8381SOL    HW226043   1.808   5.308   4.202
 8382SOL     OW26044   0.747   4.718   2.246
 8382SOL    HW126045   0.744   4.695   2.149
 8382SOL    HW226046   0.744   4.633   2.300
 8383SOL     OW26047   3.385   1.017   5.368
 8383SOL    HW126048   3.458   1.078   5.398
 8383SOL    HW226049   3.297   1.050   5.401
 8384SOL     OW26050   0.903   6.613   1.706
 8384SOL    HW126051   0.826   6.563   1.665
 8384SOL    HW226052   0.953   6.552   1.767
 8385SOL     OW26053   4.624   2.094   1.123
 8385SOL    HW126054   4.556   2.160   1.093
 8385SOL    HW226055   4.656   2.119   1.214
 8386SOL     OW26056   0.592   3.652   2.600
 8386SOL    HW126057   0.684   3.613   2.602
 8386SOL    HW226058   0.572   3.684   2.507
 8387SOL     OW26059   1.190   2.148   1.618
 8387SOL    HW126060   1.240   2.141   1.704
 8387SOL    HW226061   1.096   2.116   1.631
 8388SOL     OW26062   0.974   6.515   2.766
 8388SOL    HW126063   1.043   6.579   2.799
 8388SOL    HW226064   0.940   6.460   2.843
 8389SOL     OW26065   6.197   2.946   3.277
 8389SOL    HW126066   6.186   2.986   3.186
 8389SOL    HW226067   6.109   2.945   3.324
 8390SOL     OW26068   5.810   1.845   6.644
 8390SOL    HW126069   5.860   1.930   6.628
 8390SOL    HW226070   5.852   1.771   6.592
 8391SOL     OW26071   6.763   6.854   1.158
 8391SOL    HW126072   6.803   6.941   1.187
 8391SOL    HW226073   6.789   6.782   1.223
 8392SOL     OW26074   3.464   3.131   5.340
 8392SOL    HW126075   3.556   3.169   5.341
 8392SOL    HW226076   3.462   3.051   5.279
 8393SOL     OW26077   5.451   6.727   1.138
 8393SOL    HW126078   5.382   6.791   1.171
 8393SOL    HW226079   5.491   6.679   1.216
 8394SOL     OW26080   6.037   2.722   2.103
 8394SOL    HW126081   6.037   2.623   2.092
 8394SOL    HW226082   6.097   2.747   2.179
 8395SOL     OW26083   2.524   0.912   4.948
 8395SOL    HW126084   2.490   0.919   4.854
 8395SOL    HW226085   2.454   0.944   5.012
 8396SOL     OW26086   4.987   5.357   4.198
 8396SOL    HW126087   4.906   5.325   4.246
 8396SOL    HW226088   5.049   5.280   4.183
 8397SOL     OW26089   6.619   6.873   2.822
 8397SOL    HW126090   6.709   6.830   2.823
 8397SOL    HW226091   6.612   6.934   2.742
 8398SOL     OW26092   6.027   2.029   6.510
 8398SOL    HW126093   6.111   1.975   6.507
 8398SOL    HW226094   5.967   2.002   6.434
 8399SOL     OW26095   0.328   4.421   2.233
 8399SOL    HW126096   0.304   4.518   2.223
 8399SOL    HW226097   0.346   4.381   2.143
 8400SOL     OW26098   1.216   1.113   5.005
 8400SOL    HW126099   1.299   1.163   4.982
 8400SOL    HW226100   1.149   1.176   5.045
 8401SOL     OW26101   2.102   0.226   5.610
 8401SOL    HW126102   2.080   0.161   5.683
 8401SOL    HW226103   2.112   0.177   5.524
 8402SOL     OW26104   3.275   0.432   6.680
 8402SOL    HW126105   3.274   0.346   6.630
 8402SOL    HW226106   3.356   0.485   6.655
 8403SOL     OW26107   5.457   4.744   5.034
 8403SOL    HW126108   5.437   4.842   5.031
 8403SOL    HW226109   5.521   4.721   4.961
 8404SOL     OW26110   1.082   1.506   0.049
 8404SOL    HW126111   1.071   1.575   0.120
 8404SOL    HW226112   0.992   1.482   0.013
 8405SOL     OW26113   4.054   6.886   5.462
 8405SOL    HW126114   4.096   6.899   5.372
 8405SOL    HW226115   3.960   6.853   5.450
 8406SOL     OW26116   5.414   0.228   5.997
 8406SOL    HW126117   5.405   0.244   6.095
 8406SOL    HW226118   5.384   0.309   5.947
 8407SOL     OW26119   4.285   0.487   4.379
 8407SOL    HW126120   4.322   0.529   4.461
 8407SOL    HW226121   4.200   0.532   4.353
 8408SOL     OW26122   4.016   1.951   1.332
 8408SOL    HW126123   3.986   1.919   1.422
 8408SOL    HW226124   4.053   1.875   1.280
 8409SOL     OW26125   4.488   2.411   1.904
 8409SOL    HW126126   4.452   2.410   1.997
 8409SOL    HW226127   4.520   2.319   1.879
 8410SOL     OW26128   6.963   1.448   1.301
 8410SOL    HW126129   6.897   1.513   1.264
 8410SOL    HW226130   6.952   1.359   1.256
 8411SOL     OW26131   1.096   6.252   1.067
 8411SOL    HW126132   1.160   6.182   1.034
 8411SOL    HW226133   1.125   6.285   1.156
 8412SOL     OW26134   2.671   2.898   6.781
 8412SOL    HW126135   2.676   2.954   6.864
 8412SOL    HW226136   2.720   2.943   6.707
 8413SOL     OW26137   3.533   5.607   4.635
 8413SOL    HW126138   3.511   5.703   4.650
 8413SOL    HW226139   3.622   5.600   4.589
 8414SOL     OW26140   1.819   6.853   0.613
 8414SOL    HW126141   1.728   6.894   0.613
 8414SOL    HW226142   1.835   6.806   0.700
 8415SOL     OW26143   3.164   1.604   6.165
 8415SOL    HW126144   3.066   1.596   6.147
 8415SOL    HW226145   3.208   1.516   6.148
 8416SOL     OW26146   0.474   2.328   5.266
 8416SOL    HW126147   0.550   2.375   5.221
 8416SOL    HW226148   0.409   2.396   5.299
 8417SOL     OW26149   1.781   3.487   6.080
 8417SOL    HW126150   1.870   3.457   6.114
 8417SOL    HW226151   1.774   3.466   5.982
 8418SOL     OW26152   0.569   5.876   2.440
 8418SOL    HW126153   0.620   5.863   2.525
 8418SOL    HW226154   0.521   5.791   2.417
 8419SOL     OW26155   3.677   1.720   4.511
 8419SOL    HW126156   3.590   1.746   4.552
 8419SOL    HW226157   3.749   1.725   4.581
 8420SOL     OW26158   3.519   1.033   2.130
 8420SOL    HW126159   3.599   1.004   2.077
 8420SOL    HW226160   3.539   1.117   2.179
 8421SOL     OW26161   4.825   6.770   6.596
 8421SOL    HW126162   4.768   6.831   6.541
 8421SOL    HW226163   4.914   6.759   6.552
 8422SOL     OW26164   5.401   2.341   3.963
 8422SOL    HW126165   5.338   2.406   3.921
 8422SOL    HW226166   5.349   2.261   3.994
 8423SOL     OW26167   6.350   5.839   0.276
 8423SOL    HW126168   6.318   5.745   0.267
 8423SOL    HW226169   6.391   5.868   0.189
 8424SOL     OW26170   3.565   0.650   5.242
 8424SOL    HW126171   3.638   0.701   5.197
 8424SOL    HW226172   3.567   0.667   5.341
 8425SOL     OW26173   3.758   3.524   2.221
 8425SOL    HW126174   3.725   3.501   2.313
 8425SOL    HW226175   3.711   3.605   2.188
 8426SOL     OW26176   3.579   3.403   1.753
 8426SOL    HW126177   3.481   3.382   1.751
 8426SOL    HW226178   3.593   3.491   1.798
 8427SOL     OW26179   3.926   3.337   3.249
 8427SOL    HW126180   4.012   3.367   3.206
 8427SOL    HW226181   3.947   3.275   3.325
 8428SOL     OW26182   5.799   0.388   2.176
 8428SOL    HW126183   5.785   0.385   2.077
 8428SOL    HW226184   5.795   0.483   2.207
 8429SOL     OW26185   2.935   6.083   5.484
 8429SOL    HW126186   3.030   6.114   5.477
 8429SOL    HW226187   2.933   5.988   5.513
 8430SOL     OW26188   4.937   6.474   5.181
 8430SOL    HW126189   4.954   6.572   5.182
 8430SOL    HW226190   4.865   6.452   5.114
 8431SOL     OW26191   2.221   3.298   5.951
 8431SOL    HW126192   2.220   3.301   5.851
 8431SOL    HW226193   2.221   3.391   5.987
 8432SOL     OW26194   6.445   5.421   5.923
 8432SOL    HW126195   6.410   5.364   5.998
 8432SOL    HW226196   6.393   5.506   5.919
 8433SOL     OW26197   5.156   2.234   1.239
 8433SOL    HW126198   5.084   2.167   1.221
 8433SOL    HW226199   5.114   2.322   1.262
 8434SOL     OW26200   2.729   6.189   5.080
 8434SOL    HW126201   2.794   6.218   5.151
 8434SOL    HW226202   2.662   6.126   5.120
 8435SOL     OW26203   6.418   1.534   3.219
 8435SOL    HW126204   6.491   1.525   3.152
 8435SOL    HW226205   6.330   1.524   3.173
 8436SOL     OW26206   1.891   5.828   2.337
 8436SOL    HW126207   1.821   5.760   2.356
 8436SOL    HW226208   1.979   5.797   2.373
 8437SOL     OW26209   1.478   6.043   0.769
 8437SOL    HW126210   1.533   6.010   0.847
 8437SOL    HW226211   1.418   5.969   0.738
 8438SOL     OW26212   1.210   4.166   2.684
 8438SOL    HW126213   1.187   4.152   2.588
 8438SOL    HW226214   1.247   4.081   2.722
 8439SOL     OW26215   6.217   4.474   2.273
 8439SOL    HW126216   6.214   4.565   2.313
 8439SOL    HW226217   6.245   4.408   2.344
 8440SOL     OW26218   1.852   2.027   2.435
 8440SOL    HW126219   1.881   1.945   2.387
 8440SOL    HW226220   1.921   2.099   2.424
 8441SOL     OW26221   6.727   2.277   5.976
 8441SOL    HW126222   6.666   2.268   6.055
 8441SOL    HW226223   6.688   2.343   5.912
 8442SOL     OW26224   3.910   2.444   0.157
 8442SOL    HW126225   4.009   2.433   0.148
 8442SOL    HW226226   3.865   2.356   0.138
 8443SOL     OW26227   2.071   4.347   2.780
 8443SOL    HW126228   2.147   4.281   2.784
 8443SOL    HW226229   2.003   4.323   2.850
 8444SOL     OW26230   5.597   5.534   4.699
 8444SOL    HW126231   5.600   5.573   4.606
 8444SOL    HW226232   5.530   5.460   4.701
 8445SOL     OW26233   4.616   6.639   6.836
 8445SOL    HW126234   4.630   6.710   6.905
 8445SOL    HW226235   4.704   6.612   6.796
 8446SOL     OW26236   6.665   5.858   4.651
 8446SOL    HW126237   6.625   5.853   4.560
 8446SOL    HW226238   6.705   5.770   4.676
 8447SOL     OW26239   3.796   1.491   4.098
 8447SOL    HW126240   3.786   1.570   4.159
 8447SOL    HW226241   3.892   1.480   4.072
 8448SOL     OW26242   3.511   5.847   3.013
 8448SOL    HW126243   3.418   5.864   3.044
 8448SOL    HW226244   3.515   5.856   2.913
 8449SOL     OW26245   1.720   2.346   3.936
 8449SOL    HW126246   1.796   2.410   3.929
 8449SOL    HW226247   1.634   2.397   3.937
 8450SOL     OW26248   6.768   1.084   0.465
 8450SOL    HW126249   6.761   1.160   0.530
 8450SOL    HW226250   6.854   1.036   0.478
 8451SOL     OW26251   3.884   2.633   1.423
 8451SOL    HW126252   3.905   2.730   1.433
 8451SOL    HW226253   3.887   2.608   1.326
 8452SOL     OW26254   5.022   1.376   5.617
 8452SOL    HW126255   5.113   1.405   5.646
 8452SOL    HW226256   4.974   1.454   5.576
 8453SOL     OW26257   6.822   0.428   0.007
 8453SOL    HW126258   6.780   0.507   0.051
 8453SOL    HW226259   6.782   0.415   6.939
 8454SOL     OW26260   6.155   5.921   6.454
 8454SOL    HW126261   6.248   5.911   6.487
 8454SOL    HW226262   6.119   6.010   6.480
 8455SOL     OW26263   6.550   0.989   2.467
 8455SOL    HW126264   6.517   1.073   2.423
 8455SOL    HW226265   6.485   0.915   2.449
 8456SOL     OW26266   6.949   0.620   2.056
 8456SOL    HW126267   0.022   0.617   2.025
 8456SOL    HW226268   6.941   0.571   2.143
 8457SOL     OW26269   0.062   0.246   5.221
 8457SOL    HW126270   0.037   0.153   5.198
 8457SOL    HW226271   0.123   0.246   5.300
 8458SOL     OW26272   1.273   6.672   6.965
 8458SOL    HW126273   1.227   6.669   6.876
 8458SOL    HW226274   1.291   6.767   6.989
 8459SOL     OW26275   1.353   5.917   3.038
 8459SOL    HW126276   1.436   5.893   3.088
 8459SOL    HW226277   1.277   5.860   3.070
 8460SOL     OW26278   4.020   3.905   2.994
 8460SOL    HW126279   4.104   3.907   2.939
 8460SOL    HW226280   4.021   3.824   3.052
 8461SOL     OW26281   6.039   3.383   3.624
 8461SOL    HW126282   5.977   3.442   3.676
 8461SOL    HW226283   6.047   3.295   3.669
 8462SOL     OW26284   2.893   2.595   1.666
 8462SOL    HW126285   2.913   2.522   1.732
 8462SOL    HW226286   2.794   2.606   1.659
 8463SOL     OW26287   6.115   0.520   1.824
 8463SOL    HW126288   6.209   0.555   1.820
 8463SOL    HW226289   6.089   0.505   1.919
 8464SOL     OW26290   6.726   1.110   4.443
 8464SOL    HW126291   6.658   1.136   4.511
 8464SOL    HW226292   6.811   1.084   4.490
 8465SOL     OW26293   1.617   1.838   0.216
 8465SOL    HW126294   1.545   1.798   0.159
 8465SOL    HW226295   1.691   1.771   0.228
 8466SOL     OW26296   0.772   6.972   4.319
 8466SOL    HW126297   0.691   6.919   4.295
 8466SOL    HW226298   0.751   0.047   4.313
 8467SOL     OW26299   4.384   5.439   0.516
 8467SOL    HW126300   4.403   5.523   0.466
 8467SOL    HW226301   4.430   5.362   0.472
 8468SOL     OW26302   3.427   2.646   0.389
 8468SOL    HW126303   3.401   2.705   0.313
 8468SOL    HW226304   3.520   2.611   0.374
 8469SOL     OW26305   4.179   2.352   5.774
 8469SOL    HW126306   4.094   2.311   5.807
 8469SOL    HW226307   4.255   2.324   5.832
 8470SOL     OW26308   1.901   2.809   6.889
 8470SOL    HW126309   1.828   2.869   6.920
 8470SOL    HW226310   1.980   2.818   6.949
 8471SOL     OW26311   4.479   1.831   4.799
 8471SOL    HW126312   4.485   1.800   4.704
 8471SOL    HW226313   4.415   1.908   4.805
 8472SOL     OW26314   1.276   6.596   2.769
 8472SOL    HW126315   1.258   6.625   2.675
 8472SOL    HW226316   1.355   6.534   2.771
 8473SOL     OW26317   6.544   5.924   6.552
 8473SOL    HW126318   6.502   6.009   6.585
 8473SOL    HW226319   6.565   5.933   6.455
 8474SOL     OW26320   3.866   5.843   0.379
 8474SOL    HW126321   3.844   5.913   0.448
 8474SOL    HW226322   3.935   5.879   0.317
 8475SOL     OW26323   4.711   2.264   2.946
 8475SOL    HW126324   4.708   2.217   3.034
 8475SOL    HW226325   4.619   2.291   2.919
 8476SOL     OW26326   4.455   0.536   2.738
 8476SOL    HW126327   4.468   0.611   2.803
 8476SOL    HW226328   4.395   0.566   2.664
 8477SOL     OW26329   2.888   0.196   3.162
 8477SOL    HW126330   2.933   0.136   3.096
 8477SOL    HW226331   2.851   0.276   3.116
 8478SOL     OW26332   1.524   0.453   5.942
 8478SOL    HW126333   1.515   0.366   5.990
 8478SOL    HW226334   1.564   0.521   6.004
 8479SOL     OW26335   5.409   0.795   2.669
 8479SOL    HW126336   5.412   0.863   2.742
 8479SOL    HW226337   5.315   0.780   2.640
 8480SOL     OW26338   1.921   1.456   0.991
 8480SOL    HW126339   2.001   1.426   0.940
 8480SOL    HW226340   1.950   1.500   1.076
 8481SOL     OW26341   4.283   0.367   5.811
 8481SOL    HW126342   4.369   0.334   5.774
 8481SOL    HW226343   4.236   0.293   5.859
 8482SOL     OW26344   0.268   0.270   1.606
 8482SOL    HW126345   0.214   0.350   1.634
 8482SOL    HW226346   0.354   0.301   1.566
 8483SOL     OW26347   5.493   6.278   1.766
 8483SOL    HW126348   5.426   6.239   1.702
 8483SOL    HW226349   5.536   6.358   1.725
 8484SOL     OW26350   6.730   4.680   5.484
 8484SOL    HW126351   6.687   4.620   5.417
 8484SOL    HW226352   6.806   4.631   5.529
 8485SOL     OW26353   2.046   3.474   6.326
 8485SOL    HW126354   1.981   3.549   6.313
 8485SOL    HW226355   2.034   3.435   6.417
 8486SOL     OW26356   4.310   0.738   2.623
 8486SOL    HW126357   4.376   0.735   2.548
 8486SOL    HW226358   4.226   0.689   2.596
 8487SOL     OW26359   4.515   0.913   0.745
 8487SOL    HW126360   4.455   0.991   0.728
 8487SOL    HW226361   4.565   0.891   0.661
 8488SOL     OW26362   5.843   3.623   4.950
 8488SOL    HW126363   5.894   3.706   4.927
 8488SOL    HW226364   5.761   3.648   5.002
 8489SOL     OW26365   3.331   6.647   2.636
 8489SOL    HW126366   3.300   6.650   2.731
 8489SOL    HW226367   3.268   6.593   2.582
 8490SOL     OW26368   4.005   5.033   2.614
 8490SOL    HW126369   3.924   5.067   2.564
 8490SOL    HW226370   4.077   5.101   2.609
 8491SOL     OW26371   1.114   1.099   1.435
 8491SOL    HW126372   1.068   1.188   1.438
 8491SOL    HW226373   1.068   1.036   1.497
 8492SOL     OW26374   5.610   3.976   4.562
 8492SOL    HW126375   5.659   3.922   4.631
 8492SOL    HW226376   5.645   3.953   4.471
 8493SOL     OW26377   3.788   2.608   1.167
 8493SOL    HW126378   3.784   2.628   1.069
 8493SOL    HW226379   3.698   2.621   1.207
 8494SOL     OW26380   3.664   6.009   6.798
 8494SOL    HW126381   3.682   6.102   6.828
 8494SOL    HW226382   3.700   5.995   6.706
 8495SOL     OW26383   0.731   2.835   6.947
 8495SOL    HW126384   0.790   2.915   6.936
 8495SOL    HW226385   0.787   2.754   6.963
 8496SOL     OW26386   0.901   1.930   3.768
 8496SOL    HW126387   0.803   1.920   3.756
 8496SOL    HW226388   0.945   1.944   3.679
 8497SOL     OW26389   5.605   4.066   3.210
 8497SOL    HW126390   5.687   4.096   3.259
 8497SOL    HW226391   5.524   4.083   3.267
 8498SOL     OW26392   6.791   0.999   1.538
 8498SOL    HW126393   6.722   0.952   1.482
 8498SOL    HW226394   6.780   1.098   1.530
 8499SOL     OW26395   0.648   3.974   0.052
 8499SOL    HW126396   0.705   4.042   0.005
 8499SOL    HW226397   0.569   4.020   0.092
 8500SOL     OW26398   2.981   0.506   5.662
 8500SOL    HW126399   2.979   0.545   5.754
 8500SOL    HW226400   2.890   0.472   5.638
 8501SOL     OW26401   2.880   4.317   5.754
 8501SOL    HW126402   2.932   4.372   5.689
 8501SOL    HW226403   2.871   4.223   5.719
 8502SOL     OW26404   0.755   6.981   1.373
 8502SOL    HW126405   0.699   6.899   1.388
 8502SOL    HW226406   0.843   6.953   1.333
 8503SOL     OW26407   3.604   5.674   3.719
 8503SOL    HW126408   3.510   5.641   3.715
 8503SOL    HW226409   3.663   5.611   3.668
 8504SOL     OW26410   1.425   4.947   3.289
 8504SOL    HW126411   1.465   4.932   3.379
 8504SOL    HW226412   1.498   4.969   3.224
 8505SOL     OW26413   4.667   2.115   3.457
 8505SOL    HW126414   4.710   2.203   3.479
 8505SOL    HW226415   4.570   2.119   3.482
 8506SOL     OW26416   1.113   6.110   6.987
 8506SOL    HW126417   1.067   6.042   0.022
 8506SOL    HW226418   1.072   6.110   6.896
 8507SOL     OW26419   1.690   0.322   4.903
 8507SOL    HW126420   1.611   0.305   4.844
 8507SOL    HW226421   1.682   0.265   4.985
 8508SOL     OW26422   0.168   3.091   5.384
 8508SOL    HW126423   0.173   3.150   5.465
 8508SOL    HW226424   0.223   3.130   5.311
 8509SOL     OW26425   6.222   2.086   4.923
 8509SOL    HW126426   6.311   2.121   4.893
 8509SOL    HW226427   6.194   2.010   4.864
 8510SOL     OW26428   5.302   0.158   2.121
 8510SOL    HW126429   5.243   0.213   2.179
 8510SOL    HW226430   5.347   0.218   2.054
 8511SOL     OW26431   6.495   5.440   1.690
 8511SOL    HW126432   6.554   5.521   1.688
 8511SOL    HW226433   6.399   5.467   1.695
 8512SOL     OW26434   3.723   2.940   1.074
 8512SOL    HW126435   3.694   2.945   1.170
 8512SOL    HW226436   3.687   2.855   1.033
 8513SOL     OW26437   1.010   3.299   0.719
 8513SOL    HW126438   0.946   3.255   0.783
 8513SOL    HW226439   1.020   3.395   0.744
 8514SOL     OW26440   2.353   2.715   5.016
 8514SOL    HW126441   2.271   2.711   4.960
 8514SOL    HW226442   2.381   2.810   5.029
 8515SOL     OW26443   2.861   0.610   0.353
 8515SOL    HW126444   2.892   0.515   0.347
 8515SOL    HW226445   2.765   0.615   0.326
 8516SOL     OW26446   5.810   3.365   4.678
 8516SOL    HW126447   5.851   3.309   4.606
 8516SOL    HW226448   5.877   3.379   4.751
 8517SOL     OW26449   1.827   1.836   5.888
 8517SOL    HW126450   1.889   1.760   5.908
 8517SOL    HW226451   1.828   1.900   5.965
 8518SOL     OW26452   5.347   4.748   6.876
 8518SOL    HW126453   5.323   4.650   6.873
 8518SOL    HW226454   5.443   4.758   6.900
 8519SOL     OW26455   0.445   3.941   0.441
 8519SOL    HW126456   0.524   3.966   0.496
 8519SOL    HW226457   0.361   3.950   0.495
 8520SOL     OW26458   3.399   3.847   5.869
 8520SOL    HW126459   3.386   3.928   5.925
 8520SOL    HW226460   3.496   3.839   5.845
 8521SOL     OW26461   1.840   6.589   4.838
 8521SOL    HW126462   1.802   6.497   4.837
 8521SOL    HW226463   1.846   6.624   4.744
 8522SOL     OW26464   0.677   0.441   6.925
 8522SOL    HW126465   0.715   0.528   6.957
 8522SOL    HW226466   0.641   0.390   7.003
 8523SOL     OW26467   3.978   1.548   1.091
 8523SOL    HW126468   3.985   1.455   1.126
 8523SOL    HW226469   3.918   1.550   1.011
 8524SOL     OW26470   2.555   6.139   5.323
 8524SOL    HW126471   2.583   6.235   5.317
 8524SOL    HW226472   2.612   6.092   5.390
 8525SOL     OW26473   6.278   2.951   2.332
 8525SOL    HW126474   6.372   2.985   2.341
 8525SOL    HW226475   6.223   2.990   2.406
 8526SOL     OW26476   0.189   4.541   6.715
 8526SOL    HW126477   0.277   4.584   6.732
 8526SOL    HW226478   0.136   4.537   6.800
 8527SOL     OW26479   3.220   0.653   6.079
 8527SOL    HW126480   3.307   0.604   6.081
 8527SOL    HW226481   3.235   0.750   6.100
 8528SOL     OW26482   5.652   0.758   1.283
 8528SOL    HW126483   5.626   0.809   1.201
 8528SOL    HW226484   5.742   0.789   1.314
 8529SOL     OW26485   0.851   6.470   6.207
 8529SOL    HW126486   0.855   6.445   6.111
 8529SOL    HW226487   0.765   6.518   6.226
 8530SOL     OW26488   3.852   3.588   2.532
 8530SOL    HW126489   3.856   3.495   2.567
 8530SOL    HW226490   3.792   3.643   2.590
 8531SOL     OW26491   6.571   5.553   2.906
 8531SOL    HW126492   6.563   5.635   2.963
 8531SOL    HW226493   6.483   5.505   2.904
 8532SOL     OW26494   3.201   5.411   6.915
 8532SOL    HW126495   3.296   5.414   6.946
 8532SOL    HW226496   3.175   5.317   6.894
 8533SOL     OW26497   2.290   6.097   4.959
 8533SOL    HW126498   2.214   6.045   4.918
 8533SOL    HW226499   2.287   6.086   5.058
 8534SOL     OW26500   1.997   2.831   2.117
 8534SOL    HW126501   1.986   2.741   2.159
 8534SOL    HW226502   1.965   2.828   2.022
 8535SOL     OW26503   6.122   0.505   2.089
 8535SOL    HW126504   6.198   0.441   2.100
 8535SOL    HW226505   6.066   0.505   2.172
 8536SOL     OW26506   1.479   1.129   3.725
 8536SOL    HW126507   1.479   1.105   3.628
 8536SOL    HW226508   1.558   1.187   3.744
 8537SOL     OW26509   6.026   0.985   3.574
 8537SOL    HW126510   6.039   1.031   3.486
 8537SOL    HW226511   5.996   0.891   3.558
 8538SOL     OW26512   0.996   2.378   0.046
 8538SOL    HW126513   0.925   2.408   7.005
 8538SOL    HW226514   1.005   2.279   0.043
 8539SOL     OW26515   5.158   3.174   1.810
 8539SOL    HW126516   5.132   3.209   1.719
 8539SOL    HW226517   5.098   3.098   1.834
 8540SOL     OW26518   4.438   0.457   1.728
 8540SOL    HW126519   4.518   0.510   1.699
 8540SOL    HW226520   4.379   0.515   1.784
 8541SOL     OW26521   2.155   3.122   3.627
 8541SOL    HW126522   2.165   3.023   3.639
 8541SOL    HW226523   2.178   3.168   3.713
 8542SOL     OW26524   3.102   4.846   6.496
 8542SOL    HW126525   3.148   4.933   6.512
 8542SOL    HW226526   3.042   4.824   6.574
 8543SOL     OW26527   3.769   1.951   6.762
 8543SOL    HW126528   3.711   1.887   6.812
 8543SOL    HW226529   3.718   1.990   6.685
 8544SOL     OW26530   6.590   1.809   4.747
 8544SOL    HW126531   6.537   1.790   4.829
 8544SOL    HW226532   6.530   1.812   4.667
 8545SOL     OW26533   4.293   6.581   5.573
 8545SOL    HW126534   4.299   6.561   5.671
 8545SOL    HW226535   4.327   6.673   5.555
 8546SOL     OW26536   3.788   2.225   0.048
 8546SOL    HW126537   3.716   2.257   7.010
 8546SOL    HW226538   3.816   2.133   0.021
 8547SOL     OW26539   1.758   4.689   2.489
 8547SOL    HW126540   1.790   4.664   2.398
 8547SOL    HW226541   1.792   4.624   2.556
 8548SOL     OW26542   6.217   2.239   5.669
 8548SOL    HW126543   6.171   2.150   5.674
 8548SOL    HW226544   6.314   2.228   5.692
 8549SOL     OW26545   4.945   3.171   5.266
 8549SOL    HW126546   4.965   3.151   5.363
 8549SOL    HW226547   5.029   3.203   5.222
 8550SOL     OW26548   1.446   4.307   5.445
 8550SOL    HW126549   1.458   4.236   5.375
 8550SOL    HW226550   1.492   4.391   5.416
 8551SOL     OW26551   2.352   4.222   1.339
 8551SOL    HW126552   2.439   4.176   1.358
 8551SOL    HW226553   2.327   4.205   1.243
 8552SOL     OW26554   2.968   6.423   4.480
 8552SOL    HW126555   2.957   6.473   4.566
 8552SOL    HW226556   2.928   6.476   4.405
 8553SOL     OW26557   6.274   5.681   6.987
 8553SOL    HW126558   6.224   5.668   0.049
 8553SOL    HW226559   6.370   5.702   7.007
 8554SOL     OW26560   6.040   3.770   0.334
 8554SOL    HW126561   5.984   3.824   0.271
 8554SOL    HW226562   6.011   3.674   0.329
 8555SOL     OW26563   2.038   6.400   4.358
 8555SOL    HW126564   2.035   6.499   4.345
 8555SOL    HW226565   2.062   6.379   4.452
 8556SOL     OW26566   6.067   0.012   4.580
 8556SOL    HW126567   5.968   0.013   4.588
 8556SOL    HW226568   6.094   6.990   4.495
 8557SOL     OW26569   7.013   1.860   0.631
 8557SOL    HW126570   0.086   1.889   0.626
 8557SOL    HW226571   6.956   1.927   0.584
 8558SOL     OW26572   1.674   4.585   2.143
 8558SOL    HW126573   1.686   4.494   2.102
 8558SOL    HW226574   1.590   4.627   2.107
 8559SOL     OW26575   0.782   1.487   5.214
 8559SOL    HW126576   0.824   1.547   5.146
 8559SOL    HW226577   0.694   1.453   5.180
 8560SOL     OW26578   6.405   2.694   6.773
 8560SOL    HW126579   6.397   2.689   6.674
 8560SOL    HW226580   6.412   2.790   6.801
 8561SOL     OW26581   4.642   6.058   6.251
 8561SOL    HW126582   4.554   6.083   6.211
 8561SOL    HW226583   4.694   6.141   6.273
 8562SOL     OW26584   3.689   0.068   4.484
 8562SOL    HW126585   3.690   7.013   4.547
 8562SOL    HW226586   3.594   0.089   4.460
 8563SOL     OW26587   2.770   2.644   6.722
 8563SOL    HW126588   2.764   2.591   6.807
 8563SOL    HW226589   2.734   2.736   6.738
 8564SOL     OW26590   1.240   6.162   3.372
 8564SOL    HW126591   1.285   6.196   3.290
 8564SOL    HW226592   1.306   6.115   3.430
 8565SOL     OW26593   3.611   0.747   1.383
 8565SOL    HW126594   3.617   0.716   1.288
 8565SOL    HW226595   3.601   0.846   1.386
 8566SOL     OW26596   1.823   3.804   4.339
 8566SOL    HW126597   1.834   3.901   4.360
 8566SOL    HW226598   1.834   3.790   4.240
 8567SOL     OW26599   5.068   6.171   6.299
 8567SOL    HW126600   5.140   6.200   6.236
 8567SOL    HW226601   4.979   6.177   6.253
 8568SOL     OW26602   5.409   0.379   0.303
 8568SOL    HW126603   5.440   0.448   0.369
 8568SOL    HW226604   5.366   0.303   0.351
 8569SOL     OW26605   3.715   0.739   5.672
 8569SOL    HW126606   3.635   0.744   5.731
 8569SOL    HW226607   3.737   0.643   5.654
 8570SOL     OW26608   6.455   3.406   6.361
 8570SOL    HW126609   6.464   3.334   6.293
 8570SOL    HW226610   6.509   3.383   6.442
 8571SOL     OW26611   0.199   4.554   5.643
 8571SOL    HW126612   0.242   4.627   5.591
 8571SOL    HW226613   0.222   4.465   5.603
 8572SOL     OW26614   2.803   5.362   5.726
 8572SOL    HW126615   2.809   5.268   5.693
 8572SOL    HW226616   2.711   5.398   5.708
 8573SOL     OW26617   3.476   5.841   4.379
 8573SOL    HW126618   3.564   5.798   4.356
 8573SOL    HW226619   3.476   5.935   4.346
 8574SOL     OW26620   0.523   4.197   4.047
 8574SOL    HW126621   0.508   4.100   4.064
 8574SOL    HW226622   0.439   4.238   4.010
 8575SOL     OW26623   2.925   3.619   6.356
 8575SOL    HW126624   2.942   3.677   6.276
 8575SOL    HW226625   2.903   3.526   6.325
 8576SOL     OW26626   2.122   6.898   0.769
 8576SOL    HW126627   2.043   6.950   0.800
 8576SOL    HW226628   2.133   6.909   0.670
 8577SOL     OW26629   6.295   5.587   4.563
 8577SOL    HW126630   6.223   5.637   4.612
 8577SOL    HW226631   6.310   5.630   4.474
 8578SOL     OW26632   4.428   0.615   3.136
 8578SOL    HW126633   4.379   0.549   3.193
 8578SOL    HW226634   4.372   0.697   3.122
 8579SOL     OW26635   0.580   4.849   2.402
 8579SOL    HW126636   0.629   4.791   2.337
 8579SOL    HW226637   0.488   4.814   2.416
 8580SOL     OW26638   2.573   5.707   5.868
 8580SOL    HW126639   2.589   5.698   5.967
 8580SOL    HW226640   2.479   5.678   5.847
 8581SOL     OW26641   3.047   3.540   0.526
 8581SOL    HW126642   3.027   3.523   0.430
 8581SOL    HW226643   3.064   3.453   0.573
 8582SOL     OW26644   3.778   5.156   0.031
 8582SOL    HW126645   3.839   5.076   0.034
 8582SOL    HW226646   3.829   5.235   7.020
 8583SOL     OW26647   5.555   6.860   5.054
 8583SOL    HW126648   5.576   6.936   4.993
 8583SOL    HW226649   5.529   6.780   5.001
 8584SOL     OW26650   0.334   5.845   6.527
 8584SOL    HW126651   0.416   5.827   6.581
 8584SOL    HW226652   0.354   5.834   6.430
 8585SOL     OW26653   1.643   1.852   1.169
 8585SOL    HW126654   1.667   1.787   1.097
 8585SOL    HW226655   1.696   1.936   1.158
 8586SOL     OW26656   3.932   5.257   3.846
 8586SOL    HW126657   3.833   5.271   3.853
 8586SOL    HW226658   3.951   5.162   3.822
 8587SOL     OW26659   6.490   1.832   1.411
 8587SOL    HW126660   6.425   1.823   1.336
 8587SOL    HW226661   6.447   1.800   1.496
 8588SOL     OW26662   3.522   2.851   6.330
 8588SOL    HW126663   3.562   2.777   6.277
 8588SOL    HW226664   3.493   2.925   6.269
 8589SOL     OW26665   2.515   1.703   4.696
 8589SOL    HW126666   2.543   1.651   4.777
 8589SOL    HW226667   2.519   1.645   4.616
 8590SOL     OW26668   5.498   4.983   5.396
 8590SOL    HW126669   5.435   4.913   5.428
 8590SOL    HW226670   5.526   5.041   5.473
 8591SOL     OW26671   0.683   2.941   0.352
 8591SOL    HW126672   0.614   2.984   0.409
 8591SOL    HW226673   0.770   2.936   0.403
 8592SOL     OW26674   6.192   6.407   6.892
 8592SOL    HW126675   6.263   6.445   6.833
 8592SOL    HW226676   6.205   6.308   6.900
 8593SOL     OW26677   0.435   5.593   3.211
 8593SOL    HW126678   0.531   5.618   3.199
 8593SOL    HW226679   0.394   5.652   3.281
 8594SOL     OW26680   3.782   3.898   2.849
 8594SOL    HW126681   3.715   3.918   2.920
 8594SOL    HW226682   3.873   3.892   2.891
 8595SOL     OW26683   1.548   2.732   1.909
 8595SOL    HW126684   1.470   2.670   1.903
 8595SOL    HW226685   1.632   2.681   1.893
 8596SOL     OW26686   6.675   3.979   2.433
 8596SOL    HW126687   6.732   4.002   2.354
 8596SOL    HW226688   6.695   4.043   2.508
 8597SOL     OW26689   2.168   1.444   0.789
 8597SOL    HW126690   2.186   1.356   0.745
 8597SOL    HW226691   2.161   1.515   0.719
 8598SOL     OW26692   6.121   3.261   1.743
 8598SOL    HW126693   6.147   3.170   1.773
 8598SOL    HW226694   6.022   3.274   1.756
 8599SOL     OW26695   0.809   3.056   0.647
 8599SOL    HW126696   0.836   3.120   0.719
 8599SOL    HW226697   0.881   3.054   0.577
 8600SOL     OW26698   6.484   2.328   6.103
 8600SOL    HW126699   6.474   2.421   6.067
 8600SOL    HW226700   6.429   2.319   6.186
 8601SOL     OW26701   0.929   0.218   5.056
 8601SOL    HW126702   0.865   0.267   4.997
 8601SOL    HW226703   0.880   0.180   5.134
 8602SOL     OW26704   1.479   6.488   1.859
 8602SOL    HW126705   1.523   6.447   1.939
 8602SOL    HW226706   1.492   6.427   1.780
 8603SOL     OW26707   4.699   3.533   1.372
 8603SOL    HW126708   4.681   3.594   1.294
 8603SOL    HW226709   4.646   3.449   1.361
 8604SOL     OW26710   6.097   3.029   3.032
 8604SOL    HW126711   6.088   3.079   2.946
 8604SOL    HW226712   6.017   3.047   3.090
 8605SOL     OW26713   3.138   5.102   1.766
 8605SOL    HW126714   3.083   5.139   1.841
 8605SOL    HW226715   3.142   5.003   1.774
 8606SOL     OW26716   4.119   5.255   4.715
 8606SOL    HW126717   4.103   5.286   4.808
 8606SOL    HW226718   4.051   5.295   4.653
 8607SOL     OW26719   2.752   6.492   0.907
 8607SOL    HW126720   2.700   6.408   0.894
 8607SOL    HW226721   2.786   6.496   1.001
 8608SOL     OW26722   5.702   6.825   2.478
 8608SOL    HW126723   5.749   6.864   2.400
 8608SOL    HW226724   5.757   6.839   2.561
 8609SOL     OW26725   5.157   0.172   6.010
 8609SOL    HW126726   5.254   0.196   5.998
 8609SOL    HW226727   5.120   0.221   6.088
 8610SOL     OW26728   6.400   6.558   5.561
 8610SOL    HW126729   6.466   6.632   5.548
 8610SOL    HW226730   6.307   6.595   5.557
 8611SOL     OW26731   1.680   1.857   3.138
 8611SOL    HW126732   1.666   1.843   3.236
 8611SOL    HW226733   1.674   1.955   3.117
 8612SOL     OW26734   5.016   3.121   4.537
 8612SOL    HW126735   4.971   3.038   4.571
 8612SOL    HW226736   5.010   3.123   4.437
 8613SOL     OW26737   1.315   0.711   0.619
 8613SOL    HW126738   1.402   0.697   0.667
 8613SOL    HW226739   1.244   0.654   0.660
 8614SOL     OW26740   1.544   2.394   3.523
 8614SOL    HW126741   1.565   2.486   3.554
 8614SOL    HW226742   1.621   2.333   3.542
 8615SOL     OW26743   4.886   1.761   5.800
 8615SOL    HW126744   4.976   1.797   5.781
 8615SOL    HW226745   4.816   1.830   5.780
 8616SOL     OW26746   0.947   3.248   0.270
 8616SOL    HW126747   0.890   3.247   0.188
 8616SOL    HW226748   0.892   3.221   0.349
 8617SOL     OW26749   5.888   3.049   0.745
 8617SOL    HW126750   5.869   3.048   0.843
 8617SOL    HW226751   5.823   3.109   0.698
 8618SOL     OW26752   3.491   1.515   2.865
 8618SOL    HW126753   3.559   1.556   2.926
 8618SOL    HW226754   3.431   1.455   2.918
 8619SOL     OW26755   4.057   6.534   0.860
 8619SOL    HW126756   4.000   6.515   0.939
 8619SOL    HW226757   4.139   6.584   0.889
 8620SOL     OW26758   6.177   6.048   3.749
 8620SOL    HW126759   6.239   6.058   3.671
 8620SOL    HW226760   6.118   5.969   3.734
 8621SOL     OW26761   5.184   1.026   4.001
 8621SOL    HW126762   5.128   0.973   4.065
 8621SOL    HW226763   5.281   1.007   4.019
 8622SOL     OW26764   4.910   5.289   6.218
 8622SOL    HW126765   4.859   5.204   6.207
 8622SOL    HW226766   4.920   5.334   6.129
 8623SOL     OW26767   6.259   1.970   4.153
 8623SOL    HW126768   6.350   1.930   4.153
 8623SOL    HW226769   6.230   1.988   4.247
 8624SOL     OW26770   5.986   3.128   3.746
 8624SOL    HW126771   5.923   3.133   3.823
 8624SOL    HW226772   6.054   3.057   3.763
 8625SOL     OW26773   3.553   1.228   6.366
 8625SOL    HW126774   3.612   1.158   6.328
 8625SOL    HW226775   3.577   1.244   6.462
 8626SOL     OW26776   2.837   3.442   2.486
 8626SOL    HW126777   2.830   3.392   2.400
 8626SOL    HW226778   2.803   3.535   2.474
 8627SOL     OW26779   2.808   0.177   0.149
 8627SOL    HW126780   2.763   0.123   0.220
 8627SOL    HW226781   2.890   0.129   0.118
 8628SOL     OW26782   6.003   1.770   1.041
 8628SOL    HW126783   6.039   1.678   1.055
 8628SOL    HW226784   6.018   1.799   0.946
 8629SOL     OW26785   1.650   5.974   3.462
 8629SOL    HW126786   1.629   5.949   3.367
 8629SOL    HW226787   1.616   6.067   3.480
 8630SOL     OW26788   5.196   5.155   4.192
 8630SOL    HW126789   5.190   5.059   4.219
 8630SOL    HW226790   5.292   5.181   4.181
 8631SOL     OW26791   4.251   6.312   3.667
 8631SOL    HW126792   4.250   6.261   3.581
 8631SOL    HW226793   4.199   6.396   3.657
 8632SOL     OW26794   3.226   0.958   3.028
 8632SOL    HW126795   3.161   1.032   3.046
 8632SOL    HW226796   3.237   0.903   3.111
 8633SOL     OW26797   6.545   6.414   2.544
 8633SOL    HW126798   6.579   6.437   2.635
 8633SOL    HW226799   6.479   6.340   2.552
 8634SOL     OW26800   6.321   5.942   1.885
 8634SOL    HW126801   6.233   5.896   1.873
 8634SOL    HW226802   6.309   6.041   1.875
 8635SOL     OW26803   6.224   3.543   5.596
 8635SOL    HW126804   6.187   3.572   5.684
 8635SOL    HW226805   6.323   3.553   5.596
 8636SOL     OW26806   5.908   5.011   0.771
 8636SOL    HW126807   5.808   5.013   0.774
 8636SOL    HW226808   5.940   4.920   0.799
 8637SOL     OW26809   1.335   0.955   1.608
 8637SOL    HW126810   1.416   1.009   1.585
 8637SOL    HW226811   1.262   0.975   1.542
 8638SOL     OW26812   5.504   4.706   1.312
 8638SOL    HW126813   5.533   4.775   1.247
 8638SOL    HW226814   5.498   4.746   1.404
 8639SOL     OW26815   6.073   2.464   2.066
 8639SOL    HW126816   6.005   2.442   1.997
 8639SOL    HW226817   6.124   2.381   2.091
 8640SOL     OW26818   5.096   6.007   1.749
 8640SOL    HW126819   5.010   6.056   1.738
 8640SOL    HW226820   5.085   5.937   1.820
 8641SOL     OW26821   4.889   4.612   3.645
 8641SOL    HW126822   4.969   4.669   3.625
 8641SOL    HW226823   4.822   4.621   3.572
 8642SOL     OW26824   4.152   1.261   2.178
 8642SOL    HW126825   4.232   1.201   2.180
 8642SOL    HW226826   4.178   1.350   2.141
 8643SOL     OW26827   4.750   0.250   0.221
 8643SOL    HW126828   4.714   0.253   0.128
 8643SOL    HW226829   4.820   0.320   0.233
 8644SOL     OW26830   6.548   3.282   5.174
 8644SOL    HW126831   6.551   3.277   5.074
 8644SOL    HW226832   6.546   3.378   5.202
 8645SOL     OW26833   6.423   3.768   1.689
 8645SOL    HW126834   6.378   3.687   1.727
 8645SOL    HW226835   6.427   3.839   1.759
 8646SOL     OW26836   4.843   6.208   0.778
 8646SOL    HW126837   4.835   6.109   0.770
 8646SOL    HW226838   4.938   6.232   0.801
 8647SOL     OW26839   4.381   4.985   2.212
 8647SOL    HW126840   4.471   4.973   2.169
 8647SOL    HW226841   4.353   4.900   2.255
 8648SOL     OW26842   5.771   0.773   3.704
 8648SOL    HW126843   5.728   0.684   3.722
 8648SOL    HW226844   5.835   0.764   3.627
 8649SOL     OW26845   6.315   4.332   5.640
 8649SOL    HW126846   6.238   4.297   5.694
 8649SOL    HW226847   6.397   4.278   5.658
 8650SOL     OW26848   0.525   5.682   1.467
 8650SOL    HW126849   0.478   5.632   1.540
 8650SOL    HW226850   0.474   5.765   1.446
 8651SOL     OW26851   4.197   2.996   0.892
 8651SOL    HW126852   4.214   2.943   0.808
 8651SOL    HW226853   4.179   3.091   0.868
 8652SOL     OW26854   0.738   2.867   4.537
 8652SOL    HW126855   0.830   2.879   4.575
 8652SOL    HW226856   0.674   2.843   4.610
 8653SOL     OW26857   5.373   2.981   6.167
 8653SOL    HW126858   5.322   3.060   6.133
 8653SOL    HW226859   5.352   2.966   6.263
 8654SOL     OW26860   1.491   5.101   1.560
 8654SOL    HW126861   1.417   5.042   1.591
 8654SOL    HW226862   1.456   5.192   1.538
 8655SOL     OW26863   5.759   6.222   2.467
 8655SOL    HW126864   5.802   6.270   2.391
 8655SOL    HW226865   5.675   6.177   2.436
 8656SOL     OW26866   6.475   2.395   1.794
 8656SOL    HW126867   6.408   2.446   1.847
 8656SOL    HW226868   6.439   2.304   1.773
 8657SOL     OW26869   2.993   4.794   0.757
 8657SOL    HW126870   3.017   4.788   0.660
 8657SOL    HW226871   3.075   4.776   0.813
 8658SOL     OW26872   1.323   5.574   6.250
 8658SOL    HW126873   1.336   5.477   6.272
 8658SOL    HW226874   1.228   5.599   6.265
 8659SOL     OW26875   4.411   6.857   4.741
 8659SOL    HW126876   4.373   6.949   4.733
 8659SOL    HW226877   4.368   6.810   4.818
 8660SOL     OW26878   5.313   4.445   6.916
 8660SOL    HW126879   5.234   4.415   6.970
 8660SOL    HW226880   5.397   4.418   6.962
 8661SOL     OW26881   6.306   3.391   1.590
 8661SOL    HW126882   6.245   3.457   1.548
 8661SOL    HW226883   6.253   3.323   1.641
 8662SOL     OW26884   0.764   0.687   7.006
 8662SOL    HW126885   0.851   0.665   0.028
 8662SOL    HW226886   0.774   0.770   6.952
 8663SOL     OW26887   2.663   5.127   1.226
 8663SOL    HW126888   2.651   5.101   1.130
 8663SOL    HW226889   2.703   5.050   1.276
 8664SOL     OW26890   4.484   4.871   1.480
 8664SOL    HW126891   4.537   4.940   1.430
 8664SOL    HW226892   4.473   4.789   1.424
 8665SOL     OW26893   4.912   4.987   4.369
 8665SOL    HW126894   4.910   5.070   4.426
 8665SOL    HW226895   4.908   4.906   4.428
 8666SOL     OW26896   6.787   4.313   4.051
 8666SOL    HW126897   6.809   4.219   4.078
 8666SOL    HW226898   6.734   4.356   4.123
 8667SOL     OW26899   5.757   2.103   3.534
 8667SOL    HW126900   5.802   2.170   3.595
 8667SOL    HW226901   5.733   2.148   3.448
 8668SOL     OW26902   3.353   0.803   4.638
 8668SOL    HW126903   3.407   0.854   4.704
 8668SOL    HW226904   3.287   0.745   4.685
 8669SOL     OW26905   4.300   6.657   6.245
 8669SOL    HW126906   4.211   6.616   6.267
 8669SOL    HW226907   4.298   6.695   6.153
 8670SOL     OW26908   4.298   4.616   2.910
 8670SOL    HW126909   4.296   4.517   2.917
 8670SOL    HW226910   4.249   4.644   2.827
 8671SOL     OW26911   6.237   6.338   2.464
 8671SOL    HW126912   6.242   6.291   2.552
 8671SOL    HW226913   6.251   6.272   2.390
 8672SOL     OW26914   3.821   5.357   4.924
 8672SOL    HW126915   3.794   5.263   4.941
 8672SOL    HW226916   3.740   5.415   4.917
 8673SOL     OW26917   4.975   2.198   0.183
 8673SOL    HW126918   5.015   2.108   0.168
 8673SOL    HW226919   4.898   2.191   0.247
 8674SOL     OW26920   0.648   6.974   2.916
 8674SOL    HW126921   0.724   6.909   2.910
 8674SOL    HW226922   0.685   0.045   2.917
 8675SOL     OW26923   2.505   1.936   3.072
 8675SOL    HW126924   2.542   1.955   2.980
 8675SOL    HW226925   2.413   1.974   3.079
 8676SOL     OW26926   4.433   1.383   4.376
 8676SOL    HW126927   4.514   1.366   4.320
 8676SOL    HW226928   4.362   1.425   4.320
 8677SOL     OW26929   2.148   3.614   5.496
 8677SOL    HW126930   2.094   3.697   5.508
 8677SOL    HW226931   2.163   3.570   5.585
 8678SOL     OW26932   1.866   0.744   5.904
 8678SOL    HW126933   1.826   0.758   5.994
 8678SOL    HW226934   1.938   0.674   5.910
 8679SOL     OW26935   6.153   1.865   4.795
 8679SOL    HW126936   6.182   1.869   4.700
 8679SOL    HW226937   6.073   1.805   4.804
 8680SOL     OW26938   0.776   3.911   0.693
 8680SOL    HW126939   0.782   3.908   0.793
 8680SOL    HW226940   0.864   3.885   0.654
 8681SOL     OW26941   4.168   3.729   1.367
 8681SOL    HW126942   4.111   3.687   1.297
 8681SOL    HW226943   4.184   3.664   1.441
 8682SOL     OW26944   1.359   5.682   2.741
 8682SOL    HW126945   1.357   5.782   2.733
 8682SOL    HW226946   1.271   5.644   2.714
 8683SOL     OW26947   4.798   2.752   6.291
 8683SOL    HW126948   4.877   2.803   6.258
 8683SOL    HW226949   4.819   2.712   6.380
 8684SOL     OW26950   6.276   3.083   3.639
 8684SOL    HW126951   6.281   3.005   3.702
 8684SOL    HW226952   6.222   3.057   3.559
 8685SOL     OW26953   6.967   1.253   5.765
 8685SOL    HW126954   6.927   1.187   5.829
 8685SOL    HW226955   6.910   1.260   5.684
 8686SOL     OW26956   6.201   1.584   4.188
 8686SOL    HW126957   6.293   1.599   4.150
 8686SOL    HW226958   6.143   1.661   4.165
 8687SOL     OW26959   3.694   0.902   2.535
 8687SOL    HW126960   3.708   0.944   2.446
 8687SOL    HW226961   3.728   0.962   2.607
 8688SOL     OW26962   1.156   6.917   1.852
 8688SOL    HW126963   1.206   6.830   1.847
 8688SOL    HW226964   1.218   6.993   1.834
 8689SOL     OW26965   5.179   4.794   0.920
 8689SOL    HW126966   5.239   4.715   0.908
 8689SOL    HW226967   5.102   4.787   0.857
 8690SOL     OW26968   1.655   1.021   2.554
 8690SOL    HW126969   1.556   1.032   2.560
 8690SOL    HW226970   1.679   0.924   2.563
 8691SOL     OW26971   5.905   1.607   0.457
 8691SOL    HW126972   5.815   1.638   0.424
 8691SOL    HW226973   5.957   1.685   0.491
 8692SOL     OW26974   1.700   1.300   3.820
 8692SOL    HW126975   1.614   1.326   3.863
 8692SOL    HW226976   1.751   1.239   3.881
 8693SOL     OW26977   5.188   2.127   6.998
 8693SOL    HW126978   5.273   2.079   7.017
 8693SOL    HW226979   5.136   2.139   0.060
 8694SOL     OW26980   3.786   0.064   6.985
 8694SOL    HW126981   3.824   6.998   7.013
 8694SOL    HW226982   3.687   0.059   6.982
 8695SOL     OW26983   4.592   4.352   5.417
 8695SOL    HW126984   4.587   4.339   5.318
 8695SOL    HW226985   4.500   4.372   5.452
 8696SOL     OW26986   2.391   5.026   0.808
 8696SOL    HW126987   2.404   4.987   0.717
 8696SOL    HW226988   2.360   4.955   0.871
 8697SOL     OW26989   4.994   4.942   6.697
 8697SOL    HW126990   4.967   5.017   6.635
 8697SOL    HW226991   5.082   4.905   6.666
 8698SOL     OW26992   5.798   5.924   4.841
 8698SOL    HW126993   5.739   5.938   4.921
 8698SOL    HW226994   5.887   5.891   4.871
 8699SOL     OW26995   1.438   1.679   5.093
 8699SOL    HW126996   1.485   1.615   5.032
 8699SOL    HW226997   1.459   1.657   5.188
 8700SOL     OW26998   2.847   2.355   6.080
 8700SOL    HW126999   2.906   2.275   6.078
 8700SOL    HW227000   2.758   2.330   6.117
 8701SOL     OW27001   1.070   1.276   3.340
 8701SOL    HW127002   0.983   1.321   3.361
 8701SOL    HW227003   1.072   1.250   3.243
 8702SOL     OW27004   5.193   6.335   6.958
 8702SOL    HW127005   5.179   6.420   7.008
 8702SOL    HW227006   5.161   6.258   7.012
 8703SOL     OW27007   1.547   5.312   1.259
 8703SOL    HW127008   1.449   5.315   1.238
 8703SOL    HW227009   1.567   5.229   1.311
 8704SOL     OW27010   0.741   4.655   1.985
 8704SOL    HW127011   0.838   4.628   1.988
 8704SOL    HW227012   0.684   4.573   1.984
 8705SOL     OW27013   4.885   6.607   4.178
 8705SOL    HW127014   4.984   6.603   4.191
 8705SOL    HW227015   4.864   6.583   4.083
 8706SOL     OW27016   4.970   1.115   5.590
 8706SOL    HW127017   5.007   1.199   5.629
 8706SOL    HW227018   5.025   1.088   5.510
 8707SOL     OW27019   4.280   1.960   5.582
 8707SOL    HW127020   4.322   1.895   5.645
 8707SOL    HW227021   4.345   2.033   5.561
 8708SOL     OW27022   4.070   1.756   0.499
 8708SOL    HW127023   4.058   1.660   0.473
 8708SOL    HW227024   3.984   1.790   0.538
 8709SOL     OW27025   5.566   3.287   0.533
 8709SOL    HW127026   5.665   3.300   0.523
 8709SOL    HW227027   5.542   3.285   0.630
 8710SOL     OW27028   6.378   3.025   4.037
 8710SOL    HW127029   6.283   3.020   4.007
 8710SOL    HW227030   6.435   3.056   3.960
 8711SOL     OW27031   1.074   1.114   4.636
 8711SOL    HW127032   1.089   1.157   4.546
 8711SOL    HW227033   1.162   1.098   4.680
 8712SOL     OW27034   3.550   0.343   6.874
 8712SOL    HW127035   3.635   0.312   6.918
 8712SOL    HW227036   3.503   0.408   6.933
 8713SOL     OW27037   6.185   4.672   2.458
 8713SOL    HW127038   6.134   4.748   2.419
 8713SOL    HW227039   6.282   4.697   2.465
 8714SOL     OW27040   1.542   1.571   4.425
 8714SOL    HW127041   1.480   1.555   4.348
 8714SOL    HW227042   1.601   1.649   4.404
 8715SOL     OW27043   6.069   1.051   2.748
 8715SOL    HW127044   6.040   1.146   2.761
 8715SOL    HW227045   6.002   1.003   2.691
 8716SOL     OW27046   0.537   1.191   2.109
 8716SOL    HW127047   0.474   1.114   2.101
 8716SOL    HW227048   0.550   1.213   2.205
 8717SOL     OW27049   4.411   3.527   0.834
 8717SOL    HW127050   4.401   3.520   0.735
 8717SOL    HW227051   4.478   3.459   0.865
 8718SOL     OW27052   6.927   2.814   5.811
 8718SOL    HW127053   0.001   2.788   5.817
 8718SOL    HW227054   6.920   2.913   5.801
 8719SOL     OW27055   6.113   1.056   5.879
 8719SOL    HW127056   6.106   1.099   5.789
 8719SOL    HW227057   6.201   1.079   5.920
 8720SOL     OW27058   4.751   3.615   5.472
 8720SOL    HW127059   4.716   3.647   5.560
 8720SOL    HW227060   4.676   3.606   5.407
 8721SOL     OW27061   6.594   0.899   5.131
 8721SOL    HW127062   6.524   0.879   5.200
 8721SOL    HW227063   6.677   0.848   5.153
 8722SOL     OW27064   3.338   3.029   1.140
 8722SOL    HW127065   3.381   2.965   1.204
 8722SOL    HW227066   3.252   2.991   1.107
 8723SOL     OW27067   0.246   5.635   0.391
 8723SOL    HW127068   0.267   5.671   0.482
 8723SOL    HW227069   0.332   5.621   0.341
 8724SOL     OW27070   4.952   6.121   6.722
 8724SOL    HW127071   4.923   6.103   6.816
 8724SOL    HW227072   5.052   6.125   6.718
 8725SOL     OW27073   2.187   6.107   1.041
 8725SOL    HW127074   2.201   6.134   1.136
 8725SOL    HW227075   2.119   6.168   0.999
 8726SOL     OW27076   6.954   0.956   1.296
 8726SOL    HW127077   6.888   0.935   1.367
 8726SOL    HW227078   0.024   0.942   1.331
 8727SOL     OW27079   5.894   6.666   1.079
 8727SOL    HW127080   5.866   6.726   1.154
 8727SOL    HW227081   5.829   6.590   1.072
 8728SOL     OW27082   2.155   6.078   5.420
 8728SOL    HW127083   2.199   6.084   5.331
 8728SOL    HW227084   2.139   5.982   5.443
 8729SOL     OW27085   4.665   6.081   4.627
 8729SOL    HW127086   4.578   6.032   4.624
 8729SOL    HW227087   4.740   6.017   4.641
 8730SOL     OW27088   6.651   6.085   0.782
 8730SOL    HW127089   6.738   6.069   0.736
 8730SOL    HW227090   6.590   6.007   0.768
 8731SOL     OW27091   0.705   1.247   2.404
 8731SOL    HW127092   0.658   1.234   2.491
 8731SOL    HW227093   0.733   1.343   2.395
 8732SOL     OW27094   6.710   6.066   2.392
 8732SOL    HW127095   6.736   6.022   2.306
 8732SOL    HW227096   6.652   6.146   2.373
 8733SOL     OW27097   6.894   0.080   0.891
 8733SOL    HW127098   6.799   0.101   0.914
 8733SOL    HW227099   6.900   0.052   0.796
 8734SOL     OW27100   6.675   6.333   0.667
 8734SOL    HW127101   6.635   6.247   0.700
 8734SOL    HW227102   6.771   6.338   0.693
 8735SOL     OW27103   0.349   2.860   6.244
 8735SOL    HW127104   0.431   2.822   6.202
 8735SOL    HW227105   0.375   2.938   6.301
 8736SOL     OW27106   0.187   4.748   5.924
 8736SOL    HW127107   0.175   4.676   5.855
 8736SOL    HW227108   0.136   4.724   6.007
 8737SOL     OW27109   4.001   6.131   6.907
 8737SOL    HW127110   4.069   6.169   6.969
 8737SOL    HW227111   4.045   6.097   6.825
 8738SOL     OW27112   0.522   3.833   5.711
 8738SOL    HW127113   0.561   3.924   5.719
 8738SOL    HW227114   0.507   3.794   5.802
 8739SOL     OW27115   1.053   3.727   5.609
 8739SOL    HW127116   1.005   3.639   5.614
 8739SOL    HW227117   1.144   3.717   5.649
 8740SOL     OW27118   1.481   6.348   0.511
 8740SOL    HW127119   1.469   6.426   0.572
 8740SOL    HW227120   1.394   6.326   0.466
 8741SOL     OW27121   1.638   3.586   2.242
 8741SOL    HW127122   1.567   3.596   2.312
 8741SOL    HW227123   1.660   3.675   2.203
 8742SOL     OW27124   4.771   5.779   2.298
 8742SOL    HW127125   4.754   5.740   2.388
 8742SOL    HW227126   4.773   5.706   2.230
 8743SOL     OW27127   2.405   4.889   2.545
 8743SOL    HW127128   2.475   4.820   2.528
 8743SOL    HW227129   2.315   4.847   2.537
 8744SOL     OW27130   3.091   3.454   5.456
 8744SOL    HW127131   3.120   3.358   5.453
 8744SOL    HW227132   3.001   3.463   5.413
 8745SOL     OW27133   5.984   1.619   6.850
 8745SOL    HW127134   5.928   1.659   6.778
 8745SOL    HW227135   5.968   1.520   6.852
 8746SOL     OW27136   5.130   3.549   4.755
 8746SOL    HW127137   5.052   3.488   4.744
 8746SOL    HW227138   5.116   3.607   4.836
 8747SOL     OW27139   0.429   2.077   3.997
 8747SOL    HW127140   0.373   2.054   4.076
 8747SOL    HW227141   0.519   2.035   4.007
 8748SOL     OW27142   2.847   6.989   0.346
 8748SOL    HW127143   2.851   6.902   0.296
 8748SOL    HW227144   2.804   6.973   0.435
 8749SOL     OW27145   3.896   1.671   3.674
 8749SOL    HW127146   3.909   1.631   3.583
 8749SOL    HW227147   3.850   1.605   3.733
 8750SOL     OW27148   2.141   0.435   5.106
 8750SOL    HW127149   2.227   0.472   5.142
 8750SOL    HW227150   2.067   0.457   5.169
 8751SOL     OW27151   2.025   6.243   3.109
 8751SOL    HW127152   2.083   6.299   3.168
 8751SOL    HW227153   2.052   6.258   3.013
 8752SOL     OW27154   2.464   0.939   5.981
 8752SOL    HW127155   2.545   0.909   6.031
 8752SOL    HW227156   2.487   1.018   5.924
 8753SOL     OW27157   5.497   1.261   5.091
 8753SOL    HW127158   5.462   1.332   5.030
 8753SOL    HW227159   5.512   1.299   5.182
 8754SOL     OW27160   1.997   1.216   5.652
 8754SOL    HW127161   1.978   1.166   5.737
 8754SOL    HW227162   2.087   1.190   5.618
 8755SOL     OW27163   2.365   2.046   0.388
 8755SOL    HW127164   2.448   2.071   0.438
 8755SOL    HW227165   2.353   2.108   0.311
 8756SOL     OW27166   1.998   4.341   4.379
 8756SOL    HW127167   1.954   4.358   4.467
 8756SOL    HW227168   2.050   4.422   4.351
 8757SOL     OW27169   3.434   5.289   4.207
 8757SOL    HW127170   3.445   5.211   4.268
 8757SOL    HW227171   3.377   5.358   4.251
 8758SOL     OW27172   4.977   6.601   2.417
 8758SOL    HW127173   4.889   6.628   2.455
 8758SOL    HW227174   4.983   6.631   2.322
 8759SOL     OW27175   5.435   0.736   5.933
 8759SOL    HW127176   5.430   0.662   6.000
 8759SOL    HW227177   5.488   0.704   5.854
 8760SOL     OW27178   2.143   3.278   3.865
 8760SOL    HW127179   2.178   3.351   3.923
 8760SOL    HW227180   2.148   3.190   3.913
 8761SOL     OW27181   5.313   6.128   1.586
 8761SOL    HW127182   5.234   6.104   1.643
 8761SOL    HW227183   5.379   6.054   1.588
 8762SOL     OW27184   0.823   4.642   1.058
 8762SOL    HW127185   0.900   4.694   1.022
 8762SOL    HW227186   0.849   4.546   1.069
 8763SOL     OW27187   0.428   6.349   6.532
 8763SOL    HW127188   0.456   6.445   6.539
 8763SOL    HW227189   0.333   6.340   6.562
 8764SOL     OW27190   3.414   1.969   6.335
 8764SOL    HW127191   3.399   1.967   6.434
 8764SOL    HW227192   3.329   1.947   6.288
 8765SOL     OW27193   6.489   0.414   4.465
 8765SOL    HW127194   6.546   0.357   4.406
 8765SOL    HW227195   6.491   0.377   4.558
 8766SOL     OW27196   1.936   4.447   2.249
 8766SOL    HW127197   1.978   4.485   2.166
 8766SOL    HW227198   1.854   4.397   2.224
 8767SOL     OW27199   4.849   0.619   5.629
 8767SOL    HW127200   4.869   0.654   5.537
 8767SOL    HW227201   4.750   0.623   5.645
 8768SOL     OW27202   1.068   3.987   6.885
 8768SOL    HW127203   1.049   3.907   6.942
 8768SOL    HW227204   1.161   3.982   6.849
 8769SOL     OW27205   2.030   1.009   6.101
 8769SOL    HW127206   2.096   0.996   6.027
 8769SOL    HW227207   2.035   0.932   6.164
 8770SOL     OW27208   5.422   1.401   3.117
 8770SOL    HW127209   5.498   1.344   3.150
 8770SOL    HW227210   5.436   1.495   3.148
 8771SOL     OW27211   2.882   3.139   5.528
 8771SOL    HW127212   2.956   3.108   5.468
 8771SOL    HW227213   2.884   3.238   5.536
 8772SOL     OW27214   6.560   6.810   6.704
 8772SOL    HW127215   6.541   6.833   6.800
 8772SOL    HW227216   6.519   6.879   6.645
 8773SOL     OW27217   2.764   2.000   3.193
 8773SOL    HW127218   2.799   2.092   3.173
 8773SOL    HW227219   2.686   1.981   3.134
 8774SOL     OW27220   1.283   0.602   0.050
 8774SOL    HW127221   1.348   0.586   6.998
 8774SOL    HW227222   1.269   0.700   0.062
 8775SOL     OW27223   6.267   6.210   4.320
 8775SOL    HW127224   6.310   6.250   4.401
 8775SOL    HW227225   6.224   6.123   4.345
 8776SOL     OW27226   3.333   3.790   5.233
 8776SOL    HW127227   3.393   3.796   5.313
 8776SOL    HW227228   3.240   3.767   5.263
 8777SOL     OW27229   6.157   5.942   2.784
 8777SOL    HW127230   6.095   5.863   2.787
 8777SOL    HW227231   6.247   5.912   2.752
 8778SOL     OW27232   1.300   3.048   2.579
 8778SOL    HW127233   1.217   3.100   2.560
 8778SOL    HW227234   1.371   3.110   2.614
 8779SOL     OW27235   1.661   4.664   1.199
 8779SOL    HW127236   1.751   4.703   1.180
 8779SOL    HW227237   1.608   4.728   1.255
 8780SOL     OW27238   1.935   5.311   5.038
 8780SOL    HW127239   1.875   5.316   4.959
 8780SOL    HW227240   1.929   5.220   5.079
 8781SOL     OW27241   1.062   2.279   2.911
 8781SOL    HW127242   1.035   2.341   2.985
 8781SOL    HW227243   0.985   2.221   2.886
 8782SOL     OW27244   4.994   1.139   3.799
 8782SOL    HW127245   5.038   1.155   3.711
 8782SOL    HW227246   5.052   1.078   3.855
 8783SOL     OW27247   6.428   2.846   5.468
 8783SOL    HW127248   6.419   2.838   5.368
 8783SOL    HW227249   6.415   2.941   5.495
 8784SOL     OW27250   6.097   4.234   5.794
 8784SOL    HW127251   6.018   4.293   5.807
 8784SOL    HW227252   6.074   4.161   5.730
 8785SOL     OW27253   5.314   4.075   5.525
 8785SOL    HW127254   5.258   4.128   5.461
 8785SOL    HW227255   5.365   4.006   5.475
 8786SOL     OW27256   1.802   6.173   0.253
 8786SOL    HW127257   1.717   6.190   0.204
 8786SOL    HW227258   1.791   6.202   0.348
 8787SOL     OW27259   1.358   2.532   6.976
 8787SOL    HW127260   1.449   2.525   6.934
 8787SOL    HW227261   1.299   2.461   6.937
 8788SOL     OW27262   1.536   2.122   5.552
 8788SOL    HW127263   1.484   2.111   5.467
 8788SOL    HW227264   1.550   2.219   5.570
 8789SOL     OW27265   0.472   1.142   0.354
 8789SOL    HW127266   0.419   1.148   0.439
 8789SOL    HW227267   0.558   1.191   0.364
 8790SOL     OW27268   4.051   1.361   6.212
 8790SOL    HW127269   3.965   1.372   6.162
 8790SOL    HW227270   4.118   1.315   6.154
 8791SOL     OW27271   5.132   6.253   5.069
 8791SOL    HW127272   5.064   6.307   5.119
 8791SOL    HW227273   5.114   6.155   5.083
 8792SOL     OW27274   5.204   6.777   2.480
 8792SOL    HW127275   5.278   6.834   2.518
 8792SOL    HW227276   5.231   6.681   2.487
 8793SOL     OW27277   1.065   4.484   3.443
 8793SOL    HW127278   1.033   4.395   3.411
 8793SOL    HW227279   0.991   4.532   3.491
 8794SOL     OW27280   2.774   5.715   2.637
 8794SOL    HW127281   2.828   5.796   2.657
 8794SOL    HW227282   2.678   5.731   2.661
 8795SOL     OW27283   3.250   6.185   4.901
 8795SOL    HW127284   3.261   6.230   4.812
 8795SOL    HW227285   3.173   6.122   4.897
 8796SOL     OW27286   5.012   2.264   4.945
 8796SOL    HW127287   5.021   2.333   4.873
 8796SOL    HW227288   5.097   2.258   4.997
 8797SOL     OW27289   0.762   6.074   6.637
 8797SOL    HW127290   0.665   6.098   6.638
 8797SOL    HW227291   0.816   6.155   6.659
 8798SOL     OW27292   3.135   3.166   5.395
 8798SOL    HW127293   3.233   3.168   5.374
 8798SOL    HW227294   3.083   3.171   5.310
 8799SOL     OW27295   2.961   0.641   2.325
 8799SOL    HW127296   2.949   0.541   2.325
 8799SOL    HW227297   3.057   0.663   2.303
 8800SOL     OW27298   3.999   4.380   0.622
 8800SOL    HW127299   3.940   4.455   0.592
 8800SOL    HW227300   4.040   4.403   0.710
 8801SOL     OW27301   3.257   6.750   5.861
 8801SOL    HW127302   3.248   6.773   5.765
 8801SOL    HW227303   3.166   6.738   5.901
 8802SOL     OW27304   2.312   6.107   1.525
 8802SOL    HW127305   2.260   6.132   1.606
 8802SOL    HW227306   2.410   6.105   1.546
 8803SOL     OW27307   3.841   5.987   2.093
 8803SOL    HW127308   3.871   6.048   2.019
 8803SOL    HW227309   3.800   6.041   2.166
 8804SOL     OW27310   2.675   0.897   1.761
 8804SOL    HW127311   2.695   0.865   1.853
 8804SOL    HW227312   2.593   0.850   1.726
 8805SOL     OW27313   0.683   0.390   3.627
 8805SOL    HW127314   0.690   0.309   3.569
 8805SOL    HW227315   0.587   0.408   3.648
 8806SOL     OW27316   1.670   4.930   0.257
 8806SOL    HW127317   1.760   4.907   0.219
 8806SOL    HW227318   1.667   4.905   0.353
 8807SOL     OW27319   2.528   5.508   6.398
 8807SOL    HW127320   2.544   5.605   6.414
 8807SOL    HW227321   2.615   5.460   6.393
 8808SOL     OW27322   5.650   2.529   0.818
 8808SOL    HW127323   5.717   2.489   0.754
 8808SOL    HW227324   5.558   2.509   0.785
 8809SOL     OW27325   6.004   4.881   0.016
 8809SOL    HW127326   6.007   4.979   0.036
 8809SOL    HW227327   6.085   4.837   0.054
 8810SOL     OW27328   4.936   1.727   4.123
 8810SOL    HW127329   4.926   1.674   4.207
 8810SOL    HW227330   4.933   1.666   4.044
 8811SOL     OW27331   1.185   0.836   3.289
 8811SOL    HW127332   1.236   0.890   3.356
 8811SOL    HW227333   1.205   0.739   3.303
 8812SOL     OW27334   2.719   0.943   7.009
 8812SOL    HW127335   2.794   0.886   0.019
 8812SOL    HW227336   2.755   1.033   6.983
 8813SOL     OW27337   1.211   5.588   1.182
 8813SOL    HW127338   1.307   5.612   1.175
 8813SOL    HW227339   1.169   5.587   1.091
 8814SOL     OW27340   5.713   6.724   5.491
 8814SOL    HW127341   5.699   6.798   5.426
 8814SOL    HW227342   5.804   6.731   5.532
 8815SOL     OW27343   5.922   5.526   3.126
 8815SOL    HW127344   5.910   5.435   3.085
 8815SOL    HW227345   5.961   5.515   3.218
 8816SOL     OW27346   0.538   5.253   2.139
 8816SOL    HW127347   0.502   5.342   2.109
 8816SOL    HW227348   0.616   5.267   2.199
 8817SOL     OW27349   2.154   3.749   5.105
 8817SOL    HW127350   2.188   3.819   5.042
 8817SOL    HW227351   2.229   3.719   5.164
 8818SOL     OW27352   6.939   4.756   5.067
 8818SOL    HW127353   7.003   4.679   5.065
 8818SOL    HW227354   6.963   4.821   4.995
 8819SOL     OW27355   6.539   0.427   4.086
 8819SOL    HW127356   6.581   0.462   4.169
 8819SOL    HW227357   6.583   0.340   4.060
 8820SOL     OW27358   1.316   2.519   3.169
 8820SOL    HW127359   1.227   2.565   3.167
 8820SOL    HW227360   1.384   2.579   3.212
 8821SOL     OW27361   1.765   6.920   6.633
 8821SOL    HW127362   1.758   6.849   6.703
 8821SOL    HW227363   1.805   6.881   6.550
 8822SOL     OW27364   1.375   2.623   4.165
 8822SOL    HW127365   1.389   2.722   4.168
 8822SOL    HW227366   1.429   2.584   4.091
 8823SOL     OW27367   2.498   5.241   1.429
 8823SOL    HW127368   2.552   5.276   1.505
 8823SOL    HW227369   2.549   5.168   1.383
 8824SOL     OW27370   4.864   4.406   1.080
 8824SOL    HW127371   4.810   4.466   1.140
 8824SOL    HW227372   4.880   4.319   1.126
 8825SOL     OW27373   2.341   2.244   0.216
 8825SOL    HW127374   2.255   2.251   0.164
 8825SOL    HW227375   2.416   2.281   0.161
 8826SOL     OW27376   5.852   0.493   1.641
 8826SOL    HW127377   5.919   0.419   1.639
 8826SOL    HW227378   5.829   0.520   1.548
 8827SOL     OW27379   6.468   1.712   3.678
 8827SOL    HW127380   6.482   1.656   3.597
 8827SOL    HW227381   6.491   1.659   3.760
 8828SOL     OW27382   1.353   6.224   3.699
 8828SOL    HW127383   1.429   6.159   3.700
 8828SOL    HW227384   1.363   6.288   3.775
 8829SOL     OW27385   1.668   0.697   1.304
 8829SOL    HW127386   1.755   0.746   1.300
 8829SOL    HW227387   1.601   0.753   1.354
 8830SOL     OW27388   1.429   1.147   0.654
 8830SOL    HW127389   1.447   1.231   0.602
 8830SOL    HW227390   1.431   1.068   0.593
 8831SOL     OW27391   6.314   1.058   1.688
 8831SOL    HW127392   6.395   1.114   1.705
 8831SOL    HW227393   6.279   1.023   1.775
 8832SOL     OW27394   6.176   1.310   2.576
 8832SOL    HW127395   6.122   1.333   2.656
 8832SOL    HW227396   6.272   1.331   2.593
 8833SOL     OW27397   1.101   5.416   2.182
 8833SOL    HW127398   1.018   5.459   2.148
 8833SOL    HW227399   1.080   5.323   2.213
 8834SOL     OW27400   5.798   4.249   3.713
 8834SOL    HW127401   5.755   4.235   3.624
 8834SOL    HW227402   5.821   4.345   3.724
 8835SOL     OW27403   0.701   1.230   0.483
 8835SOL    HW127404   0.791   1.263   0.454
 8835SOL    HW227405   0.698   1.227   0.583
 8836SOL     OW27406   4.767   1.675   2.060
 8836SOL    HW127407   4.702   1.641   1.992
 8836SOL    HW227408   4.835   1.734   2.016
 8837SOL     OW27409   0.166   2.272   2.178
 8837SOL    HW127410   0.241   2.217   2.142
 8837SOL    HW227411   0.081   2.246   2.133
 8838SOL     OW27412   1.476   6.142   4.053
 8838SOL    HW127413   1.485   6.202   4.132
 8838SOL    HW227414   1.548   6.162   3.987
 8839SOL     OW27415   5.203   5.805   4.397
 8839SOL    HW127416   5.168   5.716   4.366
 8839SOL    HW227417   5.254   5.792   4.482
 8840SOL     OW27418   3.979   0.652   1.889
 8840SOL    HW127419   3.912   0.682   1.956
 8840SOL    HW227420   4.052   0.601   1.934
 8841SOL     OW27421   3.656   0.243   3.742
 8841SOL    HW127422   3.588   0.269   3.673
 8841SOL    HW227423   3.615   0.249   3.833
 8842SOL     OW27424   1.630   2.341   1.744
 8842SOL    HW127425   1.615   2.269   1.676
 8842SOL    HW227426   1.629   2.301   1.836
 8843SOL     OW27427   0.094   3.001   4.244
 8843SOL    HW127428   0.187   3.037   4.245
 8843SOL    HW227429   0.097   2.904   4.217
 8844SOL     OW27430   5.820   1.898   6.950
 8844SOL    HW127431   5.801   1.818   7.007
 8844SOL    HW227432   5.819   1.872   6.854
 8845SOL     OW27433   4.931   2.537   6.982
 8845SOL    HW127434   4.844   2.512   6.940
 8845SOL    HW227435   4.949   2.634   6.966
 8846SOL     OW27436   3.277   4.903   3.770
 8846SOL    HW127437   3.321   4.864   3.851
 8846SOL    HW227438   3.347   4.930   3.704
 8847SOL     OW27439   0.873   1.470   3.323
 8847SOL    HW127440   0.903   1.507   3.235
 8847SOL    HW227441   0.799   1.526   3.359
 8848SOL     OW27442   0.517   1.265   3.572
 8848SOL    HW127443   0.471   1.177   3.568
 8848SOL    HW227444   0.571   1.279   3.489
 8849SOL     OW27445   3.023   0.031   1.524
 8849SOL    HW127446   3.010   6.991   1.447
 8849SOL    HW227447   2.965   0.003   1.600
 8850SOL     OW27448   3.076   2.539   6.944
 8850SOL    HW127449   2.995   2.500   6.987
 8850SOL    HW227450   3.056   2.634   6.916
 8851SOL     OW27451   2.173   3.834   1.976
 8851SOL    HW127452   2.167   3.890   2.059
 8851SOL    HW227453   2.199   3.740   2.001
 8852SOL     OW27454   0.445   2.221   4.664
 8852SOL    HW127455   0.504   2.267   4.730
 8852SOL    HW227456   0.349   2.233   4.692
 8853SOL     OW27457   4.667   0.585   1.593
 8853SOL    HW127458   4.724   0.503   1.586
 8853SOL    HW227459   4.713   0.652   1.651
 8854SOL     OW27460   6.833   2.751   5.006
 8854SOL    HW127461   6.915   2.745   5.063
 8854SOL    HW227462   6.821   2.846   4.974
 8855SOL     OW27463   4.885   4.769   1.094
 8855SOL    HW127464   4.965   4.757   1.035
 8855SOL    HW227465   4.911   4.750   1.189
 8856SOL     OW27466   5.662   0.460   5.936
 8856SOL    HW127467   5.754   0.473   5.972
 8856SOL    HW227468   5.596   0.461   6.011
 8857SOL     OW27469   6.664   2.169   6.644
 8857SOL    HW127470   6.582   2.225   6.654
 8857SOL    HW227471   6.718   2.173   6.727
 8858SOL     OW27472   6.578   5.460   4.883
 8858SOL    HW127473   6.632   5.507   4.953
 8858SOL    HW227474   6.617   5.478   4.793
 8859SOL     OW27475   0.955   5.671   3.180
 8859SOL    HW127476   0.982   5.706   3.090
 8859SOL    HW227477   1.010   5.591   3.203
 8860SOL     OW27478   6.381   2.795   2.104
 8860SOL    HW127479   6.342   2.883   2.078
 8860SOL    HW227480   6.318   2.747   2.166
 8861SOL     OW27481   3.286   2.517   1.374
 8861SOL    HW127482   3.361   2.571   1.336
 8861SOL    HW227483   3.300   2.505   1.473
 8862SOL     OW27484   4.366   4.607   4.682
 8862SOL    HW127485   4.362   4.568   4.774
 8862SOL    HW227486   4.451   4.579   4.638
 8863SOL     OW27487   1.574   3.552   1.779
 8863SOL    HW127488   1.610   3.524   1.691
 8863SOL    HW227489   1.504   3.623   1.765
 8864SOL     OW27490   6.231   1.696   5.302
 8864SOL    HW127491   6.231   1.778   5.244
 8864SOL    HW227492   6.325   1.669   5.320
 8865SOL     OW27493   2.892   1.210   0.912
 8865SOL    HW127494   2.908   1.198   0.814
 8865SOL    HW227495   2.979   1.228   0.958
 8866SOL     OW27496   6.006   6.804   1.837
 8866SOL    HW127497   6.025   6.717   1.883
 8866SOL    HW227498   6.092   6.847   1.810
 8867SOL     OW27499   6.122   2.784   2.875
 8867SOL    HW127500   6.196   2.719   2.888
 8867SOL    HW227501   6.149   2.873   2.911
 8868SOL     OW27502   0.287   2.783   3.371
 8868SOL    HW127503   0.291   2.851   3.299
 8868SOL    HW227504   0.300   2.827   3.460
 8869SOL     OW27505   4.877   0.180   3.544
 8869SOL    HW127506   4.803   0.124   3.507
 8869SOL    HW227507   4.857   0.201   3.640
 8870SOL     OW27508   0.794   0.690   1.828
 8870SOL    HW127509   0.843   0.739   1.901
 8870SOL    HW227510   0.787   0.593   1.852
 8871SOL     OW27511   0.188   6.823   1.177
 8871SOL    HW127512   0.219   6.914   1.206
 8871SOL    HW227513   0.264   6.774   1.136
 8872SOL     OW27514   6.861   4.660   3.516
 8872SOL    HW127515   6.933   4.618   3.571
 8872SOL    HW227516   6.775   4.659   3.567
 8873SOL     OW27517   1.886   1.407   3.452
 8873SOL    HW127518   1.838   1.488   3.420
 8873SOL    HW227519   1.821   1.333   3.466
 8874SOL     OW27520   2.803   5.793   0.543
 8874SOL    HW127521   2.855   5.715   0.508
 8874SOL    HW227522   2.721   5.761   0.590
 8875SOL     OW27523   6.029   2.952   4.524
 8875SOL    HW127524   6.124   2.949   4.494
 8875SOL    HW227525   5.979   2.875   4.482
 8876SOL     OW27526   4.336   0.691   0.817
 8876SOL    HW127527   4.270   0.691   0.742
 8876SOL    HW227528   4.379   0.781   0.823
 8877SOL     OW27529   0.579   4.502   1.398
 8877SOL    HW127530   0.616   4.422   1.350
 8877SOL    HW227531   0.516   4.471   1.469
 8878SOL     OW27532   4.835   3.861   1.972
 8878SOL    HW127533   4.909   3.914   2.014
 8878SOL    HW227534   4.848   3.764   1.991
 8879SOL     OW27535   6.824   4.034   4.051
 8879SOL    HW127536   6.866   3.949   4.020
 8879SOL    HW227537   6.732   4.016   4.084
 8880SOL     OW27538   4.175   2.028   2.917
 8880SOL    HW127539   4.145   2.004   2.825
 8880SOL    HW227540   4.275   2.021   2.922
 8881SOL     OW27541   3.869   5.293   3.054
 8881SOL    HW127542   3.862   5.260   2.960
 8881SOL    HW227543   3.779   5.288   3.098
 8882SOL     OW27544   3.806   1.368   0.451
 8882SOL    HW127545   3.898   1.405   0.462
 8882SOL    HW227546   3.750   1.394   0.530
 8883SOL     OW27547   0.906   6.365   2.988
 8883SOL    HW127548   0.944   6.355   3.079
 8883SOL    HW227549   0.827   6.305   2.977
 8884SOL     OW27550   4.473   2.555   5.918
 8884SOL    HW127551   4.453   2.506   5.833
 8884SOL    HW227552   4.570   2.545   5.939
 8885SOL     OW27553   6.012   5.033   1.133
 8885SOL    HW127554   6.010   5.111   1.072
 8885SOL    HW227555   5.974   4.953   1.087
 8886SOL     OW27556   5.030   6.605   0.241
 8886SOL    HW127557   5.079   6.591   0.327
 8886SOL    HW227558   4.984   6.519   0.215
 8887SOL     OW27559   3.721   0.181   1.561
 8887SOL    HW127560   3.700   0.257   1.622
 8887SOL    HW227561   3.779   0.214   1.486
 8888SOL     OW27562   3.924   2.139   2.155
 8888SOL    HW127563   3.853   2.130   2.226
 8888SOL    HW227564   3.880   2.154   2.066
 8889SOL     OW27565   1.441   4.685   6.834
 8889SOL    HW127566   1.352   4.730   6.840
 8889SOL    HW227567   1.433   4.592   6.872
 8890SOL     OW27568   1.671   5.760   0.064
 8890SOL    HW127569   1.630   5.772   6.996
 8890SOL    HW227570   1.729   5.838   0.085
 8891SOL     OW27571   6.276   3.496   5.159
 8891SOL    HW127572   6.221   3.423   5.119
 8891SOL    HW227573   6.343   3.528   5.091
 8892SOL     OW27574   2.191   5.291   4.727
 8892SOL    HW127575   2.135   5.210   4.744
 8892SOL    HW227576   2.218   5.293   4.631
 8893SOL     OW27577   0.444   4.754   5.303
 8893SOL    HW127578   0.365   4.801   5.264
 8893SOL    HW227579   0.437   4.757   5.403
 8894SOL     OW27580   5.262   2.348   1.928
 8894SOL    HW127581   5.278   2.434   1.880
 8894SOL    HW227582   5.338   2.329   1.990
 8895SOL     OW27583   0.055   3.641   1.581
 8895SOL    HW127584   6.979   3.659   1.590
 8895SOL    HW227585   0.103   3.728   1.568
 8896SOL     OW27586   0.876   1.341   3.935
 8896SOL    HW127587   0.968   1.357   3.897
 8896SOL    HW227588   0.865   1.244   3.956
 8897SOL     OW27589   1.507   5.427   4.388
 8897SOL    HW127590   1.449   5.499   4.427
 8897SOL    HW227591   1.546   5.373   4.463
 8898SOL     OW27592   5.550   4.875   2.599
 8898SOL    HW127593   5.607   4.871   2.517
 8898SOL    HW227594   5.520   4.783   2.623
 8899SOL     OW27595   1.906   4.286   1.906
 8899SOL    HW127596   1.915   4.302   1.808
 8899SOL    HW227597   1.924   4.190   1.926
 8900SOL     OW27598   3.961   1.569   4.444
 8900SOL    HW127599   3.938   1.596   4.350
 8900SOL    HW227600   3.878   1.545   4.493
 8901SOL     OW27601   1.435   5.059   5.026
 8901SOL    HW127602   1.534   5.062   5.019
 8901SOL    HW227603   1.408   4.982   5.085
 8902SOL     OW27604   0.544   5.222   6.525
 8902SOL    HW127605   0.490   5.170   6.592
 8902SOL    HW227606   0.482   5.273   6.465
 8903SOL     OW27607   0.750   0.413   4.847
 8903SOL    HW127608   0.700   0.500   4.853
 8903SOL    HW227609   0.840   0.430   4.806
 8904SOL     OW27610   0.059   1.333   3.141
 8904SOL    HW127611   0.112   1.417   3.129
 8904SOL    HW227612   0.115   1.254   3.117
 8905SOL     OW27613   1.990   4.628   1.487
 8905SOL    HW127614   2.053   4.563   1.444
 8905SOL    HW227615   1.908   4.580   1.518
 8906SOL     OW27616   6.124   0.713   6.877
 8906SOL    HW127617   6.100   0.807   6.852
 8906SOL    HW227618   6.098   0.696   6.972
 8907SOL     OW27619   2.650   3.238   5.347
 8907SOL    HW127620   2.585   3.186   5.291
 8907SOL    HW227621   2.692   3.177   5.414
 8908SOL     OW27622   1.698   5.607   5.969
 8908SOL    HW127623   1.671   5.698   5.938
 8908SOL    HW227624   1.764   5.567   5.905
 8909SOL     OW27625   2.629   6.109   2.005
 8909SOL    HW127626   2.575   6.184   2.042
 8909SOL    HW227627   2.633   6.034   2.071
 8910SOL     OW27628   1.263   1.135   3.888
 8910SOL    HW127629   1.223   1.046   3.866
 8910SOL    HW227630   1.349   1.146   3.839
 8911SOL     OW27631   5.293   2.867   4.411
 8911SOL    HW127632   5.356   2.834   4.340
 8911SOL    HW227633   5.199   2.850   4.382
 8912SOL     OW27634   3.355   2.995   3.792
 8912SOL    HW127635   3.440   2.958   3.828
 8912SOL    HW227636   3.322   2.936   3.718
 8913SOL     OW27637   5.126   5.638   1.290
 8913SOL    HW127638   5.067   5.601   1.219
 8913SOL    HW227639   5.129   5.738   1.283
 8914SOL     OW27640   4.680   5.767   5.372
 8914SOL    HW127641   4.648   5.681   5.411
 8914SOL    HW227642   4.730   5.818   5.442
 8915SOL     OW27643   2.713   0.849   3.775
 8915SOL    HW127644   2.665   0.770   3.813
 8915SOL    HW227645   2.726   0.835   3.676
 8916SOL     OW27646   6.044   0.869   2.308
 8916SOL    HW127647   6.107   0.838   2.237
 8916SOL    HW227648   6.085   0.946   2.358
 8917SOL     OW27649   5.712   2.165   0.588
 8917SOL    HW127650   5.716   2.150   0.489
 8917SOL    HW227651   5.765   2.246   0.612
 8918SOL     OW27652   1.506   3.491   2.783
 8918SOL    HW127653   1.499   3.500   2.883
 8918SOL    HW227654   1.511   3.582   2.742
 8919SOL     OW27655   6.335   2.747   2.650
 8919SOL    HW127656   6.348   2.650   2.670
 8919SOL    HW227657   6.238   2.765   2.635
 8920SOL     OW27658   0.912   2.034   0.832
 8920SOL    HW127659   0.886   2.118   0.879
 8920SOL    HW227660   0.877   1.955   0.883
 8921SOL     OW27661   0.939   2.811   1.346
 8921SOL    HW127662   1.024   2.862   1.359
 8921SOL    HW227663   0.957   2.729   1.291
 8922SOL     OW27664   2.929   4.970   3.393
 8922SOL    HW127665   3.000   4.975   3.464
 8922SOL    HW227666   2.910   4.874   3.373
 8923SOL     OW27667   2.756   1.442   3.586
 8923SOL    HW127668   2.770   1.528   3.634
 8923SOL    HW227669   2.661   1.412   3.598
 8924SOL     OW27670   6.301   4.907   4.741
 8924SOL    HW127671   6.314   5.004   4.721
 8924SOL    HW227672   6.367   4.878   4.810
 8925SOL     OW27673   0.439   6.748   3.999
 8925SOL    HW127674   0.424   6.754   3.900
 8925SOL    HW227675   0.377   6.680   4.038
 8926SOL     OW27676   5.752   2.159   0.059
 8926SOL    HW127677   5.761   2.236   7.018
 8926SOL    HW227678   5.774   2.074   0.012
 8927SOL     OW27679   1.203   1.674   6.473
 8927SOL    HW127680   1.128   1.643   6.415
 8927SOL    HW227681   1.208   1.773   6.471
 8928SOL     OW27682   1.738   6.890   5.589
 8928SOL    HW127683   1.756   6.815   5.526
 8928SOL    HW227684   1.652   6.934   5.566
 8929SOL     OW27685   7.005   1.598   3.558
 8929SOL    HW127686   6.992   1.651   3.474
 8929SOL    HW227687   6.916   1.578   3.598
 8930SOL     OW27688   2.424   5.583   3.072
 8930SOL    HW127689   2.396   5.506   3.128
 8930SOL    HW227690   2.345   5.619   3.022
 8931SOL     OW27691   4.159   3.114   6.984
 8931SOL    HW127692   4.194   3.208   6.978
 8931SOL    HW227693   4.071   3.108   6.938
 8932SOL     OW27694   0.267   4.001   2.792
 8932SOL    HW127695   0.279   4.029   2.887
 8932SOL    HW227696   0.330   3.926   2.771
 8933SOL     OW27697   4.861   1.908   6.072
 8933SOL    HW127698   4.933   1.843   6.049
 8933SOL    HW227699   4.780   1.858   6.105
 8934SOL     OW27700   2.508   5.902   2.935
 8934SOL    HW127701   2.485   5.915   3.032
 8934SOL    HW227702   2.443   5.952   2.878
 8935SOL     OW27703   6.990   5.603   6.920
 8935SOL    HW127704   7.021   5.508   6.922
 8935SOL    HW227705   6.918   5.616   6.988
 8936SOL     OW27706   4.205   2.955   1.182
 8936SOL    HW127707   4.186   2.857   1.174
 8936SOL    HW227708   4.191   2.999   1.094
 8937SOL     OW27709   0.631   1.284   6.248
 8937SOL    HW127710   0.598   1.346   6.319
 8937SOL    HW227711   0.729   1.295   6.236
 8938SOL     OW27712   4.424   5.992   1.939
 8938SOL    HW127713   4.458   5.920   1.878
 8938SOL    HW227714   4.407   6.075   1.885
 8939SOL     OW27715   5.780   2.334   4.147
 8939SOL    HW127716   5.705   2.321   4.211
 8939SOL    HW227717   5.848   2.395   4.187
 8940SOL     OW27718   5.454   6.958   2.487
 8940SOL    HW127719   5.454   6.996   2.394
 8940SOL    HW227720   5.545   6.923   2.508
 8941SOL     OW27721   3.708   1.596   0.043
 8941SOL    HW127722   3.727   1.528   0.114
 8941SOL    HW227723   3.746   1.565   6.978
 8942SOL     OW27724   1.155   2.305   5.890
 8942SOL    HW127725   1.125   2.215   5.857
 8942SOL    HW227726   1.223   2.342   5.827
 8943SOL     OW27727   5.141   3.870   0.626
 8943SOL    HW127728   5.131   3.799   0.696
 8943SOL    HW227729   5.180   3.952   0.667
 8944SOL     OW27730   4.147   5.631   1.435
 8944SOL    HW127731   4.140   5.720   1.481
 8944SOL    HW227732   4.181   5.563   1.500
 8945SOL     OW27733   2.298   1.110   3.931
 8945SOL    HW127734   2.227   1.179   3.936
 8945SOL    HW227735   2.280   1.048   3.855
 8946SOL     OW27736   3.875   0.642   4.515
 8946SOL    HW127737   3.863   0.724   4.459
 8946SOL    HW227738   3.921   0.666   4.601
 8947SOL     OW27739   3.872   3.603   5.189
 8947SOL    HW127740   3.963   3.644   5.193
 8947SOL    HW227741   3.866   3.543   5.110
 8948SOL     OW27742   5.737   4.808   3.499
 8948SOL    HW127743   5.744   4.740   3.425
 8948SOL    HW227744   5.746   4.899   3.460
 8949SOL     OW27745   1.444   5.494   5.865
 8949SOL    HW127746   1.370   5.533   5.921
 8949SOL    HW227747   1.530   5.499   5.916
 8950SOL     OW27748   4.670   2.746   4.526
 8950SOL    HW127749   4.705   2.692   4.450
 8950SOL    HW227750   4.598   2.695   4.574
 8951SOL     OW27751   3.102   2.495   5.617
 8951SOL    HW127752   3.120   2.416   5.558
 8951SOL    HW227753   3.019   2.540   5.586
 8952SOL     OW27754   6.239   6.705   3.382
 8952SOL    HW127755   6.210   6.731   3.290
 8952SOL    HW227756   6.322   6.754   3.406
 8953SOL     OW27757   1.603   5.279   5.731
 8953SOL    HW127758   1.594   5.179   5.739
 8953SOL    HW227759   1.535   5.323   5.790
 8954SOL     OW27760   2.675   6.280   6.128
 8954SOL    HW127761   2.736   6.356   6.109
 8954SOL    HW227762   2.676   6.259   6.226
 8955SOL     OW27763   6.768   3.773   4.407
 8955SOL    HW127764   6.785   3.677   4.384
 8955SOL    HW227765   6.684   3.781   4.459
 8956SOL     OW27766   0.954   0.496   4.680
 8956SOL    HW127767   0.967   0.397   4.674
 8956SOL    HW227768   0.975   0.538   4.592
 8957SOL     OW27769   3.407   6.005   1.823
 8957SOL    HW127770   3.309   5.989   1.839
 8957SOL    HW227771   3.429   6.100   1.843
 8958SOL     OW27772   3.134   0.417   4.497
 8958SOL    HW127773   3.087   0.361   4.565
 8958SOL    HW227774   3.150   0.364   4.414
 8959SOL     OW27775   3.858   5.439   6.943
 8959SOL    HW127776   3.869   5.519   7.001
 8959SOL    HW227777   3.760   5.424   6.925
 8960SOL     OW27778   4.206   5.928   0.782
 8960SOL    HW127779   4.119   5.975   0.773
 8960SOL    HW227780   4.275   5.992   0.816
 8961SOL     OW27781   0.681   2.949   3.944
 8961SOL    HW127782   0.697   3.036   3.990
 8961SOL    HW227783   0.587   2.947   3.909
 8962SOL     OW27784   4.780   0.488   3.951
 8962SOL    HW127785   4.828   0.574   3.934
 8962SOL    HW227786   4.683   0.507   3.967
 8963SOL     OW27787   0.634   1.011   4.218
 8963SOL    HW127788   0.604   0.933   4.161
 8963SOL    HW227789   0.614   1.096   4.170
 8964SOL     OW27790   6.727   3.244   2.877
 8964SOL    HW127791   6.774   3.318   2.926
 8964SOL    HW227792   6.683   3.280   2.795
 8965SOL     OW27793   2.023   5.091   1.303
 8965SOL    HW127794   2.060   5.170   1.254
 8965SOL    HW227795   1.946   5.121   1.360
 8966SOL     OW27796   3.975   1.903   5.091
 8966SOL    HW127797   3.948   1.994   5.060
 8966SOL    HW227798   3.894   1.850   5.116
 8967SOL     OW27799   5.294   6.314   0.598
 8967SOL    HW127800   5.244   6.283   0.679
 8967SOL    HW227801   5.357   6.242   0.568
 8968SOL     OW27802   5.619   4.200   3.492
 8968SOL    HW127803   5.573   4.123   3.447
 8968SOL    HW227804   5.550   4.263   3.528
 8969SOL     OW27805   6.748   6.968   4.200
 8969SOL    HW127806   6.704   6.923   4.123
 8969SOL    HW227807   6.720   6.924   4.285
 8970SOL     OW27808   3.205   2.853   1.487
 8970SOL    HW127809   3.204   2.952   1.495
 8970SOL    HW227810   3.175   2.812   1.573
 8971SOL     OW27811   3.791   6.109   2.919
 8971SOL    HW127812   3.792   6.036   2.987
 8971SOL    HW227813   3.820   6.195   2.961
 8972SOL     OW27814   4.770   0.163   4.626
 8972SOL    HW127815   4.866   0.159   4.656
 8972SOL    HW227816   4.746   0.258   4.606
 8973SOL     OW27817   2.075   4.980   6.241
 8973SOL    HW127818   1.995   4.931   6.206
 8973SOL    HW227819   2.156   4.953   6.190
 8974SOL     OW27820   0.435   2.988   3.848
 8974SOL    HW127821   0.389   2.970   3.761
 8974SOL    HW227822   0.403   3.076   3.884
 8975SOL     OW27823   3.392   0.996   6.074
 8975SOL    HW127824   3.436   0.930   6.012
 8975SOL    HW227825   3.376   1.082   6.026
 8976SOL     OW27826   1.643   5.585   4.009
 8976SOL    HW127827   1.649   5.683   3.987
 8976SOL    HW227828   1.728   5.556   4.053
 8977SOL     OW27829   5.301   1.426   0.156
 8977SOL    HW127830   5.307   1.400   0.059
 8977SOL    HW227831   5.244   1.507   0.165
 8978SOL     OW27832   5.706   5.510   1.337
 8978SOL    HW127833   5.608   5.532   1.337
 8978SOL    HW227834   5.719   5.421   1.382
 8979SOL     OW27835   0.936   4.577   4.869
 8979SOL    HW127836   0.933   4.540   4.962
 8979SOL    HW227837   0.998   4.520   4.813
 8980SOL     OW27838   3.523   2.910   4.417
 8980SOL    HW127839   3.590   2.876   4.483
 8980SOL    HW227840   3.435   2.923   4.462
 8981SOL     OW27841   2.567   1.775   5.199
 8981SOL    HW127842   2.639   1.758   5.131
 8981SOL    HW227843   2.483   1.803   5.153
 8982SOL     OW27844   3.469   4.794   0.283
 8982SOL    HW127845   3.470   4.890   0.310
 8982SOL    HW227846   3.469   4.737   0.365
 8983SOL     OW27847   5.016   4.477   0.860
 8983SOL    HW127848   4.984   4.560   0.813
 8983SOL    HW227849   4.978   4.474   0.952
 8984SOL     OW27850   1.482   6.731   3.432
 8984SOL    HW127851   1.466   6.639   3.397
 8984SOL    HW227852   1.565   6.732   3.488
 8985SOL     OW27853   3.119   3.318   6.111
 8985SOL    HW127854   3.105   3.322   6.012
 8985SOL    HW227855   3.209   3.279   6.130
 8986SOL     OW27856   2.862   6.225   2.230
 8986SOL    HW127857   2.868   6.261   2.137
 8986SOL    HW227858   2.904   6.134   2.234
 8987SOL     OW27859   5.435   6.699   2.147
 8987SOL    HW127860   5.499   6.757   2.098
 8987SOL    HW227861   5.361   6.755   2.184
 8988SOL     OW27862   0.324   4.631   4.808
 8988SOL    HW127863   0.323   4.550   4.867
 8988SOL    HW227864   0.279   4.610   4.721
 8989SOL     OW27865   2.233   2.375   6.742
 8989SOL    HW127866   2.215   2.286   6.701
 8989SOL    HW227867   2.161   2.439   6.716
 8990SOL     OW27868   0.049   4.949   3.673
 8990SOL    HW127869   0.117   5.019   3.650
 8990SOL    HW227870   6.993   4.992   3.718
 8991SOL     OW27871   1.203   2.318   5.489
 8991SOL    HW127872   1.191   2.385   5.416
 8991SOL    HW227873   1.270   2.249   5.460
 8992SOL     OW27874   6.297   2.321   1.423
 8992SOL    HW127875   6.338   2.230   1.432
 8992SOL    HW227876   6.364   2.384   1.385
 8993SOL     OW27877   4.267   2.134   0.832
 8993SOL    HW127878   4.229   2.226   0.828
 8993SOL    HW227879   4.361   2.135   0.798
 8994SOL     OW27880   1.604   5.683   2.513
 8994SOL    HW127881   1.527   5.700   2.451
 8994SOL    HW227882   1.591   5.734   2.598
 8995SOL     OW27883   0.621   0.089   1.598
 8995SOL    HW127884   0.558   0.162   1.624
 8995SOL    HW227885   0.702   0.093   1.656
 8996SOL     OW27886   4.125   6.131   5.802
 8996SOL    HW127887   4.122   6.222   5.762
 8996SOL    HW227888   4.047   6.077   5.769
 8997SOL     OW27889   6.540   0.280   4.687
 8997SOL    HW127890   6.587   0.204   4.641
 8997SOL    HW227891   6.556   0.274   4.786
 8998SOL     OW27892   6.828   4.072   4.715
 8998SOL    HW127893   6.771   4.002   4.757
 8998SOL    HW227894   6.854   4.044   4.623
 8999SOL     OW27895   4.225   5.884   6.006
 8999SOL    HW127896   4.169   5.820   6.059
 8999SOL    HW227897   4.176   5.971   5.997
 9000SOL     OW27898   0.961   3.759   1.487
 9000SOL    HW127899   0.963   3.855   1.456
 9000SOL    HW227900   1.055   3.725   1.492
 9001SOL     OW27901   1.596   5.779   1.019
 9001SOL    HW127902   1.602   5.735   1.108
 9001SOL    HW227903   1.680   5.761   0.967
 9002SOL     OW27904   6.979   5.140   6.041
 9002SOL    HW127905   0.030   5.125   5.975
 9002SOL    HW227906   7.011   5.116   6.132
 9003SOL     OW27907   5.133   6.799   0.693
 9003SOL    HW127908   5.208   6.798   0.759
 9003SOL    HW227909   5.065   6.730   0.719
 9004SOL     OW27910   6.100   5.247   1.619
 9004SOL    HW127911   6.055   5.317   1.676
 9004SOL    HW227912   6.050   5.161   1.626
 9005SOL     OW27913   4.860   0.729   5.010
 9005SOL    HW127914   4.785   0.696   5.067
 9005SOL    HW227915   4.924   0.783   5.065
 9006SOL     OW27916   4.044   5.941   0.207
 9006SOL    HW127917   4.144   5.933   0.211
 9006SOL    HW227918   4.019   6.011   0.141
 9007SOL     OW27919   0.994   1.245   3.042
 9007SOL    HW127920   0.977   1.155   3.003
 9007SOL    HW227921   1.052   1.298   2.980
 9008SOL     OW27922   0.349   5.133   2.532
 9008SOL    HW127923   0.354   5.061   2.463
 9008SOL    HW227924   0.289   5.206   2.499
 9009SOL     OW27925   3.029   6.569   1.965
 9009SOL    HW127926   3.042   6.478   2.004
 9009SOL    HW227927   2.963   6.620   2.021
 9010SOL     OW27928   1.358   5.641   4.509
 9010SOL    HW127929   1.274   5.614   4.557
 9010SOL    HW227930   1.340   5.724   4.456
 9011SOL     OW27931   2.065   2.227   2.382
 9011SOL    HW127932   2.033   2.319   2.402
 9011SOL    HW227933   2.151   2.211   2.431
 9012SOL     OW27934   2.403   5.793   6.910
 9012SOL    HW127935   2.334   5.823   6.976
 9012SOL    HW227936   2.422   5.696   6.923
 9013SOL     OW27937   1.987   0.596   4.662
 9013SOL    HW127938   1.956   0.537   4.738
 9013SOL    HW227939   2.053   0.546   4.607
 9014SOL     OW27940   5.344   3.039   3.484
 9014SOL    HW127941   5.419   2.990   3.440
 9014SOL    HW227942   5.325   3.124   3.434
 9015SOL     OW27943   4.656   0.017   6.206
 9015SOL    HW127944   4.557   0.034   6.203
 9015SOL    HW227945   4.680   6.968   6.140
 9016SOL     OW27946   4.809   4.804   5.889
 9016SOL    HW127947   4.815   4.734   5.817
 9016SOL    HW227948   4.900   4.838   5.909
 9017SOL     OW27949   3.476   0.371   5.354
 9017SOL    HW127950   3.495   0.451   5.299
 9017SOL    HW227951   3.378   0.356   5.360
 9018SOL     OW27952   3.501   5.052   0.394
 9018SOL    HW127953   3.513   5.065   0.492
 9018SOL    HW227954   3.559   5.116   0.344
 9019SOL     OW27955   0.541   3.278   3.636
 9019SOL    HW127956   0.490   3.353   3.594
 9019SOL    HW227957   0.622   3.314   3.682
 9020SOL     OW27958   5.751   4.586   3.327
 9020SOL    HW127959   5.710   4.611   3.240
 9020SOL    HW227960   5.848   4.567   3.315
 9021SOL     OW27961   0.052   1.439   4.166
 9021SOL    HW127962   0.045   1.408   4.261
 9021SOL    HW227963   7.018   1.520   4.153
 9022SOL     OW27964   4.507   3.654   6.768
 9022SOL    HW127965   4.569   3.579   6.743
 9022SOL    HW227966   4.516   3.673   6.866
 9023SOL     OW27967   0.327   4.772   0.461
 9023SOL    HW127968   0.314   4.870   0.445
 9023SOL    HW227969   0.424   4.752   0.468
 9024SOL     OW27970   2.322   5.196   6.334
 9024SOL    HW127971   2.248   5.263   6.334
 9024SOL    HW227972   2.285   5.106   6.314
 9025SOL     OW27973   0.792   6.046   0.990
 9025SOL    HW127974   0.879   6.004   1.016
 9025SOL    HW227975   0.728   5.975   0.960
 9026SOL     OW27976   5.497   0.794   0.505
 9026SOL    HW127977   5.546   0.713   0.471
 9026SOL    HW227978   5.548   0.876   0.482
 9027SOL     OW27979   0.474   3.796   3.161
 9027SOL    HW127980   0.558   3.850   3.169
 9027SOL    HW227981   0.496   3.699   3.163
 9028SOL     OW27982   3.374   5.070   6.247
 9028SOL    HW127983   3.361   5.164   6.216
 9028SOL    HW227984   3.288   5.020   6.238
 9029SOL     OW27985   4.466   6.482   4.691
 9029SOL    HW127986   4.465   6.555   4.760
 9029SOL    HW227987   4.483   6.522   4.601
 9030SOL     OW27988   2.864   2.221   2.275
 9030SOL    HW127989   2.882   2.252   2.181
 9030SOL    HW227990   2.835   2.125   2.273
 9031SOL     OW27991   4.898   6.879   5.013
 9031SOL    HW127992   4.849   6.961   5.044
 9031SOL    HW227993   4.955   6.903   4.935
 9032SOL     OW27994   5.408   2.636   1.042
 9032SOL    HW127995   5.403   2.556   1.101
 9032SOL    HW227996   5.499   2.643   1.002
 9033SOL     OW27997   1.516   6.417   2.831
 9033SOL    HW127998   1.544   6.340   2.888
 9033SOL    HW227999   1.556   6.501   2.867
 9034SOL     OW28000   4.715   6.695   4.364
 9034SOL    HW128001   4.781   6.681   4.291
 9034SOL    HW228002   4.751   6.657   4.449
 9035SOL     OW28003   3.456   4.971   5.947
 9035SOL    HW128004   3.527   4.905   5.924
 9035SOL    HW228005   3.493   5.040   6.009
 9036SOL     OW28006   0.762   5.020   5.421
 9036SOL    HW128007   0.847   5.057   5.383
 9036SOL    HW228008   0.709   5.095   5.462
 9037SOL     OW28009   0.203   0.638   1.932
 9037SOL    HW128010   0.199   0.650   2.032
 9037SOL    HW228011   0.299   0.644   1.903
 9038SOL     OW28012   3.908   3.341   5.975
 9038SOL    HW128013   3.981   3.369   5.913
 9038SOL    HW228014   3.846   3.279   5.927
 9039SOL     OW28015   4.553   6.257   6.845
 9039SOL    HW128016   4.624   6.313   6.801
 9039SOL    HW228017   4.497   6.212   6.775
 9040SOL     OW28018   2.100   2.185   1.430
 9040SOL    HW128019   2.065   2.101   1.472
 9040SOL    HW228020   2.147   2.240   1.499
 9041SOL     OW28021   6.213   2.187   2.891
 9041SOL    HW128022   6.229   2.150   2.983
 9041SOL    HW228023   6.134   2.249   2.894
 9042SOL     OW28024   5.423   5.539   6.759
 9042SOL    HW128025   5.333   5.505   6.735
 9042SOL    HW228026   5.429   5.636   6.736
 9043SOL     OW28027   2.771   3.108   1.771
 9043SOL    HW128028   2.681   3.069   1.757
 9043SOL    HW228029   2.841   3.043   1.742
 9044SOL     OW28030   1.533   0.553   0.414
 9044SOL    HW128031   1.456   0.618   0.409
 9044SOL    HW228032   1.607   0.584   0.355
 9045SOL     OW28033   3.838   0.445   3.701
 9045SOL    HW128034   3.780   0.369   3.732
 9045SOL    HW228035   3.780   0.518   3.665
 9046SOL     OW28036   3.954   3.123   2.491
 9046SOL    HW128037   4.053   3.117   2.478
 9046SOL    HW228038   3.909   3.047   2.443
 9047SOL     OW28039   0.492   4.558   5.771
 9047SOL    HW128040   0.393   4.574   5.764
 9047SOL    HW228041   0.533   4.630   5.828
 9048SOL     OW28042   6.991   1.653   5.529
 9048SOL    HW128043   6.902   1.634   5.570
 9048SOL    HW228044   6.990   1.623   5.434
 9049SOL     OW28045   2.302   6.479   5.278
 9049SOL    HW128046   2.269   6.573   5.268
 9049SOL    HW228047   2.299   6.452   5.374
 9050SOL     OW28048   0.844   4.185   0.595
 9050SOL    HW128049   0.774   4.141   0.652
 9050SOL    HW228050   0.880   4.265   0.642
 9051SOL     OW28051   2.115   0.783   1.651
 9051SOL    HW128052   2.060   0.806   1.731
 9051SOL    HW228053   2.123   0.864   1.592
 9052SOL     OW28054   2.275   3.775   6.388
 9052SOL    HW128055   2.227   3.739   6.308
 9052SOL    HW228056   2.249   3.722   6.469
 9053SOL     OW28057   0.573   1.099   6.934
 9053SOL    HW128058   0.631   1.024   6.901
 9053SOL    HW228059   0.488   1.101   6.882
 9054SOL     OW28060   1.535   5.526   2.880
 9054SOL    HW128061   1.463   5.565   2.823
 9054SOL    HW228062   1.497   5.455   2.939
 9055SOL     OW28063   0.508   2.442   5.919
 9055SOL    HW128064   0.606   2.450   5.938
 9055SOL    HW228065   0.487   2.348   5.893
 9056SOL     OW28066   5.806   1.840   3.952
 9056SOL    HW128067   5.793   1.797   3.862
 9056SOL    HW228068   5.749   1.922   3.958
 9057SOL     OW28069   4.824   1.810   3.700
 9057SOL    HW128070   4.853   1.875   3.770
 9057SOL    HW228071   4.851   1.844   3.610
 9058SOL     OW28072   2.442   0.296   5.902
 9058SOL    HW128073   2.539   0.323   5.899
 9058SOL    HW228074   2.390   0.353   5.840
 9059SOL     OW28075   1.151   2.454   3.796
 9059SOL    HW128076   1.248   2.431   3.796
 9059SOL    HW228077   1.098   2.374   3.823
 9060SOL     OW28078   5.169   3.195   5.103
 9060SOL    HW128079   5.256   3.223   5.063
 9060SOL    HW228080   5.185   3.124   5.172
 9061SOL     OW28081   1.796   4.595   3.444
 9061SOL    HW128082   1.820   4.648   3.526
 9061SOL    HW228083   1.863   4.614   3.372
 9062SOL     OW28084   1.706   6.134   1.607
 9062SOL    HW128085   1.693   6.054   1.548
 9062SOL    HW228086   1.757   6.107   1.689
 9063SOL     OW28087   2.968   1.823   2.642
 9063SOL    HW128088   3.010   1.785   2.560
 9063SOL    HW228089   2.997   1.918   2.654
 9064SOL     OW28090   5.081   4.096   0.066
 9064SOL    HW128091   5.050   4.020   0.009
 9064SOL    HW228092   5.016   4.110   0.140
 9065SOL     OW28093   2.887   0.952   1.583
 9065SOL    HW128094   2.811   0.938   1.647
 9065SOL    HW228095   2.856   1.010   1.507
 9066SOL     OW28096   5.401   6.963   7.021
 9066SOL    HW128097   5.404   6.932   0.094
 9066SOL    HW228098   5.367   6.889   6.963
 9067SOL     OW28099   1.247   0.379   1.534
 9067SOL    HW128100   1.244   0.279   1.538
 9067SOL    HW228101   1.335   0.408   1.494
 9068SOL     OW28102   1.491   6.151   6.064
 9068SOL    HW128103   1.429   6.226   6.087
 9068SOL    HW228104   1.453   6.099   5.987
 9069SOL     OW28105   1.218   2.346   6.134
 9069SOL    HW128106   1.128   2.323   6.172
 9069SOL    HW228107   1.208   2.366   6.036
 9070SOL     OW28108   1.500   4.533   4.219
 9070SOL    HW128109   1.568   4.607   4.209
 9070SOL    HW228110   1.408   4.572   4.217
 9071SOL     OW28111   4.980   5.757   6.970
 9071SOL    HW128112   5.020   5.665   6.978
 9071SOL    HW228113   5.043   5.816   6.919
 9072SOL     OW28114   4.607   4.573   0.390
 9072SOL    HW128115   4.633   4.657   0.343
 9072SOL    HW228116   4.558   4.595   0.474
 9073SOL     OW28117   2.133   0.163   1.253
 9073SOL    HW128118   2.136   0.135   1.349
 9073SOL    HW228119   2.182   0.096   1.198
 9074SOL     OW28120   0.403   0.349   2.149
 9074SOL    HW128121   0.460   0.426   2.120
 9074SOL    HW228122   0.359   0.308   2.069
 9075SOL     OW28123   6.934   0.293   1.345
 9075SOL    HW128124   6.913   0.389   1.329
 9075SOL    HW228125   7.022   0.270   1.303
 9076SOL     OW28126   1.078   2.038   5.767
 9076SOL    HW128127   1.023   2.054   5.685
 9076SOL    HW228128   1.048   1.952   5.811
 9077SOL     OW28129   5.812   6.453   2.237
 9077SOL    HW128130   5.760   6.429   2.155
 9077SOL    HW228131   5.757   6.514   2.294
 9078SOL     OW28132   4.388   3.176   5.721
 9078SOL    HW128133   4.386   3.229   5.806
 9078SOL    HW228134   4.435   3.228   5.650
 9079SOL     OW28135   3.188   0.407   5.511
 9079SOL    HW128136   3.257   0.476   5.531
 9079SOL    HW228137   3.100   0.437   5.549
 9080SOL     OW28138   4.652   1.003   6.939
 9080SOL    HW128139   4.600   1.077   6.896
 9080SOL    HW228140   4.590   0.941   6.986
 9081SOL     OW28141   5.373   0.170   3.242
 9081SOL    HW128142   5.383   0.071   3.233
 9081SOL    HW228143   5.276   0.194   3.246
 9082SOL     OW28144   2.234   0.646   1.985
 9082SOL    HW128145   2.152   0.689   1.948
 9082SOL    HW228146   2.217   0.549   2.000
 9083SOL     OW28147   4.519   4.853   3.628
 9083SOL    HW128148   4.576   4.809   3.697
 9083SOL    HW228149   4.425   4.859   3.662
 9084SOL     OW28150   3.910   3.842   2.439
 9084SOL    HW128151   3.968   3.818   2.361
 9084SOL    HW228152   3.901   3.763   2.499
 9085SOL     OW28153   0.777   2.476   0.852
 9085SOL    HW128154   0.855   2.500   0.910
 9085SOL    HW228155   0.703   2.542   0.866
 9086SOL     OW28156   6.617   4.040   6.897
 9086SOL    HW128157   6.548   4.006   6.834
 9086SOL    HW228158   6.603   4.138   6.913
 9087SOL     OW28159   5.395   3.537   2.034
 9087SOL    HW128160   5.300   3.528   2.064
 9087SOL    HW228161   5.446   3.454   2.058
 9088SOL     OW28162   5.480   5.013   1.875
 9088SOL    HW128163   5.558   5.072   1.894
 9088SOL    HW228164   5.423   5.006   1.957
 9089SOL     OW28165   4.158   0.911   5.838
 9089SOL    HW128166   4.196   0.873   5.923
 9089SOL    HW228167   4.130   1.005   5.854
 9090SOL     OW28168   6.200   1.656   3.766
 9090SOL    HW128169   6.285   1.709   3.767
 9090SOL    HW228170   6.126   1.710   3.806
 9091SOL     OW28171   4.027   2.672   5.820
 9091SOL    HW128172   4.094   2.643   5.888
 9091SOL    HW228173   3.975   2.593   5.787
 9092SOL     OW28174   6.774   3.222   6.148
 9092SOL    HW128175   6.829   3.193   6.226
 9092SOL    HW228176   6.829   3.279   6.088
 9093SOL     OW28177   2.482   6.208   4.817
 9093SOL    HW128178   2.493   6.291   4.873
 9093SOL    HW228179   2.398   6.161   4.844
 9094SOL     OW28180   1.806   3.615   0.498
 9094SOL    HW128181   1.899   3.586   0.475
 9094SOL    HW228182   1.765   3.661   0.419
 9095SOL     OW28183   0.199   7.016   6.491
 9095SOL    HW128184   0.243   6.969   6.568
 9095SOL    HW228185   0.184   6.951   6.417
 9096SOL     OW28186   6.221   5.320   3.984
 9096SOL    HW128187   6.209   5.351   3.889
 9096SOL    HW228188   6.172   5.233   3.997
 9097SOL     OW28189   1.189   3.455   6.496
 9097SOL    HW128190   1.252   3.409   6.559
 9097SOL    HW228191   1.231   3.458   6.405
 9098SOL     OW28192   1.901   4.792   3.971
 9098SOL    HW128193   1.894   4.761   3.876
 9098SOL    HW228194   1.855   4.881   3.981
 9099SOL     OW28195   2.484   1.610   6.397
 9099SOL    HW128196   2.392   1.649   6.407
 9099SOL    HW228197   2.542   1.643   6.472
 9100SOL     OW28198   1.549   4.881   4.423
 9100SOL    HW128199   1.623   4.837   4.372
 9100SOL    HW228200   1.464   4.832   4.407
 9101SOL     OW28201   0.353   1.990   0.999
 9101SOL    HW128202   0.395   2.006   0.909
 9101SOL    HW228203   0.371   2.068   1.059
 9102SOL     OW28204   3.674   0.847   3.026
 9102SOL    HW128205   3.637   0.759   2.997
 9102SOL    HW228206   3.754   0.832   3.084
 9103SOL     OW28207   6.587   0.330   1.213
 9103SOL    HW128208   6.576   0.345   1.311
 9103SOL    HW228209   6.574   0.233   1.193
 9104SOL     OW28210   5.731   2.181   6.013
 9104SOL    HW128211   5.640   2.145   6.034
 9104SOL    HW228212   5.756   2.156   5.920
 9105SOL     OW28213   2.808   0.422   6.809
 9105SOL    HW128214   2.859   0.506   6.789
 9105SOL    HW228215   2.872   0.348   6.826
 9106SOL     OW28216   2.500   2.843   6.355
 9106SOL    HW128217   2.541   2.924   6.314
 9106SOL    HW228218   2.533   2.761   6.307
 9107SOL     OW28219   3.466   0.789   0.971
 9107SOL    HW128220   3.376   0.745   0.970
 9107SOL    HW228221   3.457   0.882   1.004
 9108SOL     OW28222   6.441   6.375   6.011
 9108SOL    HW128223   6.397   6.415   5.931
 9108SOL    HW228224   6.402   6.415   6.094
 9109SOL     OW28225   5.564   4.523   3.547
 9109SOL    HW128226   5.468   4.513   3.520
 9109SOL    HW228227   5.616   4.561   3.470
 9110SOL     OW28228   1.263   6.831   2.287
 9110SOL    HW128229   1.310   6.878   2.212
 9110SOL    HW228230   1.212   6.897   2.341
 9111SOL     OW28231   3.957   2.909   5.704
 9111SOL    HW128232   3.962   2.976   5.778
 9111SOL    HW228233   3.991   2.821   5.736
 9112SOL     OW28234   0.606   4.417   2.062
 9112SOL    HW128235   0.662   4.337   2.042
 9112SOL    HW228236   0.549   4.399   2.142
 9113SOL     OW28237   5.774   0.022   4.588
 9113SOL    HW128238   5.756   0.001   4.491
 9113SOL    HW228239   5.705   7.000   4.645
 9114SOL     OW28240   0.914   1.300   6.207
 9114SOL    HW128241   0.916   1.325   6.111
 9114SOL    HW228242   1.008   1.287   6.241
 9115SOL     OW28243   4.924   3.614   4.427
 9115SOL    HW128244   4.964   3.550   4.493
 9115SOL    HW228245   4.857   3.566   4.371
 9116SOL     OW28246   1.047   4.846   3.803
 9116SOL    HW128247   1.024   4.926   3.859
 9116SOL    HW228248   0.991   4.847   3.720
 9117SOL     OW28249   2.285   6.708   0.301
 9117SOL    HW128250   2.217   6.649   0.258
 9117SOL    HW228251   2.294   6.793   0.249
 9118SOL     OW28252   6.809   5.010   1.389
 9118SOL    HW128253   6.809   5.098   1.341
 9118SOL    HW228254   6.790   5.025   1.486
 9119SOL     OW28255   3.528   1.023   1.153
 9119SOL    HW128256   3.489   1.109   1.122
 9119SOL    HW228257   3.577   1.037   1.239
 9120SOL     OW28258   6.570   4.241   4.702
 9120SOL    HW128259   6.563   4.181   4.782
 9120SOL    HW228260   6.639   4.311   4.719
 9121SOL     OW28261   4.120   1.250   4.464
 9121SOL    HW128262   4.157   1.240   4.372
 9121SOL    HW228263   4.117   1.347   4.488
 9122SOL     OW28264   0.091   1.764   1.903
 9122SOL    HW128265   0.090   1.849   1.849
 9122SOL    HW228266   0.179   1.756   1.950
 9123SOL     OW28267   0.728   6.521   4.817
 9123SOL    HW128268   0.703   6.424   4.825
 9123SOL    HW228269   0.790   6.533   4.739
 9124SOL     OW28270   3.719   5.645   0.502
 9124SOL    HW128271   3.769   5.726   0.471
 9124SOL    HW228272   3.778   5.589   0.560
 9125SOL     OW28273   5.164   6.521   1.603
 9125SOL    HW128274   5.189   6.565   1.690
 9125SOL    HW228275   5.065   6.526   1.591
 9126SOL     OW28276   3.807   5.325   0.475
 9126SOL    HW128277   3.839   5.238   0.512
 9126SOL    HW228278   3.741   5.308   0.402
 9127SOL     OW28279   6.681   4.282   5.589
 9127SOL    HW128280   6.678   4.373   5.630
 9127SOL    HW228281   6.592   4.237   5.602
 9128SOL     OW28282   5.651   3.695   6.476
 9128SOL    HW128283   5.626   3.710   6.381
 9128SOL    HW228284   5.667   3.783   6.521
 9129SOL     OW28285   0.215   2.971   0.855
 9129SOL    HW128286   0.150   2.899   0.881
 9129SOL    HW228287   0.281   2.984   0.929
 9130SOL     OW28288   2.862   3.388   6.228
 9130SOL    HW128289   2.836   3.296   6.257
 9130SOL    HW228290   2.940   3.382   6.165
 9131SOL     OW28291   6.412   3.340   0.710
 9131SOL    HW128292   6.370   3.389   0.634
 9131SOL    HW228293   6.410   3.242   0.692
 9132SOL     OW28294   0.981   4.069   3.831
 9132SOL    HW128295   1.008   4.164   3.815
 9132SOL    HW228296   1.063   4.011   3.836
 9133SOL     OW28297   5.336   6.914   0.879
 9133SOL    HW128298   5.418   6.859   0.892
 9133SOL    HW228299   5.340   6.994   0.940
 9134SOL     OW28300   5.023   4.382   6.524
 9134SOL    HW128301   5.023   4.435   6.439
 9134SOL    HW228302   5.009   4.286   6.503
 9135SOL     OW28303   6.874   5.467   2.241
 9135SOL    HW128304   6.845   5.517   2.323
 9135SOL    HW228305   6.955   5.510   2.202
 9136SOL     OW28306   0.779   5.404   6.505
 9136SOL    HW128307   0.830   5.327   6.543
 9136SOL    HW228308   0.681   5.382   6.503
 9137SOL     OW28309   6.026   5.667   6.064
 9137SOL    HW128310   5.997   5.721   6.143
 9137SOL    HW228311   5.948   5.653   6.004
 9138SOL     OW28312   1.572   4.485   6.399
 9138SOL    HW128313   1.543   4.429   6.476
 9138SOL    HW228314   1.495   4.500   6.337
 9139SOL     OW28315   0.346   0.033   1.200
 9139SOL    HW128316   0.384   0.009   1.111
 9139SOL    HW228317   0.418   0.070   1.259
 9140SOL     OW28318   1.119   4.361   2.855
 9140SOL    HW128319   1.073   4.301   2.919
 9140SOL    HW228320   1.154   4.308   2.778
 9141SOL     OW28321   0.356   5.946   4.662
 9141SOL    HW128322   0.337   5.858   4.619
 9141SOL    HW228323   0.357   6.017   4.591
 9142SOL     OW28324   1.122   5.122   3.576
 9142SOL    HW128325   1.041   5.164   3.534
 9142SOL    HW228326   1.158   5.051   3.515
 9143SOL     OW28327   5.563   3.619   2.244
 9143SOL    HW128328   5.590   3.528   2.276
 9143SOL    HW228329   5.495   3.609   2.171
 9144SOL     OW28330   2.659   4.287   5.306
 9144SOL    HW128331   2.569   4.298   5.349
 9144SOL    HW228332   2.707   4.375   5.307
 9145SOL     OW28333   3.025   6.700   6.652
 9145SOL    HW128334   3.106   6.640   6.657
 9145SOL    HW228335   2.948   6.648   6.614
 9146SOL     OW28336   5.679   2.063   4.512
 9146SOL    HW128337   5.702   2.144   4.566
 9146SOL    HW228338   5.590   2.028   4.542
 9147SOL     OW28339   4.292   0.376   6.430
 9147SOL    HW128340   4.319   0.317   6.506
 9147SOL    HW228341   4.331   0.468   6.443
 9148SOL     OW28342   4.321   5.587   2.358
 9148SOL    HW128343   4.292   5.671   2.405
 9148SOL    HW228344   4.295   5.592   2.262
 9149SOL     OW28345   0.973   4.044   1.524
 9149SOL    HW128346   1.007   4.071   1.613
 9149SOL    HW228347   1.007   4.107   1.454
 9150SOL     OW28348   3.605   3.378   6.904
 9150SOL    HW128349   3.634   3.370   6.808
 9150SOL    HW228350   3.674   3.430   6.954
 9151SOL     OW28351   2.096   3.421   4.256
 9151SOL    HW128352   2.139   3.509   4.277
 9151SOL    HW228353   2.011   3.436   4.205
 9152SOL     OW28354   2.217   5.288   1.809
 9152SOL    HW128355   2.224   5.264   1.713
 9152SOL    HW228356   2.261   5.217   1.865
 9153SOL     OW28357   0.926   3.834   0.054
 9153SOL    HW128358   0.844   3.888   0.073
 9153SOL    HW228359   0.914   3.741   0.088
 9154SOL     OW28360   4.782   5.292   2.914
 9154SOL    HW128361   4.832   5.377   2.933
 9154SOL    HW228362   4.697   5.314   2.866
 9155SOL     OW28363   1.148   6.336   2.634
 9155SOL    HW128364   1.135   6.240   2.663
 9155SOL    HW228365   1.087   6.395   2.688
 9156SOL     OW28366   6.925   4.536   5.635
 9156SOL    HW128367   7.005   4.590   5.664
 9156SOL    HW228368   6.956   4.448   5.600
 9157SOL     OW28369   1.954   4.562   4.939
 9157SOL    HW128370   1.887   4.494   4.967
 9157SOL    HW228371   1.991   4.537   4.849
 9158SOL     OW28372   6.503   2.246   3.772
 9158SOL    HW128373   6.446   2.181   3.721
 9158SOL    HW228374   6.461   2.337   3.768
 9159SOL     OW28375   2.176   0.710   3.607
 9159SOL    HW128376   2.109   0.705   3.533
 9159SOL    HW228377   2.150   0.645   3.680
 9160SOL     OW28378   0.805   3.512   6.411
 9160SOL    HW128379   0.781   3.466   6.326
 9160SOL    HW228380   0.738   3.584   6.431
 9161SOL     OW28381   5.833   3.244   2.535
 9161SOL    HW128382   5.763   3.284   2.594
 9161SOL    HW228383   5.852   3.306   2.459
 9162SOL     OW28384   4.842   2.077   2.266
 9162SOL    HW128385   4.936   2.057   2.238
 9162SOL    HW228386   4.786   2.093   2.185
 9163SOL     OW28387   2.087   3.623   3.486
 9163SOL    HW128388   2.085   3.639   3.585
 9163SOL    HW228389   2.111   3.708   3.439
 9164SOL     OW28390   3.450   0.319   0.598
 9164SOL    HW128391   3.415   0.406   0.633
 9164SOL    HW228392   3.544   0.307   0.628
 9165SOL     OW28393   6.053   0.767   6.184
 9165SOL    HW128394   6.032   0.791   6.279
 9165SOL    HW228395   6.105   0.682   6.182
 9166SOL     OW28396   4.224   5.900   1.606
 9166SOL    HW128397   4.281   5.926   1.528
 9166SOL    HW228398   4.143   5.959   1.610
 9167SOL     OW28399   1.016   2.835   5.095
 9167SOL    HW128400   1.113   2.828   5.119
 9167SOL    HW228401   1.007   2.853   4.997
 9168SOL     OW28402   6.295   5.942   4.648
 9168SOL    HW128403   6.374   5.934   4.708
 9168SOL    HW228404   6.218   5.890   4.688
 9169SOL     OW28405   6.057   5.878   0.270
 9169SOL    HW128406   6.028   5.905   0.178
 9169SOL    HW228407   6.157   5.872   0.273
 9170SOL     OW28408   1.546   0.360   5.454
 9170SOL    HW128409   1.581   0.371   5.547
 9170SOL    HW228410   1.610   0.400   5.389
 9171SOL     OW28411   4.315   5.942   0.164
 9171SOL    HW128412   4.350   5.848   0.170
 9171SOL    HW228413   4.372   5.995   0.101
 9172SOL     OW28414   5.207   0.879   5.906
 9172SOL    HW128415   5.163   0.845   5.822
 9172SOL    HW228416   5.294   0.832   5.919
 9173SOL     OW28417   5.763   4.684   5.953
 9173SOL    HW128418   5.830   4.617   5.921
 9173SOL    HW228419   5.684   4.683   5.891
 9174SOL     OW28420   5.953   4.945   6.753
 9174SOL    HW128421   6.024   4.995   6.703
 9174SOL    HW228422   5.993   4.904   6.835
 9175SOL     OW28423   1.835   0.958   1.393
 9175SOL    HW128424   1.894   0.893   1.345
 9175SOL    HW228425   1.813   0.922   1.484
 9176SOL     OW28426   1.541   0.283   2.428
 9176SOL    HW128427   1.584   0.362   2.384
 9176SOL    HW228428   1.472   0.245   2.367
 9177SOL     OW28429   0.424   5.822   3.648
 9177SOL    HW128430   0.368   5.895   3.687
 9177SOL    HW228431   0.424   5.743   3.710
 9178SOL     OW28432   1.083   3.528   1.051
 9178SOL    HW128433   1.074   3.626   1.065
 9178SOL    HW228434   1.179   3.505   1.038
 9179SOL     OW28435   4.018   5.509   2.979
 9179SOL    HW128436   3.970   5.437   3.028
 9179SOL    HW228437   4.092   5.469   2.925
 9180SOL     OW28438   6.973   1.029   5.219
 9180SOL    HW128439   0.001   1.032   5.133
 9180SOL    HW228440   0.012   1.050   5.295
 9181SOL     OW28441   2.908   2.220   3.495
 9181SOL    HW128442   2.899   2.252   3.589
 9181SOL    HW228443   3.001   2.236   3.463
 9182SOL     OW28444   6.855   1.425   3.265
 9182SOL    HW128445   6.922   1.358   3.234
 9182SOL    HW228446   6.800   1.385   3.339
 9183SOL     OW28447   3.017   2.011   5.389
 9183SOL    HW128448   2.920   1.995   5.370
 9183SOL    HW228449   3.065   2.030   5.303
 9184SOL     OW28450   3.056   5.107   1.142
 9184SOL    HW128451   3.134   5.050   1.165
 9184SOL    HW228452   3.037   5.170   1.217
 9185SOL     OW28453   0.494   0.878   5.291
 9185SOL    HW128454   0.430   0.884   5.368
 9185SOL    HW228455   0.585   0.906   5.321
 9186SOL     OW28456   5.553   6.784   5.837
 9186SOL    HW128457   5.498   6.816   5.914
 9186SOL    HW228458   5.500   6.717   5.784
 9187SOL     OW28459   5.202   3.549   0.993
 9187SOL    HW128460   5.107   3.557   0.962
 9187SOL    HW228461   5.264   3.573   0.919
 9188SOL     OW28462   0.785   0.862   2.808
 9188SOL    HW128463   0.797   0.863   2.709
 9188SOL    HW228464   0.830   0.782   2.846
 9189SOL     OW28465   3.037   0.583   6.561
 9189SOL    HW128466   3.023   0.675   6.597
 9189SOL    HW228467   3.116   0.541   6.606
 9190SOL     OW28468   3.989   1.000   6.215
 9190SOL    HW128469   3.922   1.025   6.144
 9190SOL    HW228470   4.047   1.079   6.234
 9191SOL     OW28471   5.539   7.022   1.288
 9191SOL    HW128472   5.540   0.082   1.344
 9191SOL    HW228473   5.481   0.013   1.208
 9192SOL     OW28474   4.419   4.626   4.159
 9192SOL    HW128475   4.324   4.629   4.192
 9192SOL    HW228476   4.471   4.700   4.202
 9193SOL     OW28477   3.807   3.323   2.642
 9193SOL    HW128478   3.726   3.339   2.586
 9193SOL    HW228479   3.873   3.267   2.590
 9194SOL     OW28480   2.904   5.112   3.144
 9194SOL    HW128481   2.852   5.062   3.213
 9194SOL    HW228482   2.886   5.074   3.054
 9195SOL     OW28483   0.357   3.250   3.843
 9195SOL    HW128484   0.411   3.273   3.762
 9195SOL    HW228485   0.267   3.293   3.837
 9196SOL     OW28486   5.502   5.654   3.571
 9196SOL    HW128487   5.438   5.580   3.591
 9196SOL    HW228488   5.537   5.692   3.656
 9197SOL     OW28489   4.447   2.267   6.814
 9197SOL    HW128490   4.452   2.211   6.897
 9197SOL    HW228491   4.368   2.328   6.819
 9198SOL     OW28492   6.166   2.721   4.754
 9198SOL    HW128493   6.232   2.795   4.740
 9198SOL    HW228494   6.110   2.711   4.672
 9199SOL     OW28495   1.114   3.718   6.481
 9199SOL    HW128496   1.064   3.774   6.547
 9199SOL    HW228497   1.134   3.629   6.522
 9200SOL     OW28498   4.490   6.150   2.147
 9200SOL    HW128499   4.454   6.091   2.075
 9200SOL    HW228500   4.506   6.096   2.229
 9201SOL     OW28501   6.996   3.054   2.601
 9201SOL    HW128502   0.061   3.080   2.642
 9201SOL    HW228503   6.927   3.046   2.673
 9202SOL     OW28504   1.954   5.682   3.665
 9202SOL    HW128505   1.930   5.623   3.588
 9202SOL    HW228506   2.044   5.657   3.700
 9203SOL     OW28507   5.119   2.206   0.816
 9203SOL    HW128508   5.169   2.279   0.768
 9203SOL    HW228509   5.180   2.127   0.827
 9204SOL     OW28510   4.734   4.438   1.971
 9204SOL    HW128511   4.714   4.533   1.945
 9204SOL    HW228512   4.648   4.390   1.989
 9205SOL     OW28513   4.343   2.219   1.082
 9205SOL    HW128514   4.294   2.208   0.996
 9205SOL    HW228515   4.284   2.193   1.158
 9206SOL     OW28516   6.904   0.042   5.390
 9206SOL    HW128517   6.971   6.998   5.357
 9206SOL    HW228518   6.934   0.080   5.478
 9207SOL     OW28519   5.619   6.659   0.468
 9207SOL    HW128520   5.557   6.703   0.533
 9207SOL    HW228521   5.573   6.650   0.380
 9208SOL     OW28522   5.629   4.900   1.518
 9208SOL    HW128523   5.553   4.886   1.582
 9208SOL    HW228524   5.629   4.995   1.486
 9209SOL     OW28525   5.029   0.509   4.549
 9209SOL    HW128526   4.930   0.499   4.557
 9209SOL    HW228527   5.069   0.425   4.513
 9210SOL     OW28528   1.476   6.834   0.187
 9210SOL    HW128529   1.487   6.798   0.280
 9210SOL    HW228530   1.428   6.921   0.190
 9211SOL     OW28531   5.299   1.506   6.013
 9211SOL    HW128532   5.346   1.451   5.943
 9211SOL    HW228533   5.201   1.509   5.993
 9212SOL     OW28534   6.076   3.523   6.302
 9212SOL    HW128535   6.000   3.494   6.244
 9212SOL    HW228536   6.054   3.611   6.344
 9213SOL     OW28537   0.071   5.413   3.183
 9213SOL    HW128538   0.100   5.473   3.258
 9213SOL    HW228539   7.006   5.444   3.148
 9214SOL     OW28540   1.878   1.119   5.892
 9214SOL    HW128541   1.937   1.071   5.957
 9214SOL    HW228542   1.789   1.137   5.934
 9215SOL     OW28543   6.667   3.797   3.701
 9215SOL    HW128544   6.714   3.886   3.709
 9215SOL    HW228545   6.698   3.751   3.618
 9216SOL     OW28546   1.963   6.727   3.819
 9216SOL    HW128547   2.043   6.761   3.868
 9216SOL    HW228548   1.883   6.729   3.879
 9217SOL     OW28549   3.096   2.541   0.328
 9217SOL    HW128550   3.018   2.535   0.390
 9217SOL    HW228551   3.157   2.615   0.357
 9218SOL     OW28552   4.570   5.799   5.644
 9218SOL    HW128553   4.522   5.797   5.731
 9218SOL    HW228554   4.527   5.866   5.583
 9219SOL     OW28555   3.891   3.062   6.573
 9219SOL    HW128556   3.825   2.987   6.565
 9219SOL    HW228557   3.862   3.124   6.646
 9220SOL     OW28558   0.981   6.605   3.576
 9220SOL    HW128559   0.914   6.675   3.552
 9220SOL    HW228560   1.055   6.605   3.509
 9221SOL     OW28561   2.388   1.666   2.123
 9221SOL    HW128562   2.441   1.604   2.182
 9221SOL    HW228563   2.291   1.641   2.127
 9222SOL     OW28564   2.231   5.577   3.781
 9222SOL    HW128565   2.242   5.668   3.822
 9222SOL    HW228566   2.315   5.552   3.734
 9223SOL     OW28567   6.201   2.452   4.552
 9223SOL    HW128568   6.153   2.537   4.571
 9223SOL    HW228569   6.294   2.472   4.520
 9224SOL     OW28570   1.669   5.778   2.831
 9224SOL    HW128571   1.762   5.752   2.802
 9224SOL    HW228572   1.619   5.696   2.857
 9225SOL     OW28573   0.409   5.828   5.926
 9225SOL    HW128574   0.473   5.755   5.947
 9225SOL    HW228575   0.407   5.844   5.828
 9226SOL     OW28576   1.014   6.723   4.907
 9226SOL    HW128577   0.984   6.628   4.898
 9226SOL    HW228578   0.949   6.773   4.965
 9227SOL     OW28579   4.215   3.357   0.492
 9227SOL    HW128580   4.126   3.317   0.516
 9227SOL    HW228581   4.205   3.410   0.408
 9228SOL     OW28582   3.761   3.264   4.536
 9228SOL    HW128583   3.690   3.315   4.488
 9228SOL    HW228584   3.810   3.207   4.471
 9229SOL     OW28585   0.276   5.845   1.052
 9229SOL    HW128586   0.232   5.776   0.996
 9229SOL    HW228587   0.206   5.903   1.095
 9230SOL     OW28588   3.428   6.856   6.234
 9230SOL    HW128589   3.501   6.799   6.271
 9230SOL    HW228590   3.433   6.857   6.135
 9231SOL     OW28591   6.252   6.410   1.504
 9231SOL    HW128592   6.153   6.407   1.520
 9231SOL    HW228593   6.271   6.471   1.428
 9232SOL     OW28594   1.000   5.244   1.714
 9232SOL    HW128595   0.925   5.279   1.657
 9232SOL    HW228596   1.076   5.309   1.714
 9233SOL     OW28597   1.820   7.003   6.102
 9233SOL    HW128598   1.907   7.014   6.152
 9233SOL    HW228599   1.762   0.060   6.119
 9234SOL     OW28600   3.103   3.931   6.459
 9234SOL    HW128601   3.017   3.915   6.506
 9234SOL    HW228602   3.162   3.851   6.469
 9235SOL     OW28603   2.038   2.519   3.461
 9235SOL    HW128604   2.131   2.549   3.481
 9235SOL    HW228605   2.041   2.429   3.417
 9236SOL     OW28606   1.792   4.374   6.282
 9236SOL    HW128607   1.885   4.408   6.293
 9236SOL    HW228608   1.731   4.422   6.345
 9237SOL     OW28609   6.911   5.354   3.782
 9237SOL    HW128610   6.941   5.406   3.862
 9237SOL    HW228611   6.823   5.388   3.751
 9238SOL     OW28612   1.625   2.379   5.632
 9238SOL    HW128613   1.695   2.446   5.606
 9238SOL    HW228614   1.610   2.384   5.731
 9239SOL     OW28615   1.886   6.074   6.515
 9239SOL    HW128616   1.787   6.055   6.514
 9239SOL    HW228617   1.917   6.081   6.610
 9240SOL     OW28618   3.792   1.423   4.640
 9240SOL    HW128619   3.802   1.323   4.638
 9240SOL    HW228620   3.764   1.452   4.732
 9241SOL     OW28621   5.866   6.518   0.528
 9241SOL    HW128622   5.928   6.595   0.516
 9241SOL    HW228623   5.784   6.532   0.473
 9242SOL     OW28624   2.460   2.465   6.865
 9242SOL    HW128625   2.380   2.444   6.808
 9242SOL    HW228626   2.459   2.562   6.889
 9243SOL     OW28627   2.025   0.241   0.176
 9243SOL    HW128628   1.974   0.177   0.233
 9243SOL    HW228629   2.060   0.192   0.095
 9244SOL     OW28630   2.950   6.529   0.093
 9244SOL    HW128631   2.926   6.583   0.012
 9244SOL    HW228632   2.871   6.473   0.120
 9245SOL     OW28633   0.696   4.050   2.751
 9245SOL    HW128634   0.696   4.023   2.654
 9245SOL    HW228635   0.616   4.011   2.796
 9246SOL     OW28636   5.018   0.551   6.812
 9246SOL    HW128637   5.054   0.460   6.834
 9246SOL    HW228638   4.957   0.581   6.885
 9247SOL     OW28639   3.203   6.621   2.896
 9247SOL    HW128640   3.121   6.673   2.873
 9247SOL    HW228641   3.267   6.679   2.946
 9248SOL     OW28642   3.140   0.001   6.707
 9248SOL    HW128643   3.214   6.959   6.728
 9248SOL    HW228644   3.055   6.991   6.749
 9249SOL     OW28645   3.770   1.011   0.723
 9249SOL    HW128646   3.697   1.077   0.706
 9249SOL    HW228647   3.733   0.931   0.769
 9250SOL     OW28648   0.627   3.300   2.465
 9250SOL    HW128649   0.719   3.337   2.451
 9250SOL    HW228650   0.566   3.332   2.393
 9251SOL     OW28651   4.243   1.465   0.758
 9251SOL    HW128652   4.234   1.563   0.736
 9251SOL    HW228653   4.276   1.416   0.677
 9252SOL     OW28654   5.776   1.804   4.478
 9252SOL    HW128655   5.795   1.901   4.489
 9252SOL    HW228656   5.700   1.791   4.414
 9253SOL     OW28657   2.742   4.974   3.598
 9253SOL    HW128658   2.810   4.971   3.525
 9253SOL    HW228659   2.777   5.031   3.673
 9254SOL     OW28660   6.694   6.210   2.678
 9254SOL    HW128661   6.687   6.250   2.587
 9254SOL    HW228662   6.774   6.247   2.725
 9255SOL     OW28663   6.963   2.982   1.260
 9255SOL    HW128664   7.003   2.946   1.345
 9255SOL    HW228665   0.001   3.052   1.222
 9256SOL     OW28666   2.171   6.174   1.310
 9256SOL    HW128667   2.110   6.250   1.334
 9256SOL    HW228668   2.229   6.152   1.388
 9257SOL     OW28669   6.153   6.246   5.220
 9257SOL    HW128670   6.162   6.153   5.256
 9257SOL    HW228671   6.069   6.253   5.167
 9258SOL     OW28672   5.216   3.633   2.886
 9258SOL    HW128673   5.294   3.694   2.870
 9258SOL    HW228674   5.244   3.538   2.874
 9259SOL     OW28675   0.997   2.677   6.768
 9259SOL    HW128676   1.084   2.659   6.722
 9259SOL    HW228677   0.936   2.726   6.706
 9260SOL     OW28678   4.961   4.321   4.859
 9260SOL    HW128679   5.015   4.281   4.785
 9260SOL    HW228680   4.881   4.263   4.877
 9261SOL     OW28681   1.583   3.206   1.228
 9261SOL    HW128682   1.596   3.149   1.147
 9261SOL    HW228683   1.640   3.288   1.221
 9262SOL     OW28684   0.076   6.644   5.908
 9262SOL    HW128685   0.071   6.721   5.843
 9262SOL    HW228686   0.147   6.663   5.976
 9263SOL     OW28687   2.631   4.680   2.904
 9263SOL    HW128688   2.679   4.666   2.818
 9263SOL    HW228689   2.535   4.702   2.886
 9264SOL     OW28690   5.530   3.622   5.306
 9264SOL    HW128691   5.581   3.575   5.379
 9264SOL    HW228692   5.466   3.558   5.264
 9265SOL     OW28693   4.717   0.294   1.935
 9265SOL    HW128694   4.695   0.198   1.915
 9265SOL    HW228695   4.647   0.332   1.995
 9266SOL     OW28696   0.300   4.394   1.111
 9266SOL    HW128697   0.362   4.335   1.164
 9266SOL    HW228698   0.212   4.400   1.158
 9267SOL     OW28699   6.860   1.021   3.534
 9267SOL    HW128700   6.777   0.968   3.552
 9267SOL    HW228701   6.910   0.980   3.457
 9268SOL     OW28702   0.102   0.248   0.921
 9268SOL    HW128703   0.007   0.220   0.935
 9268SOL    HW228704   0.115   0.342   0.950
 9269SOL     OW28705   3.295   6.249   0.952
 9269SOL    HW128706   3.233   6.286   0.882
 9269SOL    HW228707   3.373   6.205   0.907
 9270SOL     OW28708   2.321   1.365   4.934
 9270SOL    HW128709   2.233   1.331   4.900
 9270SOL    HW228710   2.320   1.465   4.936
 9271SOL     OW28711   1.434   4.967   5.325
 9271SOL    HW128712   1.350   4.936   5.370
 9271SOL    HW228713   1.513   4.936   5.377
 9272SOL     OW28714   6.420   6.888   5.864
 9272SOL    HW128715   6.413   6.963   5.798
 9272SOL    HW228716   6.494   6.827   5.838
 9273SOL     OW28717   6.415   3.601   3.403
 9273SOL    HW128718   6.495   3.556   3.364
 9273SOL    HW228719   6.442   3.689   3.442
 9274SOL     OW28720   6.920   3.279   0.652
 9274SOL    HW128721   6.833   3.251   0.613
 9274SOL    HW228722   6.935   3.376   0.632
 9275SOL     OW28723   4.597   1.520   0.812
 9275SOL    HW128724   4.526   1.579   0.850
 9275SOL    HW228725   4.618   1.447   0.878
 9276SOL     OW28726   1.682   4.375   0.407
 9276SOL    HW128727   1.656   4.285   0.374
 9276SOL    HW228728   1.765   4.405   0.360
 9277SOL     OW28729   3.381   6.060   2.773
 9277SOL    HW128730   3.449   6.084   2.705
 9277SOL    HW228731   3.304   6.123   2.767
 9278SOL     OW28732   1.693   6.805   4.978
 9278SOL    HW128733   1.749   6.724   4.991
 9278SOL    HW228734   1.694   6.861   5.061
 9279SOL     OW28735   3.431   6.252   1.932
 9279SOL    HW128736   3.392   6.297   1.852
 9279SOL    HW228737   3.467   6.321   1.996
 9280SOL     OW28738   1.585   4.844   1.475
 9280SOL    HW128739   1.554   4.937   1.491
 9280SOL    HW228740   1.683   4.838   1.493
 9281SOL     OW28741   1.468   5.376   0.866
 9281SOL    HW128742   1.556   5.357   0.909
 9281SOL    HW228743   1.470   5.467   0.824
 9282SOL     OW28744   1.909   0.500   4.078
 9282SOL    HW128745   1.844   0.429   4.104
 9282SOL    HW228746   1.861   0.572   4.027
 9283SOL     OW28747   5.458   5.213   6.635
 9283SOL    HW128748   5.518   5.288   6.606
 9283SOL    HW228749   5.470   5.135   6.573
 9284SOL     OW28750   4.036   6.464   1.390
 9284SOL    HW128751   4.005   6.381   1.343
 9284SOL    HW228752   3.978   6.482   1.469
 9285SOL     OW28753   6.871   5.832   3.371
 9285SOL    HW128754   6.853   5.784   3.457
 9285SOL    HW228755   6.790   5.825   3.312
 9286SOL     OW28756   5.417   5.966   1.331
 9286SOL    HW128757   5.508   5.968   1.371
 9286SOL    HW228758   5.408   5.886   1.272
 9287SOL     OW28759   4.230   4.614   0.404
 9287SOL    HW128760   4.180   4.630   0.319
 9287SOL    HW228761   4.226   4.517   0.427
 9288SOL     OW28762   4.093   1.054   3.208
 9288SOL    HW128763   4.175   1.090   3.254
 9288SOL    HW228764   4.051   1.126   3.153
 9289SOL     OW28765   4.420   6.191   2.531
 9289SOL    HW128766   4.363   6.187   2.613
 9289SOL    HW228767   4.419   6.102   2.485
 9290SOL     OW28768   5.078   0.604   3.600
 9290SOL    HW128769   5.088   0.683   3.661
 9290SOL    HW228770   5.124   0.622   3.513
 9291SOL     OW28771   0.356   4.790   5.585
 9291SOL    HW128772   0.323   4.884   5.580
 9291SOL    HW228773   0.455   4.790   5.598
 9292SOL     OW28774   1.814   2.159   6.883
 9292SOL    HW128775   1.909   2.130   6.869
 9292SOL    HW228776   1.764   2.088   6.932
 9293SOL     OW28777   4.231   0.810   6.076
 9293SOL    HW128778   4.177   0.841   6.154
 9293SOL    HW228779   4.220   0.712   6.064
 9294SOL     OW28780   5.288   6.244   6.147
 9294SOL    HW128781   5.281   6.208   6.054
 9294SOL    HW228782   5.377   6.220   6.185
 9295SOL     OW28783   6.447   0.432   3.020
 9295SOL    HW128784   6.366   0.377   3.002
 9295SOL    HW228785   6.465   0.493   2.943
 9296SOL     OW28786   2.239   3.321   5.680
 9296SOL    HW128787   2.176   3.308   5.603
 9296SOL    HW228788   2.332   3.330   5.645
 9297SOL     OW28789   6.867   5.736   1.788
 9297SOL    HW128790   6.773   5.703   1.792
 9297SOL    HW228791   6.869   5.834   1.807
 9298SOL     OW28792   6.949   4.988   6.774
 9298SOL    HW128793   6.886   5.043   6.830
 9298SOL    HW228794   6.905   4.901   6.752
 9299SOL     OW28795   3.178   2.161   4.184
 9299SOL    HW128796   3.095   2.195   4.229
 9299SOL    HW228797   3.253   2.162   4.250
 9300SOL     OW28798   2.967   6.000   6.231
 9300SOL    HW128799   2.993   6.019   6.137
 9300SOL    HW228800   3.022   5.924   6.267
 9301SOL     OW28801   0.177   3.541   4.740
 9301SOL    HW128802   0.136   3.632   4.743
 9301SOL    HW228803   0.142   3.490   4.662
 9302SOL     OW28804   2.791   5.837   3.854
 9302SOL    HW128805   2.779   5.936   3.859
 9302SOL    HW228806   2.818   5.812   3.761
 9303SOL     OW28807   2.773   4.663   6.545
 9303SOL    HW128808   2.682   4.625   6.564
 9303SOL    HW228809   2.765   4.759   6.519
 9304SOL     OW28810   6.103   5.902   5.934
 9304SOL    HW128811   6.108   5.805   5.955
 9304SOL    HW228812   6.055   5.916   5.848
 9305SOL     OW28813   2.177   1.864   0.810
 9305SOL    HW128814   2.115   1.787   0.819
 9305SOL    HW228815   2.197   1.880   0.714
 9306SOL     OW28816   6.917   6.223   4.055
 9306SOL    HW128817   6.825   6.209   4.020
 9306SOL    HW228818   6.922   6.311   4.102
 9307SOL     OW28819   1.974   4.358   1.088
 9307SOL    HW128820   1.992   4.450   1.053
 9307SOL    HW228821   1.878   4.335   1.073
 9308SOL     OW28822   2.290   3.332   1.049
 9308SOL    HW128823   2.330   3.416   1.012
 9308SOL    HW228824   2.197   3.352   1.080
 9309SOL     OW28825   3.646   5.069   5.728
 9309SOL    HW128826   3.573   5.135   5.742
 9309SOL    HW228827   3.718   5.082   5.796
 9310SOL     OW28828   6.581   6.670   5.792
 9310SOL    HW128829   6.605   6.618   5.874
 9310SOL    HW228830   6.650   6.657   5.722
 9311SOL     OW28831   5.758   4.662   6.855
 9311SOL    HW128832   5.853   4.645   6.831
 9311SOL    HW228833   5.698   4.624   6.785
 9312SOL     OW28834   5.667   3.318   3.719
 9312SOL    HW128835   5.648   3.250   3.789
 9312SOL    HW228836   5.764   3.343   3.722
 9313SOL     OW28837   0.439   0.642   1.821
 9313SOL    HW128838   0.470   0.548   1.805
 9313SOL    HW228839   0.494   0.705   1.766
 9314SOL     OW28840   4.865   5.087   1.258
 9314SOL    HW128841   4.885   5.133   1.171
 9314SOL    HW228842   4.928   5.009   1.269
 9315SOL     OW28843   5.762   5.667   5.596
 9315SOL    HW128844   5.767   5.699   5.501
 9315SOL    HW228845   5.670   5.633   5.615
 9316SOL     OW28846   5.308   5.702   0.386
 9316SOL    HW128847   5.354   5.633   0.330
 9316SOL    HW228848   5.312   5.791   0.340
 9317SOL     OW28849   3.034   6.598   3.440
 9317SOL    HW128850   3.017   6.696   3.434
 9317SOL    HW228851   3.132   6.581   3.447
 9318SOL     OW28852   3.034   0.298   3.385
 9318SOL    HW128853   2.989   0.254   3.307
 9318SOL    HW228854   3.093   0.231   3.431
 9319SOL     OW28855   3.809   2.455   0.818
 9319SOL    HW128856   3.722   2.504   0.810
 9319SOL    HW228857   3.822   2.398   0.737
 9320SOL     OW28858   6.553   0.092   6.784
 9320SOL    HW128859   6.649   0.071   6.806
 9320SOL    HW228860   6.500   0.098   6.868
 9321SOL     OW28861   1.093   2.332   4.280
 9321SOL    HW128862   1.102   2.296   4.373
 9321SOL    HW228863   1.129   2.425   4.277
 9322SOL     OW28864   5.339   3.182   0.174
 9322SOL    HW128865   5.353   3.217   0.267
 9322SOL    HW228866   5.406   3.109   0.156
 9323SOL     OW28867   0.868   2.767   4.784
 9323SOL    HW128868   0.965   2.793   4.784
 9323SOL    HW228869   0.815   2.834   4.836
 9324SOL     OW28870   0.485   4.173   1.237
 9324SOL    HW128871   0.545   4.100   1.268
 9324SOL    HW228872   0.409   4.133   1.185
 9325SOL     OW28873   0.558   4.174   3.089
 9325SOL    HW128874   0.537   4.240   3.161
 9325SOL    HW228875   0.474   4.131   3.057
 9326SOL     OW28876   4.628   4.759   1.016
 9326SOL    HW128877   4.716   4.766   1.063
 9326SOL    HW228878   4.564   4.824   1.057
 9327SOL     OW28879   2.054   1.370   3.248
 9327SOL    HW128880   2.112   1.450   3.238
 9327SOL    HW228881   1.996   1.380   3.329
 9328SOL     OW28882   1.367   0.176   3.504
 9328SOL    HW128883   1.458   0.167   3.543
 9328SOL    HW228884   1.338   0.088   3.466
 9329SOL     OW28885   1.607   5.009   6.081
 9329SOL    HW128886   1.569   5.099   6.105
 9329SOL    HW228887   1.557   4.938   6.130
 9330SOL     OW28888   0.948   6.684   0.835
 9330SOL    HW128889   0.944   6.591   0.871
 9330SOL    HW228890   0.856   6.714   0.810
 9331SOL     OW28891   1.585   4.788   4.899
 9331SOL    HW128892   1.566   4.862   4.834
 9331SOL    HW228893   1.514   4.788   4.970
 9332SOL     OW28894   6.331   5.417   0.333
 9332SOL    HW128895   6.304   5.358   0.410
 9332SOL    HW228896   6.412   5.469   0.358
 9333SOL     OW28897   1.652   5.072   0.705
 9333SOL    HW128898   1.636   5.034   0.796
 9333SOL    HW228899   1.657   4.997   0.638
 9334SOL     OW28900   6.830   5.495   0.496
 9334SOL    HW128901   6.904   5.428   0.505
 9334SOL    HW228902   6.868   5.582   0.465
 9335SOL     OW28903   0.024   3.873   1.141
 9335SOL    HW128904   6.960   3.823   1.150
 9335SOL    HW228905   0.085   3.822   1.080
 9336SOL     OW28906   4.362   5.260   5.364
 9336SOL    HW128907   4.321   5.331   5.306
 9336SOL    HW228908   4.292   5.192   5.388
 9337SOL     OW28909   3.399   1.674   4.640
 9337SOL    HW128910   3.308   1.654   4.678
 9337SOL    HW228911   3.426   1.601   4.578
 9338SOL     OW28912   4.637   6.909   1.314
 9338SOL    HW128913   4.590   6.929   1.401
 9338SOL    HW228914   4.643   6.993   1.260
 9339SOL     OW28915   6.883   3.534   5.267
 9339SOL    HW128916   6.784   3.517   5.270
 9339SOL    HW228917   6.905   3.587   5.184
 9340SOL     OW28918   2.228   4.986   2.117
 9340SOL    HW128919   2.205   5.001   2.213
 9340SOL    HW228920   2.200   4.894   2.089
 9341SOL     OW28921   6.141   5.619   1.200
 9341SOL    HW128922   6.178   5.584   1.286
 9341SOL    HW228923   6.212   5.670   1.152
 9342SOL     OW28924   2.507   0.319   4.687
 9342SOL    HW128925   2.596   0.351   4.720
 9342SOL    HW228926   2.435   0.352   4.748
 9343SOL     OW28927   5.395   3.678   1.405
 9343SOL    HW128928   5.375   3.676   1.503
 9343SOL    HW228929   5.479   3.731   1.389
 9344SOL     OW28930   5.763   6.802   4.846
 9344SOL    HW128931   5.862   6.805   4.833
 9344SOL    HW228932   5.742   6.767   4.937
 9345SOL     OW28933   6.722   4.742   6.379
 9345SOL    HW128934   6.802   4.769   6.326
 9345SOL    HW228935   6.707   4.808   6.453
 9346SOL     OW28936   5.110   0.690   1.752
 9346SOL    HW128937   5.142   0.680   1.846
 9346SOL    HW228938   5.150   0.771   1.710
 9347SOL     OW28939   4.786   6.903   2.086
 9347SOL    HW128940   4.789   6.946   2.176
 9347SOL    HW228941   4.725   6.955   2.026
 9348SOL     OW28942   2.540   5.381   1.924
 9348SOL    HW128943   2.469   5.440   1.886
 9348SOL    HW228944   2.498   5.298   1.962
 9349SOL     OW28945   6.855   5.375   1.479
 9349SOL    HW128946   6.918   5.308   1.519
 9349SOL    HW228947   6.895   5.466   1.482
 9350SOL     OW28948   6.396   0.626   0.076
 9350SOL    HW128949   6.307   0.615   0.120
 9350SOL    HW228950   6.456   0.550   0.102
 9351SOL     OW28951   4.695   3.745   6.469
 9351SOL    HW128952   4.726   3.795   6.388
 9351SOL    HW228953   4.685   3.809   6.545
 9352SOL     OW28954   2.777   2.100   0.043
 9352SOL    HW128955   2.761   2.036   0.118
 9352SOL    HW228956   2.792   2.048   6.981
 9353SOL     OW28957   1.183   2.999   2.047
 9353SOL    HW128958   1.194   3.077   2.109
 9353SOL    HW228959   1.264   2.940   2.054
 9354SOL     OW28960   5.866   2.207   2.592
 9354SOL    HW128961   5.800   2.153   2.540
 9354SOL    HW228962   5.953   2.210   2.542
 9355SOL     OW28963   0.156   1.535   2.213
 9355SOL    HW128964   0.224   1.587   2.264
 9355SOL    HW228965   0.184   1.440   2.207
 9356SOL     OW28966   4.642   2.648   2.355
 9356SOL    HW128967   4.710   2.596   2.304
 9356SOL    HW228968   4.590   2.586   2.414
 9357SOL     OW28969   2.349   4.818   6.516
 9357SOL    HW128970   2.418   4.887   6.540
 9357SOL    HW228971   2.327   4.826   6.419
 9358SOL     OW28972   5.301   4.292   2.687
 9358SOL    HW128973   5.313   4.389   2.666
 9358SOL    HW228974   5.204   4.270   2.688
 9359SOL     OW28975   4.720   5.096   5.883
 9359SOL    HW128976   4.668   5.040   5.948
 9359SOL    HW228977   4.664   5.175   5.856
 9360SOL     OW28978   1.346   0.936   5.204
 9360SOL    HW128979   1.295   0.955   5.289
 9360SOL    HW228980   1.311   0.994   5.131
 9361SOL     OW28981   1.812   1.109   2.186
 9361SOL    HW128982   1.806   1.157   2.098
 9361SOL    HW228983   1.896   1.139   2.233
 9362SOL     OW28984   1.436   1.756   3.066
 9362SOL    HW128985   1.449   1.777   2.969
 9362SOL    HW228986   1.516   1.786   3.118
 9363SOL     OW28987   1.249   6.176   1.904
 9363SOL    HW128988   1.286   6.230   1.980
 9363SOL    HW228989   1.322   6.155   1.839
 9364SOL     OW28990   5.550   4.016   1.183
 9364SOL    HW128991   5.553   4.090   1.252
 9364SOL    HW228992   5.636   4.016   1.132
 9365SOL     OW28993   2.056   1.702   3.778
 9365SOL    HW128994   2.012   1.613   3.762
 9365SOL    HW228995   2.154   1.689   3.789
 9366SOL     OW28996   2.631   1.342   1.600
 9366SOL    HW128997   2.720   1.314   1.565
 9366SOL    HW228998   2.610   1.434   1.567
 9367SOL     OW28999   5.586   6.491   3.730
 9367SOL    HW129000   5.604   6.444   3.817
 9367SOL    HW229001   5.623   6.584   3.734
 9368SOL     OW29002   5.445   2.962   0.692
 9368SOL    HW129003   5.526   2.915   0.727
 9368SOL    HW229004   5.414   2.917   0.608
 9369SOL     OW29005   0.366   1.558   5.062
 9369SOL    HW129006   0.441   1.617   5.030
 9369SOL    HW229007   0.339   1.587   5.154
 9370SOL     OW29008   5.896   5.348   2.341
 9370SOL    HW129009   5.966   5.405   2.383
 9370SOL    HW229010   5.823   5.330   2.407
 9371SOL     OW29011   1.984   6.672   0.399
 9371SOL    HW129012   2.029   6.760   0.410
 9371SOL    HW229013   1.966   6.632   0.489
 9372SOL     OW29014   5.663   5.688   0.424
 9372SOL    HW129015   5.575   5.643   0.441
 9372SOL    HW229016   5.722   5.625   0.374
 9373SOL     OW29017   5.301   3.016   4.129
 9373SOL    HW129018   5.257   2.957   4.062
 9373SOL    HW229019   5.323   2.963   4.210
 9374SOL     OW29020   5.330   3.936   6.546
 9374SOL    HW129021   5.260   3.878   6.503
 9374SOL    HW229022   5.306   4.032   6.533
 9375SOL     OW29023   6.313   0.229   4.174
 9375SOL    HW129024   6.284   0.291   4.246
 9375SOL    HW229025   6.258   0.244   4.092
 9376SOL     OW29026   2.514   3.289   1.719
 9376SOL    HW129027   2.591   3.283   1.782
 9376SOL    HW229028   2.436   3.330   1.766
 9377SOL     OW29029   6.420   4.479   3.594
 9377SOL    HW129030   6.496   4.457   3.654
 9377SOL    HW229031   6.393   4.575   3.608
 9378SOL     OW29032   4.004   6.106   0.788
 9378SOL    HW129033   4.062   6.188   0.787
 9378SOL    HW229034   3.933   6.116   0.858
 9379SOL     OW29035   4.848   5.157   5.363
 9379SOL    HW129036   4.836   5.065   5.326
 9379SOL    HW229037   4.835   5.155   5.462
 9380SOL     OW29038   6.439   5.824   5.533
 9380SOL    HW129039   6.466   5.862   5.445
 9380SOL    HW229040   6.472   5.883   5.606
 9381SOL     OW29041   0.961   0.896   0.027
 9381SOL    HW129042   1.047   0.856   0.061
 9381SOL    HW229043   0.931   0.967   0.091
 9382SOL     OW29044   5.503   1.673   3.160
 9382SOL    HW129045   5.423   1.733   3.161
 9382SOL    HW229046   5.552   1.685   3.073
 9383SOL     OW29047   6.320   5.264   6.112
 9383SOL    HW129048   6.243   5.325   6.128
 9383SOL    HW229049   6.337   5.209   6.194
 9384SOL     OW29050   3.756   6.961   2.842
 9384SOL    HW129051   3.790   6.996   2.929
 9384SOL    HW229052   3.684   6.894   2.858
 9385SOL     OW29053   3.725   0.021   3.511
 9385SOL    HW129054   3.725   0.078   3.593
 9385SOL    HW229055   3.630   0.004   3.482
 9386SOL     OW29056   3.816   0.261   5.556
 9386SOL    HW129057   3.875   0.181   5.565
 9386SOL    HW229058   3.846   0.332   5.620
 9387SOL     OW29059   4.851   5.405   0.473
 9387SOL    HW129060   4.902   5.320   0.462
 9387SOL    HW229061   4.816   5.435   0.384
 9388SOL     OW29062   6.822   0.281   1.617
 9388SOL    HW129063   6.745   0.218   1.622
 9388SOL    HW229064   6.873   0.265   1.533
 9389SOL     OW29065   2.683   0.889   0.413
 9389SOL    HW129066   2.761   0.861   0.469
 9389SOL    HW229067   2.701   0.866   0.317
 9390SOL     OW29068   3.610   5.376   0.963
 9390SOL    HW129069   3.584   5.424   0.879
 9390SOL    HW229070   3.577   5.282   0.960
 9391SOL     OW29071   5.945   1.112   3.802
 9391SOL    HW129072   5.966   1.210   3.796
 9391SOL    HW229073   5.978   1.066   3.720
 9392SOL     OW29074   0.979   6.432   5.005
 9392SOL    HW129075   1.006   6.356   5.064
 9392SOL    HW229076   0.887   6.462   5.030
 9393SOL     OW29077   4.597   1.570   5.647
 9393SOL    HW129078   4.641   1.480   5.649
 9393SOL    HW229079   4.634   1.623   5.570
 9394SOL     OW29080   6.024   1.831   2.290
 9394SOL    HW129081   5.987   1.924   2.283
 9394SOL    HW229082   5.971   1.769   2.232
 9395SOL     OW29083   1.948   2.887   6.383
 9395SOL    HW129084   1.935   2.843   6.471
 9395SOL    HW229085   1.859   2.902   6.339
 9396SOL     OW29086   0.057   0.971   6.172
 9396SOL    HW129087   0.091   1.060   6.203
 9396SOL    HW229088   0.057   0.907   6.248
 9397SOL     OW29089   1.954   1.839   0.107
 9397SOL    HW129090   1.901   1.779   0.166
 9397SOL    HW229091   1.941   1.934   0.135
 9398SOL     OW29092   2.459   1.624   1.806
 9398SOL    HW129093   2.514   1.618   1.723
 9398SOL    HW229094   2.362   1.611   1.783
 9399SOL     OW29095   0.449   0.412   6.020
 9399SOL    HW129096   0.351   0.417   6.042
 9399SOL    HW229097   0.499   0.478   6.076
 9400SOL     OW29098   3.576   1.802   3.793
 9400SOL    HW129099   3.539   1.892   3.815
 9400SOL    HW229100   3.543   1.773   3.703
 9401SOL     OW29101   4.655   6.210   4.127
 9401SOL    HW129102   4.586   6.219   4.199
 9401SOL    HW229103   4.664   6.297   4.078
 9402SOL     OW29104   3.101   5.006   6.231
 9402SOL    HW129105   3.111   4.932   6.297
 9402SOL    HW229106   3.069   5.088   6.278
 9403SOL     OW29107   6.093   6.979   4.293
 9403SOL    HW129108   6.188   6.950   4.304
 9403SOL    HW229109   6.039   6.903   4.257
 9404SOL     OW29110   1.450   3.943   5.456
 9404SOL    HW129111   1.458   3.849   5.422
 9404SOL    HW229112   1.515   3.957   5.530
 9405SOL     OW29113   0.780   0.498   0.927
 9405SOL    HW129114   0.723   0.557   0.869
 9405SOL    HW229115   0.771   0.527   1.023
 9406SOL     OW29116   6.652   1.214   5.258
 9406SOL    HW129117   6.630   1.263   5.174
 9406SOL    HW229118   6.690   1.124   5.236
 9407SOL     OW29119   3.943   5.736   2.847
 9407SOL    HW129120   3.856   5.718   2.802
 9407SOL    HW229121   3.967   5.658   2.906
 9408SOL     OW29122   3.695   2.083   6.532
 9408SOL    HW129123   3.595   2.087   6.541
 9408SOL    HW229124   3.719   2.080   6.435
 9409SOL     OW29125   6.065   3.866   3.226
 9409SOL    HW129126   6.021   3.954   3.207
 9409SOL    HW229127   6.017   3.794   3.176
 9410SOL     OW29128   4.487   6.565   1.591
 9410SOL    HW129129   4.476   6.656   1.631
 9410SOL    HW229130   4.534   6.505   1.656
 9411SOL     OW29131   4.979   5.307   2.041
 9411SOL    HW129132   5.055   5.274   1.984
 9411SOL    HW229133   4.893   5.271   2.007
 9412SOL     OW29134   5.857   2.441   3.029
 9412SOL    HW129135   5.905   2.481   3.107
 9412SOL    HW229136   5.817   2.354   3.056
 9413SOL     OW29137   4.078   5.213   3.509
 9413SOL    HW129138   4.065   5.300   3.557
 9413SOL    HW229139   4.146   5.157   3.558
 9414SOL     OW29140   2.429   0.333   2.508
 9414SOL    HW129141   2.472   0.247   2.480
 9414SOL    HW229142   2.498   0.406   2.508
 9415SOL     OW29143   1.632   0.666   2.079
 9415SOL    HW129144   1.655   0.587   2.136
 9415SOL    HW229145   1.648   0.750   2.130
 9416SOL     OW29146   1.449   2.373   1.357
 9416SOL    HW129147   1.515   2.329   1.417
 9416SOL    HW229148   1.373   2.311   1.339
 9417SOL     OW29149   1.412   0.287   4.781
 9417SOL    HW129150   1.398   0.384   4.797
 9417SOL    HW229151   1.348   0.255   4.712
 9418SOL     OW29152   4.559   4.253   1.195
 9418SOL    HW129153   4.606   4.200   1.124
 9418SOL    HW229154   4.463   4.225   1.198
 9419SOL     OW29155   2.725   5.296   3.575
 9419SOL    HW129156   2.697   5.247   3.492
 9419SOL    HW229157   2.653   5.288   3.644
 9420SOL     OW29158   1.778   0.476   3.668
 9420SOL    HW129159   1.816   0.567   3.682
 9420SOL    HW229160   1.731   0.473   3.580
 9421SOL     OW29161   1.715   5.076   5.086
 9421SOL    HW129162   1.691   5.147   5.152
 9421SOL    HW229163   1.770   5.006   5.132
 9422SOL     OW29164   4.071   1.262   3.040
 9422SOL    HW129165   4.060   1.339   2.978
 9422SOL    HW229166   4.055   1.176   2.990
 9423SOL     OW29167   4.281   0.087   4.705
 9423SOL    HW129168   4.276   0.074   4.606
 9423SOL    HW229169   4.199   0.050   4.748
 9424SOL     OW29170   3.808   5.960   3.369
 9424SOL    HW129171   3.866   5.885   3.402
 9424SOL    HW229172   3.866   6.031   3.329
 9425SOL     OW29173   0.683   5.263   3.114
 9425SOL    HW129174   0.715   5.300   3.027
 9425SOL    HW229175   0.760   5.254   3.177
 9426SOL     OW29176   3.830   5.726   0.814
 9426SOL    HW129177   3.902   5.729   0.883
 9426SOL    HW229178   3.846   5.650   0.751
 9427SOL     OW29179   2.770   4.997   3.987
 9427SOL    HW129180   2.694   4.932   3.993
 9427SOL    HW229181   2.856   4.947   3.971
 9428SOL     OW29182   4.624   6.591   2.516
 9428SOL    HW129183   4.608   6.642   2.600
 9428SOL    HW229184   4.626   6.493   2.536
 9429SOL     OW29185   0.826   3.584   2.713
 9429SOL    HW129186   0.914   3.623   2.741
 9429SOL    HW229187   0.788   3.531   2.789
 9430SOL     OW29188   6.597   6.549   1.520
 9430SOL    HW129189   6.538   6.625   1.546
 9430SOL    HW229190   6.560   6.503   1.439
 9431SOL     OW29191   6.883   4.577   0.132
 9431SOL    HW129192   6.858   4.646   0.200
 9431SOL    HW229193   6.813   4.505   0.131
 9432SOL     OW29194   6.677   6.831   4.478
 9432SOL    HW129195   6.643   6.754   4.532
 9432SOL    HW229196   6.627   6.914   4.503
 9433SOL     OW29197   2.480   5.540   3.996
 9433SOL    HW129198   2.556   5.512   4.056
 9433SOL    HW229199   2.399   5.486   4.019
 9434SOL     OW29200   6.204   4.157   3.435
 9434SOL    HW129201   6.138   4.092   3.472
 9434SOL    HW229202   6.254   4.114   3.359
 9435SOL     OW29203   2.391   2.100   5.288
 9435SOL    HW129204   2.428   2.184   5.329
 9435SOL    HW229205   2.416   2.022   5.345
 9436SOL     OW29206   3.077   1.691   5.384
 9436SOL    HW129207   3.009   1.763   5.396
 9436SOL    HW229208   3.161   1.717   5.434
 9437SOL     OW29209   0.037   5.724   4.579
 9437SOL    HW129210   0.028   5.795   4.649
 9437SOL    HW229211   0.132   5.694   4.573
 9438SOL     OW29212   0.664   6.288   1.898
 9438SOL    HW129213   0.572   6.305   1.863
 9438SOL    HW229214   0.728   6.281   1.823
 9439SOL     OW29215   1.718   3.429   1.140
 9439SOL    HW129216   1.731   3.423   1.041
 9439SOL    HW229217   1.706   3.525   1.166
 9440SOL     OW29218   3.261   5.555   4.222
 9440SOL    HW129219   3.185   5.614   4.249
 9440SOL    HW229220   3.340   5.574   4.281
 9441SOL     OW29221   1.978   5.601   5.521
 9441SOL    HW129222   2.066   5.582   5.478
 9441SOL    HW229223   1.926   5.516   5.531
 9442SOL     OW29224   0.686   3.596   0.938
 9442SOL    HW129225   0.643   3.686   0.941
 9442SOL    HW229226   0.668   3.547   1.023
 9443SOL     OW29227   1.318   2.608   1.431
 9443SOL    HW129228   1.373   2.554   1.366
 9443SOL    HW229229   1.379   2.658   1.492
 9444SOL     OW29230   1.246   4.183   5.614
 9444SOL    HW129231   1.272   4.219   5.704
 9444SOL    HW229232   1.308   4.221   5.545
 9445SOL     OW29233   6.112   2.615   1.735
 9445SOL    HW129234   6.193   2.623   1.794
 9445SOL    HW229235   6.064   2.702   1.733
 9446SOL     OW29236   5.978   4.076   7.007
 9446SOL    HW129237   5.986   4.125   6.920
 9446SOL    HW229238   6.067   4.040   0.012
 9447SOL     OW29239   5.650   1.396   1.740
 9447SOL    HW129240   5.562   1.408   1.695
 9447SOL    HW229241   5.635   1.373   1.836
 9448SOL     OW29242   6.186   6.138   0.702
 9448SOL    HW129243   6.224   6.225   0.672
 9448SOL    HW229244   6.106   6.115   0.647
 9449SOL     OW29245   5.631   5.487   5.038
 9449SOL    HW129246   5.572   5.568   5.034
 9449SOL    HW229247   5.693   5.486   4.960
 9450SOL     OW29248   2.068   6.117   3.998
 9450SOL    HW129249   2.155   6.079   4.029
 9450SOL    HW229250   2.048   6.084   3.906
 9451SOL     OW29251   3.854   3.380   5.380
 9451SOL    HW129252   3.891   3.435   5.306
 9451SOL    HW229253   3.832   3.288   5.345
 9452SOL     OW29254   3.218   3.945   0.859
 9452SOL    HW129255   3.272   3.866   0.890
 9452SOL    HW229256   3.269   4.029   0.877
 9453SOL     OW29257   3.389   5.527   1.428
 9453SOL    HW129258   3.453   5.498   1.358
 9453SOL    HW229259   3.426   5.607   1.476
 9454SOL     OW29260   2.233   2.313   5.998
 9454SOL    HW129261   2.321   2.282   6.035
 9454SOL    HW229262   2.184   2.235   5.959
 9455SOL     OW29263   1.884   2.020   2.730
 9455SOL    HW129264   1.830   1.957   2.786
 9455SOL    HW229265   1.871   1.998   2.633
 9456SOL     OW29266   1.255   3.273   0.613
 9456SOL    HW129267   1.250   3.316   0.522
 9456SOL    HW229268   1.162   3.254   0.645
 9457SOL     OW29269   6.404   3.821   6.948
 9457SOL    HW129270   6.423   3.857   6.856
 9457SOL    HW229271   6.485   3.775   6.983
 9458SOL     OW29272   1.258   6.120   4.445
 9458SOL    HW129273   1.189   6.063   4.490
 9458SOL    HW229274   1.215   6.203   4.410
 9459SOL     OW29275   4.783   6.036   1.348
 9459SOL    HW129276   4.763   5.984   1.265
 9459SOL    HW229277   4.757   6.132   1.334
 9460SOL     OW29278   1.293   3.758   5.712
 9460SOL    HW129279   1.357   3.815   5.659
 9460SOL    HW229280   1.333   3.737   5.801
 9461SOL     OW29281   1.547   0.563   2.642
 9461SOL    HW129282   1.532   0.610   2.729
 9461SOL    HW229283   1.477   0.592   2.577
 9462SOL     OW29284   0.421   3.090   3.499
 9462SOL    HW129285   0.339   3.045   3.535
 9462SOL    HW229286   0.452   3.160   3.564
 9463SOL     OW29287   5.788   2.200   6.637
 9463SOL    HW129288   5.883   2.178   6.658
 9463SOL    HW229289   5.758   2.278   6.693
 9464SOL     OW29290   4.429   6.304   5.874
 9464SOL    HW129291   4.515   6.286   5.825
 9464SOL    HW229292   4.392   6.392   5.845
 9465SOL     OW29293   5.145   6.564   4.290
 9465SOL    HW129294   5.140   6.575   4.389
 9465SOL    HW229295   5.223   6.616   4.255
 9466SOL     OW29296   3.327   1.762   0.200
 9466SOL    HW129297   3.346   1.672   0.161
 9466SOL    HW229298   3.265   1.752   0.278
 9467SOL     OW29299   1.947   3.104   2.147
 9467SOL    HW129300   1.975   3.142   2.058
 9467SOL    HW229301   1.964   3.005   2.147
 9468SOL     OW29302   0.731   2.164   5.721
 9468SOL    HW129303   0.782   2.131   5.641
 9468SOL    HW229304   0.655   2.221   5.691
 9469SOL     OW29305   6.811   4.191   2.568
 9469SOL    HW129306   6.766   4.271   2.609
 9469SOL    HW229307   6.901   4.217   2.534
 9470SOL     OW29308   6.836   3.555   0.885
 9470SOL    HW129309   6.864   3.560   0.790
 9470SOL    HW229310   6.779   3.474   0.899
 9471SOL     OW29311   0.288   2.512   6.087
 9471SOL    HW129312   0.370   2.499   6.030
 9471SOL    HW229313   0.249   2.602   6.068
 9472SOL     OW29314   6.708   2.195   5.207
 9472SOL    HW129315   6.686   2.239   5.120
 9472SOL    HW229316   6.738   2.264   5.273
 9473SOL     OW29317   2.858   5.069   5.124
 9473SOL    HW129318   2.836   5.131   5.050
 9473SOL    HW229319   2.936   5.104   5.176
 9474SOL     OW29320   3.507   5.323   3.772
 9474SOL    HW129321   3.444   5.399   3.760
 9474SOL    HW229322   3.572   5.322   3.696
 9475SOL     OW29323   2.197   3.309   1.471
 9475SOL    HW129324   2.134   3.235   1.452
 9475SOL    HW229325   2.291   3.273   1.472
 9476SOL     OW29326   2.371   3.810   5.492
 9476SOL    HW129327   2.289   3.770   5.451
 9476SOL    HW229328   2.440   3.824   5.420
 9477SOL     OW29329   0.689   1.951   0.389
 9477SOL    HW129330   0.697   2.014   0.312
 9477SOL    HW229331   0.671   2.002   0.472
 9478SOL     OW29332   5.550   4.245   5.838
 9478SOL    HW129333   5.572   4.269   5.933
 9478SOL    HW229334   5.463   4.287   5.812
 9479SOL     OW29335   5.330   5.053   5.139
 9479SOL    HW129336   5.270   5.127   5.168
 9479SOL    HW229337   5.380   5.017   5.219
 9480SOL     OW29338   6.466   3.964   6.313
 9480SOL    HW129339   6.458   4.016   6.398
 9480SOL    HW229340   6.463   3.866   6.333
 9481SOL     OW29341   0.215   2.711   3.008
 9481SOL    HW129342   0.117   2.706   3.027
 9481SOL    HW229343   0.254   2.619   3.013
 9482SOL     OW29344   4.527   0.110   2.289
 9482SOL    HW129345   4.509   0.172   2.213
 9482SOL    HW229346   4.517   0.160   2.375
 9483SOL     OW29347   1.061   1.121   0.668
 9483SOL    HW129348   1.114   1.037   0.676
 9483SOL    HW229349   1.111   1.196   0.712
 9484SOL     OW29350   6.095   0.350   3.250
 9484SOL    HW129351   6.086   0.350   3.150
 9484SOL    HW229352   6.155   0.275   3.278
 9485SOL     OW29353   0.822   0.110   2.311
 9485SOL    HW129354   0.723   0.112   2.325
 9485SOL    HW229355   0.842   0.099   2.214
 9486SOL     OW29356   2.581   6.550   2.264
 9486SOL    HW129357   2.545   6.605   2.189
 9486SOL    HW229358   2.544   6.583   2.351
 9487SOL     OW29359   3.657   3.533   3.868
 9487SOL    HW129360   3.558   3.524   3.857
 9487SOL    HW229361   3.679   3.545   3.964
 9488SOL     OW29362   1.565   1.106   1.580
 9488SOL    HW129363   1.556   1.200   1.613
 9488SOL    HW229364   1.633   1.058   1.635
 9489SOL     OW29365   2.760   4.686   0.374
 9489SOL    HW129366   2.735   4.718   0.465
 9489SOL    HW229367   2.687   4.707   0.309
 9490SOL     OW29368   4.928   1.334   6.839
 9490SOL    HW129369   5.022   1.342   6.874
 9490SOL    HW229370   4.925   1.260   6.772
 9491SOL     OW29371   6.423   5.895   6.015
 9491SOL    HW129372   6.465   5.957   5.949
 9491SOL    HW229373   6.327   5.921   6.030
 9492SOL     OW29374   2.431   4.702   1.498
 9492SOL    HW129375   2.414   4.703   1.399
 9492SOL    HW229376   2.371   4.769   1.542
 9493SOL     OW29377   5.132   6.415   2.544
 9493SOL    HW129378   5.080   6.425   2.629
 9493SOL    HW229379   5.088   6.466   2.471
 9494SOL     OW29380   3.612   3.307   6.611
 9494SOL    HW129381   3.535   3.370   6.611
 9494SOL    HW229382   3.581   3.216   6.637
 9495SOL     OW29383   5.201   2.483   4.237
 9495SOL    HW129384   5.224   2.407   4.175
 9495SOL    HW229385   5.127   2.537   4.197
 9496SOL     OW29386   6.246   4.247   0.469
 9496SOL    HW129387   6.226   4.164   0.417
 9496SOL    HW229388   6.313   4.227   0.540
 9497SOL     OW29389   0.886   6.088   6.097
 9497SOL    HW129390   0.983   6.101   6.115
 9497SOL    HW229391   0.859   5.994   6.118
 9498SOL     OW29392   3.937   6.950   6.612
 9498SOL    HW129393   3.897   0.019   6.606
 9498SOL    HW229394   3.914   6.898   6.531
 9499SOL     OW29395   4.459   3.922   5.619
 9499SOL    HW129396   4.537   3.978   5.649
 9499SOL    HW229397   4.394   3.913   5.695
 9500SOL     OW29398   4.729   5.585   1.313
 9500SOL    HW129399   4.775   5.663   1.356
 9500SOL    HW229400   4.650   5.558   1.368
 9501SOL     OW29401   3.450   1.958   5.061
 9501SOL    HW129402   3.460   2.043   5.011
 9501SOL    HW229403   3.401   1.975   5.147
 9502SOL     OW29404   3.538   3.312   5.694
 9502SOL    HW129405   3.457   3.298   5.752
 9502SOL    HW229406   3.531   3.402   5.649
 9503SOL     OW29407   1.290   6.829   1.370
 9503SOL    HW129408   1.218   6.840   1.438
 9503SOL    HW229409   1.371   6.879   1.398
 9504SOL     OW29410   0.685   3.243   0.390
 9504SOL    HW129411   0.623   3.289   0.326
 9504SOL    HW229412   0.729   3.311   0.449
 9505SOL     OW29413   5.171   3.001   2.726
 9505SOL    HW129414   5.072   2.997   2.743
 9505SOL    HW229415   5.199   3.096   2.713
 9506SOL     OW29416   6.633   1.988   1.083
 9506SOL    HW129417   6.680   1.975   1.171
 9506SOL    HW229418   6.701   1.992   1.010
 9507SOL     OW29419   1.429   2.583   5.288
 9507SOL    HW129420   1.371   2.517   5.240
 9507SOL    HW229421   1.523   2.572   5.256
 9508SOL     OW29422   4.874   1.130   5.943
 9508SOL    HW129423   4.894   1.226   5.964
 9508SOL    HW229424   4.911   1.072   6.015
 9509SOL     OW29425   3.591   0.057   6.209
 9509SOL    HW129426   3.570   0.108   6.125
 9509SOL    HW229427   3.517   7.014   6.227
 9510SOL     OW29428   6.096   4.272   2.677
 9510SOL    HW129429   6.015   4.326   2.696
 9510SOL    HW229430   6.085   4.180   2.713
 9511SOL     OW29431   2.296   1.411   1.291
 9511SOL    HW129432   2.218   1.363   1.251
 9511SOL    HW229433   2.381   1.377   1.250
 9512SOL     OW29434   1.332   3.627   5.385
 9512SOL    HW129435   1.234   3.646   5.377
 9512SOL    HW229436   1.383   3.680   5.317
 9513SOL     OW29437   2.211   4.153   4.638
 9513SOL    HW129438   2.311   4.161   4.638
 9513SOL    HW229439   2.183   4.083   4.572
 9514SOL     OW29440   2.973   2.899   6.295
 9514SOL    HW129441   3.008   2.852   6.214
 9514SOL    HW229442   2.977   2.837   6.373
 9515SOL     OW29443   2.234   5.499   6.049
 9515SOL    HW129444   2.255   5.583   6.100
 9515SOL    HW229445   2.151   5.457   6.085
 9516SOL     OW29446   5.633   4.397   4.947
 9516SOL    HW129447   5.557   4.373   5.008
 9516SOL    HW229448   5.694   4.318   4.937
 9517SOL     OW29449   0.659   5.550   2.924
 9517SOL    HW129450   0.561   5.557   2.941
 9517SOL    HW229451   0.699   5.642   2.918
 9518SOL     OW29452   0.724   2.832   5.795
 9518SOL    HW129453   0.734   2.912   5.736
 9518SOL    HW229454   0.756   2.751   5.747
 9519SOL     OW29455   3.209   3.031   3.375
 9519SOL    HW129456   3.260   2.962   3.324
 9519SOL    HW229457   3.249   3.121   3.358
 9520SOL     OW29458   5.429   0.866   6.683
 9520SOL    HW129459   5.442   0.871   6.584
 9520SOL    HW229460   5.347   0.811   6.702
 9521SOL     OW29461   3.658   1.067   1.381
 9521SOL    HW129462   3.734   1.043   1.442
 9521SOL    HW229463   3.589   1.118   1.432
 9522SOL     OW29464   3.592   6.138   1.166
 9522SOL    HW129465   3.520   6.206   1.172
 9522SOL    HW229466   3.565   6.066   1.102
 9523SOL     OW29467   2.321   4.985   4.747
 9523SOL    HW129468   2.222   4.975   4.760
 9523SOL    HW229469   2.353   5.065   4.797
 9524SOL     OW29470   1.954   4.429   0.307
 9524SOL    HW129471   1.997   4.407   0.394
 9524SOL    HW229472   2.024   4.445   0.238
 9525SOL     OW29473   2.450   3.328   6.294
 9525SOL    HW129474   2.467   3.423   6.268
 9525SOL    HW229475   2.357   3.302   6.268
 9526SOL     OW29476   5.690   5.395   6.193
 9526SOL    HW129477   5.644   5.463   6.251
 9526SOL    HW229478   5.663   5.303   6.222
 9527SOL     OW29479   3.734   6.871   4.690
 9527SOL    HW129480   3.717   6.905   4.782
 9527SOL    HW229481   3.697   6.778   4.681
 9528SOL     OW29482   5.099   2.366   0.580
 9528SOL    HW129483   5.103   2.268   0.559
 9528SOL    HW229484   5.004   2.392   0.594
 9529SOL     OW29485   5.485   0.952   1.827
 9529SOL    HW129486   5.480   0.949   1.727
 9529SOL    HW229487   5.561   1.011   1.855
 9530SOL     OW29488   0.752   5.833   3.952
 9530SOL    HW129489   0.820   5.845   4.024
 9530SOL    HW229490   0.796   5.843   3.863
 9531SOL     OW29491   3.389   5.179   1.868
 9531SOL    HW129492   3.442   5.238   1.807
 9531SOL    HW229493   3.305   5.151   1.821
 9532SOL     OW29494   6.919   4.780   4.045
 9532SOL    HW129495   6.929   4.722   3.963
 9532SOL    HW229496   7.002   4.834   4.058
 9533SOL     OW29497   1.318   3.909   3.556
 9533SOL    HW129498   1.331   3.811   3.538
 9533SOL    HW229499   1.271   3.921   3.643
 9534SOL     OW29500   4.452   5.693   4.301
 9534SOL    HW129501   4.401   5.707   4.386
 9534SOL    HW229502   4.516   5.769   4.288
 9535SOL     OW29503   0.126   1.200   4.661
 9535SOL    HW129504   0.219   1.235   4.650
 9535SOL    HW229505   0.074   1.263   4.719
 9536SOL     OW29506   3.632   3.508   5.479
 9536SOL    HW129507   3.556   3.453   5.445
 9536SOL    HW229508   3.719   3.468   5.448
 9537SOL     OW29509   6.961   0.939   4.067
 9537SOL    HW129510   6.864   0.935   4.045
 9537SOL    HW229511   6.980   1.023   4.118
 9538SOL     OW29512   5.533   0.410   4.637
 9538SOL    HW129513   5.515   0.311   4.636
 9538SOL    HW229514   5.625   0.426   4.673
 9539SOL     OW29515   3.697   4.109   2.680
 9539SOL    HW129516   3.736   4.062   2.760
 9539SOL    HW229517   3.757   4.096   2.602
 9540SOL     OW29518   4.225   4.657   3.455
 9540SOL    HW129519   4.150   4.715   3.422
 9540SOL    HW229520   4.312   4.689   3.416
 9541SOL     OW29521   1.445   6.023   5.460
 9541SOL    HW129522   1.390   5.968   5.524
 9541SOL    HW229523   1.534   6.042   5.501
 9542SOL     OW29524   6.077   4.162   3.079
 9542SOL    HW129525   6.067   4.262   3.088
 9542SOL    HW229526   6.037   4.133   2.993
 9543SOL     OW29527   2.552   0.576   5.807
 9543SOL    HW129528   2.469   0.626   5.831
 9543SOL    HW229529   2.597   0.542   5.890
 9544SOL     OW29530   6.107   3.396   4.510
 9544SOL    HW129531   6.020   3.348   4.501
 9544SOL    HW229532   6.182   3.333   4.489
 9545SOL     OW29533   6.557   4.293   1.934
 9545SOL    HW129534   6.577   4.201   1.970
 9545SOL    HW229535   6.484   4.334   1.988
 9546SOL     OW29536   3.062   2.843   1.241
 9546SOL    HW129537   2.990   2.898   1.284
 9546SOL    HW229538   3.134   2.825   1.308
 9547SOL     OW29539   4.549   0.383   3.635
 9547SOL    HW129540   4.572   0.392   3.538
 9547SOL    HW229541   4.626   0.343   3.685
 9548SOL     OW29542   0.737   5.193   6.133
 9548SOL    HW129543   0.764   5.113   6.080
 9548SOL    HW229544   0.693   5.163   6.218
 9549SOL     OW29545   3.919   1.574   1.672
 9549SOL    HW129546   4.000   1.632   1.683
 9549SOL    HW229547   3.865   1.576   1.756
 9550SOL     OW29548   6.235   2.706   1.367
 9550SOL    HW129549   6.232   2.753   1.455
 9550SOL    HW229550   6.316   2.647   1.364
 9551SOL     OW29551   5.735   2.814   6.615
 9551SOL    HW129552   5.813   2.868   6.646
 9551SOL    HW229553   5.759   2.717   6.617
 9552SOL     OW29554   3.020   1.664   0.195
 9552SOL    HW129555   2.923   1.668   0.171
 9552SOL    HW229556   3.063   1.586   0.149
 9553SOL     OW29557   5.792   1.380   0.280
 9553SOL    HW129558   5.707   1.419   0.317
 9553SOL    HW229559   5.870   1.430   0.317
 9554SOL     OW29560   2.957   1.028   4.418
 9554SOL    HW129561   3.033   1.034   4.483
 9554SOL    HW229562   2.871   1.045   4.467
 9555SOL     OW29563   0.240   6.119   3.568
 9555SOL    HW129564   0.238   6.211   3.529
 9555SOL    HW229565   0.242   6.052   3.494
 9556SOL     OW29566   2.417   4.690   6.268
 9556SOL    HW129567   2.386   4.599   6.239
 9556SOL    HW229568   2.507   4.709   6.229
 9557SOL     OW29569   5.875   0.850   1.390
 9557SOL    HW129570   5.952   0.888   1.339
 9557SOL    HW229571   5.894   0.858   1.488
 9558SOL     OW29572   4.999   6.587   6.235
 9558SOL    HW129573   5.004   6.520   6.309
 9558SOL    HW229574   5.073   6.572   6.170
 9559SOL     OW29575   2.302   4.936   6.952
 9559SOL    HW129576   2.291   4.880   0.011
 9559SOL    HW229577   2.271   5.029   6.971
 9560SOL     OW29578   2.460   0.071   2.677
 9560SOL    HW129579   2.550   0.060   2.719
 9560SOL    HW229580   2.470   0.072   2.578
 9561SOL     OW29581   7.014   0.443   6.691
 9561SOL    HW129582   6.943   0.385   6.652
 9561SOL    HW229583   0.075   0.390   6.705
 9562SOL     OW29584   2.214   5.709   2.975
 9562SOL    HW129585   2.241   5.801   2.944
 9562SOL    HW229586   2.192   5.653   2.896
 9563SOL     OW29587   1.138   6.087   6.171
 9563SOL    HW129588   1.171   6.007   6.122
 9563SOL    HW229589   1.187   6.096   6.258
 9564SOL     OW29590   1.568   1.161   0.894
 9564SOL    HW129591   1.487   1.165   0.836
 9564SOL    HW229592   1.646   1.200   0.845
 9565SOL     OW29593   2.360   1.880   4.495
 9565SOL    HW129594   2.314   1.796   4.466
 9565SOL    HW229595   2.453   1.858   4.525
 9566SOL     OW29596   3.083   0.134   0.391
 9566SOL    HW129597   3.021   0.055   0.392
 9566SOL    HW229598   3.178   0.103   0.385
 9567SOL     OW29599   0.215   4.001   1.368
 9567SOL    HW129600   0.167   3.929   1.318
 9567SOL    HW229601   0.300   4.023   1.321
 9568SOL     OW29602   4.467   1.756   6.135
 9568SOL    HW129603   4.467   1.747   6.235
 9568SOL    HW229604   4.561   1.750   6.101
 9569SOL     OW29605   5.788   0.401   1.911
 9569SOL    HW129606   5.836   0.473   1.862
 9569SOL    HW229607   5.744   0.339   1.846
 9570SOL     OW29608   0.399   3.344   1.634
 9570SOL    HW129609   0.413   3.430   1.683
 9570SOL    HW229610   0.486   3.312   1.597
 9571SOL     OW29611   1.427   1.262   6.775
 9571SOL    HW129612   1.380   1.299   6.855
 9571SOL    HW229613   1.382   1.178   6.745
 9572SOL     OW29614   2.104   4.793   4.297
 9572SOL    HW129615   2.060   4.763   4.382
 9572SOL    HW229616   2.040   4.850   4.245
 9573SOL     OW29617   5.978   0.174   4.243
 9573SOL    HW129618   6.030   0.089   4.252
 9573SOL    HW229619   6.040   0.252   4.252
 9574SOL     OW29620   4.321   3.026   0.327
 9574SOL    HW129621   4.382   3.004   0.403
 9574SOL    HW229622   4.350   3.112   0.284
 9575SOL     OW29623   5.500   0.056   2.238
 9575SOL    HW129624   5.543   0.128   2.294
 9575SOL    HW229625   5.435   0.098   2.175
 9576SOL     OW29626   1.278   1.358   6.553
 9576SOL    HW129627   1.362   1.334   6.600
 9576SOL    HW229628   1.212   1.283   6.561
 9577SOL     OW29629   6.279   4.991   3.392
 9577SOL    HW129630   6.227   4.909   3.416
 9577SOL    HW229631   6.377   4.973   3.402
 9578SOL     OW29632   1.878   3.369   2.206
 9578SOL    HW129633   1.888   3.278   2.166
 9578SOL    HW229634   1.783   3.381   2.237
 9579SOL     OW29635   6.169   5.869   2.387
 9579SOL    HW129636   6.245   5.909   2.438
 9579SOL    HW229637   6.083   5.909   2.416
 9580SOL     OW29638   4.734   4.104   3.318
 9580SOL    HW129639   4.672   4.162   3.371
 9580SOL    HW229640   4.826   4.111   3.355
 9581SOL     OW29641   5.065   1.902   6.424
 9581SOL    HW129642   5.154   1.911   6.468
 9581SOL    HW229643   5.050   1.980   6.363
 9582SOL     OW29644   5.248   6.767   4.694
 9582SOL    HW129645   5.323   6.738   4.634
 9582SOL    HW229646   5.285   6.798   4.781
 9583SOL     OW29647   3.734   5.011   1.785
 9583SOL    HW129648   3.724   4.939   1.854
 9583SOL    HW229649   3.798   4.982   1.715
 9584SOL     OW29650   2.714   5.111   4.241
 9584SOL    HW129651   2.772   5.067   4.310
 9584SOL    HW229652   2.741   5.080   4.150
 9585SOL     OW29653   4.497   6.505   0.821
 9585SOL    HW129654   4.496   6.603   0.799
 9585SOL    HW229655   4.515   6.493   0.919
 9586SOL     OW29656   3.459   5.525   2.797
 9586SOL    HW129657   3.506   5.457   2.741
 9586SOL    HW229658   3.488   5.517   2.892
 9587SOL     OW29659   3.445   6.194   0.719
 9587SOL    HW129660   3.443   6.292   0.700
 9587SOL    HW229661   3.505   6.149   0.654
 9588SOL     OW29662   6.519   6.264   7.017
 9588SOL    HW129663   6.607   6.226   0.021
 9588SOL    HW229664   6.527   6.364   7.011
 9589SOL     OW29665   1.693   2.141   6.114
 9589SOL    HW129666   1.707   2.216   6.178
 9589SOL    HW229667   1.595   2.128   6.098
 9590SOL     OW29668   6.557   0.044   1.109
 9590SOL    HW129669   6.614   6.989   1.134
 9590SOL    HW229670   6.573   0.068   1.014
 9591SOL     OW29671   5.051   0.989   0.485
 9591SOL    HW129672   5.001   1.031   0.409
 9591SOL    HW229673   5.133   1.042   0.505
 9592SOL     OW29674   2.276   6.207   5.645
 9592SOL    HW129675   2.359   6.259   5.624
 9592SOL    HW229676   2.244   6.160   5.563
 9593SOL     OW29677   2.111   2.482   4.155
 9593SOL    HW129678   2.074   2.402   4.201
 9593SOL    HW229679   2.043   2.518   4.090
 9594SOL     OW29680   0.243   6.373   3.468
 9594SOL    HW129681   0.271   6.468   3.483
 9594SOL    HW229682   0.279   6.341   3.380
 9595SOL     OW29683   0.368   3.503   3.583
 9595SOL    HW129684   0.356   3.551   3.497
 9595SOL    HW229685   0.304   3.538   3.651
 9596SOL     OW29686   1.542   6.744   0.448
 9596SOL    HW129687   1.616   6.707   0.504
 9596SOL    HW229688   1.468   6.676   0.442
 9597SOL     OW29689   1.205   3.247   1.794
 9597SOL    HW129690   1.184   3.342   1.770
 9597SOL    HW229691   1.150   3.220   1.873
 9598SOL     OW29692   2.272   4.125   4.160
 9598SOL    HW129693   2.176   4.152   4.162
 9598SOL    HW229694   2.325   4.195   4.111
 9599SOL     OW29695   4.578   6.920   4.321
 9599SOL    HW129696   4.631   6.999   4.352
 9599SOL    HW229697   4.631   6.836   4.335
 9600SOL     OW29698   3.770   1.412   1.367
 9600SOL    HW129699   3.800   1.400   1.462
 9600SOL    HW229700   3.827   1.356   1.307
 9601SOL     OW29701   0.929   3.575   0.829
 9601SOL    HW129702   0.837   3.571   0.869
 9601SOL    HW229703   0.997   3.561   0.901
 9602SOL     OW29704   4.254   4.543   5.466
 9602SOL    HW129705   4.167   4.592   5.466
 9602SOL    HW229706   4.247   4.461   5.409
 9603SOL     OW29707   5.168   6.977   5.338
 9603SOL    HW129708   5.251   0.008   5.354
 9603SOL    HW229709   5.088   0.012   5.354
 9604SOL     OW29710   4.543   6.902   0.985
 9604SOL    HW129711   4.632   6.888   0.942
 9604SOL    HW229712   4.548   6.978   1.049
 9605SOL     OW29713   5.249   5.456   1.890
 9605SOL    HW129714   5.166   5.502   1.922
 9605SOL    HW229715   5.235   5.357   1.891
 9606SOL     OW29716   1.129   1.231   6.834
 9606SOL    HW129717   1.110   1.190   6.745
 9606SOL    HW229718   1.058   1.298   6.856
 9607SOL     OW29719   1.788   2.104   6.616
 9607SOL    HW129720   1.808   2.135   6.709
 9607SOL    HW229721   1.704   2.146   6.584
 9608SOL     OW29722   6.002   2.652   4.493
 9608SOL    HW129723   5.995   2.649   4.393
 9608SOL    HW229724   5.918   2.617   4.533
 9609SOL     OW29725   4.714   2.913   0.275
 9609SOL    HW129726   4.776   2.850   0.322
 9609SOL    HW229727   4.721   3.004   0.316
 9610SOL     OW29728   0.864   4.870   2.825
 9610SOL    HW129729   0.820   4.909   2.745
 9610SOL    HW229730   0.917   4.940   2.873
 9611SOL     OW29731   2.004   0.805   0.349
 9611SOL    HW129732   1.981   0.817   0.253
 9611SOL    HW229733   2.068   0.729   0.360
 9612SOL     OW29734   0.220   2.174   3.834
 9612SOL    HW129735   0.149   2.105   3.835
 9612SOL    HW229736   0.305   2.135   3.872
 9613SOL     OW29737   6.167   4.724   3.422
 9613SOL    HW129738   6.161   4.679   3.333
 9613SOL    HW229739   6.221   4.667   3.484
 9614SOL     OW29740   4.510   2.303   3.236
 9614SOL    HW129741   4.573   2.226   3.230
 9614SOL    HW229742   4.560   2.389   3.223
 9615SOL     OW29743   1.688   4.534   1.797
 9615SOL    HW129744   1.644   4.451   1.830
 9615SOL    HW229745   1.728   4.517   1.707
 9616SOL     OW29746   4.029   3.555   6.626
 9616SOL    HW129747   3.938   3.544   6.585
 9616SOL    HW229748   4.020   3.584   6.721
 9617SOL     OW29749   1.899   2.867   2.670
 9617SOL    HW129750   1.850   2.843   2.586
 9617SOL    HW229751   1.969   2.935   2.650
 9618SOL     OW29752   2.533   2.013   0.664
 9618SOL    HW129753   2.593   1.983   0.738
 9618SOL    HW229754   2.458   2.068   0.702
 9619SOL     OW29755   2.251   0.498   6.655
 9619SOL    HW129756   2.307   0.418   6.677
 9619SOL    HW229757   2.309   0.568   6.612
 9620SOL     OW29758   5.244   0.717   5.247
 9620SOL    HW129759   5.296   0.748   5.168
 9620SOL    HW229760   5.267   0.773   5.327
 9621SOL     OW29761   1.831   3.509   3.128
 9621SOL    HW129762   1.754   3.564   3.094
 9621SOL    HW229763   1.846   3.431   3.068
 9622SOL     OW29764   4.894   0.064   0.396
 9622SOL    HW129765   4.967   0.005   0.360
 9622SOL    HW229766   4.851   0.112   0.320
 9623SOL     OW29767   2.239   4.068   6.837
 9623SOL    HW129768   2.317   4.022   6.879
 9623SOL    HW229769   2.225   4.033   6.745
 9624SOL     OW29770   6.580   2.822   4.157
 9624SOL    HW129771   6.562   2.919   4.137
 9624SOL    HW229772   6.657   2.816   4.221
 9625SOL     OW29773   5.654   5.956   1.489
 9625SOL    HW129774   5.673   5.901   1.570
 9625SOL    HW229775   5.721   5.936   1.418
 9626SOL     OW29776   3.820   6.851   0.498
 9626SOL    HW129777   3.778   6.919   0.438
 9626SOL    HW229778   3.885   6.896   0.558
 9627SOL     OW29779   0.994   7.012   6.837
 9627SOL    HW129780   0.961   0.084   6.839
 9627SOL    HW229781   0.924   6.953   6.797
 9628SOL     OW29782   2.942   6.853   2.005
 9628SOL    HW129783   3.022   6.796   1.986
 9628SOL    HW229784   2.925   6.913   1.927
 9629SOL     OW29785   2.655   0.050   1.170
 9629SOL    HW129786   2.664   0.111   1.092
 9629SOL    HW229787   2.584   7.005   1.152
 9630SOL     OW29788   6.742   1.941   6.518
 9630SOL    HW129789   6.821   1.896   6.559
 9630SOL    HW229790   6.723   2.026   6.569
 9631SOL     OW29791   6.573   6.519   0.006
 9631SOL    HW129792   6.651   6.578   7.006
 9631SOL    HW229793   6.531   6.551   0.092
 9632SOL     OW29794   1.125   5.631   2.566
 9632SOL    HW129795   1.187   5.589   2.500
 9632SOL    HW229796   1.059   5.688   2.517
 9633SOL     OW29797   6.714   5.216   6.084
 9633SOL    HW129798   6.702   5.288   6.152
 9633SOL    HW229799   6.811   5.204   6.063
 9634SOL     OW29800   1.010   6.261   5.920
 9634SOL    HW129801   0.936   6.326   5.940
 9634SOL    HW229802   0.989   6.173   5.963
 9635SOL     OW29803   0.115   6.086   5.429
 9635SOL    HW129804   0.163   6.106   5.343
 9635SOL    HW229805   0.176   6.035   5.490
 9636SOL     OW29806   3.984   1.566   0.116
 9636SOL    HW129807   3.894   1.602   0.093
 9636SOL    HW229808   3.977   1.468   0.135
 9637SOL     OW29809   2.557   1.186   6.621
 9637SOL    HW129810   2.467   1.149   6.647
 9637SOL    HW229811   2.614   1.113   6.586
 9638SOL     OW29812   6.618   2.522   6.832
 9638SOL    HW129813   6.565   2.605   6.816
 9638SOL    HW229814   6.588   2.450   6.769
 9639SOL     OW29815   3.565   0.463   2.508
 9639SOL    HW129816   3.531   0.555   2.523
 9639SOL    HW229817   3.551   0.408   2.591
 9640SOL     OW29818   0.990   1.192   2.487
 9640SOL    HW129819   0.896   1.188   2.453
 9640SOL    HW229820   1.043   1.253   2.429
 9641SOL     OW29821   5.522   5.944   6.485
 9641SOL    HW129822   5.612   5.902   6.475
 9641SOL    HW229823   5.483   5.920   6.574
 9642SOL     OW29824   3.545   6.797   3.668
 9642SOL    HW129825   3.576   6.760   3.756
 9642SOL    HW229826   3.468   6.858   3.683
 9643SOL     OW29827   4.106   4.848   3.082
 9643SOL    HW129828   4.186   4.842   3.142
 9643SOL    HW229829   4.081   4.756   3.051
 9644SOL     OW29830   3.096   1.360   0.607
 9644SOL    HW129831   3.163   1.379   0.535
 9644SOL    HW229832   3.015   1.417   0.594
 9645SOL     OW29833   2.645   5.413   4.827
 9645SOL    HW129834   2.681   5.506   4.833
 9645SOL    HW229835   2.547   5.414   4.848
 9646SOL     OW29836   3.747   5.329   4.049
 9646SOL    HW129837   3.653   5.343   4.080
 9646SOL    HW229838   3.773   5.234   4.063
 9647SOL     OW29839   6.454   3.085   5.901
 9647SOL    HW129840   6.545   3.110   5.869
 9647SOL    HW229841   6.443   2.986   5.897
 9648SOL     OW29842   4.257   3.925   0.913
 9648SOL    HW129843   4.270   4.006   0.856
 9648SOL    HW229844   4.342   3.906   0.964
 9649SOL     OW29845   2.421   5.345   2.264
 9649SOL    HW129846   2.364   5.291   2.326
 9649SOL    HW229847   2.372   5.427   2.234
 9650SOL     OW29848   1.134   0.393   1.152
 9650SOL    HW129849   1.096   0.472   1.198
 9650SOL    HW229850   1.227   0.414   1.121
 9651SOL     OW29851   0.659   1.976   7.019
 9651SOL    HW129852   0.565   1.945   7.005
 9651SOL    HW229853   0.660   2.052   0.061
 9652SOL     OW29854   1.425   5.049   1.903
 9652SOL    HW129855   1.415   5.088   1.995
 9652SOL    HW229856   1.336   5.015   1.871
 9653SOL     OW29857   5.979   6.087   4.355
 9653SOL    HW129858   5.947   6.092   4.450
 9653SOL    HW229859   5.959   6.174   4.309
 9654SOL     OW29860   2.129   2.954   2.604
 9654SOL    HW129861   2.158   3.046   2.575
 9654SOL    HW229862   2.135   2.892   2.525
 9655SOL     OW29863   5.968   2.108   6.840
 9655SOL    HW129864   5.926   2.039   6.899
 9655SOL    HW229865   6.036   2.159   6.892
 9656SOL     OW29866   2.584   1.660   3.430
 9656SOL    HW129867   2.665   1.693   3.381
 9656SOL    HW229868   2.506   1.717   3.405
 9657SOL     OW29869   6.972   0.439   5.002
 9657SOL    HW129870   6.932   0.444   4.910
 9657SOL    HW229871   0.046   0.413   4.995
 9658SOL     OW29872   5.905   2.001   3.043
 9658SOL    HW129873   5.972   1.992   3.117
 9658SOL    HW229874   5.952   2.000   2.955
 9659SOL     OW29875   1.065   5.061   6.761
 9659SOL    HW129876   1.061   5.028   6.855
 9659SOL    HW229877   1.158   5.053   6.726
 9660SOL     OW29878   1.141   5.198   0.291
 9660SOL    HW129879   1.062   5.179   0.349
 9660SOL    HW229880   1.164   5.295   0.296
 9661SOL     OW29881   4.045   0.510   0.493
 9661SOL    HW129882   4.010   0.556   0.411
 9661SOL    HW229883   4.007   0.417   0.497
 9662SOL     OW29884   5.528   1.694   4.376
 9662SOL    HW129885   5.429   1.683   4.381
 9662SOL    HW229886   5.557   1.687   4.280
 9663SOL     OW29887   2.202   5.893   3.500
 9663SOL    HW129888   2.128   5.828   3.480
 9663SOL    HW229889   2.167   5.986   3.494
 9664SOL     OW29890   2.249   5.729   1.690
 9664SOL    HW129891   2.339   5.760   1.659
 9664SOL    HW229892   2.200   5.687   1.613
 9665SOL     OW29893   5.150   4.269   3.596
 9665SOL    HW129894   5.076   4.297   3.657
 9665SOL    HW229895   5.127   4.181   3.555
 9666SOL     OW29896   5.263   4.980   4.670
 9666SOL    HW129897   5.173   5.017   4.646
 9666SOL    HW229898   5.260   4.880   4.666
 9667SOL     OW29899   3.153   3.098   3.922
 9667SOL    HW129900   3.098   3.041   3.861
 9667SOL    HW229901   3.248   3.097   3.892
 9668SOL     OW29902   0.104   1.098   5.430
 9668SOL    HW129903   0.140   1.166   5.493
 9668SOL    HW229904   0.063   1.023   5.482
 9669SOL     OW29905   1.571   6.145   0.095
 9669SOL    HW129906   1.485   6.136   0.044
 9669SOL    HW229907   1.572   6.233   0.143
 9670SOL     OW29908   5.727   4.609   6.479
 9670SOL    HW129909   5.676   4.563   6.552
 9670SOL    HW229910   5.700   4.571   6.390
 9671SOL     OW29911   6.942   0.692   0.279
 9671SOL    HW129912   6.852   0.654   0.260
 9671SOL    HW229913   7.011   0.621   0.268
 9672SOL     OW29914   1.615   6.281   5.203
 9672SOL    HW129915   1.714   6.292   5.207
 9672SOL    HW229916   1.570   6.361   5.244
 9673SOL     OW29917   2.318   2.785   6.557
 9673SOL    HW129918   2.391   2.763   6.492
 9673SOL    HW229919   2.277   2.873   6.533
 9674SOL     OW29920   2.443   6.619   2.479
 9674SOL    HW129921   2.507   6.623   2.555
 9674SOL    HW229922   2.410   6.525   2.467
 9675SOL     OW29923   0.289   2.470   2.659
 9675SOL    HW129924   0.219   2.505   2.721
 9675SOL    HW229925   0.246   2.443   2.573
 9676SOL     OW29926   0.002   2.499   4.748
 9676SOL    HW129927   0.061   2.561   4.800
 9676SOL    HW229928   6.930   2.509   4.781
 9677SOL     OW29929   1.717   3.306   5.855
 9677SOL    HW129930   1.765   3.247   5.921
 9677SOL    HW229931   1.620   3.310   5.878
 9678SOL     OW29932   3.330   3.493   3.084
 9678SOL    HW129933   3.424   3.461   3.088
 9678SOL    HW229934   3.329   3.592   3.069
 9679SOL     OW29935   0.726   3.854   1.001
 9679SOL    HW129936   0.805   3.804   1.035
 9679SOL    HW229937   0.682   3.902   1.076
 9680SOL     OW29938   4.865   5.061   2.808
 9680SOL    HW129939   4.877   5.101   2.717
 9680SOL    HW229940   4.850   5.134   2.875
 9681SOL     OW29941   0.992   0.664   4.447
 9681SOL    HW129942   0.929   0.740   4.432
 9681SOL    HW229943   1.086   0.699   4.455
 9682SOL     OW29944   0.364   4.474   2.837
 9682SOL    HW129945   0.417   4.393   2.812
 9682SOL    HW229946   0.407   4.555   2.796
 9683SOL     OW29947   4.986   0.159   5.794
 9683SOL    HW129948   5.044   0.151   5.875
 9683SOL    HW229949   4.964   0.256   5.778
 9684SOL     OW29950   0.736   4.048   3.698
 9684SOL    HW129951   0.812   4.020   3.756
 9684SOL    HW229952   0.651   4.009   3.733
 9685SOL     OW29953   2.354   1.594   6.675
 9685SOL    HW129954   2.277   1.548   6.631
 9685SOL    HW229955   2.423   1.527   6.701
 9686SOL     OW29956   5.614   2.544   2.020
 9686SOL    HW129957   5.542   2.588   1.964
 9686SOL    HW229958   5.571   2.483   2.086
 9687SOL     OW29959   3.583   1.039   4.321
 9687SOL    HW129960   3.516   0.965   4.332
 9687SOL    HW229961   3.544   1.110   4.263
 9688SOL     OW29962   6.039   1.823   4.306
 9688SOL    HW129963   6.002   1.732   4.326
 9688SOL    HW229964   5.966   1.890   4.309
 9689SOL     OW29965   2.442   5.019   5.496
 9689SOL    HW129966   2.458   4.949   5.427
 9689SOL    HW229967   2.370   4.989   5.559
 9690SOL     OW29968   6.217   3.993   0.311
 9690SOL    HW129969   6.204   4.014   0.214
 9690SOL    HW229970   6.174   3.905   0.332
 9691SOL     OW29971   1.403   4.463   0.417
 9691SOL    HW129972   1.500   4.441   0.411
 9691SOL    HW229973   1.357   4.395   0.474
 9692SOL     OW29974   2.983   5.436   0.764
 9692SOL    HW129975   3.044   5.394   0.696
 9692SOL    HW229976   3.025   5.520   0.798
 9693SOL     OW29977   6.024   5.966   1.658
 9693SOL    HW129978   6.030   5.874   1.698
 9693SOL    HW229979   6.056   5.964   1.564
 9694SOL     OW29980   1.128   1.626   0.967
 9694SOL    HW129981   1.125   1.691   0.891
 9694SOL    HW229982   1.196   1.657   1.034
 9695SOL     OW29983   6.822   4.714   0.368
 9695SOL    HW129984   6.850   4.720   0.463
 9695SOL    HW229985   6.722   4.712   0.362
 9696SOL     OW29986   3.710   4.640   0.263
 9696SOL    HW129987   3.627   4.665   0.214
 9696SOL    HW229988   3.790   4.660   0.206
 9697SOL     OW29989   0.361   6.336   6.061
 9697SOL    HW129990   0.391   6.304   6.151
 9697SOL    HW229991   0.305   6.265   6.018
 9698SOL     OW29992   4.577   1.167   5.049
 9698SOL    HW129993   4.528   1.241   5.005
 9698SOL    HW229994   4.632   1.118   4.982
 9699SOL     OW29995   1.761   2.553   6.471
 9699SOL    HW129996   1.736   2.512   6.558
 9699SOL    HW229997   1.822   2.631   6.487
 9700SOL     OW29998   3.916   3.735   3.363
 9700SOL    HW129999   3.965   3.711   3.279
 9700SOL    HW230000   3.953   3.682   3.439
 9701SOL     OW30001   4.206   4.702   4.343
 9701SOL    HW130002   4.158   4.630   4.392
 9701SOL    HW230003   4.140   4.762   4.297
 9702SOL     OW30004   5.405   0.383   0.883
 9702SOL    HW130005   5.312   0.350   0.862
 9702SOL    HW230006   5.408   0.418   0.976
 9703SOL     OW30007   2.468   5.746   4.303
 9703SOL    HW130008   2.413   5.819   4.345
 9703SOL    HW230009   2.483   5.768   4.207
 9704SOL     OW30010   2.449   1.415   3.826
 9704SOL    HW130011   2.527   1.400   3.887
 9704SOL    HW230012   2.480   1.415   3.731
 9705SOL     OW30013   3.653   4.214   0.769
 9705SOL    HW130014   3.721   4.147   0.800
 9705SOL    HW230015   3.625   4.191   0.676
 9706SOL     OW30016   6.743   2.393   3.726
 9706SOL    HW130017   6.831   2.345   3.731
 9706SOL    HW230018   6.669   2.327   3.741
 9707SOL     OW30019   2.797   5.238   2.538
 9707SOL    HW130020   2.728   5.197   2.478
 9707SOL    HW230021   2.889   5.214   2.505
 9708SOL     OW30022   2.093   2.193   2.095
 9708SOL    HW130023   2.035   2.221   2.172
 9708SOL    HW230024   2.148   2.114   2.123
 9709SOL     OW30025   1.522   6.249   3.399
 9709SOL    HW130026   1.463   6.329   3.408
 9709SOL    HW230027   1.615   6.272   3.430
 9710SOL     OW30028   0.867   0.062   4.048
 9710SOL    HW130029   0.866   0.018   3.959
 9710SOL    HW230030   0.847   7.017   4.119
 9711SOL     OW30031   1.411   3.132   6.456
 9711SOL    HW130032   1.382   3.226   6.469
 9711SOL    HW230033   1.338   3.070   6.483
 9712SOL     OW30034   4.930   3.770   4.773
 9712SOL    HW130035   4.893   3.713   4.847
 9712SOL    HW230036   5.025   3.745   4.755
 9713SOL     OW30037   6.902   5.069   2.882
 9713SOL    HW130038   6.890   5.154   2.831
 9713SOL    HW230039   6.993   5.031   2.866
 9714SOL     OW30040   2.309   2.003   2.595
 9714SOL    HW130041   2.258   2.088   2.607
 9714SOL    HW230042   2.250   1.925   2.617
 9715SOL     OW30043   6.043   5.333   5.775
 9715SOL    HW130044   6.104   5.378   5.841
 9715SOL    HW230045   5.956   5.312   5.820
 9716SOL     OW30046   3.234   1.243   5.897
 9716SOL    HW130047   3.264   1.276   5.807
 9716SOL    HW230048   3.201   1.149   5.889
 9717SOL     OW30049   5.478   5.126   3.430
 9717SOL    HW130050   5.574   5.099   3.434
 9717SOL    HW230051   5.469   5.213   3.381
 9718SOL     OW30052   4.861   2.731   1.701
 9718SOL    HW130053   4.771   2.722   1.744
 9718SOL    HW230054   4.896   2.824   1.715
 9719SOL     OW30055   0.098   1.140   0.269
 9719SOL    HW130056   0.169   1.112   0.204
 9719SOL    HW230057   0.094   1.239   0.273
 9720SOL     OW30058   0.737   0.398   0.610
 9720SOL    HW130059   0.672   0.330   0.643
 9720SOL    HW230060   0.697   0.490   0.617
 9721SOL     OW30061   0.400   2.527   3.335
 9721SOL    HW130062   0.488   2.510   3.381
 9721SOL    HW230063   0.366   2.617   3.360
 9722SOL     OW30064   0.271   0.101   4.401
 9722SOL    HW130065   0.177   0.067   4.392
 9722SOL    HW230066   0.334   0.024   4.398
 9723SOL     OW30067   6.719   0.205   4.055
 9723SOL    HW130068   6.796   0.248   4.008
 9723SOL    HW230069   6.745   0.113   4.084
 9724SOL     OW30070   3.960   2.563   1.676
 9724SOL    HW130071   3.961   2.659   1.704
 9724SOL    HW230072   3.926   2.556   1.583
 9725SOL     OW30073   3.767   3.174   5.781
 9725SOL    HW130074   3.675   3.199   5.751
 9725SOL    HW230075   3.821   3.147   5.702
 9726SOL     OW30076   5.543   5.918   4.675
 9726SOL    HW130077   5.630   5.879   4.705
 9726SOL    HW230078   5.481   5.845   4.648
 9727SOL     OW30079   1.305   0.257   6.874
 9727SOL    HW130080   1.378   0.321   6.852
 9727SOL    HW230081   1.313   0.176   6.816
 9728SOL     OW30082   3.557   6.024   6.292
 9728SOL    HW130083   3.457   6.017   6.288
 9728SOL    HW230084   3.584   6.067   6.378
 9729SOL     OW30085   3.116   5.294   2.318
 9729SOL    HW130086   3.078   5.206   2.350
 9729SOL    HW230087   3.146   5.284   2.223
 9730SOL     OW30088   5.766   3.457   3.131
 9730SOL    HW130089   5.711   3.373   3.137
 9730SOL    HW230090   5.784   3.492   3.223
 9731SOL     OW30091   5.193   5.453   1.485
 9731SOL    HW130092   5.222   5.364   1.451
 9731SOL    HW230093   5.128   5.494   1.421
 9732SOL     OW30094   5.039   6.731   4.524
 9732SOL    HW130095   5.112   6.729   4.592
 9732SOL    HW230096   4.973   6.659   4.545
 9733SOL     OW30097   5.308   4.798   5.466
 9733SOL    HW130098   5.236   4.838   5.524
 9733SOL    HW230099   5.331   4.707   5.500
 9734SOL     OW30100   6.159   1.624   5.917
 9734SOL    HW130101   6.236   1.561   5.930
 9734SOL    HW230102   6.128   1.619   5.822
 9735SOL     OW30103   3.174   4.745   0.958
 9735SOL    HW130104   3.182   4.827   1.016
 9735SOL    HW230105   3.192   4.664   1.014
 9736SOL     OW30106   2.937   1.760   1.998
 9736SOL    HW130107   2.919   1.859   1.993
 9736SOL    HW230108   2.854   1.710   1.975
 9737SOL     OW30109   4.203   2.239   4.428
 9737SOL    HW130110   4.206   2.141   4.447
 9737SOL    HW230111   4.166   2.287   4.507
 9738SOL     OW30112   2.285   1.065   1.878
 9738SOL    HW130113   2.314   1.158   1.856
 9738SOL    HW230114   2.356   1.020   1.933
 9739SOL     OW30115   5.292   4.386   1.797
 9739SOL    HW130116   5.338   4.416   1.881
 9739SOL    HW230117   5.227   4.314   1.819
 9740SOL     OW30118   6.906   2.700   2.598
 9740SOL    HW130119   6.944   2.792   2.609
 9740SOL    HW230120   6.817   2.706   2.554
 9741SOL     OW30121   3.828   1.857   2.475
 9741SOL    HW130122   3.747   1.806   2.449
 9741SOL    HW230123   3.806   1.918   2.551
 9742SOL     OW30124   3.954   1.339   3.719
 9742SOL    HW130125   3.992   1.371   3.633
 9742SOL    HW230126   3.969   1.240   3.728
 9743SOL     OW30127   1.693   1.522   5.093
 9743SOL    HW130128   1.693   1.428   5.058
 9743SOL    HW230129   1.663   1.522   5.188
 9744SOL     OW30130   2.625   0.236   1.365
 9744SOL    HW130131   2.708   0.251   1.419
 9744SOL    HW230132   2.643   0.167   1.295
 9745SOL     OW30133   0.636   0.665   4.852
 9745SOL    HW130134   0.720   0.719   4.858
 9745SOL    HW230135   0.573   0.694   4.924
 9746SOL     OW30136   6.072   0.493   4.109
 9746SOL    HW130137   6.097   0.429   4.036
 9746SOL    HW230138   6.134   0.571   4.108
 9747SOL     OW30139   0.272   0.120   6.256
 9747SOL    HW130140   0.362   0.164   6.257
 9747SOL    HW230141   0.256   0.076   6.345
 9748SOL     OW30142   1.156   3.887   4.325
 9748SOL    HW130143   1.230   3.951   4.305
 9748SOL    HW230144   1.195   3.797   4.348
 9749SOL     OW30145   0.444   4.856   4.484
 9749SOL    HW130146   0.348   4.866   4.511
 9749SOL    HW230147   0.455   4.885   4.389
 9750SOL     OW30148   2.911   5.464   2.693
 9750SOL    HW130149   2.869   5.394   2.636
 9750SOL    HW230150   2.849   5.542   2.703
 9751SOL     OW30151   1.331   2.443   0.546
 9751SOL    HW130152   1.313   2.526   0.494
 9751SOL    HW230153   1.420   2.406   0.521
 9752SOL     OW30154   3.922   0.286   6.149
 9752SOL    HW130155   3.978   0.246   6.221
 9752SOL    HW230156   3.827   0.291   6.180
 9753SOL     OW30157   0.077   6.930   6.897
 9753SOL    HW130158   0.020   6.998   6.851
 9753SOL    HW230159   0.114   6.969   6.982
 9754SOL     OW30160   0.133   3.158   6.260
 9754SOL    HW130161   0.169   3.120   6.345
 9754SOL    HW230162   0.036   3.181   6.273
 9755SOL     OW30163   3.730   5.817   5.044
 9755SOL    HW130164   3.684   5.728   5.041
 9755SOL    HW230165   3.778   5.832   4.957
 9756SOL     OW30166   5.121   2.779   6.094
 9756SOL    HW130167   5.040   2.817   6.048
 9756SOL    HW230168   5.198   2.841   6.082
 9757SOL     OW30169   6.480   0.914   3.879
 9757SOL    HW130170   6.436   0.943   3.795
 9757SOL    HW230171   6.414   0.917   3.954
 9758SOL     OW30172   3.517   0.805   0.542
 9758SOL    HW130173   3.436   0.750   0.521
 9758SOL    HW230174   3.592   0.745   0.568
 9759SOL     OW30175   2.903   5.739   1.878
 9759SOL    HW130176   2.879   5.663   1.939
 9759SOL    HW230177   2.863   5.824   1.913
 9760SOL     OW30178   5.323   4.388   5.827
 9760SOL    HW130179   5.269   4.430   5.754
 9760SOL    HW230180   5.285   4.415   5.916
 9761SOL     OW30181   5.508   5.403   2.716
 9761SOL    HW130182   5.429   5.393   2.656
 9761SOL    HW230183   5.499   5.486   2.770
 9762SOL     OW30184   3.284   0.239   2.343
 9762SOL    HW130185   3.351   0.297   2.299
 9762SOL    HW230186   3.293   0.247   2.443
 9763SOL     OW30187   2.282   2.092   1.788
 9763SOL    HW130188   2.262   1.995   1.805
 9763SOL    HW230189   2.369   2.116   1.830
 9764SOL     OW30190   0.877   2.551   3.567
 9764SOL    HW130191   0.953   2.610   3.594
 9764SOL    HW230192   0.908   2.456   3.564
 9765SOL     OW30193   0.628   0.625   5.787
 9765SOL    HW130194   0.667   0.534   5.799
 9765SOL    HW230195   0.668   0.687   5.855
 9766SOL     OW30196   2.198   0.906   3.053
 9766SOL    HW130197   2.188   1.003   3.074
 9766SOL    HW230198   2.264   0.865   3.117
 9767SOL     OW30199   4.857   0.441   5.297
 9767SOL    HW130200   4.836   0.399   5.385
 9767SOL    HW230201   4.793   0.406   5.228
 9768SOL     OW30202   4.593   2.093   3.764
 9768SOL    HW130203   4.655   2.014   3.756
 9768SOL    HW230204   4.534   2.096   3.684
 9769SOL     OW30205   0.431   1.727   1.018
 9769SOL    HW130206   0.457   1.709   1.113
 9769SOL    HW230207   0.370   1.806   1.014
 9770SOL     OW30208   0.530   2.598   5.664
 9770SOL    HW130209   0.596   2.544   5.612
 9770SOL    HW230210   0.515   2.557   5.753
 9771SOL     OW30211   2.576   6.001   4.068
 9771SOL    HW130212   2.535   6.039   3.985
 9771SOL    HW230213   2.592   6.074   4.135
 9772SOL     OW30214   5.865   6.950   0.934
 9772SOL    HW130215   5.831   6.998   1.014
 9772SOL    HW230216   5.965   6.949   0.935
 9773SOL     OW30217   4.923   5.519   3.841
 9773SOL    HW130218   4.872   5.491   3.923
 9773SOL    HW230219   4.951   5.615   3.850
 9774SOL     OW30220   6.930   5.001   4.496
 9774SOL    HW130221   6.912   4.905   4.472
 9774SOL    HW230222   6.993   5.040   4.430
 9775SOL     OW30223   2.787   1.683   5.080
 9775SOL    HW130224   2.831   1.611   5.133
 9775SOL    HW230225   2.856   1.736   5.031
 9776SOL     OW30226   6.985   4.728   4.413
 9776SOL    HW130227   0.026   4.704   4.341
 9776SOL    HW230228   6.913   4.658   4.420
 9777SOL     OW30229   5.228   5.984   6.439
 9777SOL    HW130230   5.326   5.966   6.440
 9777SOL    HW230231   5.207   6.051   6.367
 9778SOL     OW30232   4.042   0.593   4.295
 9778SOL    HW130233   3.982   0.618   4.220
 9778SOL    HW230234   3.987   0.564   4.374
 9779SOL     OW30235   3.272   2.356   6.814
 9779SOL    HW130236   3.214   2.414   6.871
 9779SOL    HW230237   3.333   2.413   6.760
 9780SOL     OW30238   2.098   3.742   1.207
 9780SOL    HW130239   2.076   3.646   1.190
 9780SOL    HW230240   2.174   3.747   1.272
 9781SOL     OW30241   1.069   6.752   4.599
 9781SOL    HW130242   1.082   6.784   4.693
 9781SOL    HW230243   1.149   6.698   4.571
 9782SOL     OW30244   5.854   0.170   0.788
 9782SOL    HW130245   5.947   0.206   0.788
 9782SOL    HW230246   5.851   0.082   0.835
 9783SOL     OW30247   6.127   6.891   3.607
 9783SOL    HW130248   6.124   6.816   3.541
 9783SOL    HW230249   6.180   6.967   3.570
 9784SOL     OW30250   5.548   0.248   4.402
 9784SOL    HW130251   5.629   0.193   4.380
 9784SOL    HW230252   5.576   0.327   4.457
 9785SOL     OW30253   0.956   2.393   1.437
 9785SOL    HW130254   0.953   2.423   1.342
 9785SOL    HW230255   0.959   2.473   1.497
 9786SOL     OW30256   2.243   0.063   4.169
 9786SOL    HW130257   2.299   0.145   4.158
 9786SOL    HW230258   2.151   0.089   4.200
 9787SOL     OW30259   5.539   4.203   1.360
 9787SOL    HW130260   5.472   4.276   1.355
 9787SOL    HW230261   5.581   4.203   1.451
 9788SOL     OW30262   6.711   0.681   6.144
 9788SOL    HW130263   6.685   0.597   6.095
 9788SOL    HW230264   6.779   0.730   6.090
 9789SOL     OW30265   1.634   4.580   4.578
 9789SOL    HW130266   1.536   4.601   4.580
 9789SOL    HW230267   1.687   4.665   4.584
 9790SOL     OW30268   0.071   1.256   3.766
 9790SOL    HW130269   0.102   1.303   3.683
 9790SOL    HW230270   6.995   1.241   3.761
 9791SOL     OW30271   1.305   2.613   1.056
 9791SOL    HW130272   1.398   2.581   1.077
 9791SOL    HW230273   1.290   2.609   0.957
 9792SOL     OW30274   3.593   5.665   2.416
 9792SOL    HW130275   3.675   5.617   2.445
 9792SOL    HW230276   3.515   5.632   2.469
 9793SOL     OW30277   5.389   6.366   2.386
 9793SOL    HW130278   5.298   6.368   2.427
 9793SOL    HW230279   5.426   6.459   2.383
 9794SOL     OW30280   3.755   3.159   0.022
 9794SOL    HW130281   3.732   3.130   0.115
 9794SOL    HW230282   3.737   3.257   0.013
 9795SOL     OW30283   1.703   4.900   3.220
 9795SOL    HW130284   1.752   4.987   3.225
 9795SOL    HW230285   1.769   4.826   3.208
 9796SOL     OW30286   3.504   5.118   6.589
 9796SOL    HW130287   3.531   5.068   6.672
 9796SOL    HW230288   3.412   5.090   6.562
 9797SOL     OW30289   5.774   3.035   5.208
 9797SOL    HW130290   5.839   2.971   5.168
 9797SOL    HW230291   5.747   3.003   5.299
 9798SOL     OW30292   2.676   1.584   2.000
 9798SOL    HW130293   2.578   1.564   1.999
 9798SOL    HW230294   2.726   1.504   1.967
 9799SOL     OW30295   3.561   3.643   3.049
 9799SOL    HW130296   3.589   3.641   3.145
 9799SOL    HW230297   3.635   3.607   2.992
 9800SOL     OW30298   3.644   6.108   0.278
 9800SOL    HW130299   3.714   6.157   0.330
 9800SOL    HW230300   3.594   6.047   0.339
 9801SOL     OW30301   5.391   5.131   1.353
 9801SOL    HW130302   5.325   5.066   1.315
 9801SOL    HW230303   5.454   5.161   1.281
 9802SOL     OW30304   0.750   5.790   2.014
 9802SOL    HW130305   0.781   5.776   1.919
 9802SOL    HW230306   0.712   5.882   2.024
 9803SOL     OW30307   5.351   6.992   6.580
 9803SOL    HW130308   5.365   6.912   6.639
 9803SOL    HW230309   5.266   0.015   6.606
 9804SOL     OW30310   4.986   4.998   4.740
 9804SOL    HW130311   5.017   4.996   4.835
 9804SOL    HW230312   4.980   4.905   4.705
 9805SOL     OW30313   3.721   3.849   0.870
 9805SOL    HW130314   3.712   3.856   0.970
 9805SOL    HW230315   3.776   3.924   0.836
 9806SOL     OW30316   6.913   1.716   2.402
 9806SOL    HW130317   6.882   1.704   2.308
 9806SOL    HW230318   7.003   1.761   2.402
 9807SOL     OW30319   2.054   3.151   1.066
 9807SOL    HW130320   2.046   3.175   0.969
 9807SOL    HW230321   2.109   3.069   1.075
 9808SOL     OW30322   1.944   2.137   3.603
 9808SOL    HW130323   1.990   2.198   3.668
 9808SOL    HW230324   2.013   2.087   3.550
 9809SOL     OW30325   0.718   0.558   4.158
 9809SOL    HW130326   0.740   0.554   4.255
 9809SOL    HW230327   0.618   0.558   4.147
 9810SOL     OW30328   4.256   1.673   2.565
 9810SOL    HW130329   4.332   1.693   2.503
 9810SOL    HW230330   4.290   1.631   2.649
 9811SOL     OW30331   1.500   0.661   3.255
 9811SOL    HW130332   1.546   0.739   3.214
 9811SOL    HW230333   1.556   0.624   3.329
 9812SOL     OW30334   5.651   3.418   6.265
 9812SOL    HW130335   5.597   3.354   6.210
 9812SOL    HW230336   5.690   3.370   6.344
 9813SOL     OW30337   6.315   4.693   0.473
 9813SOL    HW130338   6.292   4.767   0.536
 9813SOL    HW230339   6.345   4.613   0.524
 9814SOL     OW30340   6.184   0.800   5.802
 9814SOL    HW130341   6.123   0.878   5.820
 9814SOL    HW230342   6.266   0.808   5.859
 9815SOL     OW30343   0.002   4.748   2.133
 9815SOL    HW130344   6.940   4.710   2.098
 9815SOL    HW230345   7.015   4.847   2.145
 9816SOL     OW30346   6.491   1.706   5.253
 9816SOL    HW130347   6.519   1.779   5.190
 9816SOL    HW230348   6.572   1.661   5.290
 9817SOL     OW30349   2.525   1.244   0.815
 9817SOL    HW130350   2.433   1.272   0.788
 9817SOL    HW230351   2.523   1.147   0.842
 9818SOL     OW30352   0.555   0.117   2.309
 9818SOL    HW130353   0.523   0.024   2.293
 9818SOL    HW230354   0.508   0.180   2.247
 9819SOL     OW30355   5.925   1.589   4.384
 9819SOL    HW130356   5.900   1.493   4.367
 9819SOL    HW230357   5.845   1.639   4.416
 9820SOL     OW30358   3.507   0.826   6.896
 9820SOL    HW130359   3.518   0.828   6.797
 9820SOL    HW230360   3.411   0.841   6.919
 9821SOL     OW30361   4.545   3.697   0.005
 9821SOL    HW130362   4.565   3.746   0.090
 9821SOL    HW230363   4.630   3.662   6.989
 9822SOL     OW30364   3.015   5.374   3.876
 9822SOL    HW130365   3.025   5.322   3.961
 9822SOL    HW230366   3.057   5.464   3.887
 9823SOL     OW30367   4.833   6.303   3.098
 9823SOL    HW130368   4.893   6.248   3.157
 9823SOL    HW230369   4.791   6.376   3.153
 9824SOL     OW30370   1.321   5.789   5.634
 9824SOL    HW130371   1.401   5.731   5.622
 9824SOL    HW230372   1.243   5.749   5.586
 9825SOL     OW30373   1.450   6.231   4.834
 9825SOL    HW130374   1.432   6.133   4.827
 9825SOL    HW230375   1.365   6.279   4.858
 9826SOL     OW30376   2.104   6.010   6.362
 9826SOL    HW130377   2.101   5.910   6.366
 9826SOL    HW230378   2.033   6.047   6.423
 9827SOL     OW30379   2.179   4.876   1.811
 9827SOL    HW130380   2.083   4.895   1.828
 9827SOL    HW230381   2.190   4.781   1.781
 9828SOL     OW30382   4.565   2.173   4.032
 9828SOL    HW130383   4.569   2.117   3.949
 9828SOL    HW230384   4.610   2.261   4.015
 9829SOL     OW30385   5.482   4.644   5.852
 9829SOL    HW130386   5.406   4.636   5.916
 9829SOL    HW230387   5.461   4.592   5.769
 9830SOL     OW30388   6.318   1.139   2.902
 9830SOL    HW130389   6.238   1.148   2.842
 9830SOL    HW230390   6.394   1.100   2.852
 9831SOL     OW30391   0.992   5.043   1.420
 9831SOL    HW130392   0.955   4.960   1.461
 9831SOL    HW230393   0.985   5.118   1.486
 9832SOL     OW30394   5.065   6.027   5.271
 9832SOL    HW130395   5.039   5.939   5.231
 9832SOL    HW230396   4.992   6.062   5.329
 9833SOL     OW30397   3.966   3.050   4.393
 9833SOL    HW130398   3.893   3.036   4.326
 9833SOL    HW230399   3.928   3.044   4.485
 9834SOL     OW30400   3.817   5.929   6.188
 9834SOL    HW130401   3.734   5.982   6.205
 9834SOL    HW230402   3.896   5.991   6.187
 9835SOL     OW30403   3.669   3.447   3.625
 9835SOL    HW130404   3.765   3.429   3.604
 9835SOL    HW230405   3.663   3.492   3.715
 9836SOL     OW30406   6.331   2.825   5.877
 9836SOL    HW130407   6.317   2.762   5.801
 9836SOL    HW230408   6.254   2.818   5.940
 9837SOL     OW30409   6.633   0.626   3.885
 9837SOL    HW130410   6.596   0.561   3.951
 9837SOL    HW230411   6.568   0.700   3.869
 9838SOL     OW30412   0.520   5.919   1.108
 9838SOL    HW130413   0.424   5.892   1.119
 9838SOL    HW230414   0.565   5.856   1.045
 9839SOL     OW30415   3.884   6.482   3.739
 9839SOL    HW130416   3.942   6.553   3.700
 9839SOL    HW230417   3.885   6.401   3.680
 9840SOL     OW30418   6.448   2.351   6.667
 9840SOL    HW130419   6.379   2.290   6.628
 9840SOL    HW230420   6.455   2.434   6.612
 9841SOL     OW30421   0.343   5.801   2.131
 9841SOL    HW130422   0.339   5.738   2.054
 9841SOL    HW230423   0.352   5.749   2.216
 9842SOL     OW30424   3.966   0.213   0.446
 9842SOL    HW130425   3.921   0.216   0.357
 9842SOL    HW230426   3.960   0.121   0.484
 9843SOL     OW30427   0.583   6.957   0.505
 9843SOL    HW130428   0.542   0.004   0.566
 9843SOL    HW230429   0.678   6.981   0.486
 9844SOL     OW30430   4.950   0.902   4.781
 9844SOL    HW130431   5.045   0.925   4.801
 9844SOL    HW230432   4.927   0.815   4.825
 9845SOL     OW30433   1.022   3.389   2.090
 9845SOL    HW130434   0.995   3.293   2.093
 9845SOL    HW230435   1.119   3.397   2.113
 9846SOL     OW30436   5.809   2.046   2.176
 9846SOL    HW130437   5.882   2.040   2.108
 9846SOL    HW230438   5.810   2.137   2.217
 9847SOL     OW30439   3.895   4.282   6.999
 9847SOL    HW130440   3.992   4.283   6.974
 9847SOL    HW230441   3.876   4.203   0.034
 9848SOL     OW30442   2.870   4.085   5.617
 9848SOL    HW130443   2.947   4.026   5.641
 9848SOL    HW230444   2.877   4.111   5.521
 9849SOL     OW30445   1.636   2.270   2.348
 9849SOL    HW130446   1.583   2.244   2.267
 9849SOL    HW230447   1.682   2.189   2.384
 9850SOL     OW30448   1.771   0.314   4.347
 9850SOL    HW130449   1.679   0.341   4.378
 9850SOL    HW230450   1.832   0.307   4.426
 9851SOL     OW30451   3.622   5.336   3.485
 9851SOL    HW130452   3.529   5.346   3.450
 9851SOL    HW230453   3.677   5.416   3.458
 9852SOL     OW30454   2.579   0.367   0.397
 9852SOL    HW130455   2.576   0.272   0.366
 9852SOL    HW230456   2.623   0.372   0.486
 9853SOL     OW30457   0.228   3.841   4.173
 9853SOL    HW130458   0.205   3.886   4.087
 9853SOL    HW230459   0.230   3.742   4.160
 9854SOL     OW30460   6.163   4.084   6.710
 9854SOL    HW130461   6.160   4.156   6.640
 9854SOL    HW230462   6.076   4.036   6.712
 9855SOL     OW30463   1.281   5.868   0.674
 9855SOL    HW130464   1.291   5.849   0.772
 9855SOL    HW230465   1.194   5.916   0.659
 9856SOL     OW30466   4.902   4.358   3.105
 9856SOL    HW130467   4.997   4.366   3.075
 9856SOL    HW230468   4.900   4.334   3.202
 9857SOL     OW30469   5.255   0.450   5.878
 9857SOL    HW130470   5.191   0.488   5.945
 9857SOL    HW230471   5.219   0.465   5.786
 9858SOL     OW30472   0.210   5.352   2.531
 9858SOL    HW130473   0.128   5.319   2.579
 9858SOL    HW230474   0.202   5.450   2.516
 9859SOL     OW30475   0.725   5.270   2.403
 9859SOL    HW130476   0.816   5.247   2.439
 9859SOL    HW230477   0.657   5.255   2.474
 9860SOL     OW30478   1.692   3.391   3.566
 9860SOL    HW130479   1.693   3.407   3.467
 9860SOL    HW230480   1.779   3.353   3.594
 9861SOL     OW30481   3.702   2.100   4.400
 9861SOL    HW130482   3.676   2.031   4.467
 9861SOL    HW230483   3.769   2.062   4.336
 9862SOL     OW30484   1.914   2.741   6.612
 9862SOL    HW130485   1.913   2.761   6.710
 9862SOL    HW230486   1.997   2.691   6.588
 9863SOL     OW30487   3.720   6.204   1.773
 9863SOL    HW130488   3.635   6.159   1.745
 9863SOL    HW230489   3.709   6.243   1.864
 9864SOL     OW30490   3.048   5.665   4.896
 9864SOL    HW130491   2.973   5.644   4.833
 9864SOL    HW230492   3.012   5.711   4.977
 9865SOL     OW30493   2.438   6.360   6.000
 9865SOL    HW130494   2.382   6.333   6.079
 9865SOL    HW230495   2.534   6.343   6.021
 9866SOL     OW30496   6.712   5.674   6.082
 9866SOL    HW130497   6.747   5.766   6.097
 9866SOL    HW230498   6.732   5.646   5.988
 9867SOL     OW30499   4.897   0.862   2.516
 9867SOL    HW130500   4.905   0.956   2.550
 9867SOL    HW230501   4.966   0.805   2.560
 9868SOL     OW30502   2.423   4.377   2.996
 9868SOL    HW130503   2.421   4.333   3.085
 9868SOL    HW230504   2.474   4.463   3.003
 9869SOL     OW30505   5.453   2.222   2.864
 9869SOL    HW130506   5.491   2.270   2.785
 9869SOL    HW230507   5.524   2.168   2.908
 9870SOL     OW30508   1.907   2.760   2.949
 9870SOL    HW130509   1.908   2.660   2.947
 9870SOL    HW230510   1.902   2.795   2.856
 9871SOL     OW30511   5.761   5.552   3.514
 9871SOL    HW130512   5.670   5.592   3.521
 9871SOL    HW230513   5.758   5.472   3.455
 9872SOL     OW30514   0.679   6.640   5.526
 9872SOL    HW130515   0.733   6.723   5.539
 9872SOL    HW230516   0.729   6.576   5.468
 9873SOL     OW30517   0.342   0.427   5.019
 9873SOL    HW130518   0.337   0.484   5.101
 9873SOL    HW230519   0.296   0.474   4.944
 9874SOL     OW30520   6.487   1.573   3.906
 9874SOL    HW130521   6.392   1.543   3.896
 9874SOL    HW230522   6.548   1.494   3.895
 9875SOL     OW30523   6.324   5.992   1.097
 9875SOL    HW130524   6.326   6.056   1.174
 9875SOL    HW230525   6.240   6.005   1.044
 9876SOL     OW30526   0.225   0.352   3.505
 9876SOL    HW130527   0.206   0.256   3.523
 9876SOL    HW230528   0.175   0.381   3.423
 9877SOL     OW30529   1.407   5.742   4.983
 9877SOL    HW130530   1.432   5.839   4.973
 9877SOL    HW230531   1.488   5.689   5.007
 9878SOL     OW30532   4.758   3.392   0.141
 9878SOL    HW130533   4.781   3.475   0.193
 9878SOL    HW230534   4.725   3.322   0.204
 9879SOL     OW30535   5.047   5.299   4.458
 9879SOL    HW130536   5.143   5.272   4.459
 9879SOL    HW230537   5.025   5.344   4.371
 9880SOL     OW30538   2.704   1.149   0.612
 9880SOL    HW130539   2.646   1.176   0.689
 9880SOL    HW230540   2.759   1.070   0.637
 9881SOL     OW30541   6.847   6.744   2.806
 9881SOL    HW130542   6.883   6.697   2.887
 9881SOL    HW230543   6.891   6.708   2.724
 9882SOL     OW30544   3.226   4.061   4.350
 9882SOL    HW130545   3.159   3.991   4.379
 9882SOL    HW230546   3.211   4.084   4.254
 9883SOL     OW30547   2.126   6.261   2.630
 9883SOL    HW130548   2.094   6.180   2.581
 9883SOL    HW230549   2.096   6.343   2.581
 9884SOL     OW30550   3.294   2.547   5.360
 9884SOL    HW130551   3.232   2.588   5.426
 9884SOL    HW230552   3.243   2.489   5.296
 9885SOL     OW30553   5.179   2.274   5.151
 9885SOL    HW130554   5.241   2.348   5.127
 9885SOL    HW230555   5.157   2.280   5.249
 9886SOL     OW30556   2.738   6.315   1.495
 9886SOL    HW130557   2.800   6.311   1.416
 9886SOL    HW230558   2.691   6.403   1.496
 9887SOL     OW30559   3.778   1.345   0.195
 9887SOL    HW130560   3.766   1.356   0.293
 9887SOL    HW230561   3.838   1.268   0.176
 9888SOL     OW30562   6.339   6.597   4.367
 9888SOL    HW130563   6.246   6.560   4.362
 9888SOL    HW230564   6.335   6.697   4.369
 9889SOL     OW30565   6.798   5.965   2.173
 9889SOL    HW130566   6.847   5.888   2.215
 9889SOL    HW230567   6.829   5.975   2.078
 9890SOL     OW30568   1.717   2.925   3.061
 9890SOL    HW130569   1.783   2.858   3.026
 9890SOL    HW230570   1.625   2.900   3.030
 9891SOL     OW30571   3.770   6.807   1.798
 9891SOL    HW130572   3.766   6.907   1.804
 9891SOL    HW230573   3.758   6.778   1.703
 9892SOL     OW30574   2.100   5.954   3.179
 9892SOL    HW130575   2.088   6.053   3.187
 9892SOL    HW230576   2.024   5.908   3.225
 9893SOL     OW30577   5.973   4.826   5.071
 9893SOL    HW130578   5.954   4.740   5.025
 9893SOL    HW230579   5.903   4.844   5.139
 9894SOL     OW30580   4.252   3.917   5.785
 9894SOL    HW130581   4.257   3.903   5.884
 9894SOL    HW230582   4.194   3.847   5.744
 9895SOL     OW30583   5.290   2.148   5.613
 9895SOL    HW130584   5.287   2.119   5.708
 9895SOL    HW230585   5.371   2.109   5.568
 9896SOL     OW30586   4.179   4.035   0.385
 9896SOL    HW130587   4.091   4.079   0.400
 9896SOL    HW230588   4.166   3.953   0.329
 9897SOL     OW30589   1.208   1.220   2.652
 9897SOL    HW130590   1.112   1.213   2.628
 9897SOL    HW230591   1.219   1.286   2.727
 9898SOL     OW30592   0.464   5.578   0.216
 9898SOL    HW130593   0.399   5.587   0.141
 9898SOL    HW230594   0.557   5.583   0.179
 9899SOL     OW30595   4.302   5.611   1.204
 9899SOL    HW130596   4.335   5.522   1.172
 9899SOL    HW230597   4.226   5.597   1.268
 9900SOL     OW30598   1.856   5.566   3.411
 9900SOL    HW130599   1.938   5.511   3.424
 9900SOL    HW230600   1.844   5.586   3.313
 9901SOL     OW30601   2.917   1.591   5.946
 9901SOL    HW130602   2.925   1.691   5.945
 9901SOL    HW230603   2.954   1.554   5.860
 9902SOL     OW30604   3.959   4.240   0.390
 9902SOL    HW130605   3.894   4.303   0.348
 9902SOL    HW230606   3.971   4.263   0.486
 9903SOL     OW30607   2.275   1.052   1.222
 9903SOL    HW130608   2.212   0.984   1.185
 9903SOL    HW230609   2.365   1.010   1.235
 9904SOL     OW30610   6.548   6.281   2.229
 9904SOL    HW130611   6.501   6.357   2.183
 9904SOL    HW230612   6.612   6.239   2.166
 9905SOL     OW30613   2.561   0.013   0.041
 9905SOL    HW130614   2.566   0.107   0.006
 9905SOL    HW230615   2.614   6.975   7.004
 9906SOL     OW30616   3.642   3.751   5.780
 9906SOL    HW130617   3.699   3.798   5.713
 9906SOL    HW230618   3.697   3.688   5.833
 9907SOL     OW30619   1.167   6.302   2.935
 9907SOL    HW130620   1.078   6.347   2.933
 9907SOL    HW230621   1.232   6.355   2.881
 9908SOL     OW30622   6.888   3.087   4.904
 9908SOL    HW130623   6.949   3.165   4.887
 9908SOL    HW230624   6.918   3.040   4.988
 9909SOL     OW30625   2.383   5.967   3.176
 9909SOL    HW130626   2.286   5.956   3.155
 9909SOL    HW230627   2.394   5.979   3.275
 9910SOL     OW30628   0.846   5.463   1.104
 9910SOL    HW130629   0.784   5.522   1.157
 9910SOL    HW230630   0.925   5.439   1.161
 9911SOL     OW30631   3.879   5.136   2.834
 9911SOL    HW130632   3.944   5.095   2.770
 9911SOL    HW230633   3.786   5.105   2.812
 9912SOL     OW30634   5.772   6.770   6.988
 9912SOL    HW130635   5.811   6.754   0.056
 9912SOL    HW230636   5.844   6.764   6.919
 9913SOL     OW30637   5.901   1.666   3.013
 9913SOL    HW130638   5.946   1.658   2.924
 9913SOL    HW230639   5.825   1.730   3.006
 9914SOL     OW30640   1.766   5.080   3.973
 9914SOL    HW130641   1.765   5.156   4.038
 9914SOL    HW230642   1.815   5.108   3.890
 9915SOL     OW30643   6.082   4.866   4.567
 9915SOL    HW130644   5.997   4.906   4.601
 9915SOL    HW230645   6.160   4.910   4.611
 9916SOL     OW30646   1.687   3.185   0.531
 9916SOL    HW130647   1.780   3.173   0.497
 9916SOL    HW230648   1.690   3.230   0.620
 9917SOL     OW30649   1.797   3.589   4.653
 9917SOL    HW130650   1.710   3.570   4.606
 9917SOL    HW230651   1.809   3.523   4.727
 9918SOL     OW30652   1.964   1.867   4.731
 9918SOL    HW130653   1.913   1.874   4.817
 9918SOL    HW230654   2.033   1.939   4.728
 9919SOL     OW30655   0.680   6.003   1.319
 9919SOL    HW130656   0.761   6.048   1.280
 9919SOL    HW230657   0.614   5.984   1.246
 9920SOL     OW30658   2.988   0.726   3.225
 9920SOL    HW130659   3.064   0.789   3.240
 9920SOL    HW230660   2.976   0.710   3.127
 9921SOL     OW30661   4.945   0.563   2.229
 9921SOL    HW130662   4.882   0.569   2.151
 9921SOL    HW230663   4.991   0.651   2.242
 9922SOL     OW30664   6.122   3.190   2.118
 9922SOL    HW130665   6.179   3.155   2.193
 9922SOL    HW230666   6.143   3.139   2.035
 9923SOL     OW30667   5.633   0.311   6.477
 9923SOL    HW130668   5.649   0.229   6.531
 9923SOL    HW230669   5.650   0.292   6.381
 9924SOL     OW30670   5.505   0.289   3.450
 9924SOL    HW130671   5.600   0.259   3.456
 9924SOL    HW230672   5.463   0.252   3.367
 9925SOL     OW30673   3.963   2.175   5.030
 9925SOL    HW130674   3.991   2.244   4.964
 9925SOL    HW230675   4.020   2.181   5.111
 9926SOL     OW30676   2.204   0.954   5.902
 9926SOL    HW130677   2.292   0.974   5.945
 9926SOL    HW230678   2.205   0.986   5.808
 9927SOL     OW30679   1.302   3.655   3.546
 9927SOL    HW130680   1.228   3.609   3.595
 9927SOL    HW230681   1.388   3.640   3.594
 9928SOL     OW30682   6.601   2.775   2.295
 9928SOL    HW130683   6.525   2.793   2.233
 9928SOL    HW230684   6.630   2.861   2.337
 9929SOL     OW30685   1.037   5.080   4.642
 9929SOL    HW130686   1.063   5.094   4.738
 9929SOL    HW230687   0.939   5.057   4.638
 9930SOL     OW30688   7.021   5.382   6.528
 9930SOL    HW130689   7.001   5.289   6.497
 9930SOL    HW230690   7.018   5.445   6.450
 9931SOL     OW30691   2.075   4.444   0.035
 9931SOL    HW130692   2.089   4.348   0.011
 9931SOL    HW230693   2.115   4.503   6.988
 9932SOL     OW30694   2.222   2.192   1.183
 9932SOL    HW130695   2.176   2.218   1.268
 9932SOL    HW230696   2.208   2.094   1.166
 9933SOL     OW30697   1.039   1.473   3.570
 9933SOL    HW130698   1.041   1.426   3.482
 9933SOL    HW230699   1.014   1.569   3.556
 9934SOL     OW30700   5.034   0.527   6.038
 9934SOL    HW130701   5.059   0.442   6.085
 9934SOL    HW230702   4.948   0.514   5.989
 9935SOL     OW30703   2.817   2.858   0.593
 9935SOL    HW130704   2.892   2.865   0.659
 9935SOL    HW230705   2.751   2.789   0.624
 9936SOL     OW30706   4.494   6.130   0.050
 9936SOL    HW130707   4.534   6.184   6.998
 9936SOL    HW230708   4.543   6.149   0.135
 9937SOL     OW30709   1.616   6.869   4.674
 9937SOL    HW130710   1.596   6.818   4.757
 9937SOL    HW230711   1.534   6.872   4.616
 9938SOL     OW30712   0.402   1.465   2.958
 9938SOL    HW130713   0.491   1.487   2.920
 9938SOL    HW230714   0.363   1.387   2.909
 9939SOL     OW30715   2.879   3.822   1.130
 9939SOL    HW130716   2.952   3.755   1.144
 9939SOL    HW230717   2.919   3.912   1.115
 9940SOL     OW30718   0.267   0.835   3.209
 9940SOL    HW130719   0.237   0.772   3.281
 9940SOL    HW230720   0.351   0.881   3.238
 9941SOL     OW30721   5.962   3.499   0.304
 9941SOL    HW130722   6.018   3.423   0.273
 9941SOL    HW230723   5.905   3.470   0.381
 9942SOL     OW30724   6.019   5.574   2.485
 9942SOL    HW130725   6.062   5.655   2.445
 9942SOL    HW230726   6.062   5.552   2.572
 9943SOL     OW30727   0.913   4.811   5.001
 9943SOL    HW130728   0.932   4.728   4.948
 9943SOL    HW230729   0.815   4.817   5.020
 9944SOL     OW30730   2.545   5.810   6.396
 9944SOL    HW130731   2.491   5.777   6.473
 9944SOL    HW230732   2.618   5.869   6.430
 9945SOL     OW30733   6.217   3.166   5.814
 9945SOL    HW130734   6.187   3.130   5.726
 9945SOL    HW230735   6.314   3.146   5.827
 9946SOL     OW30736   5.725   2.036   1.208
 9946SOL    HW130737   5.761   1.948   1.238
 9946SOL    HW230738   5.691   2.027   1.114
 9947SOL     OW30739   0.677   0.272   3.345
 9947SOL    HW130740   0.775   0.289   3.352
 9947SOL    HW230741   0.636   0.336   3.280
 9948SOL     OW30742   4.977   0.677   5.332
 9948SOL    HW130743   4.946   0.585   5.308
 9948SOL    HW230744   5.073   0.688   5.306
 9949SOL     OW30745   6.793   2.997   2.801
 9949SOL    HW130746   6.706   2.960   2.768
 9949SOL    HW230747   6.780   3.091   2.832
 9950SOL     OW30748   5.161   5.026   6.398
 9950SOL    HW130749   5.211   5.113   6.397
 9950SOL    HW230750   5.217   4.956   6.441
 9951SOL     OW30751   0.064   1.872   2.613
 9951SOL    HW130752   0.146   1.914   2.575
 9951SOL    HW230753   7.010   1.936   2.607
 9952SOL     OW30754   1.541   4.779   1.940
 9952SOL    HW130755   1.574   4.870   1.916
 9952SOL    HW230756   1.598   4.710   1.896
 9953SOL     OW30757   5.932   4.624   4.905
 9953SOL    HW130758   5.855   4.588   4.852
 9953SOL    HW230759   6.011   4.563   4.894
 9954SOL     OW30760   4.297   1.647   1.407
 9954SOL    HW130761   4.260   1.573   1.463
 9954SOL    HW230762   4.233   1.668   1.334
 9955SOL     OW30763   6.376   5.200   1.572
 9955SOL    HW130764   6.280   5.209   1.599
 9955SOL    HW230765   6.430   5.269   1.620
 9956SOL     OW30766   1.623   4.012   3.271
 9956SOL    HW130767   1.564   4.056   3.339
 9956SOL    HW230768   1.641   3.918   3.299
 9957SOL     OW30769   5.812   6.800   0.251
 9957SOL    HW130770   5.826   6.896   0.226
 9957SOL    HW230771   5.778   6.794   0.344
 9958SOL     OW30772   6.524   6.115   5.633
 9958SOL    HW130773   6.446   6.139   5.576
 9958SOL    HW230774   6.496   6.115   5.729
 9959SOL     OW30775   6.174   5.838   6.794
 9959SOL    HW130776   6.188   5.749   6.837
 9959SOL    HW230777   6.219   5.840   6.705
 9960SOL     OW30778   6.616   0.147   6.309
 9960SOL    HW130779   6.603   0.071   6.373
 9960SOL    HW230780   6.528   0.169   6.266
 9961SOL     OW30781   3.379   6.505   0.530
 9961SOL    HW130782   3.350   6.568   0.602
 9961SOL    HW230783   3.306   6.440   0.511
 9962SOL     OW30784   3.204   0.569   1.320
 9962SOL    HW130785   3.291   0.570   1.271
 9962SOL    HW230786   3.217   0.601   1.413
 9963SOL     OW30787   1.196   0.088   6.532
 9963SOL    HW130788   1.139   0.166   6.561
 9963SOL    HW230789   1.254   0.060   6.607
 9964SOL     OW30790   4.589   5.242   5.488
 9964SOL    HW130791   4.613   5.153   5.450
 9964SOL    HW230792   4.497   5.268   5.458
 9965SOL     OW30793   1.862   5.201   4.608
 9965SOL    HW130794   1.881   5.121   4.665
 9965SOL    HW230795   1.900   5.187   4.517
 9966SOL     OW30796   2.424   4.853   1.922
 9966SOL    HW130797   2.329   4.856   1.892
 9966SOL    HW230798   2.481   4.817   1.849
 9967SOL     OW30799   6.803   0.331   2.457
 9967SOL    HW130800   6.891   0.299   2.494
 9967SOL    HW230801   6.733   0.325   2.528
 9968SOL     OW30802   4.888   6.353   0.438
 9968SOL    HW130803   4.817   6.356   0.508
 9968SOL    HW230804   4.963   6.413   0.464
 9969SOL     OW30805   0.432   6.297   3.256
 9969SOL    HW130806   0.432   6.299   3.156
 9969SOL    HW230807   0.440   6.202   3.288
 9970SOL     OW30808   6.991   2.926   1.523
 9970SOL    HW130809   6.900   2.925   1.565
 9970SOL    HW230810   0.006   3.019   1.525
 9971SOL     OW30811   6.518   5.219   5.710
 9971SOL    HW130812   6.604   5.172   5.727
 9971SOL    HW230813   6.506   5.292   5.777
 9972SOL     OW30814   2.805   4.749   5.676
 9972SOL    HW130815   2.896   4.789   5.688
 9972SOL    HW230816   2.790   4.728   5.580
 9973SOL     OW30817   2.760   2.371   3.032
 9973SOL    HW130818   2.804   2.335   2.950
 9973SOL    HW230819   2.693   2.440   3.007
 9974SOL     OW30820   0.778   3.114   3.285
 9974SOL    HW130821   0.870   3.078   3.271
 9974SOL    HW230822   0.727   3.053   3.344
 9975SOL     OW30823   1.010   4.575   0.065
 9975SOL    HW130824   0.974   4.657   0.110
 9975SOL    HW230825   1.097   4.549   0.107
 9976SOL     OW30826   4.273   6.078   5.282
 9976SOL    HW130827   4.230   5.990   5.300
 9976SOL    HW230828   4.357   6.064   5.229
 9977SOL     OW30829   4.678   0.053   5.502
 9977SOL    HW130830   4.608   0.013   5.443
 9977SOL    HW230831   4.702   7.010   5.574
 9978SOL     OW30832   6.662   2.834   0.559
 9978SOL    HW130833   6.759   2.853   0.578
 9978SOL    HW230834   6.610   2.835   0.644
 9979SOL     OW30835   3.745   4.027   3.771
 9979SOL    HW130836   3.810   3.973   3.719
 9979SOL    HW230837   3.776   4.033   3.867
 9980SOL     OW30838   0.543   0.309   6.722
 9980SOL    HW130839   0.582   0.382   6.778
 9980SOL    HW230840   0.549   0.222   6.772
 9981SOL     OW30841   5.713   1.162   1.060
 9981SOL    HW130842   5.736   1.215   1.142
 9981SOL    HW230843   5.635   1.102   1.080
 9982SOL     OW30844   2.719   2.250   5.342
 9982SOL    HW130845   2.695   2.161   5.382
 9982SOL    HW230846   2.771   2.236   5.258
 9983SOL     OW30847   0.026   3.111   2.204
 9983SOL    HW130848   6.950   3.111   2.186
 9983SOL    HW230849   0.075   3.138   2.121
 9984SOL     OW30850   1.075   4.281   1.407
 9984SOL    HW130851   1.099   4.298   1.503
 9984SOL    HW230852   1.158   4.270   1.353
 9985SOL     OW30853   4.672   3.972   6.260
 9985SOL    HW130854   4.644   4.038   6.330
 9985SOL    HW230855   4.646   4.007   6.170
 9986SOL     OW30856   5.624   4.300   6.849
 9986SOL    HW130857   5.713   4.319   6.891
 9986SOL    HW230858   5.564   4.258   6.916
 9987SOL     OW30859   4.924   2.459   0.936
 9987SOL    HW130860   4.875   2.379   0.970
 9987SOL    HW230861   4.975   2.433   0.853
 9988SOL     OW30862   5.705   6.385   3.488
 9988SOL    HW130863   5.789   6.388   3.543
 9988SOL    HW230864   5.638   6.449   3.524
 9989SOL     OW30865   5.938   5.795   2.059
 9989SOL    HW130866   5.937   5.893   2.077
 9989SOL    HW230867   5.865   5.772   1.994
 9990SOL     OW30868   0.421   5.990   3.269
 9990SOL    HW130869   0.342   6.022   3.216
 9990SOL    HW230870   0.418   5.890   3.275
 9991SOL     OW30871   1.901   3.545   1.987
 9991SOL    HW130872   1.871   3.474   2.049
 9991SOL    HW230873   1.999   3.563   2.002
 9992SOL     OW30874   2.002   4.872   0.091
 9992SOL    HW130875   1.944   4.790   0.087
 9992SOL    HW230876   2.097   4.845   0.104
 9993SOL     OW30877   3.358   6.994   4.238
 9993SOL    HW130878   3.355   6.904   4.280
 9993SOL    HW230879   3.381   0.040   4.307
 9994SOL     OW30880   5.727   4.967   5.217
 9994SOL    HW130881   5.738   5.052   5.166
 9994SOL    HW230882   5.643   4.972   5.272
 9995SOL     OW30883   4.369   1.136   5.996
 9995SOL    HW130884   4.375   1.230   5.962
 9995SOL    HW230885   4.298   1.131   6.066
 9996SOL     OW30886   2.561   4.519   0.880
 9996SOL    HW130887   2.608   4.455   0.940
 9996SOL    HW230888   2.622   4.594   0.856
 9997SOL     OW30889   6.178   0.674   2.870
 9997SOL    HW130890   6.096   0.622   2.893
 9997SOL    HW230891   6.186   0.752   2.932
 9998SOL     OW30892   5.130   3.711   2.049
 9998SOL    HW130893   5.037   3.678   2.039
 9998SOL    HW230894   5.170   3.674   2.133
 9999SOL     OW30895   0.527   6.825   5.269
 9999SOL    HW130896   0.486   6.747   5.316
 9999SOL    HW230897   0.456   6.871   5.214
10000SOL     OW30898   4.377   3.152   1.266
10000SOL    HW130899   4.442   3.121   1.335
10000SOL    HW230900   4.307   3.082   1.252
10001SOL     OW30901   3.809   6.659   1.543
10001SOL    HW130902   3.799   6.719   1.463
10001SOL    HW230903   3.905   6.654   1.569
10002SOL     OW30904   2.055   6.520   2.465
10002SOL    HW130905   2.075   6.577   2.545
10002SOL    HW230906   2.119   6.542   2.391
10003SOL     OW30907   0.468   0.836   2.656
10003SOL    HW130908   0.484   0.885   2.741
10003SOL    HW230909   0.374   0.851   2.626
10004SOL     OW30910   6.893   3.126   3.162
10004SOL    HW130911   6.949   3.142   3.081
10004SOL    HW230912   6.941   3.062   3.223
10005SOL     OW30913   2.157   5.773   2.398
10005SOL    HW130914   2.213   5.769   2.315
10005SOL    HW230915   2.209   5.816   2.471
10006SOL     OW30916   5.338   1.864   5.846
10006SOL    HW130917   5.386   1.950   5.862
10006SOL    HW230918   5.340   1.809   5.929
10007SOL     OW30919   1.281   4.771   3.721
10007SOL    HW130920   1.187   4.781   3.753
10007SOL    HW230921   1.282   4.724   3.633
10008SOL     OW30922   4.019   0.664   5.842
10008SOL    HW130923   4.020   0.667   5.941
10008SOL    HW230924   4.083   0.731   5.805
10009SOL     OW30925   1.691   5.101   1.844
10009SOL    HW130926   1.718   5.107   1.940
10009SOL    HW230927   1.591   5.106   1.837
10010SOL     OW30928   1.988   4.620   1.036
10010SOL    HW130929   1.941   4.676   0.968
10010SOL    HW230930   1.967   4.652   1.128
10011SOL     OW30931   3.343   3.948   0.261
10011SOL    HW130932   3.342   3.946   0.361
10011SOL    HW230933   3.437   3.940   0.228
10012SOL     OW30934   5.618   1.913   3.301
10012SOL    HW130935   5.708   1.886   3.336
10012SOL    HW230936   5.620   2.010   3.277
10013SOL     OW30937   0.517   6.320   5.451
10013SOL    HW130938   0.425   6.315   5.489
10013SOL    HW230939   0.584   6.317   5.525
10014SOL     OW30940   1.496   0.941   2.968
10014SOL    HW130941   1.514   1.028   2.921
10014SOL    HW230942   1.559   0.931   3.045
10015SOL     OW30943   4.550   0.407   6.739
10015SOL    HW130944   4.616   0.426   6.667
10015SOL    HW230945   4.483   0.341   6.707
10016SOL     OW30946   3.193   1.078   4.565
10016SOL    HW130947   3.162   1.167   4.599
10016SOL    HW230948   3.258   1.039   4.629
10017SOL     OW30949   2.963   1.209   2.703
10017SOL    HW130950   2.991   1.228   2.797
10017SOL    HW230951   2.876   1.254   2.684
10018SOL     OW30952   6.994   4.922   5.610
10018SOL    HW130953   0.064   4.959   5.613
10018SOL    HW230954   6.970   4.901   5.515
10019SOL     OW30955   6.769   1.873   2.770
10019SOL    HW130956   6.703   1.926   2.822
10019SOL    HW230957   6.767   1.778   2.801
10020SOL     OW30958   6.510   0.587   2.434
10020SOL    HW130959   6.454   0.670   2.434
10020SOL    HW230960   6.606   0.611   2.429
10021SOL     OW30961   1.375   3.127   1.623
10021SOL    HW130962   1.321   3.171   1.695
10021SOL    HW230963   1.318   3.112   1.542
10022SOL     OW30964   1.426   6.720   6.015
10022SOL    HW130965   1.440   6.656   6.091
10022SOL    HW230966   1.497   6.707   5.946
10023SOL     OW30967   1.181   1.751   5.564
10023SOL    HW130968   1.128   1.827   5.601
10023SOL    HW230969   1.121   1.691   5.510
10024SOL     OW30970   2.285   4.141   3.480
10024SOL    HW130971   2.202   4.171   3.528
10024SOL    HW230972   2.269   4.142   3.382
10025SOL     OW30973   0.544   2.687   0.873
10025SOL    HW130974   0.513   2.739   0.953
10025SOL    HW230975   0.576   2.750   0.802
10026SOL     OW30976   6.503   1.087   4.967
10026SOL    HW130977   6.557   1.168   4.990
10026SOL    HW230978   6.545   1.006   5.008
10027SOL     OW30979   3.413   1.297   5.672
10027SOL    HW130980   3.456   1.207   5.683
10027SOL    HW230981   3.436   1.334   5.582
10028SOL     OW30982   3.781   6.847   2.582
10028SOL    HW130983   3.783   6.895   2.669
10028SOL    HW230984   3.686   6.833   2.554
10029SOL     OW30985   6.451   4.777   4.137
10029SOL    HW130986   6.536   4.726   4.148
10029SOL    HW230987   6.443   4.844   4.211
10030SOL     OW30988   2.800   6.789   4.092
10030SOL    HW130989   2.777   6.712   4.032
10030SOL    HW230990   2.872   6.760   4.156
10031SOL     OW30991   1.785   6.348   4.131
10031SOL    HW130992   1.847   6.420   4.162
10031SOL    HW230993   1.779   6.277   4.200
10032SOL     OW30994   2.884   5.704   4.081
10032SOL    HW130995   2.837   5.747   4.004
10032SOL    HW230996   2.856   5.609   4.088
10033SOL     OW30997   2.923   1.131   4.709
10033SOL    HW130998   2.859   1.123   4.632
10033SOL    HW230999   2.965   1.221   4.709
10034SOL     OW31000   2.133   1.181   1.656
10034SOL    HW131001   2.209   1.144   1.709
10034SOL    HW231002   2.142   1.281   1.650
10035SOL     OW31003   0.444   3.398   2.268
10035SOL    HW131004   0.461   3.324   2.203
10035SOL    HW231005   0.363   3.375   2.323
10036SOL     OW31006   0.180   1.238   6.873
10036SOL    HW131007   0.240   1.204   6.800
10036SOL    HW231008   0.233   1.254   6.956
10037SOL     OW31009   6.239   0.570   6.235
10037SOL    HW131010   6.325   0.619   6.248
10037SOL    HW231011   6.219   0.515   6.316
10038SOL     OW31012   5.348   6.749   6.862
10038SOL    HW131013   5.325   6.728   6.767
10038SOL    HW231014   5.418   6.685   6.894
10039SOL     OW31015   0.007   5.181   1.797
10039SOL    HW131016   6.983   5.263   1.829
10039SOL    HW231017   0.055   5.138   1.873
10040SOL     OW31018   2.526   0.119   0.301
10040SOL    HW131019   2.505   0.094   0.207
10040SOL    HW231020   2.479   0.057   0.364
10041SOL     OW31021   5.186   5.136   5.460
10041SOL    HW131022   5.174   5.220   5.407
10041SOL    HW231023   5.110   5.073   5.441
10042SOL     OW31024   6.175   0.762   5.509
10042SOL    HW131025   6.266   0.748   5.471
10042SOL    HW231026   6.169   0.718   5.598
10043SOL     OW31027   0.733   0.515   2.976
10043SOL    HW131028   0.801   0.588   2.987
10043SOL    HW231029   0.717   0.498   2.879
10044SOL     OW31030   2.872   2.304   6.783
10044SOL    HW131031   2.892   2.376   6.849
10044SOL    HW231032   2.838   2.345   6.698
10045SOL     OW31033   4.177   6.894   4.148
10045SOL    HW131034   4.127   6.980   4.160
10045SOL    HW231035   4.152   6.830   4.221
10046SOL     OW31036   6.895   1.931   1.554
10046SOL    HW131037   6.974   1.875   1.531
10046SOL    HW231038   6.925   2.022   1.581
10047SOL     OW31039   1.607   2.419   3.024
10047SOL    HW131040   1.567   2.498   2.977
10047SOL    HW231041   1.631   2.445   3.117
10048SOL     OW31042   3.523   2.591   1.762
10048SOL    HW131043   3.511   2.675   1.815
10048SOL    HW231044   3.571   2.523   1.817
10049SOL     OW31045   1.579   5.641   4.662
10049SOL    HW131046   1.557   5.586   4.743
10049SOL    HW231047   1.494   5.672   4.619
10050SOL     OW31048   5.914   1.687   4.694
10050SOL    HW131049   5.858   1.735   4.627
10050SOL    HW231050   5.943   1.599   4.656
10051SOL     OW31051   6.221   2.095   1.020
10051SOL    HW131052   6.134   2.076   1.066
10051SOL    HW231053   6.293   2.036   1.059
10052SOL     OW31054   1.965   5.030   0.869
10052SOL    HW131055   1.940   4.936   0.892
10052SOL    HW231056   1.921   5.056   0.783
10053SOL     OW31057   2.927   6.108   3.239
10053SOL    HW131058   3.004   6.137   3.182
10053SOL    HW231059   2.869   6.045   3.188
10054SOL     OW31060   4.443   5.343   3.772
10054SOL    HW131061   4.477   5.434   3.797
10054SOL    HW231062   4.517   5.276   3.784
10055SOL     OW31063   5.356   2.860   6.974
10055SOL    HW131064   5.347   2.940   6.915
10055SOL    HW231065   5.441   2.812   6.952
10056SOL     OW31066   5.315   4.025   2.883
10056SOL    HW131067   5.221   4.019   2.915
10056SOL    HW231068   5.316   4.031   2.783
10057SOL     OW31069   2.455   2.589   3.273
10057SOL    HW131070   2.414   2.638   3.196
10057SOL    HW231071   2.501   2.507   3.239
10058SOL     OW31072   0.554   4.922   4.262
10058SOL    HW131073   0.638   4.886   4.221
10058SOL    HW231074   0.531   5.010   4.219
10059SOL     OW31075   5.066   6.980   1.488
10059SOL    HW131076   5.158   6.940   1.497
10059SOL    HW231077   5.074   0.054   1.464
10060SOL     OW31078   2.300   2.633   2.190
10060SOL    HW131079   2.389   2.596   2.217
10060SOL    HW231080   2.281   2.716   2.242
10061SOL     OW31081   6.348   1.956   5.520
10061SOL    HW131082   6.413   1.918   5.455
10061SOL    HW231083   6.257   1.957   5.480
10062SOL     OW31084   5.680   6.240   3.016
10062SOL    HW131085   5.644   6.248   3.109
10062SOL    HW231086   5.663   6.147   2.982
10063SOL     OW31087   0.841   2.551   2.076
10063SOL    HW131088   0.867   2.474   2.135
10063SOL    HW231089   0.900   2.629   2.096
10064SOL     OW31090   4.647   5.516   5.532
10064SOL    HW131091   4.640   5.417   5.521
10064SOL    HW231092   4.684   5.537   5.623
10065SOL     OW31093   0.402   6.919   2.752
10065SOL    HW131094   0.333   6.971   2.802
10065SOL    HW231095   0.480   6.901   2.812
10066SOL     OW31096   0.158   0.737   3.752
10066SOL    HW131097   0.254   0.715   3.737
10066SOL    HW231098   0.147   0.836   3.753
10067SOL     OW31099   4.592   6.618   3.521
10067SOL    HW131100   4.604   6.689   3.451
10067SOL    HW231101   4.679   6.601   3.567
10068SOL     OW31102   5.269   3.398   5.389
10068SOL    HW131103   5.202   3.367   5.457
10068SOL    HW231104   5.248   3.491   5.361
10069SOL     OW31105   5.257   1.343   4.026
10069SOL    HW131106   5.282   1.251   3.996
10069SOL    HW231107   5.164   1.342   4.063
10070SOL     OW31108   1.165   0.104   4.347
10070SOL    HW131109   1.206   0.110   4.256
10070SOL    HW231110   1.124   0.014   4.360
10071SOL     OW31111   5.193   4.706   5.215
10071SOL    HW131112   5.228   4.621   5.176
10071SOL    HW231113   5.260   4.742   5.281
10072SOL     OW31114   1.046   6.579   4.291
10072SOL    HW131115   1.013   6.585   4.197
10072SOL    HW231116   1.030   6.665   4.339
10073SOL     OW31117   6.961   5.688   6.557
10073SOL    HW131118   7.001   5.682   6.466
10073SOL    HW231119   6.892   5.616   6.568
10074SOL     OW31120   2.671   6.995   5.044
10074SOL    HW131121   2.605   6.957   4.979
10074SOL    HW231122   2.644   0.066   5.069
10075SOL     OW31123   1.582   2.678   4.468
10075SOL    HW131124   1.591   2.614   4.544
10075SOL    HW231125   1.663   2.736   4.464
10076SOL     OW31126   5.883   0.104   3.902
10076SOL    HW131127   5.879   0.081   3.805
10076SOL    HW231128   5.964   0.064   3.943
10077SOL     OW31129   3.232   1.645   6.793
10077SOL    HW131130   3.137   1.618   6.783
10077SOL    HW231131   3.237   1.728   6.849
10078SOL     OW31132   5.220   5.944   5.525
10078SOL    HW131133   5.238   6.028   5.576
10078SOL    HW231134   5.267   5.948   5.436
10079SOL     OW31135   0.108   2.753   6.109
10079SOL    HW131136   0.089   2.723   6.203
10079SOL    HW231137   0.171   2.831   6.112
10080SOL     OW31138   1.090   2.786   5.557
10080SOL    HW131139   1.034   2.719   5.605
10080SOL    HW231140   1.184   2.753   5.550
10081SOL     OW31141   0.306   1.406   0.060
10081SOL    HW131142   0.390   1.461   0.057
10081SOL    HW231143   0.330   1.309   0.064
10082SOL     OW31144   6.886   0.380   0.716
10082SOL    HW131145   6.833   0.353   0.797
10082SOL    HW231146   6.861   0.321   0.640
10083SOL     OW31147   5.577   1.657   4.109
10083SOL    HW131148   5.599   1.560   4.120
10083SOL    HW231149   5.652   1.704   4.063
10084SOL     OW31150   2.434   0.665   6.542
10084SOL    HW131151   2.390   0.754   6.529
10084SOL    HW231152   2.506   0.673   6.611
10085SOL     OW31153   0.952   5.160   2.543
10085SOL    HW131154   1.034   5.103   2.542
10085SOL    HW231155   0.874   5.107   2.578
10086SOL     OW31156   7.011   3.313   1.914
10086SOL    HW131157   0.051   3.387   1.939
10086SOL    HW231158   6.946   3.298   1.989
10087SOL     OW31159   1.977   0.653   3.380
10087SOL    HW131160   1.940   0.615   3.295
10087SOL    HW231161   1.953   0.750   3.386
10088SOL     OW31162   5.980   0.555   4.531
10088SOL    HW131163   6.052   0.603   4.483
10088SOL    HW231164   6.017   0.514   4.615
10089SOL     OW31165   2.157   2.360   1.883
10089SOL    HW131166   2.067   2.336   1.846
10089SOL    HW231167   2.173   2.308   1.967
10090SOL     OW31168   0.123   5.481   2.098
10090SOL    HW131169   0.078   5.555   2.049
10090SOL    HW231170   0.216   5.469   2.062
10091SOL     OW31171   0.191   1.895   3.675
10091SOL    HW131172   0.174   1.804   3.713
10091SOL    HW231173   0.290   1.910   3.669
10092SOL     OW31174   1.753   2.870   5.177
10092SOL    HW131175   1.769   2.957   5.225
10092SOL    HW231176   1.675   2.881   5.116
10093SOL     OW31177   6.939   6.234   6.327
10093SOL    HW131178   7.007   6.298   6.363
10093SOL    HW231179   6.861   6.285   6.291
10094SOL     OW31180   1.851   0.634   1.761
10094SOL    HW131181   1.946   0.659   1.779
10094SOL    HW231182   1.798   0.641   1.845
10095SOL     OW31183   6.991   2.099   5.263
10095SOL    HW131184   6.898   2.092   5.227
10095SOL    HW231185   6.993   2.067   5.358
10096SOL     OW31186   0.139   5.598   2.458
10096SOL    HW131187   0.064   5.585   2.393
10096SOL    HW231188   0.224   5.615   2.408
10097SOL     OW31189   0.910   2.635   5.685
10097SOL    HW131190   0.912   2.543   5.647
10097SOL    HW231191   0.921   2.631   5.784
10098SOL     OW31192   3.751   4.966   6.400
10098SOL    HW131193   3.742   5.028   6.323
10098SOL    HW231194   3.676   4.900   6.399
10099SOL     OW31195   6.980   4.817   4.776
10099SOL    HW131196   6.913   4.743   4.768
10099SOL    HW231197   6.933   4.904   4.793
10100SOL     OW31198   5.105   0.456   5.650
10100SOL    HW131199   5.127   0.415   5.561
10100SOL    HW231200   5.008   0.444   5.669
10101SOL     OW31201   0.047   4.540   2.465
10101SOL    HW131202   0.040   4.569   2.561
10101SOL    HW231203   0.034   4.618   2.405
10102SOL     OW31204   3.725   0.283   4.311
10102SOL    HW131205   3.650   0.348   4.314
10102SOL    HW231206   3.716   0.218   4.387
10103SOL     OW31207   0.982   2.324   0.640
10103SOL    HW131208   1.022   2.415   0.654
10103SOL    HW231209   0.890   2.321   0.678
10104SOL     OW31210   2.343   6.092   5.891
10104SOL    HW131211   2.325   6.173   5.835
10104SOL    HW231212   2.292   6.099   5.977
10105SOL     OW31213   3.299   0.495   0.213
10105SOL    HW131214   3.294   0.553   0.294
10105SOL    HW231215   3.358   0.416   0.232
10106SOL     OW31216   4.622   5.062   1.362
10106SOL    HW131217   4.582   5.143   1.405
10106SOL    HW231218   4.717   5.080   1.339
10107SOL     OW31219   5.601   1.241   5.912
10107SOL    HW131220   5.519   1.280   5.870
10107SOL    HW231221   5.593   1.141   5.915
10108SOL     OW31222   5.762   6.352   6.449
10108SOL    HW131223   5.763   6.442   6.491
10108SOL    HW231224   5.667   6.323   6.435
10109SOL     OW31225   4.745   5.798   3.674
10109SOL    HW131226   4.681   5.754   3.612
10109SOL    HW231227   4.739   5.898   3.663
10110SOL     OW31228   3.211   1.231   5.200
10110SOL    HW131229   3.192   1.218   5.297
10110SOL    HW231230   3.153   1.170   5.146
10111SOL     OW31231   6.803   2.350   2.331
10111SOL    HW131232   6.900   2.334   2.349
10111SOL    HW231233   6.792   2.380   2.236
10112SOL     OW31234   4.388   3.256   6.499
10112SOL    HW131235   4.441   3.326   6.451
10112SOL    HW231236   4.391   3.171   6.446
10113SOL     OW31237   4.201   6.842   0.678
10113SOL    HW131238   4.252   6.816   0.597
10113SOL    HW231239   4.228   6.784   0.755
10114SOL     OW31240   4.670   1.277   2.039
10114SOL    HW131241   4.756   1.320   2.012
10114SOL    HW231242   4.632   1.326   2.117
10115SOL     OW31243   0.747   2.032   4.789
10115SOL    HW131244   0.819   1.980   4.743
10115SOL    HW231245   0.721   2.111   4.732
10116SOL     OW31246   0.475   0.501   0.513
10116SOL    HW131247   0.498   0.434   0.442
10116SOL    HW231248   0.383   0.536   0.496
10117SOL     OW31249   4.772   0.311   5.525
10117SOL    HW131250   4.760   0.369   5.606
10117SOL    HW231251   4.709   0.234   5.530
10118SOL     OW31252   6.172   5.680   2.187
10118SOL    HW131253   6.096   5.704   2.126
10118SOL    HW231254   6.183   5.751   2.256
10119SOL     OW31255   2.255   0.187   6.075
10119SOL    HW131256   2.248   0.258   6.146
10119SOL    HW231257   2.312   0.221   6.000
10120SOL     OW31258   5.697   2.874   3.101
10120SOL    HW131259   5.760   2.799   3.123
10120SOL    HW231260   5.751   2.955   3.076
10121SOL     OW31261   5.824   4.608   3.971
10121SOL    HW131262   5.768   4.643   3.897
10121SOL    HW231263   5.813   4.509   3.978
10122SOL     OW31264   5.100   3.047   6.825
10122SOL    HW131265   5.159   3.123   6.798
10122SOL    HW231266   5.085   3.050   6.923
10123SOL     OW31267   0.190   7.018   0.087
10123SOL    HW131268   0.285   0.018   0.066
10123SOL    HW231269   0.187   6.950   0.160
10124SOL     OW31270   3.341   4.540   1.212
10124SOL    HW131271   3.270   4.594   1.257
10124SOL    HW231272   3.320   4.443   1.218
10125SOL     OW31273   2.168   0.368   0.608
10125SOL    HW131274   2.104   0.291   0.604
10125SOL    HW231275   2.212   0.379   0.519
10126SOL     OW31276   5.403   5.083   6.867
10126SOL    HW131277   5.462   5.002   6.870
10126SOL    HW231278   5.420   5.133   6.782
10127SOL     OW31279   3.488   4.887   5.272
10127SOL    HW131280   3.461   4.944   5.349
10127SOL    HW231281   3.426   4.903   5.196
10128SOL     OW31282   0.491   1.662   1.304
10128SOL    HW131283   0.567   1.725   1.317
10128SOL    HW231284   0.447   1.643   1.392
10129SOL     OW31285   5.399   2.475   3.305
10129SOL    HW131286   5.383   2.449   3.210
10129SOL    HW231287   5.404   2.392   3.362
10130SOL     OW31288   6.405   6.007   1.457
10130SOL    HW131289   6.385   6.086   1.514
10130SOL    HW231290   6.475   6.031   1.390
10131SOL     OW31291   0.483   0.060   0.276
10131SOL    HW131292   0.415   0.107   0.332
10131SOL    HW231293   0.528   7.012   0.331
10132SOL     OW31294   2.780   0.034   2.453
10132SOL    HW131295   2.783   6.962   2.421
10132SOL    HW231296   2.863   0.055   2.503
10133SOL     OW31297   6.071   4.872   2.292
10133SOL    HW131298   6.102   4.967   2.298
10133SOL    HW231299   5.976   4.869   2.264
10134SOL     OW31300   0.797   1.572   1.736
10134SOL    HW131301   0.706   1.609   1.715
10134SOL    HW231302   0.788   1.500   1.804
10135SOL     OW31303   2.901   6.078   2.924
10135SOL    HW131304   2.924   6.023   2.843
10135SOL    HW231305   2.841   6.153   2.897
10136SOL     OW31306   6.362   6.750   2.505
10136SOL    HW131307   6.461   6.751   2.493
10136SOL    HW231308   6.320   6.700   2.429
10137SOL     OW31309   5.357   5.317   4.481
10137SOL    HW131310   5.377   5.220   4.472
10137SOL    HW231311   5.375   5.346   4.575
10138SOL     OW31312   5.833   2.423   6.100
10138SOL    HW131313   5.765   2.463   6.161
10138SOL    HW231314   5.805   2.331   6.074
10139SOL     OW31315   3.824   2.940   3.601
10139SOL    HW131316   3.792   2.865   3.543
10139SOL    HW231317   3.756   3.014   3.599
10140SOL     OW31318   1.122   5.155   3.852
10140SOL    HW131319   1.133   5.252   3.870
10140SOL    HW231320   1.114   5.139   3.754
10141SOL     OW31321   2.123   0.532   3.849
10141SOL    HW131322   2.215   0.493   3.851
10141SOL    HW231323   2.082   0.525   3.939
10142SOL     OW31324   5.431   5.851   4.208
10142SOL    HW131325   5.364   5.819   4.275
10142SOL    HW231326   5.403   5.822   4.116
10143SOL     OW31327   4.557   5.891   1.501
10143SOL    HW131328   4.632   5.957   1.503
10143SOL    HW231329   4.537   5.860   1.594
10144SOL     OW31330   2.895   4.750   3.041
10144SOL    HW131331   2.909   4.716   3.134
10144SOL    HW231332   2.799   4.741   3.016
10145SOL     OW31333   2.727   6.874   6.357
10145SOL    HW131334   2.812   6.906   6.399
10145SOL    HW231335   2.740   6.781   6.323
10146SOL     OW31336   4.790   4.776   4.051
10146SOL    HW131337   4.764   4.857   4.104
10146SOL    HW231338   4.889   4.769   4.049
10147SOL     OW31339   5.064   5.608   4.120
10147SOL    HW131340   5.159   5.598   4.092
10147SOL    HW231341   5.033   5.522   4.162
10148SOL     OW31342   6.254   5.303   0.593
10148SOL    HW131343   6.264   5.240   0.670
10148SOL    HW231344   6.177   5.365   0.611
10149SOL     OW31345   4.236   3.282   0.954
10149SOL    HW131346   4.266   3.248   1.043
10149SOL    HW231347   4.286   3.365   0.931
10150SOL     OW31348   5.316   4.052   0.668
10150SOL    HW131349   5.287   4.148   0.671
10150SOL    HW231350   5.404   4.042   0.715
10151SOL     OW31351   0.652   6.008   5.867
10151SOL    HW131352   0.553   6.018   5.882
10151SOL    HW231353   0.699   6.006   5.955
10152SOL     OW31354   0.395   5.619   4.230
10152SOL    HW131355   0.297   5.610   4.208
10152SOL    HW231356   0.439   5.679   4.163
10153SOL     OW31357   5.286   5.867   3.968
10153SOL    HW131358   5.195   5.887   4.005
10153SOL    HW231359   5.311   5.937   3.900
10154SOL     OW31360   6.825   6.116   5.912
10154SOL    HW131361   6.832   6.115   5.813
10154SOL    HW231362   6.873   6.195   5.949
10155SOL     OW31363   3.817   1.412   6.057
10155SOL    HW131364   3.780   1.480   6.120
10155SOL    HW231365   3.744   1.378   5.998
10156SOL     OW31366   5.884   0.166   2.303
10156SOL    HW131367   5.956   0.209   2.357
10156SOL    HW231368   5.856   0.227   2.229
10157SOL     OW31369   5.024   0.829   4.153
10157SOL    HW131370   4.938   0.807   4.107
10157SOL    HW231371   5.097   0.770   4.117
10158SOL     OW31372   4.810   3.092   6.137
10158SOL    HW131373   4.858   3.030   6.075
10158SOL    HW231374   4.789   3.177   6.090
10159SOL     OW31375   1.738   1.142   6.558
10159SOL    HW131376   1.818   1.082   6.569
10159SOL    HW231377   1.700   1.130   6.466
10160SOL     OW31378   0.623   5.906   3.466
10160SOL    HW131379   0.708   5.944   3.504
10160SOL    HW231380   0.568   5.867   3.540
10161SOL     OW31381   2.062   5.720   5.288
10161SOL    HW131382   2.160   5.704   5.301
10161SOL    HW231383   2.031   5.793   5.349
10162SOL     OW31384   3.494   2.777   6.793
10162SOL    HW131385   3.578   2.822   6.823
10162SOL    HW231386   3.452   2.832   6.720
10163SOL     OW31387   0.241   3.221   6.012
10163SOL    HW131388   0.208   3.220   6.106
10163SOL    HW231389   0.174   3.176   5.953
10164SOL     OW31390   1.342   2.453   5.748
10164SOL    HW131391   1.427   2.437   5.799
10164SOL    HW231392   1.362   2.454   5.650
10165SOL     OW31393   0.228   1.958   3.066
10165SOL    HW131394   0.264   1.928   2.977
10165SOL    HW231395   0.296   1.941   3.137
10166SOL     OW31396   0.696   1.134   1.899
10166SOL    HW131397   0.630   1.101   1.832
10166SOL    HW231398   0.658   1.126   1.991
10167SOL     OW31399   5.037   0.626   0.787
10167SOL    HW131400   5.056   0.539   0.739
10167SOL    HW231401   5.100   0.636   0.863
10168SOL     OW31402   6.511   4.568   4.746
10168SOL    HW131403   6.476   4.574   4.840
10168SOL    HW231404   6.435   4.559   4.682
10169SOL     OW31405   6.536   4.032   4.527
10169SOL    HW131406   6.548   4.114   4.584
10169SOL    HW231407   6.465   4.049   4.458
10170SOL     OW31408   1.306   3.978   4.762
10170SOL    HW131409   1.258   4.034   4.830
10170SOL    HW231410   1.280   3.882   4.774
10171SOL     OW31411   5.799   3.286   6.436
10171SOL    HW131412   5.775   3.217   6.504
10171SOL    HW231413   5.853   3.244   6.363
10172SOL     OW31414   4.592   0.943   4.234
10172SOL    HW131415   4.555   0.893   4.312
10172SOL    HW231416   4.688   0.966   4.251
10173SOL     OW31417   2.463   2.285   3.237
10173SOL    HW131418   2.549   2.310   3.282
10173SOL    HW231419   2.459   2.186   3.226
10174SOL     OW31420   5.895   4.229   0.989
10174SOL    HW131421   5.855   4.317   1.013
10174SOL    HW231422   5.991   4.243   0.962
10175SOL     OW31423   5.784   2.515   5.843
10175SOL    HW131424   5.810   2.461   5.923
10175SOL    HW231425   5.715   2.466   5.790
10176SOL     OW31426   2.080   3.456   0.378
10176SOL    HW131427   2.163   3.502   0.348
10176SOL    HW231428   2.089   3.430   0.474
10177SOL     OW31429   2.005   0.069   5.400
10177SOL    HW131430   2.064   0.080   5.320
10177SOL    HW231431   1.910   0.084   5.373
10178SOL     OW31432   5.194   3.112   5.473
10178SOL    HW131433   5.170   3.154   5.560
10178SOL    HW231434   5.244   3.178   5.417
10179SOL     OW31435   6.941   3.555   6.529
10179SOL    HW131436   6.894   3.634   6.488
10179SOL    HW231437   6.934   3.477   6.467
10180SOL     OW31438   1.955   6.709   5.745
10180SOL    HW131439   1.911   6.633   5.792
10180SOL    HW231440   1.960   6.691   5.647
10181SOL     OW31441   5.914   3.439   1.548
10181SOL    HW131442   5.983   3.510   1.534
10181SOL    HW231443   5.891   3.435   1.645
10182SOL     OW31444   4.463   1.305   0.115
10182SOL    HW131445   4.466   1.402   0.090
10182SOL    HW231446   4.544   1.282   0.170
10183SOL     OW31447   1.969   1.321   6.589
10183SOL    HW131448   1.946   1.412   6.623
10183SOL    HW231449   1.904   1.294   6.518
10184SOL     OW31450   4.842   0.183   6.847
10184SOL    HW131451   4.870   0.247   6.776
10184SOL    HW231452   4.759   0.134   6.818
10185SOL     OW31453   4.799   1.218   0.037
10185SOL    HW131454   4.865   1.270   7.005
10185SOL    HW231455   4.730   1.178   6.999
10186SOL     OW31456   5.074   2.197   2.932
10186SOL    HW131457   5.060   2.295   2.918
10186SOL    HW231458   4.991   2.157   2.973
10187SOL     OW31459   0.928   2.318   2.207
10187SOL    HW131460   0.940   2.246   2.275
10187SOL    HW231461   0.956   2.283   2.117
10188SOL     OW31462   3.800   5.070   0.565
10188SOL    HW131463   3.779   4.995   0.503
10188SOL    HW231464   3.878   5.044   0.623
10189SOL     OW31465   1.471   6.924   5.552
10189SOL    HW131466   1.438   7.006   5.599
10189SOL    HW231467   1.404   6.850   5.562
10190SOL     OW31468   4.683   2.437   6.876
10190SOL    HW131469   4.626   2.356   6.891
10190SOL    HW231470   4.675   2.466   6.781
10191SOL     OW31471   6.602   5.165   6.575
10191SOL    HW131472   6.665   5.229   6.618
10191SOL    HW231473   6.642   5.128   6.491
10192SOL     OW31474   3.435   1.632   0.566
10192SOL    HW131475   3.363   1.581   0.519
10192SOL    HW231476   3.430   1.729   0.540
10193SOL     OW31477   4.307   4.363   0.523
10193SOL    HW131478   4.384   4.316   0.481
10193SOL    HW231479   4.236   4.296   0.547
10194SOL     OW31480   4.812   2.862   5.420
10194SOL    HW131481   4.752   2.784   5.407
10194SOL    HW231482   4.906   2.831   5.432
10195SOL     OW31483   5.706   4.301   1.708
10195SOL    HW131484   5.699   4.399   1.730
10195SOL    HW231485   5.626   4.253   1.743
10196SOL     OW31486   0.298   1.850   4.641
10196SOL    HW131487   0.318   1.909   4.563
10196SOL    HW231488   0.231   1.895   4.700
10197SOL     OW31489   5.685   0.635   6.890
10197SOL    HW131490   5.594   0.643   6.849
10197SOL    HW231491   5.741   0.713   6.862
10198SOL     OW31492   4.122   6.640   3.671
10198SOL    HW131493   4.177   6.648   3.755
10198SOL    HW231494   4.158   6.702   3.602
10199SOL     OW31495   0.575   2.206   5.503
10199SOL    HW131496   0.548   2.228   5.409
10199SOL    HW231497   0.530   2.121   5.531
10200SOL     OW31498   5.037   1.595   1.811
10200SOL    HW131499   4.990   1.624   1.728
10200SOL    HW231500   5.097   1.668   1.842
10201SOL     OW31501   1.268   3.711   0.971
10201SOL    HW131502   1.250   3.653   0.891
10201SOL    HW231503   1.355   3.759   0.958
10202SOL     OW31504   5.159   0.799   3.781
10202SOL    HW131505   5.198   0.878   3.827
10202SOL    HW231506   5.226   0.725   3.779
10203SOL     OW31507   6.954   2.737   4.516
10203SOL    HW131508   7.010   2.759   4.596
10203SOL    HW231509   6.913   2.646   4.527
10204SOL     OW31510   5.738   4.873   6.576
10204SOL    HW131511   5.730   4.780   6.540
10204SOL    HW231512   5.832   4.887   6.610
10205SOL     OW31513   0.332   1.604   6.459
10205SOL    HW131514   0.296   1.518   6.496
10205SOL    HW231515   0.315   1.678   6.524
10206SOL     OW31516   2.050   1.588   4.787
10206SOL    HW131517   1.991   1.648   4.733
10206SOL    HW231518   2.018   1.586   4.882
10207SOL     OW31519   2.557   2.546   5.884
10207SOL    HW131520   2.626   2.525   5.815
10207SOL    HW231521   2.477   2.486   5.870
10208SOL     OW31522   0.130   6.616   5.501
10208SOL    HW131523   0.229   6.605   5.506
10208SOL    HW231524   0.099   6.597   5.408
10209SOL     OW31525   6.815   6.570   5.641
10209SOL    HW131526   6.755   6.491   5.654
10209SOL    HW231527   6.909   6.539   5.630
10210SOL     OW31528   3.703   0.424   1.688
10210SOL    HW131529   3.632   0.489   1.660
10210SOL    HW231530   3.729   0.442   1.783
10211SOL     OW31531   5.071   5.594   6.064
10211SOL    HW131532   5.039   5.593   5.970
10211SOL    HW231533   5.171   5.586   6.065
10212SOL     OW31534   0.654   0.617   6.671
10212SOL    HW131535   0.556   0.602   6.659
10212SOL    HW231536   0.689   0.553   6.740
10213SOL     OW31537   6.741   2.339   1.024
10213SOL    HW131538   6.794   2.422   1.040
10213SOL    HW231539   6.803   2.262   1.011
10214SOL     OW31540   1.519   2.598   0.177
10214SOL    HW131541   1.550   2.522   0.234
10214SOL    HW231542   1.422   2.586   0.155
10215SOL     OW31543   3.005   3.929   2.976
10215SOL    HW131544   3.022   3.844   2.927
10215SOL    HW231545   2.925   3.975   2.938
10216SOL     OW31546   0.624   6.073   2.263
10216SOL    HW131547   0.627   6.036   2.170
10216SOL    HW231548   0.628   5.998   2.329
10217SOL     OW31549   4.223   1.821   5.185
10217SOL    HW131550   4.133   1.858   5.162
10217SOL    HW231551   4.240   1.738   5.132
10218SOL     OW31552   1.255   3.421   2.740
10218SOL    HW131553   1.331   3.482   2.764
10218SOL    HW231554   1.261   3.338   2.794
10219SOL     OW31555   0.214   6.088   3.106
10219SOL    HW131556   0.203   6.108   3.009
10219SOL    HW231557   0.223   6.174   3.157
10220SOL     OW31558   3.359   3.082   0.033
10220SOL    HW131559   3.428   3.088   0.105
10220SOL    HW231560   3.386   3.140   6.979
10221SOL     OW31561   1.070   5.078   3.241
10221SOL    HW131562   1.086   5.010   3.313
10221SOL    HW231563   1.004   5.146   3.274
10222SOL     OW31564   3.160   3.721   3.827
10222SOL    HW131565   3.149   3.677   3.916
10222SOL    HW231566   3.077   3.708   3.773
10223SOL     OW31567   2.661   6.586   1.239
10223SOL    HW131568   2.637   6.599   1.336
10223SOL    HW231569   2.580   6.558   1.188
10224SOL     OW31570   6.656   3.492   3.223
10224SOL    HW131571   6.753   3.466   3.221
10224SOL    HW231572   6.599   3.410   3.218
10225SOL     OW31573   1.796   3.678   5.777
10225SOL    HW131574   1.784   3.602   5.713
10225SOL    HW231575   1.893   3.704   5.779
10226SOL     OW31576   4.866   4.168   0.225
10226SOL    HW131577   4.806   4.116   0.164
10226SOL    HW231578   4.821   4.182   0.313
10227SOL     OW31579   5.636   3.841   1.407
10227SOL    HW131580   5.619   3.894   1.324
10227SOL    HW231581   5.663   3.902   1.481
10228SOL     OW31582   5.300   0.112   0.697
10228SOL    HW131583   5.266   0.028   0.739
10228SOL    HW231584   5.381   0.144   0.747
10229SOL     OW31585   0.205   2.371   5.004
10229SOL    HW131586   0.282   2.432   4.988
10229SOL    HW231587   0.189   2.316   4.922
10230SOL     OW31588   6.811   6.120   1.426
10230SOL    HW131589   6.771   6.150   1.513
10230SOL    HW231590   6.877   6.187   1.394
10231SOL     OW31591   0.227   4.237   2.593
10231SOL    HW131592   0.218   4.291   2.677
10231SOL    HW231593   0.298   4.168   2.605
10232SOL     OW31594   4.630   4.705   2.761
10232SOL    HW131595   4.620   4.606   2.772
10232SOL    HW231596   4.598   4.731   2.670
10233SOL     OW31597   2.441   4.343   5.446
10233SOL    HW131598   2.483   4.319   5.533
10233SOL    HW231599   2.372   4.275   5.423
10234SOL     OW31600   0.539   0.606   2.088
10234SOL    HW131601   0.529   0.629   1.992
10234SOL    HW231602   0.527   0.689   2.143
10235SOL     OW31603   1.347   1.429   3.370
10235SOL    HW131604   1.301   1.342   3.352
10235SOL    HW231605   1.286   1.505   3.345
10236SOL     OW31606   0.707   0.366   2.745
10236SOL    HW131607   0.616   0.342   2.779
10236SOL    HW231608   0.766   0.285   2.748
10237SOL     OW31609   0.012   3.329   5.205
10237SOL    HW131610   0.103   3.352   5.237
10237SOL    HW231611   6.972   3.404   5.224
10238SOL     OW31612   2.898   6.582   1.149
10238SOL    HW131613   2.807   6.577   1.189
10238SOL    HW231614   2.932   6.676   1.152
10239SOL     OW31615   1.126   2.458   5.246
10239SOL    HW131616   1.085   2.376   5.205
10239SOL    HW231617   1.053   2.519   5.278
10240SOL     OW31618   2.239   5.871   1.375
10240SOL    HW131619   2.264   5.967   1.387
10240SOL    HW231620   2.304   5.828   1.312
10241SOL     OW31621   4.473   3.849   1.638
10241SOL    HW131622   4.409   3.793   1.692
10241SOL    HW231623   4.460   3.945   1.661
10242SOL     OW31624   6.919   3.549   0.600
10242SOL    HW131625   6.989   3.588   0.540
10242SOL    HW231626   6.828   3.574   0.566
10243SOL     OW31627   3.126   5.754   2.161
10243SOL    HW131628   3.122   5.654   2.168
10243SOL    HW231629   3.221   5.784   2.173
10244SOL     OW31630   2.736   4.979   1.936
10244SOL    HW131631   2.775   4.897   1.893
10244SOL    HW231632   2.723   5.049   1.866
10245SOL     OW31633   5.371   4.182   1.092
10245SOL    HW131634   5.347   4.136   1.177
10245SOL    HW231635   5.421   4.119   1.033
10246SOL     OW31636   3.430   3.422   4.094
10246SOL    HW131637   3.401   3.484   4.021
10246SOL    HW231638   3.517   3.380   4.069
10247SOL     OW31639   0.514   2.556   4.623
10247SOL    HW131640   0.609   2.561   4.652
10247SOL    HW231641   0.507   2.500   4.540
10248SOL     OW31642   0.317   1.400   5.349
10248SOL    HW131643   0.241   1.396   5.283
10248SOL    HW231644   0.343   1.308   5.376
10249SOL     OW31645   2.675   4.745   6.194
10249SOL    HW131646   2.752   4.684   6.180
10249SOL    HW231647   2.697   4.836   6.157
10250SOL     OW31648   3.201   2.534   1.047
10250SOL    HW131649   3.255   2.618   1.043
10250SOL    HW231650   3.121   2.548   1.106
10251SOL     OW31651   1.597   0.874   4.656
10251SOL    HW131652   1.598   0.929   4.573
10251SOL    HW231653   1.626   0.781   4.635
10252SOL     OW31654   4.514   4.532   6.165
10252SOL    HW131655   4.468   4.578   6.241
10252SOL    HW231656   4.461   4.452   6.137
10253SOL     OW31657   3.751   6.259   6.833
10253SOL    HW131658   3.706   6.320   6.897
10253SOL    HW231659   3.823   6.207   6.881
10254SOL     OW31660   6.404   1.402   6.240
10254SOL    HW131661   6.439   1.310   6.257
10254SOL    HW231662   6.358   1.405   6.151
10255SOL     OW31663   3.969   4.434   1.646
10255SOL    HW131664   4.054   4.456   1.693
10255SOL    HW231665   3.990   4.381   1.563
10256SOL     OW31666   3.073   1.565   4.428
10256SOL    HW131667   3.035   1.627   4.497
10256SOL    HW231668   3.128   1.618   4.363
10257SOL     OW31669   4.021   5.765   3.139
10257SOL    HW131670   3.935   5.776   3.089
10257SOL    HW231671   4.040   5.668   3.153
10258SOL     OW31672   2.331   1.520   2.414
10258SOL    HW131673   2.322   1.619   2.411
10258SOL    HW231674   2.411   1.492   2.362
10259SOL     OW31675   1.243   3.508   4.183
10259SOL    HW131676   1.229   3.422   4.135
10259SOL    HW231677   1.157   3.538   4.225
10260SOL     OW31678   0.473   0.067   3.412
10260SOL    HW131679   0.547   0.123   3.373
10260SOL    HW231680   0.395   0.067   3.350
10261SOL     OW31681   0.232   4.202   0.864
10261SOL    HW131682   0.284   4.210   0.779
10261SOL    HW231683   0.177   4.284   0.878
10262SOL     OW31684   3.516   0.574   0.003
10262SOL    HW131685   3.485   0.647   6.965
10262SOL    HW231686   3.439   0.543   0.060
10263SOL     OW31687   5.606   0.361   2.712
10263SOL    HW131688   5.671   0.342   2.786
10263SOL    HW231689   5.599   0.281   2.652
10264SOL     OW31690   6.760   0.475   6.457
10264SOL    HW131691   6.713   0.486   6.369
10264SOL    HW231692   6.845   0.425   6.444
10265SOL     OW31693   1.917   1.696   1.885
10265SOL    HW131694   1.868   1.782   1.899
10265SOL    HW231695   1.910   1.669   1.789
10266SOL     OW31696   2.779   3.605   1.470
10266SOL    HW131697   2.740   3.613   1.561
10266SOL    HW231698   2.878   3.594   1.477
10267SOL     OW31699   6.507   0.326   0.672
10267SOL    HW131700   6.415   0.308   0.707
10267SOL    HW231701   6.507   0.409   0.616
10268SOL     OW31702   3.134   5.705   2.574
10268SOL    HW131703   3.163   5.778   2.511
10268SOL    HW231704   3.081   5.637   2.524
10269SOL     OW31705   2.143   1.270   0.353
10269SOL    HW131706   2.150   1.232   0.261
10269SOL    HW231707   2.158   1.197   0.420
10270SOL     OW31708   2.692   0.137   3.613
10270SOL    HW131709   2.606   0.095   3.642
10270SOL    HW231710   2.680   0.236   3.606
10271SOL     OW31711   2.077   0.975   6.816
10271SOL    HW131712   2.109   0.905   6.880
10271SOL    HW231713   2.145   1.047   6.807
10272SOL     OW31714   6.182   6.761   4.700
10272SOL    HW131715   6.186   6.721   4.791
10272SOL    HW231716   6.112   6.715   4.646
10273SOL     OW31717   1.953   5.110   3.728
10273SOL    HW131718   1.909   5.100   3.639
10273SOL    HW231719   2.016   5.188   3.725
10274SOL     OW31720   1.025   3.864   5.094
10274SOL    HW131721   0.928   3.844   5.112
10274SOL    HW231722   1.043   3.960   5.116
10275SOL     OW31723   6.768   1.430   2.009
10275SOL    HW131724   6.738   1.464   1.920
10275SOL    HW231725   6.688   1.412   2.067
10276SOL     OW31726   3.041   5.506   5.229
10276SOL    HW131727   3.030   5.593   5.181
10276SOL    HW231728   2.993   5.510   5.317
10277SOL     OW31729   1.134   5.423   3.865
10277SOL    HW131730   1.082   5.486   3.922
10277SOL    HW231731   1.232   5.442   3.874
10278SOL     OW31732   6.214   0.383   4.363
10278SOL    HW131733   6.287   0.431   4.410
10278SOL    HW231734   6.164   0.446   4.303
10279SOL     OW31735   0.973   4.741   4.036
10279SOL    HW131736   1.047   4.777   4.093
10279SOL    HW231737   0.996   4.753   3.939
10280SOL     OW31738   5.960   5.314   0.492
10280SOL    HW131739   5.985   5.382   0.561
10280SOL    HW231740   5.993   5.224   0.521
10281SOL     OW31741   6.326   0.586   3.734
10281SOL    HW131742   6.294   0.497   3.701
10281SOL    HW231743   6.370   0.635   3.659
10282SOL     OW31744   4.842   2.825   3.074
10282SOL    HW131745   4.790   2.884   3.135
10282SOL    HW231746   4.811   2.839   2.980
10283SOL     OW31747   0.603   2.556   1.177
10283SOL    HW131748   0.587   2.459   1.160
10283SOL    HW231749   0.701   2.572   1.189
10284SOL     OW31750   0.439   4.546   4.250
10284SOL    HW131751   0.387   4.461   4.256
10284SOL    HW231752   0.493   4.559   4.333
10285SOL     OW31753   0.119   6.829   6.296
10285SOL    HW131754   0.167   6.843   6.209
10285SOL    HW231755   0.020   6.832   6.281
10286SOL     OW31756   2.756   1.365   2.530
10286SOL    HW131757   2.817   1.424   2.478
10286SOL    HW231758   2.729   1.411   2.614
10287SOL     OW31759   1.113   5.418   2.792
10287SOL    HW131760   1.127   5.468   2.706
10287SOL    HW231761   1.020   5.382   2.794
10288SOL     OW31762   3.779   6.180   4.550
10288SOL    HW131763   3.699   6.235   4.574
10288SOL    HW231764   3.843   6.236   4.497
10289SOL     OW31765   4.209   6.203   0.035
10289SOL    HW131766   4.268   6.192   6.978
10289SOL    HW231767   4.259   6.176   0.118
10290SOL     OW31768   2.847   3.359   2.235
10290SOL    HW131769   2.888   3.450   2.231
10290SOL    HW231770   2.807   3.335   2.146
10291SOL     OW31771   2.565   2.214   2.314
10291SOL    HW131772   2.616   2.271   2.249
10291SOL    HW231773   2.601   2.121   2.313
10292SOL     OW31774   6.939   7.020   5.875
10292SOL    HW131775   6.999   0.037   5.944
10292SOL    HW231776   6.981   6.937   5.837
10293SOL     OW31777   1.202   3.736   4.918
10293SOL    HW131778   1.197   3.649   4.967
10293SOL    HW231779   1.157   3.807   4.972
10294SOL     OW31780   2.603   0.237   2.140
10294SOL    HW131781   2.614   0.330   2.173
10294SOL    HW231782   2.589   0.238   2.041
10295SOL     OW31783   1.246   1.731   0.513
10295SOL    HW131784   1.345   1.725   0.525
10295SOL    HW231785   1.219   1.676   0.433
10296SOL     OW31786   6.517   2.061   6.035
10296SOL    HW131787   6.505   2.156   6.065
10296SOL    HW231788   6.513   2.000   6.115
10297SOL     OW31789   4.306   1.119   0.809
10297SOL    HW131790   4.262   1.109   0.899
10297SOL    HW231791   4.236   1.123   0.738
10298SOL     OW31792   1.161   1.908   2.159
10298SOL    HW131793   1.109   1.880   2.079
10298SOL    HW231794   1.253   1.938   2.131
10299SOL     OW31795   4.468   0.208   2.572
10299SOL    HW131796   4.562   0.199   2.606
10299SOL    HW231797   4.412   0.134   2.608
10300SOL     OW31798   1.380   3.149   1.015
10300SOL    HW131799   1.363   3.078   1.083
10300SOL    HW231800   1.402   3.107   0.927
10301SOL     OW31801   3.952   0.929   0.283
10301SOL    HW131802   4.008   0.921   0.366
10301SOL    HW231803   3.874   0.988   0.301
10302SOL     OW31804   3.363   6.556   5.216
10302SOL    HW131805   3.346   6.652   5.196
10302SOL    HW231806   3.331   6.499   5.140
10303SOL     OW31807   0.141   4.584   4.568
10303SOL    HW131808   0.072   4.516   4.596
10303SOL    HW231809   0.096   4.657   4.518
10304SOL     OW31810   5.465   6.292   1.034
10304SOL    HW131811   5.542   6.343   1.073
10304SOL    HW231812   5.426   6.344   0.957
10305SOL     OW31813   2.849   4.049   5.323
10305SOL    HW131814   2.805   4.129   5.283
10305SOL    HW231815   2.805   3.966   5.289
10306SOL     OW31816   4.030   1.017   0.831
10306SOL    HW131817   3.973   0.990   0.753
10306SOL    HW231818   4.025   1.116   0.843
10307SOL     OW31819   1.820   0.193   5.225
10307SOL    HW131820   1.792   0.282   5.262
10307SOL    HW231821   1.879   0.207   5.146
10308SOL     OW31822   3.067   4.640   1.707
10308SOL    HW131823   3.026   4.660   1.619
10308SOL    HW231824   3.020   4.562   1.750
10309SOL     OW31825   0.380   0.886   6.070
10309SOL    HW131826   0.314   0.864   5.998
10309SOL    HW231827   0.405   0.982   6.063
10310SOL     OW31828   3.051   3.895   5.659
10310SOL    HW131829   3.148   3.917   5.647
10310SOL    HW231830   3.042   3.808   5.708
10311SOL     OW31831   5.541   5.724   0.045
10311SOL    HW131832   5.502   5.730   6.976
10311SOL    HW231833   5.633   5.686   0.039
10312SOL     OW31834   3.043   6.762   2.342
10312SOL    HW131835   3.114   6.767   2.271
10312SOL    HW231836   3.009   6.668   2.348
10313SOL     OW31837   4.888   0.004   2.584
10313SOL    HW131838   4.960   6.964   2.613
10313SOL    HW231839   4.845   0.045   2.665
10314SOL     OW31840   0.622   0.136   0.700
10314SOL    HW131841   0.708   0.086   0.700
10314SOL    HW231842   0.562   0.101   0.772
10315SOL     OW31843   5.150   5.172   3.309
10315SOL    HW131844   5.075   5.106   3.316
10315SOL    HW231845   5.154   5.228   3.392
10316SOL     OW31846   0.653   1.776   0.179
10316SOL    HW131847   0.668   1.816   0.269
10316SOL    HW231848   0.689   1.838   0.109
10317SOL     OW31849   3.606   6.120   5.018
10317SOL    HW131850   3.519   6.083   5.054
10317SOL    HW231851   3.594   6.145   4.922
10318SOL     OW31852   6.279   0.962   0.527
10318SOL    HW131853   6.269   1.062   0.531
10318SOL    HW231854   6.369   0.936   0.564
10319SOL     OW31855   0.514   4.522   3.983
10319SOL    HW131856   0.487   4.532   4.079
10319SOL    HW231857   0.454   4.455   3.939
10320SOL     OW31858   0.025   7.004   2.897
10320SOL    HW131859   0.019   6.917   2.946
10320SOL    HW231860   6.955   0.010   2.870
10321SOL     OW31861   6.013   2.728   2.616
10321SOL    HW131862   6.042   2.722   2.711
10321SOL    HW231863   6.020   2.637   2.574
10322SOL     OW31864   4.596   4.521   4.849
10322SOL    HW131865   4.584   4.471   4.764
10322SOL    HW231866   4.510   4.521   4.900
10323SOL     OW31867   1.298   4.217   5.897
10323SOL    HW131868   1.222   4.175   5.848
10323SOL    HW231869   1.314   4.168   5.982
10324SOL     OW31870   3.215   2.943   2.754
10324SOL    HW131871   3.121   2.951   2.785
10324SOL    HW231872   3.224   2.862   2.696
10325SOL     OW31873   5.829   6.053   4.606
10325SOL    HW131874   5.762   6.127   4.611
10325SOL    HW231875   5.833   6.006   4.694
10326SOL     OW31876   5.432   3.253   6.459
10326SOL    HW131877   5.429   3.235   6.361
10326SOL    HW231878   5.453   3.168   6.508
10327SOL     OW31879   2.203   5.535   6.767
10327SOL    HW131880   2.232   5.581   6.683
10327SOL    HW231881   2.259   5.566   6.843
10328SOL     OW31882   5.753   2.324   2.246
10328SOL    HW131883   5.787   2.401   2.300
10328SOL    HW231884   5.654   2.317   2.256
10329SOL     OW31885   3.342   2.040   2.105
10329SOL    HW131886   3.290   2.069   2.024
10329SOL    HW231887   3.428   1.999   2.076
10330SOL     OW31888   5.432   0.652   1.689
10330SOL    HW131889   5.424   0.687   1.782
10330SOL    HW231890   5.483   0.566   1.690
10331SOL     OW31891   5.513   5.866   5.621
10331SOL    HW131892   5.584   5.887   5.689
10331SOL    HW231893   5.516   5.933   5.548
10332SOL     OW31894   1.667   1.917   6.279
10332SOL    HW131895   1.578   1.883   6.248
10332SOL    HW231896   1.689   2.001   6.230
10333SOL     OW31897   1.320   3.325   4.478
10333SOL    HW131898   1.244   3.265   4.504
10333SOL    HW231899   1.385   3.273   4.422
10334SOL     OW31900   3.260   1.831   4.013
10334SOL    HW131901   3.243   1.790   3.923
10334SOL    HW231902   3.273   1.929   4.002
10335SOL     OW31903   1.699   2.678   5.395
10335SOL    HW131904   1.723   2.720   5.482
10335SOL    HW231905   1.690   2.749   5.325
10336SOL     OW31906   5.555   6.707   3.131
10336SOL    HW131907   5.486   6.670   3.069
10336SOL    HW231908   5.626   6.638   3.148
10337SOL     OW31909   6.210   6.110   6.907
10337SOL    HW131910   6.234   6.025   6.861
10337SOL    HW231911   6.225   6.100   7.005
10338SOL     OW31912   1.249   6.582   1.459
10338SOL    HW131913   1.282   6.649   1.393
10338SOL    HW231914   1.236   6.626   1.548
10339SOL     OW31915   5.955   2.686   5.987
10339SOL    HW131916   5.950   2.608   6.049
10339SOL    HW231917   5.915   2.661   5.898
10340SOL     OW31918   2.231   4.120   6.074
10340SOL    HW131919   2.287   4.067   6.138
10340SOL    HW231920   2.213   4.211   6.112
10341SOL     OW31921   2.311   4.490   3.723
10341SOL    HW131922   2.360   4.451   3.645
10341SOL    HW231923   2.371   4.491   3.803
10342SOL     OW31924   0.559   0.807   4.059
10342SOL    HW131925   0.535   0.880   3.996
10342SOL    HW231926   0.489   0.736   4.056
10343SOL     OW31927   3.934   5.378   1.765
10343SOL    HW131928   4.019   5.342   1.802
10343SOL    HW231929   3.942   5.477   1.754
10344SOL     OW31930   4.976   6.745   6.823
10344SOL    HW131931   4.925   6.722   6.740
10344SOL    HW231932   5.037   6.669   6.846
10345SOL     OW31933   1.695   4.117   4.191
10345SOL    HW131934   1.783   4.116   4.239
10345SOL    HW231935   1.635   4.185   4.234
10346SOL     OW31936   0.182   6.513   0.198
10346SOL    HW131937   0.280   6.506   0.180
10346SOL    HW231938   0.160   6.464   0.282
10347SOL     OW31939   5.775   2.103   5.140
10347SOL    HW131940   5.805   2.198   5.128
10347SOL    HW231941   5.825   2.061   5.216
10348SOL     OW31942   0.163   5.232   1.227
10348SOL    HW131943   0.132   5.303   1.290
10348SOL    HW231944   0.218   5.165   1.276
10349SOL     OW31945   0.488   6.811   6.056
10349SOL    HW131946   0.482   6.872   5.977
10349SOL    HW231947   0.551   6.850   6.123
10350SOL     OW31948   3.245   0.185   6.101
10350SOL    HW131949   3.209   0.278   6.114
10350SOL    HW231950   3.338   0.189   6.066
10351SOL     OW31951   4.380   5.248   6.010
10351SOL    HW131952   4.322   5.318   6.052
10351SOL    HW231953   4.450   5.293   5.953
10352SOL     OW31954   4.284   4.037   6.289
10352SOL    HW131955   4.263   3.990   6.375
10352SOL    HW231956   4.213   4.105   6.270
10353SOL     OW31957   0.564   3.068   5.277
10353SOL    HW131958   0.492   3.087   5.210
10353SOL    HW231959   0.645   3.032   5.230
10354SOL     OW31960   5.408   2.149   0.898
10354SOL    HW131961   5.498   2.129   0.938
10354SOL    HW231962   5.366   2.226   0.947
10355SOL     OW31963   1.169   4.603   3.202
10355SOL    HW131964   1.108   4.557   3.267
10355SOL    HW231965   1.232   4.537   3.162
10356SOL     OW31966   0.427   2.499   4.910
10356SOL    HW131967   0.465   2.409   4.890
10356SOL    HW231968   0.443   2.561   4.833
10357SOL     OW31969   3.540   3.058   6.667
10357SOL    HW131970   3.567   3.014   6.753
10357SOL    HW231971   3.569   3.001   6.590
10358SOL     OW31972   0.248   1.257   2.155
10358SOL    HW131973   0.221   1.300   2.069
10358SOL    HW231974   0.280   1.164   2.138
10359SOL     OW31975   0.462   1.416   1.129
10359SOL    HW131976   0.487   1.423   1.225
10359SOL    HW231977   0.400   1.491   1.105
10360SOL     OW31978   0.171   4.530   3.382
10360SOL    HW131979   0.156   4.483   3.295
10360SOL    HW231980   0.104   4.604   3.393
10361SOL     OW31981   2.398   4.876   1.036
10361SOL    HW131982   2.493   4.845   1.034
10361SOL    HW231983   2.373   4.900   1.130
10362SOL     OW31984   1.223   4.635   5.342
10362SOL    HW131985   1.189   4.723   5.309
10362SOL    HW231986   1.272   4.589   5.268
10363SOL     OW31987   5.641   6.748   3.622
10363SOL    HW131988   5.574   6.773   3.553
10363SOL    HW231989   5.601   6.758   3.713
10364SOL     OW31990   1.390   4.108   0.807
10364SOL    HW131991   1.301   4.118   0.851
10364SOL    HW231992   1.379   4.111   0.707
10365SOL     OW31993   5.044   5.157   6.922
10365SOL    HW131994   5.092   5.144   7.009
10365SOL    HW231995   5.018   5.068   6.885
10366SOL     OW31996   3.780   6.720   3.884
10366SOL    HW131997   3.801   6.657   3.810
10366SOL    HW231998   3.852   6.789   3.891
10367SOL     OW31999   6.690   1.237   3.409
10367SOL    HW132000   6.768   1.178   3.430
10367SOL    HW232001   6.626   1.187   3.350
10368SOL     OW32002   2.378   0.589   1.167
10368SOL    HW132003   2.462   0.555   1.207
10368SOL    HW232004   2.304   0.524   1.185
10369SOL     OW32005   4.044   2.736   0.119
10369SOL    HW132006   3.987   2.814   0.145
10369SOL    HW232007   3.987   2.656   0.101
10370SOL     OW32008   3.680   1.093   5.333
10370SOL    HW132009   3.712   1.015   5.279
10370SOL    HW232010   3.706   1.080   5.429
10371SOL     OW32011   4.839   6.588   5.570
10371SOL    HW132012   4.917   6.645   5.545
10371SOL    HW232013   4.865   6.492   5.568
10372SOL     OW32014   1.219   0.864   3.817
10372SOL    HW132015   1.132   0.886   3.774
10372SOL    HW232016   1.277   0.814   3.752
10373SOL     OW32017   1.040   5.327   5.106
10373SOL    HW132018   0.968   5.340   5.037
10373SOL    HW232019   1.083   5.415   5.126
10374SOL     OW32020   3.076   1.771   3.647
10374SOL    HW132021   3.043   1.851   3.698
10374SOL    HW232022   3.089   1.695   3.711
10375SOL     OW32023   0.080   1.959   1.007
10375SOL    HW132024   0.039   1.880   0.963
10375SOL    HW232025   0.162   1.987   0.958
10376SOL     OW32026   6.282   0.128   3.282
10376SOL    HW132027   6.203   0.073   3.253
10376SOL    HW232028   6.343   0.072   3.337
10377SOL     OW32029   0.283   6.532   4.026
10377SOL    HW132030   0.232   6.538   3.941
10377SOL    HW232031   0.288   6.437   4.055
10378SOL     OW32032   6.305   6.495   5.814
10378SOL    HW132033   6.218   6.543   5.807
10378SOL    HW232034   6.344   6.483   5.723
10379SOL     OW32035   4.475   1.798   3.991
10379SOL    HW132036   4.442   1.885   3.955
10379SOL    HW232037   4.439   1.723   3.934
10380SOL     OW32038   3.564   0.989   3.740
10380SOL    HW132039   3.585   1.028   3.830
10380SOL    HW232040   3.549   1.063   3.674
10381SOL     OW32041   3.486   5.146   4.873
10381SOL    HW132042   3.499   5.244   4.858
10381SOL    HW232043   3.570   5.098   4.847
10382SOL     OW32044   0.494   5.908   0.328
10382SOL    HW132045   0.586   5.869   0.333
10382SOL    HW232046   0.445   5.869   0.250
10383SOL     OW32047   5.369   2.802   0.485
10383SOL    HW132048   5.364   2.804   0.385
10383SOL    HW232049   5.317   2.724   0.519
10384SOL     OW32050   5.833   1.144   6.758
10384SOL    HW132051   5.849   1.107   6.666
10384SOL    HW232052   5.741   1.119   6.788
10385SOL     OW32053   0.204   2.694   6.436
10385SOL    HW132054   0.273   2.705   6.364
10385SOL    HW232055   0.217   2.606   6.481
10386SOL     OW32056   6.986   1.962   6.166
10386SOL    HW132057   6.949   2.027   6.100
10386SOL    HW232058   0.057   1.988   6.189
10387SOL     OW32059   1.524   3.756   2.741
10387SOL    HW132060   1.611   3.790   2.705
10387SOL    HW232061   1.481   3.827   2.797
10388SOL     OW32062   1.328   4.269   1.990
10388SOL    HW132063   1.317   4.356   1.942
10388SOL    HW232064   1.262   4.264   2.066
10389SOL     OW32065   0.934   5.591   3.998
10389SOL    HW132066   0.903   5.644   3.919
10389SOL    HW232067   0.983   5.650   4.062
10390SOL     OW32068   2.118   3.884   3.394
10390SOL    HW132069   2.171   3.959   3.433
10390SOL    HW232070   2.158   3.858   3.305
10391SOL     OW32071   3.928   6.300   4.334
10391SOL    HW132072   4.014   6.329   4.377
10391SOL    HW232073   3.943   6.284   4.237
10392SOL     OW32074   6.282   5.669   6.300
10392SOL    HW132075   6.256   5.576   6.274
10392SOL    HW232076   6.218   5.735   6.260
10393SOL     OW32077   0.480   1.143   4.884
10393SOL    HW132078   0.471   1.234   4.843
10393SOL    HW232079   0.550   1.091   4.836
10394SOL     OW32080   3.130   0.324   0.890
10394SOL    HW132081   3.222   0.306   0.923
10394SOL    HW232082   3.063   0.292   0.956
10395SOL     OW32083   1.250   0.819   4.091
10395SOL    HW132084   1.251   0.863   4.001
10395SOL    HW232085   1.169   0.761   4.098
10396SOL     OW32086   0.348   6.983   5.147
10396SOL    HW132087   0.365   6.972   5.049
10396SOL    HW232088   0.390   0.046   5.178
10397SOL     OW32089   4.347   2.342   2.174
10397SOL    HW132090   4.426   2.370   2.230
10397SOL    HW232091   4.268   2.328   2.233
10398SOL     OW32092   6.801   2.940   2.400
10398SOL    HW132093   6.851   2.893   2.327
10398SOL    HW232094   6.866   2.980   2.465
10399SOL     OW32095   6.723   3.532   5.864
10399SOL    HW132096   6.769   3.456   5.908
10399SOL    HW232097   6.741   3.530   5.766
10400SOL     OW32098   1.907   4.909   1.842
10400SOL    HW132099   1.886   4.855   1.923
10400SOL    HW232100   1.844   4.986   1.835
10401SOL     OW32101   1.272   5.246   1.277
10401SOL    HW132102   1.216   5.281   1.352
10401SOL    HW232103   1.213   5.207   1.206
10402SOL     OW32104   1.062   2.336   4.544
10402SOL    HW132105   1.049   2.425   4.587
10402SOL    HW232106   0.973   2.294   4.527
10403SOL     OW32107   5.455   1.122   2.827
10403SOL    HW132108   5.520   1.128   2.752
10403SOL    HW232109   5.408   1.210   2.838
10404SOL     OW32110   0.333   0.326   4.262
10404SOL    HW132111   0.315   0.255   4.330
10404SOL    HW232112   0.332   0.286   4.171
10405SOL     OW32113   2.881   6.776   0.189
10405SOL    HW132114   2.842   6.794   0.099
10405SOL    HW232115   2.926   6.686   0.187
10406SOL     OW32116   1.698   5.950   5.233
10406SOL    HW132117   1.716   5.870   5.290
10406SOL    HW232118   1.649   6.019   5.286
10407SOL     OW32119   2.705   0.680   6.629
10407SOL    HW132120   2.753   0.680   6.717
10407SOL    HW232121   2.753   0.621   6.564
10408SOL     OW32122   3.757   0.039   3.087
10408SOL    HW132123   3.756   7.011   3.174
10408SOL    HW232124   3.750   0.137   3.105
10409SOL     OW32125   0.049   4.892   2.544
10409SOL    HW132126   0.070   4.951   2.466
10409SOL    HW232127   6.977   4.859   2.536
10410SOL     OW32128   4.987   5.803   0.914
10410SOL    HW132129   4.906   5.862   0.907
10410SOL    HW232130   4.978   5.727   0.850
10411SOL     OW32131   2.112   5.031   2.696
10411SOL    HW132132   2.179   5.013   2.624
10411SOL    HW232133   2.037   4.964   2.690
10412SOL     OW32134   0.920   3.161   6.852
10412SOL    HW132135   0.900   3.211   6.936
10412SOL    HW232136   0.860   3.193   6.779
10413SOL     OW32137   6.826   1.710   4.843
10413SOL    HW132138   6.749   1.745   4.790
10413SOL    HW232139   6.867   1.785   4.896
10414SOL     OW32140   5.385   6.046   4.937
10414SOL    HW132141   5.383   6.012   4.843
10414SOL    HW232142   5.378   6.146   4.937
10415SOL     OW32143   6.880   5.012   3.176
10415SOL    HW132144   6.975   5.043   3.183
10415SOL    HW232145   6.848   5.024   3.083
10416SOL     OW32146   5.273   0.733   0.180
10416SOL    HW132147   5.278   0.705   0.276
10416SOL    HW232148   5.273   0.652   0.121
10417SOL     OW32149   4.904   4.531   4.641
10417SOL    HW132150   4.804   4.530   4.642
10417SOL    HW232151   4.938   4.444   4.678
10418SOL     OW32152   6.081   3.260   0.150
10418SOL    HW132153   6.079   3.278   0.052
10418SOL    HW232154   6.018   3.186   0.172
10419SOL     OW32155   1.253   0.317   4.505
10419SOL    HW132156   1.250   0.249   4.431
10419SOL    HW232157   1.322   0.386   4.484
10420SOL     OW32158   6.243   3.662   3.972
10420SOL    HW132159   6.298   3.666   3.889
10420SOL    HW232160   6.173   3.734   3.970
10421SOL     OW32161   6.673   3.504   4.771
10421SOL    HW132162   6.740   3.435   4.798
10421SOL    HW232163   6.664   3.572   4.845
10422SOL     OW32164   5.685   2.922   5.435
10422SOL    HW132165   5.689   2.842   5.495
10422SOL    HW232166   5.726   3.000   5.482
10423SOL     OW32167   2.479   5.741   2.380
10423SOL    HW132168   2.506   5.646   2.398
10423SOL    HW232169   2.548   5.803   2.417
10424SOL     OW32170   4.473   0.756   2.417
10424SOL    HW132171   4.571   0.744   2.431
10424SOL    HW232172   4.454   0.852   2.395
10425SOL     OW32173   1.073   4.070   0.458
10425SOL    HW132174   1.062   3.975   0.430
10425SOL    HW232175   0.990   4.101   0.504
10426SOL     OW32176   6.329   1.975   0.500
10426SOL    HW132177   6.391   2.028   0.442
10426SOL    HW232178   6.349   1.992   0.596
10427SOL     OW32179   6.274   0.347   3.637
10427SOL    HW132180   6.311   0.255   3.651
10427SOL    HW232181   6.293   0.376   3.543
10428SOL     OW32182   1.876   6.720   4.566
10428SOL    HW132183   1.917   6.711   4.475
10428SOL    HW232184   1.794   6.777   4.560
10429SOL     OW32185   2.163   4.295   2.233
10429SOL    HW132186   2.075   4.330   2.266
10429SOL    HW232187   2.208   4.364   2.178
10430SOL     OW32188   3.278   0.890   3.802
10430SOL    HW132189   3.348   0.933   3.859
10430SOL    HW232190   3.188   0.901   3.845
10431SOL     OW32191   4.246   2.302   3.966
10431SOL    HW132192   4.316   2.338   3.905
10431SOL    HW232193   4.174   2.258   3.912
10432SOL     OW32194   0.587   4.669   0.905
10432SOL    HW132195   0.551   4.576   0.902
10432SOL    HW232196   0.647   4.679   0.984
10433SOL     OW32197   3.354   6.575   4.625
10433SOL    HW132198   3.367   6.669   4.656
10433SOL    HW232199   3.434   6.547   4.570
10434SOL     OW32200   4.187   1.861   6.892
10434SOL    HW132201   4.101   1.893   6.932
10434SOL    HW232202   4.187   1.882   6.794
10435SOL     OW32203   2.390   1.348   1.853
10435SOL    HW132204   2.449   1.419   1.892
10435SOL    HW232205   2.368   1.372   1.758
10436SOL     OW32206   0.723   3.508   5.333
10436SOL    HW132207   0.787   3.538   5.262
10436SOL    HW232208   0.645   3.462   5.289
10437SOL     OW32209   0.074   6.944   4.742
10437SOL    HW132210   0.166   6.921   4.773
10437SOL    HW232211   0.056   6.899   4.655
10438SOL     OW32212   0.051   5.852   6.801
10438SOL    HW132213   0.090   5.821   6.714
10438SOL    HW232214   7.016   5.779   6.839
10439SOL     OW32215   6.023   5.529   4.867
10439SOL    HW132216   5.955   5.457   4.863
10439SOL    HW232217   5.994   5.599   4.932
10440SOL     OW32218   6.140   2.593   0.933
10440SOL    HW132219   6.161   2.512   0.989
10440SOL    HW232220   6.123   2.671   0.993
10441SOL     OW32221   4.662   1.372   6.327
10441SOL    HW132222   4.746   1.374   6.272
10441SOL    HW232223   4.584   1.396   6.269
10442SOL     OW32224   2.419   0.616   5.431
10442SOL    HW132225   2.391   0.653   5.520
10442SOL    HW232226   2.516   0.593   5.433
10443SOL     OW32227   0.608   0.948   0.208
10443SOL    HW132228   0.635   0.881   0.277
10443SOL    HW232229   0.551   1.019   0.251
10444SOL     OW32230   4.599   5.622   3.894
10444SOL    HW132231   4.679   5.582   3.938
10444SOL    HW232232   4.622   5.649   3.800
10445SOL     OW32233   0.991   3.420   3.931
10445SOL    HW132234   1.066   3.356   3.950
10445SOL    HW232235   0.926   3.418   4.007
10446SOL     OW32236   2.657   4.726   4.849
10446SOL    HW132237   2.564   4.688   4.843
10446SOL    HW232238   2.707   4.681   4.922
10447SOL     OW32239   1.448   2.266   2.715
10447SOL    HW132240   1.402   2.319   2.786
10447SOL    HW232241   1.522   2.321   2.675
10448SOL     OW32242   0.443   5.181   2.939
10448SOL    HW132243   0.354   5.227   2.938
10448SOL    HW232244   0.498   5.215   3.015
10449SOL     OW32245   3.634   4.923   4.415
10449SOL    HW132246   3.697   4.997   4.392
10449SOL    HW232247   3.684   4.849   4.459
10450SOL     OW32248   0.380   2.131   4.416
10450SOL    HW132249   0.373   2.224   4.380
10450SOL    HW232250   0.384   2.134   4.516
10451SOL     OW32251   2.602   1.549   4.899
10451SOL    HW132252   2.671   1.589   4.960
10451SOL    HW232253   2.584   1.455   4.927
10452SOL     OW32254   6.790   2.892   4.343
10452SOL    HW132255   6.845   2.825   4.393
10452SOL    HW232256   6.820   2.984   4.369
10453SOL     OW32257   2.671   5.437   4.146
10453SOL    HW132258   2.692   5.371   4.074
10453SOL    HW232259   2.591   5.405   4.197
10454SOL     OW32260   6.717   1.464   6.905
10454SOL    HW132261   6.666   1.512   6.834
10454SOL    HW232262   6.809   1.443   6.871
10455SOL     OW32263   0.666   5.788   2.667
10455SOL    HW132264   0.709   5.802   2.755
10455SOL    HW232265   0.572   5.757   2.681
10456SOL     OW32266   1.621   5.467   6.514
10456SOL    HW132267   1.709   5.511   6.495
10456SOL    HW232268   1.635   5.369   6.531
10457SOL     OW32269   4.066   1.287   0.894
10457SOL    HW132270   4.139   1.351   0.873
10457SOL    HW232271   3.977   1.333   0.883
10458SOL     OW32272   1.562   6.363   0.237
10458SOL    HW132273   1.537   6.346   0.332
10458SOL    HW232274   1.482   6.396   0.187
10459SOL     OW32275   5.405   6.079   0.878
10459SOL    HW132276   5.438   6.155   0.935
10459SOL    HW232277   5.316   6.049   0.911
10460SOL     OW32278   6.419   0.932   6.421
10460SOL    HW132279   6.462   1.019   6.445
10460SOL    HW232280   6.387   0.887   6.504
10461SOL     OW32281   6.961   3.862   5.449
10461SOL    HW132282   0.006   3.899   5.385
10461SOL    HW232283   6.947   3.926   5.524
10462SOL     OW32284   4.010   3.704   6.924
10462SOL    HW132285   3.916   3.724   6.900
10462SOL    HW232286   4.033   3.750   7.010
10463SOL     OW32287   4.746   2.243   5.046
10463SOL    HW132288   4.702   2.174   4.988
10463SOL    HW232289   4.841   2.256   5.017
10464SOL     OW32290   6.554   4.861   1.806
10464SOL    HW132291   6.624   4.796   1.777
10464SOL    HW232292   6.471   4.847   1.752
10465SOL     OW32293   5.423   4.446   1.330
10465SOL    HW132294   5.350   4.415   1.268
10465SOL    HW232295   5.462   4.530   1.296
10466SOL     OW32296   5.951   3.830   5.453
10466SOL    HW132297   6.020   3.765   5.421
10466SOL    HW232298   5.864   3.811   5.407
10467SOL     OW32299   0.376   3.047   6.469
10467SOL    HW132300   0.381   3.015   6.564
10467SOL    HW232301   0.461   3.094   6.445
10468SOL     OW32302   1.250   3.968   3.843
10468SOL    HW132303   1.230   3.923   3.930
10468SOL    HW232304   1.322   4.036   3.856
10469SOL     OW32305   1.203   1.117   4.158
10469SOL    HW132306   1.245   1.149   4.073
10469SOL    HW232307   1.104   1.119   4.149
10470SOL     OW32308   2.251   3.921   1.714
10470SOL    HW132309   2.334   3.976   1.707
10470SOL    HW232310   2.225   3.913   1.811
10471SOL     OW32311   2.447   4.689   5.899
10471SOL    HW132312   2.360   4.644   5.878
10471SOL    HW232313   2.522   4.624   5.886
10472SOL     OW32314   4.520   5.262   5.744
10472SOL    HW132315   4.439   5.315   5.721
10472SOL    HW232316   4.565   5.232   5.659
10473SOL     OW32317   6.210   5.612   0.230
10473SOL    HW132318   6.262   5.537   0.272
10473SOL    HW232319   6.113   5.603   0.253
10474SOL     OW32320   6.008   5.867   5.025
10474SOL    HW132321   5.994   5.869   5.124
10474SOL    HW232322   6.102   5.895   5.004
10475SOL     OW32323   0.628   5.627   1.211
10475SOL    HW132324   0.613   5.641   1.309
10475SOL    HW232325   0.637   5.715   1.166
10476SOL     OW32326   5.083   6.467   1.291
10476SOL    HW132327   4.989   6.445   1.266
10476SOL    HW232328   5.129   6.509   1.212
10477SOL     OW32329   6.947   5.670   3.644
10477SOL    HW132330   6.863   5.615   3.645
10477SOL    HW232331   6.996   5.654   3.559
10478SOL     OW32332   6.863   0.663   6.785
10478SOL    HW132333   6.805   0.689   6.708
10478SOL    HW232334   6.924   0.588   6.758
10479SOL     OW32335   0.055   3.979   2.583
10479SOL    HW132336   0.131   3.954   2.643
10479SOL    HW232337   7.015   4.040   2.633
10480SOL     OW32338   2.386   0.818   3.233
10480SOL    HW132339   2.408   0.864   3.318
10480SOL    HW232340   2.408   0.721   3.241
10481SOL     OW32341   6.421   1.100   1.220
10481SOL    HW132342   6.368   1.045   1.156
10481SOL    HW232343   6.378   1.097   1.310
10482SOL     OW32344   5.205   3.786   3.933
10482SOL    HW132345   5.160   3.727   4.000
10482SOL    HW232346   5.226   3.874   3.974
10483SOL     OW32347   5.826   0.829   6.733
10483SOL    HW132348   5.917   0.869   6.739
10483SOL    HW232349   5.779   0.867   6.653
10484SOL     OW32350   6.173   1.011   1.916
10484SOL    HW132351   6.119   1.008   1.833
10484SOL    HW232352   6.119   1.051   1.990
10485SOL     OW32353   5.828   3.104   5.632
10485SOL    HW132354   5.840   3.054   5.717
10485SOL    HW232355   5.915   3.107   5.582
10486SOL     OW32356   5.773   2.817   2.069
10486SOL    HW132357   5.868   2.787   2.060
10486SOL    HW232358   5.712   2.747   2.029
10487SOL     OW32359   3.778   6.658   2.318
10487SOL    HW132360   3.818   6.671   2.409
10487SOL    HW232361   3.682   6.686   2.319
10488SOL     OW32362   4.265   4.099   6.595
10488SOL    HW132363   4.180   4.114   6.646
10488SOL    HW232364   4.301   4.008   6.617
10489SOL     OW32365   1.870   5.091   5.546
10489SOL    HW132366   1.963   5.100   5.509
10489SOL    HW232367   1.810   5.052   5.477
10490SOL     OW32368   6.202   0.227   4.640
10490SOL    HW132369   6.176   0.131   4.635
10490SOL    HW232370   6.196   0.268   4.549
10491SOL     OW32371   6.460   5.992   5.311
10491SOL    HW132372   6.548   5.954   5.282
10491SOL    HW232373   6.414   6.032   5.231
10492SOL     OW32374   5.379   4.551   5.521
10492SOL    HW132375   5.294   4.506   5.492
10492SOL    HW232376   5.426   4.588   5.441
10493SOL     OW32377   3.118   1.551   0.923
10493SOL    HW132378   3.123   1.651   0.925
10493SOL    HW232379   3.022   1.523   0.924
10494SOL     OW32380   5.628   1.278   5.354
10494SOL    HW132381   5.664   1.239   5.439
10494SOL    HW232382   5.616   1.376   5.365
10495SOL     OW32383   1.874   6.815   6.406
10495SOL    HW132384   1.939   6.875   6.360
10495SOL    HW232385   1.798   6.794   6.344
10496SOL     OW32386   6.619   0.032   5.569
10496SOL    HW132387   6.665   0.115   5.535
10496SOL    HW232388   6.667   6.974   5.535
10497SOL     OW32389   1.890   1.570   6.651
10497SOL    HW132390   1.802   1.542   6.688
10497SOL    HW232391   1.877   1.644   6.584
10498SOL     OW32392   3.405   5.417   5.762
10498SOL    HW132393   3.383   5.320   5.771
10498SOL    HW232394   3.339   5.461   5.700
10499SOL     OW32395   2.880   5.716   3.284
10499SOL    HW132396   2.806   5.746   3.224
10499SOL    HW232397   2.926   5.636   3.244
10500SOL     OW32398   2.229   2.131   6.624
10500SOL    HW132399   2.168   2.118   6.546
10500SOL    HW232400   2.272   2.043   6.647
10501SOL     OW32401   1.944   3.950   2.883
10501SOL    HW132402   1.914   3.941   2.787
10501SOL    HW232403   1.948   3.859   2.924
10502SOL     OW32404   3.257   5.721   4.501
10502SOL    HW132405   3.182   5.717   4.435
10502SOL    HW232406   3.338   5.758   4.457
10503SOL     OW32407   2.195   3.265   6.227
10503SOL    HW132408   2.199   3.253   6.128
10503SOL    HW232409   2.131   3.338   6.249
10504SOL     OW32410   2.040   3.460   1.212
10504SOL    HW132411   1.978   3.382   1.226
10504SOL    HW232412   2.069   3.496   1.301
10505SOL     OW32413   0.939   6.306   0.150
10505SOL    HW132414   0.844   6.314   0.182
10505SOL    HW232415   0.965   6.209   0.148
10506SOL     OW32416   6.538   4.860   5.533
10506SOL    HW132417   6.607   4.788   5.532
10506SOL    HW232418   6.473   4.845   5.459
10507SOL     OW32419   2.312   0.181   3.417
10507SOL    HW132420   2.389   0.139   3.369
10507SOL    HW232421   2.313   0.279   3.400
10508SOL     OW32422   5.818   4.080   2.861
10508SOL    HW132423   5.744   4.016   2.844
10508SOL    HW232424   5.787   4.173   2.841
10509SOL     OW32425   2.111   0.974   5.098
10509SOL    HW132426   2.059   0.947   5.180
10509SOL    HW232427   2.090   0.912   5.023
10510SOL     OW32428   5.735   0.942   6.530
10510SOL    HW132429   5.641   0.971   6.547
10510SOL    HW232430   5.772   0.993   6.453
10511SOL     OW32431   6.627   2.873   2.014
10511SOL    HW132432   6.705   2.816   2.039
10511SOL    HW232433   6.546   2.844   2.065
10512SOL     OW32434   2.226   0.396   6.279
10512SOL    HW132435   2.294   0.342   6.329
10512SOL    HW232436   2.269   0.476   6.239
10513SOL     OW32437   0.343   2.158   0.759
10513SOL    HW132438   0.393   2.215   0.693
10513SOL    HW232439   0.275   2.213   0.807
10514SOL     OW32440   0.996   2.886   1.845
10514SOL    HW132441   1.020   2.807   1.789
10514SOL    HW232442   1.068   2.901   1.914
10515SOL     OW32443   0.079   3.261   4.951
10515SOL    HW132444   0.033   3.283   5.036
10515SOL    HW232445   0.159   3.320   4.940
10516SOL     OW32446   2.266   7.005   1.081
10516SOL    HW132447   2.308   6.933   1.135
10516SOL    HW232448   2.319   7.018   0.996
10517SOL     OW32449   0.765   2.713   2.917
10517SOL    HW132450   0.786   2.633   2.973
10517SOL    HW232451   0.697   2.769   2.963
10518SOL     OW32452   0.702   6.006   3.175
10518SOL    HW132453   0.769   6.020   3.247
10518SOL    HW232454   0.616   5.975   3.215
10519SOL     OW32455   4.263   2.973   5.897
10519SOL    HW132456   4.215   3.022   5.969
10519SOL    HW232457   4.273   3.032   5.817
10520SOL     OW32458   3.193   4.983   5.966
10520SOL    HW132459   3.290   4.959   5.969
10520SOL    HW232460   3.147   4.947   6.047
10521SOL     OW32461   6.559   5.581   2.202
10521SOL    HW132462   6.601   5.495   2.174
10521SOL    HW232463   6.528   5.631   2.121
10522SOL     OW32464   6.834   6.991   2.389
10522SOL    HW132465   6.829   7.008   2.290
10522SOL    HW232466   6.908   6.928   2.408
10523SOL     OW32467   6.347   6.727   6.380
10523SOL    HW132468   6.437   6.694   6.350
10523SOL    HW232469   6.285   6.733   6.302
10524SOL     OW32470   4.860   1.073   4.545
10524SOL    HW132471   4.908   1.011   4.607
10524SOL    HW232472   4.782   1.113   4.592
10525SOL     OW32473   2.861   6.783   4.753
10525SOL    HW132474   2.818   6.865   4.716
10525SOL    HW232475   2.916   6.807   4.833
10526SOL     OW32476   4.349   6.514   2.698
10526SOL    HW132477   4.432   6.533   2.645
10526SOL    HW232478   4.374   6.475   2.787
10527SOL     OW32479   1.637   2.770   4.905
10527SOL    HW132480   1.692   2.700   4.949
10527SOL    HW232481   1.688   2.809   4.828
10528SOL     OW32482   6.067   5.007   5.963
10528SOL    HW132483   6.104   5.081   5.906
10528SOL    HW232484   6.032   5.044   6.048
10529SOL     OW32485   0.169   5.829   5.110
10529SOL    HW132486   0.095   5.834   5.042
10529SOL    HW232487   0.130   5.799   5.198
10530SOL     OW32488   1.504   2.300   5.208
10530SOL    HW132489   1.516   2.267   5.115
10530SOL    HW232490   1.577   2.364   5.231
10531SOL     OW32491   1.885   2.351   4.945
10531SOL    HW132492   1.865   2.266   4.992
10531SOL    HW232493   1.946   2.407   5.002
10532SOL     OW32494   3.243   3.413   5.123
10532SOL    HW132495   3.284   3.339   5.070
10532SOL    HW232496   3.311   3.485   5.137
10533SOL     OW32497   3.455   0.900   6.377
10533SOL    HW132498   3.436   0.960   6.299
10533SOL    HW232499   3.431   0.947   6.462
10534SOL     OW32500   5.913   5.035   1.615
10534SOL    HW132501   5.903   4.945   1.574
10534SOL    HW232502   5.897   5.029   1.714
10535SOL     OW32503   0.213   1.202   1.659
10535SOL    HW132504   0.171   1.221   1.748
10535SOL    HW232505   0.193   1.278   1.596
10536SOL     OW32506   5.915   5.734   3.405
10536SOL    HW132507   5.847   5.800   3.372
10536SOL    HW232508   5.868   5.659   3.451
10537SOL     OW32509   6.081   5.706   1.513
10537SOL    HW132510   6.096   5.771   1.438
10537SOL    HW232511   5.983   5.698   1.531
10538SOL     OW32512   4.033   3.427   6.900
10538SOL    HW132513   4.008   3.523   6.889
10538SOL    HW232514   4.127   3.413   6.868
10539SOL     OW32515   0.786   3.038   4.891
10539SOL    HW132516   0.718   2.987   4.945
10539SOL    HW232517   0.818   3.116   4.944
10540SOL     OW32518   3.746   0.676   0.550
10540SOL    HW132519   3.833   0.713   0.581
10540SOL    HW232520   3.753   0.650   0.454
10541SOL     OW32521   3.987   2.833   1.724
10541SOL    HW132522   3.906   2.891   1.720
10541SOL    HW232523   4.041   2.857   1.805
10542SOL     OW32524   1.770   1.929   0.414
10542SOL    HW132525   1.697   1.893   0.355
10542SOL    HW232526   1.843   1.967   0.357
10543SOL     OW32527   2.208   0.484   4.538
10543SOL    HW132528   2.219   0.417   4.611
10543SOL    HW232529   2.297   0.524   4.515
10544SOL     OW32530   6.925   2.185   1.653
10544SOL    HW132531   6.835   2.199   1.696
10544SOL    HW232532   6.974   2.272   1.650
10545SOL     OW32533   4.500   1.699   2.940
10545SOL    HW132534   4.490   1.617   2.883
10545SOL    HW232535   4.461   1.682   3.030
10546SOL     OW32536   4.458   1.158   5.510
10546SOL    HW132537   4.554   1.178   5.532
10546SOL    HW232538   4.409   1.244   5.493
10547SOL     OW32539   4.685   6.209   1.942
10547SOL    HW132540   4.771   6.223   1.991
10547SOL    HW232541   4.610   6.202   2.008
10548SOL     OW32542   4.300   4.086   5.446
10548SOL    HW132543   4.259   4.037   5.369
10548SOL    HW232544   4.367   4.027   5.491
10549SOL     OW32545   1.187   1.660   2.294
10549SOL    HW132546   1.172   1.740   2.237
10549SOL    HW232547   1.156   1.578   2.246
10550SOL     OW32548   5.036   6.940   4.777
10550SOL    HW132549   5.021   0.004   4.731
10550SOL    HW232550   5.078   6.875   4.714
10551SOL     OW32551   1.196   2.972   6.428
10551SOL    HW132552   1.193   2.944   6.332
10551SOL    HW232553   1.103   2.984   6.462
10552SOL     OW32554   3.300   1.485   5.184
10552SOL    HW132555   3.367   1.485   5.110
10552SOL    HW232556   3.251   1.398   5.185
10553SOL     OW32557   3.163   5.260   6.013
10553SOL    HW132558   3.188   5.163   6.008
10553SOL    HW232559   3.117   5.278   6.100
10554SOL     OW32560   6.486   3.753   5.827
10554SOL    HW132561   6.534   3.724   5.909
10554SOL    HW232562   6.430   3.833   5.848
10555SOL     OW32563   3.788   3.044   1.716
10555SOL    HW132564   3.788   3.142   1.699
10555SOL    HW232565   3.701   3.005   1.685
10556SOL     OW32566   1.044   3.704   4.061
10556SOL    HW132567   0.972   3.745   4.005
10556SOL    HW232568   1.105   3.650   4.003
10557SOL     OW32569   5.259   1.349   3.391
10557SOL    HW132570   5.197   1.392   3.325
10557SOL    HW232571   5.309   1.420   3.441
10558SOL     OW32572   5.325   5.963   5.220
10558SOL    HW132573   5.232   5.995   5.236
10558SOL    HW232574   5.355   5.993   5.129
10559SOL     OW32575   4.291   2.592   0.615
10559SOL    HW132576   4.384   2.614   0.588
10559SOL    HW232577   4.233   2.589   0.534
10560SOL     OW32578   6.589   2.127   4.044
10560SOL    HW132579   6.561   2.160   4.135
10560SOL    HW232580   6.563   2.195   3.975
10561SOL     OW32581   2.201   3.969   6.576
10561SOL    HW132582   2.123   3.931   6.626
10561SOL    HW232583   2.219   3.912   6.496
10562SOL     OW32584   3.610   1.777   0.387
10562SOL    HW132585   3.594   1.681   0.409
10562SOL    HW232586   3.606   1.789   0.288
10563SOL     OW32587   1.282   2.068   2.768
10563SOL    HW132588   1.354   2.137   2.766
10563SOL    HW232589   1.228   2.078   2.852
10564SOL     OW32590   6.932   2.172   2.565
10564SOL    HW132591   6.971   2.134   2.481
10564SOL    HW232592   6.842   2.210   2.545
10565SOL     OW32593   5.121   1.577   5.036
10565SOL    HW132594   5.094   1.484   5.062
10565SOL    HW232595   5.212   1.576   4.996
10566SOL     OW32596   4.938   5.156   6.527
10566SOL    HW132597   4.942   5.255   6.516
10566SOL    HW232598   4.977   5.111   6.447
10567SOL     OW32599   2.381   5.398   4.886
10567SOL    HW132600   2.335   5.482   4.913
10567SOL    HW232601   2.318   5.341   4.833
10568SOL     OW32602   3.289   1.443   3.031
10568SOL    HW132603   3.205   1.408   2.991
10568SOL    HW232604   3.267   1.503   3.108
10569SOL     OW32605   6.393   2.513   3.729
10569SOL    HW132606   6.441   2.592   3.766
10569SOL    HW232607   6.304   2.504   3.774
10570SOL     OW32608   1.179   4.228   0.918
10570SOL    HW132609   1.083   4.246   0.894
10570SOL    HW232610   1.226   4.315   0.935
10571SOL     OW32611   6.605   6.970   4.763
10571SOL    HW132612   6.622   7.007   4.672
10571SOL    HW232613   6.651   0.004   4.831
10572SOL     OW32614   6.579   4.006   1.529
10572SOL    HW132615   6.603   3.925   1.476
10572SOL    HW232616   6.541   3.978   1.617
10573SOL     OW32617   6.370   5.261   5.484
10573SOL    HW132618   6.431   5.188   5.512
10573SOL    HW232619   6.423   5.333   5.438
10574SOL     OW32620   0.710   2.431   3.060
10574SOL    HW132621   0.640   2.406   2.993
10574SOL    HW232622   0.670   2.433   3.151
10575SOL     OW32623   1.136   6.607   6.759
10575SOL    HW132624   1.082   6.566   6.832
10575SOL    HW232625   1.144   6.543   6.683
10576SOL     OW32626   1.186   5.836   3.510
10576SOL    HW132627   1.255   5.825   3.438
10576SOL    HW232628   1.201   5.769   3.582
10577SOL     OW32629   0.220   2.127   5.898
10577SOL    HW132630   0.161   2.206   5.912
10577SOL    HW232631   0.168   2.054   5.855
10578SOL     OW32632   5.083   0.760   5.705
10578SOL    HW132633   5.060   0.663   5.705
10578SOL    HW232634   4.998   0.814   5.704
10579SOL     OW32635   5.391   6.850   0.525
10579SOL    HW132636   5.310   6.792   0.538
10579SOL    HW232637   5.374   6.916   0.453
10580SOL     OW32638   0.372   5.580   6.975
10580SOL    HW132639   0.309   5.555   6.902
10580SOL    HW232640   0.466   5.571   6.942
10581SOL     OW32641   4.674   2.532   3.269
10581SOL    HW132642   4.673   2.601   3.342
10581SOL    HW232643   4.718   2.571   3.188
10582SOL     OW32644   3.051   4.569   6.944
10582SOL    HW132645   3.086   4.496   7.003
10582SOL    HW232646   2.977   4.532   6.887
10583SOL     OW32647   4.762   1.254   1.278
10583SOL    HW132648   4.663   1.262   1.283
10583SOL    HW232649   4.787   1.161   1.252
10584SOL     OW32650   6.304   6.701   1.344
10584SOL    HW132651   6.265   6.751   1.267
10584SOL    HW232652   6.360   6.626   1.309
10585SOL     OW32653   3.086   4.259   6.065
10585SOL    HW132654   3.116   4.333   6.005
10585SOL    HW232655   3.031   4.297   6.140
10586SOL     OW32656   4.728   1.739   1.651
10586SOL    HW132657   4.662   1.795   1.600
10586SOL    HW232658   4.801   1.709   1.590
10587SOL     OW32659   6.286   3.325   0.343
10587SOL    HW132660   6.338   3.403   0.310
10587SOL    HW232661   6.215   3.301   0.277
10588SOL     OW32662   1.574   4.894   3.560
10588SOL    HW132663   1.595   4.797   3.572
10588SOL    HW232664   1.550   4.935   3.648
10589SOL     OW32665   6.412   1.282   4.209
10589SOL    HW132666   6.380   1.284   4.304
10589SOL    HW232667   6.408   1.375   4.171
10590SOL     OW32668   1.660   6.961   5.211
10590SOL    HW132669   1.709   0.025   5.200
10590SOL    HW232670   1.562   6.979   5.217
10591SOL     OW32671   1.882   2.036   1.715
10591SOL    HW132672   1.897   2.131   1.687
10591SOL    HW232673   1.809   2.032   1.783
10592SOL     OW32674   5.369   1.360   6.259
10592SOL    HW132675   5.305   1.415   6.205
10592SOL    HW232676   5.374   1.268   6.222
10593SOL     OW32677   1.297   3.973   1.961
10593SOL    HW132678   1.378   3.934   1.916
10593SOL    HW232679   1.317   4.067   1.988
10594SOL     OW32680   1.196   1.431   4.806
10594SOL    HW132681   1.190   1.468   4.713
10594SOL    HW232682   1.104   1.407   4.838
10595SOL     OW32683   1.773   5.820   4.733
10595SOL    HW132684   1.780   5.892   4.664
10595SOL    HW232685   1.710   5.749   4.701
10596SOL     OW32686   2.897   1.243   1.521
10596SOL    HW132687   2.959   1.167   1.538
10596SOL    HW232688   2.889   1.259   1.422
10597SOL     OW32689   1.464   0.584   3.914
10597SOL    HW132690   1.400   0.642   3.965
10597SOL    HW232691   1.457   0.604   3.817
10598SOL     OW32692   2.422   0.848   0.676
10598SOL    HW132693   2.387   0.763   0.714
10598SOL    HW232694   2.407   0.849   0.577
10599SOL     OW32695   4.910   0.308   6.601
10599SOL    HW132696   4.862   0.395   6.611
10599SOL    HW232697   4.917   0.285   6.504
10600SOL     OW32698   1.749   3.238   5.067
10600SOL    HW132699   1.817   3.197   5.129
10600SOL    HW232700   1.660   3.195   5.083
10601SOL     OW32701   3.641   6.581   5.265
10601SOL    HW132702   3.543   6.582   5.289
10601SOL    HW232703   3.659   6.506   5.201
10602SOL     OW32704   4.426   2.033   2.058
10602SOL    HW132705   4.518   2.031   2.021
10602SOL    HW232706   4.422   2.098   2.134
10603SOL     OW32707   0.593   5.263   4.971
10603SOL    HW132708   0.519   5.318   4.933
10603SOL    HW232709   0.557   5.201   5.041
10604SOL     OW32710   0.345   3.852   6.043
10604SOL    HW132711   0.321   3.941   6.005
10604SOL    HW232712   0.278   3.784   6.015
10605SOL     OW32713   1.528   5.250   6.173
10605SOL    HW132714   1.598   5.317   6.195
10605SOL    HW232715   1.467   5.239   6.252
10606SOL     OW32716   0.833   1.326   2.044
10606SOL    HW132717   0.780   1.271   1.979
10606SOL    HW232718   0.926   1.288   2.050
10607SOL     OW32719   5.497   4.063   6.248
10607SOL    HW132720   5.505   3.964   6.232
10607SOL    HW232721   5.582   4.098   6.288
10608SOL     OW32722   5.565   6.610   2.367
10608SOL    HW132723   5.518   6.644   2.286
10608SOL    HW232724   5.614   6.685   2.411
10609SOL     OW32725   4.098   6.965   2.778
10609SOL    HW132726   4.098   6.866   2.796
10609SOL    HW232727   4.057   6.982   2.688
10610SOL     OW32728   2.250   4.363   5.019
10610SOL    HW132729   2.264   4.301   5.096
10610SOL    HW232730   2.204   4.313   4.945
10611SOL     OW32731   4.981   2.131   5.908
10611SOL    HW132732   4.963   2.049   5.962
10611SOL    HW232733   4.916   2.135   5.832
10612SOL     OW32734   1.757   0.350   1.198
10612SOL    HW132735   1.758   0.383   1.293
10612SOL    HW232736   1.837   0.293   1.181
10613SOL     OW32737   0.858   6.323   6.730
10613SOL    HW132738   0.951   6.310   6.764
10613SOL    HW232739   0.795   6.330   6.807
10614SOL     OW32740   0.125   0.712   2.831
10614SOL    HW132741   0.206   0.676   2.786
10614SOL    HW232742   0.147   0.798   2.877
10615SOL     OW32743   0.074   6.930   5.242
10615SOL    HW132744   0.157   6.927   5.186
10615SOL    HW232745   0.048   6.837   5.268
10616SOL     OW32746   3.123   5.945   1.282
10616SOL    HW132747   3.174   5.863   1.258
10616SOL    HW232748   3.155   5.980   1.370
10617SOL     OW32749   0.227   1.351   6.545
10617SOL    HW132750   0.313   1.339   6.593
10617SOL    HW232751   0.183   1.261   6.532
10618SOL     OW32752   6.562   4.287   0.931
10618SOL    HW132753   6.615   4.367   0.902
10618SOL    HW232754   6.514   4.309   1.016
10619SOL     OW32755   0.133   3.258   3.515
10619SOL    HW132756   0.169   3.335   3.568
10619SOL    HW232757   0.057   3.216   3.564
10620SOL     OW32758   1.638   5.294   4.195
10620SOL    HW132759   1.568   5.281   4.125
10620SOL    HW232760   1.598   5.342   4.273
10621SOL     OW32761   3.762   6.572   1.081
10621SOL    HW132762   3.734   6.533   1.169
10621SOL    HW232763   3.818   6.653   1.097
10622SOL     OW32764   3.910   1.971   0.670
10622SOL    HW132765   3.971   2.046   0.643
10622SOL    HW232766   3.921   1.954   0.768
10623SOL     OW32767   6.980   1.351   4.856
10623SOL    HW132768   0.012   1.430   4.882
10623SOL    HW232769   6.894   1.381   4.815
10624SOL     OW32770   2.684   1.347   4.354
10624SOL    HW132771   2.598   1.333   4.305
10624SOL    HW232772   2.744   1.406   4.300
10625SOL     OW32773   0.654   2.825   0.658
10625SOL    HW132774   0.712   2.906   0.665
10625SOL    HW232775   0.696   2.760   0.595
10626SOL     OW32776   6.985   1.927   3.087
10626SOL    HW132777   0.060   1.949   3.078
10626SOL    HW232778   6.931   1.993   3.035
10627SOL     OW32779   4.832   5.890   4.731
10627SOL    HW132780   4.766   5.873   4.803
10627SOL    HW232781   4.924   5.875   4.766
10628SOL     OW32782   6.494   6.362   5.351
10628SOL    HW132783   6.437   6.379   5.431
10628SOL    HW232784   6.499   6.263   5.334
10629SOL     OW32785   2.682   4.326   6.476
10629SOL    HW132786   2.618   4.401   6.461
10629SOL    HW232787   2.692   4.310   6.574
10630SOL     OW32788   5.271   0.993   2.023
10630SOL    HW132789   5.338   0.981   1.950
10630SOL    HW232790   5.318   1.012   2.109
10631SOL     OW32791   1.366   6.911   4.544
10631SOL    HW132792   1.326   6.964   4.619
10631SOL    HW232793   1.349   6.814   4.558
10632SOL     OW32794   0.100   3.093   6.748
10632SOL    HW132795   0.058   3.034   6.816
10632SOL    HW232796   0.086   3.055   6.657
10633SOL     OW32797   1.077   5.112   0.023
10633SOL    HW132798   1.049   5.171   0.098
10633SOL    HW232799   1.096   5.020   0.058
10634SOL     OW32800   3.528   6.821   2.439
10634SOL    HW132801   3.502   6.892   2.374
10634SOL    HW232802   3.448   6.796   2.494
10635SOL     OW32803   1.507   1.370   1.660
10635SOL    HW132804   1.422   1.347   1.707
10635SOL    HW232805   1.487   1.424   1.579
10636SOL     OW32806   5.096   1.658   0.116
10636SOL    HW132807   5.162   1.674   0.042
10636SOL    HW232808   5.027   1.592   0.085
10637SOL     OW32809   3.034   3.781   6.130
10637SOL    HW132810   3.066   3.762   6.037
10637SOL    HW232811   3.003   3.876   6.135
10638SOL     OW32812   6.158   0.542   5.974
10638SOL    HW132813   6.207   0.540   6.062
10638SOL    HW232814   6.173   0.631   5.930
10639SOL     OW32815   3.751   2.219   5.183
10639SOL    HW132816   3.703   2.131   5.183
10639SOL    HW232817   3.823   2.218   5.114
10640SOL     OW32818   4.692   6.393   0.634
10640SOL    HW132819   4.642   6.454   0.695
10640SOL    HW232820   4.744   6.327   0.688
10641SOL     OW32821   3.725   0.026   0.306
10641SOL    HW132822   3.640   7.005   0.335
10641SOL    HW232823   3.704   0.106   0.250
10642SOL     OW32824   0.654   5.313   0.929
10642SOL    HW132825   0.718   5.296   1.005
10642SOL    HW232826   0.561   5.298   0.961
10643SOL     OW32827   3.963   3.116   4.991
10643SOL    HW132828   3.870   3.113   4.956
10643SOL    HW232829   3.984   3.031   5.038
10644SOL     OW32830   3.822   0.972   5.577
10644SOL    HW132831   3.794   0.892   5.631
10644SOL    HW232832   3.920   0.964   5.555
10645SOL     OW32833   1.963   0.112   4.574
10645SOL    HW132834   1.986   0.127   4.478
10645SOL    HW232835   1.864   0.118   4.586
10646SOL     OW32836   6.603   5.521   6.833
10646SOL    HW132837   6.581   5.598   6.892
10646SOL    HW232838   6.538   5.447   6.847
10647SOL     OW32839   0.195   6.235   0.859
10647SOL    HW132840   0.242   6.147   0.850
10647SOL    HW232841   0.208   6.270   0.951
10648SOL     OW32842   5.031   4.169   5.948
10648SOL    HW132843   5.060   4.153   5.854
10648SOL    HW232844   4.944   4.219   5.948
10649SOL     OW32845   0.102   5.080   6.554
10649SOL    HW132846   0.039   5.045   6.624
10649SOL    HW232847   0.193   5.093   6.594
10650SOL     OW32848   2.248   0.439   5.731
10650SOL    HW132849   2.183   0.487   5.789
10650SOL    HW232850   2.207   0.355   5.696
10651SOL     OW32851   2.119   0.795   4.785
10651SOL    HW132852   2.079   0.728   4.724
10651SOL    HW232853   2.189   0.848   4.736
10652SOL     OW32854   4.654   0.833   0.519
10652SOL    HW132855   4.722   0.795   0.582
10652SOL    HW232856   4.701   0.867   0.437
10653SOL     OW32857   6.067   3.871   3.964
10653SOL    HW132858   5.980   3.845   4.007
10653SOL    HW232859   6.082   3.969   3.975
10654SOL     OW32860   4.684   0.682   1.324
10654SOL    HW132861   4.658   0.650   1.416
10654SOL    HW232862   4.606   0.669   1.262
10655SOL     OW32863   2.453   5.789   1.206
10655SOL    HW132864   2.528   5.826   1.261
10655SOL    HW232865   2.481   5.703   1.164
10656SOL     OW32866   6.569   2.660   5.963
10656SOL    HW132867   6.473   2.682   5.948
10656SOL    HW232868   6.604   2.608   5.885
10657SOL     OW32869   6.196   0.643   0.812
10657SOL    HW132870   6.173   0.691   0.727
10657SOL    HW232871   6.116   0.641   0.872
10658SOL     OW32872   0.174   6.259   4.059
10658SOL    HW132873   0.213   6.250   3.967
10658SOL    HW232874   0.079   6.228   4.057
10659SOL     OW32875   5.096   1.062   1.426
10659SOL    HW132876   5.085   1.160   1.446
10659SOL    HW232877   5.068   1.044   1.332
10660SOL     OW32878   4.805   5.063   5.629
10660SOL    HW132879   4.749   5.046   5.709
10660SOL    HW232880   4.881   5.124   5.653
10661SOL     OW32881   0.118   1.447   1.514
10661SOL    HW132882   0.087   1.485   1.601
10661SOL    HW232883   0.055   1.475   1.441
10662SOL     OW32884   0.242   1.931   0.633
10662SOL    HW132885   0.274   2.004   0.693
10662SOL    HW232886   0.305   1.919   0.557
10663SOL     OW32887   0.417   2.202   1.583
10663SOL    HW132888   0.513   2.179   1.568
10663SOL    HW232889   0.400   2.295   1.551
10664SOL     OW32890   2.626   5.367   6.128
10664SOL    HW132891   2.536   5.396   6.161
10664SOL    HW232892   2.618   5.339   6.032
10665SOL     OW32893   5.670   1.655   0.102
10665SOL    HW132894   5.623   1.627   0.186
10665SOL    HW232895   5.611   1.637   0.023
10666SOL     OW32896   1.060   6.657   0.405
10666SOL    HW132897   0.987   6.620   0.462
10666SOL    HW232898   1.085   6.748   0.438
10667SOL     OW32899   3.161   2.140   5.706
10667SOL    HW132900   3.165   2.179   5.614
10667SOL    HW232901   3.253   2.113   5.735
10668SOL     OW32902   1.704   0.542   6.144
10668SOL    HW132903   1.797   0.536   6.181
10668SOL    HW232904   1.641   0.571   6.217
10669SOL     OW32905   1.985   6.060   6.758
10669SOL    HW132906   2.077   6.076   6.722
10669SOL    HW232907   1.985   5.976   6.812
10670SOL     OW32908   5.849   4.186   4.887
10670SOL    HW132909   5.937   4.216   4.924
10670SOL    HW232910   5.864   4.140   4.800
10671SOL     OW32911   2.265   2.634   3.491
10671SOL    HW132912   2.341   2.615   3.430
10671SOL    HW232913   2.210   2.708   3.452
10672SOL     OW32914   6.606   2.410   0.769
10672SOL    HW132915   6.553   2.494   0.779
10672SOL    HW232916   6.620   2.369   0.860
10673SOL     OW32917   3.853   4.036   4.020
10673SOL    HW132918   3.836   4.130   4.047
10673SOL    HW232919   3.911   3.991   4.087
10674SOL     OW32920   3.993   1.630   2.437
10674SOL    HW132921   3.937   1.713   2.446
10674SOL    HW232922   4.079   1.643   2.487
10675SOL     OW32923   1.333   1.397   6.116
10675SOL    HW132924   1.333   1.324   6.048
10675SOL    HW232925   1.364   1.482   6.074
10676SOL     OW32926   6.568   0.794   0.335
10676SOL    HW132927   6.524   0.857   0.271
10676SOL    HW232928   6.551   0.823   0.429
10677SOL     OW32929   5.518   1.445   0.329
10677SOL    HW132930   5.450   1.427   0.258
10677SOL    HW232931   5.471   1.465   0.415
10678SOL     OW32932   1.371   5.247   3.556
10678SOL    HW132933   1.379   5.347   3.547
10678SOL    HW232934   1.278   5.224   3.586
10679SOL     OW32935   5.776   4.913   3.874
10679SOL    HW132936   5.872   4.940   3.861
10679SOL    HW232937   5.764   4.819   3.843
10680SOL     OW32938   0.250   2.451   4.038
10680SOL    HW132939   0.305   2.525   4.078
10680SOL    HW232940   0.303   2.366   4.037
10681SOL     OW32941   1.148   3.173   6.683
10681SOL    HW132942   1.086   3.214   6.617
10681SOL    HW232943   1.096   3.134   6.759
10682SOL     OW32944   6.180   1.976   3.540
10682SOL    HW132945   6.100   2.001   3.594
10682SOL    HW232946   6.262   1.980   3.598
10683SOL     OW32947   1.011   0.674   4.050
10683SOL    HW132948   1.009   0.575   4.059
10683SOL    HW232949   0.922   0.706   4.017
10684SOL     OW32950   5.389   6.073   0.474
10684SOL    HW132951   5.473   6.020   0.461
10684SOL    HW232952   5.334   6.030   0.545
10685SOL     OW32953   6.496   3.001   2.952
10685SOL    HW132954   6.529   2.950   2.872
10685SOL    HW232955   6.421   3.061   2.924
10686SOL     OW32956   4.595   4.532   1.469
10686SOL    HW132957   4.604   4.503   1.564
10686SOL    HW232958   4.500   4.524   1.440
10687SOL     OW32959   0.487   5.495   0.805
10687SOL    HW132960   0.391   5.465   0.810
10687SOL    HW232961   0.544   5.430   0.856
10688SOL     OW32962   1.256   4.482   0.962
10688SOL    HW132963   1.273   4.452   1.056
10688SOL    HW232964   1.343   4.494   0.915
10689SOL     OW32965   0.312   0.334   0.717
10689SOL    HW132966   0.248   0.298   0.785
10689SOL    HW232967   0.382   0.265   0.698
10690SOL     OW32968   3.844   0.387   3.425
10690SOL    HW132969   3.908   0.390   3.348
10690SOL    HW232970   3.889   0.422   3.507
10691SOL     OW32971   5.342   1.520   1.525
10691SOL    HW132972   5.341   1.617   1.500
10691SOL    HW232973   5.304   1.508   1.617
10692SOL     OW32974   5.822   6.393   4.315
10692SOL    HW132975   5.807   6.446   4.231
10692SOL    HW232976   5.735   6.356   4.347
10693SOL     OW32977   5.011   2.660   4.096
10693SOL    HW132978   5.043   2.737   4.040
10693SOL    HW232979   4.960   2.596   4.038
10694SOL     OW32980   2.697   5.723   0.214
10694SOL    HW132981   2.644   5.806   0.230
10694SOL    HW232982   2.741   5.693   0.299
10695SOL     OW32983   5.929   2.956   5.858
10695SOL    HW132984   5.955   2.864   5.887
10695SOL    HW232985   6.007   3.018   5.868
10696SOL     OW32986   6.202   0.163   0.622
10696SOL    HW132987   6.228   0.067   0.629
10696SOL    HW232988   6.107   0.169   0.589
10697SOL     OW32989   2.529   5.743   3.252
10697SOL    HW132990   2.477   5.689   3.185
10697SOL    HW232991   2.533   5.838   3.221
10698SOL     OW32992   3.310   0.381   4.128
10698SOL    HW132993   3.254   0.464   4.136
10698SOL    HW232994   3.255   0.301   4.154
10699SOL     OW32995   0.676   2.929   3.478
10699SOL    HW132996   0.685   2.833   3.450
10699SOL    HW232997   0.583   2.946   3.510
10700SOL     OW32998   1.120   3.198   2.299
10700SOL    HW132999   1.150   3.209   2.394
10700SOL    HW233000   1.141   3.281   2.248
10701SOL     OW33001   2.870   6.938   1.301
10701SOL    HW133002   2.932   6.899   1.234
10701SOL    HW233003   2.807   7.001   1.255
10702SOL     OW33004   4.870   2.074   0.603
10702SOL    HW133005   4.888   2.144   0.672
10702SOL    HW233006   4.957   2.035   0.573
10703SOL     OW33007   3.923   3.940   4.277
10703SOL    HW133008   3.849   3.888   4.319
10703SOL    HW233009   4.009   3.921   4.323
10704SOL     OW33010   5.364   5.867   1.833
10704SOL    HW133011   5.389   5.800   1.903
10704SOL    HW233012   5.281   5.915   1.860
10705SOL     OW33013   1.340   2.874   6.928
10705SOL    HW133014   1.249   2.917   6.928
10705SOL    HW233015   1.354   2.827   6.841
10706SOL     OW33016   3.456   3.600   0.639
10706SOL    HW133017   3.467   3.651   0.724
10706SOL    HW233018   3.545   3.561   0.612
10707SOL     OW33019   6.092   0.556   6.652
10707SOL    HW133020   6.130   0.588   6.739
10707SOL    HW233021   5.993   0.571   6.651
10708SOL     OW33022   4.453   2.082   1.534
10708SOL    HW133023   4.426   2.166   1.487
10708SOL    HW233024   4.400   2.073   1.619
10709SOL     OW33025   0.818   0.943   6.489
10709SOL    HW133026   0.839   0.936   6.587
10709SOL    HW233027   0.898   0.918   6.436
10710SOL     OW33028   0.360   6.622   3.312
10710SOL    HW133029   0.263   6.631   3.334
10710SOL    HW233030   0.373   6.631   3.214
10711SOL     OW33031   1.966   4.057   5.087
10711SOL    HW133032   1.983   4.122   5.012
10711SOL    HW233033   1.868   4.035   5.089
10712SOL     OW33034   3.581   1.771   6.447
10712SOL    HW133035   3.509   1.733   6.506
10712SOL    HW233036   3.543   1.845   6.392
10713SOL     OW33037   2.614   6.873   0.534
10713SOL    HW133038   2.519   6.891   0.508
10713SOL    HW233039   2.646   6.944   0.597
10714SOL     OW33040   5.255   5.660   3.810
10714SOL    HW133041   5.278   5.577   3.860
10714SOL    HW233042   5.285   5.740   3.862
10715SOL     OW33043   5.709   0.088   2.600
10715SOL    HW133044   5.677   0.126   2.513
10715SOL    HW233045   5.790   0.138   2.630
10716SOL     OW33046   6.870   1.892   2.040
10716SOL    HW133047   6.791   1.864   2.094
10716SOL    HW233048   6.930   1.813   2.025
10717SOL     OW33049   0.702   6.452   2.117
10717SOL    HW133050   0.781   6.514   2.108
10717SOL    HW233051   0.686   6.407   2.029
10718SOL     OW33052   6.974   5.094   5.103
10718SOL    HW133053   6.981   5.034   5.183
10718SOL    HW233054   0.037   5.091   5.052
10719SOL     OW33055   3.603   6.561   3.529
10719SOL    HW133056   3.698   6.540   3.508
10719SOL    HW233057   3.597   6.652   3.569
10720SOL     OW33058   0.357   2.923   5.951
10720SOL    HW133059   0.423   2.878   6.011
10720SOL    HW233060   0.361   3.022   5.966
10721SOL     OW33061   5.587   1.275   3.769
10721SOL    HW133062   5.628   1.187   3.795
10721SOL    HW233063   5.542   1.265   3.680
10722SOL     OW33064   0.885   5.410   0.147
10722SOL    HW133065   0.983   5.412   0.130
10722SOL    HW233066   0.868   5.406   0.246
10723SOL     OW33067   6.903   4.112   6.273
10723SOL    HW133068   6.838   4.070   6.209
10723SOL    HW233069   6.944   4.040   6.329
10724SOL     OW33070   3.482   6.383   5.962
10724SOL    HW133071   3.486   6.284   5.963
10724SOL    HW233072   3.476   6.416   5.868
10725SOL     OW33073   6.973   0.525   5.330
10725SOL    HW133074   6.878   0.496   5.319
10725SOL    HW233075   0.010   0.466   5.276
10726SOL     OW33076   6.824   0.211   3.368
10726SOL    HW133077   6.749   0.222   3.433
10726SOL    HW233078   6.875   0.296   3.361
10727SOL     OW33079   5.218   6.099   6.691
10727SOL    HW133080   5.215   6.054   6.601
10727SOL    HW233081   5.288   6.170   6.691
10728SOL     OW33082   5.518   6.156   4.100
10728SOL    HW133083   5.565   6.072   4.074
10728SOL    HW233084   5.431   6.134   4.143
10729SOL     OW33085   6.899   3.159   4.234
10729SOL    HW133086   6.852   3.161   4.146
10729SOL    HW233087   6.964   3.083   4.235
10730SOL     OW33088   1.394   5.884   4.366
10730SOL    HW133089   1.346   5.949   4.425
10730SOL    HW233090   1.485   5.920   4.345
10731SOL     OW33091   4.915   4.180   5.224
10731SOL    HW133092   4.823   4.142   5.233
10731SOL    HW233093   4.953   4.153   5.135
10732SOL     OW33094   5.350   6.035   2.107
10732SOL    HW133095   5.367   6.044   2.206
10732SOL    HW233096   5.285   5.961   2.092
10733SOL     OW33097   0.628   1.628   5.661
10733SOL    HW133098   0.630   1.583   5.750
10733SOL    HW233099   0.650   1.562   5.589
10734SOL     OW33100   0.584   0.414   4.447
10734SOL    HW133101   0.533   0.399   4.362
10734SOL    HW233102   0.537   0.481   4.503
10735SOL     OW33103   0.031   1.003   1.754
10735SOL    HW133104   0.084   1.064   1.695
10735SOL    HW233105   7.017   1.054   1.832
10736SOL     OW33106   5.985   5.720   3.675
10736SOL    HW133107   6.019   5.725   3.581
10736SOL    HW233108   5.939   5.632   3.689
10737SOL     OW33109   6.701   0.611   0.709
10737SOL    HW133110   6.767   0.536   0.708
10737SOL    HW233111   6.745   0.695   0.676
10738SOL     OW33112   1.549   6.563   1.499
10738SOL    HW133113   1.555   6.473   1.542
10738SOL    HW233114   1.583   6.633   1.562
10739SOL     OW33115   5.300   2.560   3.811
10739SOL    HW133116   5.386   2.585   3.766
10739SOL    HW233117   5.224   2.571   3.747
10740SOL     OW33118   2.797   0.597   6.372
10740SOL    HW133119   2.822   0.688   6.339
10740SOL    HW233120   2.878   0.540   6.380
10741SOL     OW33121   1.910   2.483   4.410
10741SOL    HW133122   1.873   2.455   4.499
10741SOL    HW233123   1.918   2.403   4.351
10742SOL     OW33124   0.292   0.316   1.893
10742SOL    HW133125   0.382   0.357   1.875
10742SOL    HW233126   0.220   0.377   1.859
10743SOL     OW33127   3.943   2.567   6.384
10743SOL    HW133128   3.972   2.661   6.365
10743SOL    HW233129   3.944   2.515   6.299
10744SOL     OW33130   1.764   1.890   0.690
10744SOL    HW133131   1.782   1.901   0.592
10744SOL    HW233132   1.781   1.795   0.716
10745SOL     OW33133   3.493   5.752   1.557
10745SOL    HW133134   3.580   5.796   1.537
10745SOL    HW233135   3.481   5.744   1.656
10746SOL     OW33136   2.792   6.106   5.945
10746SOL    HW133137   2.730   6.031   5.923
10746SOL    HW233138   2.751   6.164   6.015
10747SOL     OW33139   7.003   0.041   4.405
10747SOL    HW133140   6.979   6.967   4.406
10747SOL    HW233141   6.989   0.080   4.496
10748SOL     OW33142   2.747   6.289   2.622
10748SOL    HW133143   2.728   6.294   2.720
10748SOL    HW233144   2.708   6.370   2.577
10749SOL     OW33145   4.934   3.222   2.414
10749SOL    HW133146   4.902   3.130   2.393
10749SOL    HW233147   5.032   3.228   2.399
10750SOL     OW33148   3.476   1.547   4.249
10750SOL    HW133149   3.484   1.646   4.259
10750SOL    HW233150   3.505   1.502   4.333
10751SOL     OW33151   6.319   6.041   3.520
10751SOL    HW133152   6.259   5.965   3.493
10751SOL    HW233153   6.319   6.110   3.448
10752SOL     OW33154   0.183   6.271   6.623
10752SOL    HW133155   0.110   6.264   6.691
10752SOL    HW233156   0.193   6.184   6.575
10753SOL     OW33157   5.489   6.650   4.902
10753SOL    HW133158   5.503   6.652   4.803
10753SOL    HW233159   5.404   6.602   4.923
10754SOL     OW33160   0.004   5.700   2.007
10754SOL    HW133161   6.962   5.693   1.931
10754SOL    HW233162   0.026   5.796   2.024
10755SOL     OW33163   0.866   1.834   2.420
10755SOL    HW133164   0.897   1.807   2.329
10755SOL    HW233165   0.771   1.807   2.432
10756SOL     OW33166   0.965   0.255   6.574
10756SOL    HW133167   0.886   0.251   6.513
10756SOL    HW233168   0.934   0.271   6.668
10757SOL     OW33169   6.954   2.519   1.887
10757SOL    HW133170   6.938   2.617   1.878
10757SOL    HW233171   6.936   2.474   1.800
10758SOL     OW33172   0.444   1.728   0.393
10758SOL    HW133173   0.486   1.750   0.305
10758SOL    HW233174   0.344   1.726   0.382
10759SOL     OW33175   3.832   4.910   5.493
10759SOL    HW133176   3.793   4.864   5.573
10759SOL    HW233177   3.846   4.843   5.420
10760SOL     OW33178   0.572   5.053   0.007
10760SOL    HW133179   0.640   5.036   6.959
10760SOL    HW233180   0.616   5.052   0.097
10761SOL     OW33181   1.496   1.620   6.569
10761SOL    HW133182   1.554   1.544   6.599
10761SOL    HW233183   1.429   1.587   6.504
10762SOL     OW33184   1.716   6.187   1.245
10762SOL    HW133185   1.797   6.146   1.287
10762SOL    HW233186   1.705   6.281   1.279
10763SOL     OW33187   5.064   0.998   2.230
10763SOL    HW133188   5.091   0.972   2.137
10763SOL    HW233189   4.968   1.024   2.230
10764SOL     OW33190   5.227   6.172   4.505
10764SOL    HW133191   5.139   6.123   4.504
10764SOL    HW233192   5.293   6.124   4.447
10765SOL     OW33193   6.647   2.810   1.494
10765SOL    HW133194   6.637   2.716   1.527
10765SOL    HW233195   6.688   2.866   1.566
10766SOL     OW33196   3.221   5.068   6.585
10766SOL    HW133197   3.202   5.167   6.587
10766SOL    HW233198   3.223   5.032   6.678
10767SOL     OW33199   1.536   4.997   6.441
10767SOL    HW133200   1.492   4.983   6.353
10767SOL    HW233201   1.549   4.909   6.487
10768SOL     OW33202   5.836   6.287   0.136
10768SOL    HW133203   5.891   6.262   0.215
10768SOL    HW233204   5.885   6.355   0.081
10769SOL     OW33205   3.297   3.743   4.944
10769SOL    HW133206   3.283   3.756   5.042
10769SOL    HW233207   3.369   3.805   4.912
10770SOL     OW33208   4.345   6.952   3.820
10770SOL    HW133209   4.315   6.857   3.820
10770SOL    HW233210   4.389   6.974   3.907
10771SOL     OW33211   4.989   5.617   5.817
10771SOL    HW133212   4.991   5.716   5.827
10771SOL    HW233213   4.894   5.585   5.822
10772SOL     OW33214   4.894   3.809   3.487
10772SOL    HW133215   4.917   3.716   3.516
10772SOL    HW233216   4.873   3.865   3.567
10773SOL     OW33217   0.634   4.235   0.895
10773SOL    HW133218   0.669   4.238   0.989
10773SOL    HW233219   0.566   4.308   0.883
10774SOL     OW33220   0.063   3.153   0.427
10774SOL    HW133221   7.020   3.202   0.484
10774SOL    HW233222   0.138   3.119   0.485
10775SOL     OW33223   2.652   4.889   6.441
10775SOL    HW133224   2.645   4.826   6.364
10775SOL    HW233225   2.617   4.979   6.415
10776SOL     OW33226   0.707   3.959   3.186
10776SOL    HW133227   0.649   4.026   3.137
10776SOL    HW233228   0.744   4.002   3.269
10777SOL     OW33229   1.057   6.389   1.848
10777SOL    HW133230   1.132   6.324   1.860
10777SOL    HW233231   1.033   6.430   1.936
10778SOL     OW33232   5.162   0.294   3.781
10778SOL    HW133233   5.120   0.362   3.721
10778SOL    HW233234   5.099   0.217   3.794
10779SOL     OW33235   5.402   2.816   5.945
10779SOL    HW133236   5.383   2.877   5.868
10779SOL    HW233237   5.394   2.868   6.031
10780SOL     OW33238   0.767   5.239   4.683
10780SOL    HW133239   0.775   5.141   4.704
10780SOL    HW233240   0.694   5.252   4.615
10781SOL     OW33241   6.171   2.221   6.030
10781SOL    HW133242   6.170   2.132   5.985
10781SOL    HW233243   6.213   2.213   6.121
10782SOL     OW33244   1.169   3.280   5.390
10782SOL    HW133245   1.161   3.286   5.489
10782SOL    HW233246   1.260   3.246   5.366
10783SOL     OW33247   1.343   3.759   4.006
10783SOL    HW133248   1.293   3.683   4.048
10783SOL    HW233249   1.380   3.818   4.078
10784SOL     OW33250   5.071   5.295   3.818
10784SOL    HW133251   5.018   5.380   3.818
10784SOL    HW233252   5.076   5.258   3.726
10785SOL     OW33253   2.256   5.229   1.529
10785SOL    HW133254   2.196   5.287   1.474
10785SOL    HW233255   2.351   5.244   1.502
10786SOL     OW33256   4.936   1.578   2.755
10786SOL    HW133257   4.888   1.545   2.674
10786SOL    HW233258   4.891   1.660   2.789
10787SOL     OW33259   2.947   1.708   3.899
10787SOL    HW133260   3.045   1.700   3.914
10787SOL    HW233261   2.920   1.804   3.903
10788SOL     OW33262   1.434   3.071   0.251
10788SOL    HW133263   1.394   3.152   0.207
10788SOL    HW233264   1.468   3.009   0.180
10789SOL     OW33265   6.349   1.812   2.872
10789SOL    HW133266   6.354   1.813   2.772
10789SOL    HW233267   6.382   1.900   2.908
10790SOL     OW33268   6.951   2.582   5.503
10790SOL    HW133269   6.868   2.628   5.534
10790SOL    HW233270   0.002   2.649   5.493
10791SOL     OW33271   1.964   3.326   3.615
10791SOL    HW133272   1.967   3.363   3.523
10791SOL    HW233273   2.038   3.260   3.627
10792SOL     OW33274   3.725   1.229   2.335
10792SOL    HW133275   3.727   1.267   2.427
10792SOL    HW233276   3.635   1.246   2.294
10793SOL     OW33277   3.913   2.038   4.246
10793SOL    HW133278   3.898   2.133   4.218
10793SOL    HW233279   3.976   1.994   4.182
10794SOL     OW33280   4.520   2.837   6.810
10794SOL    HW133281   4.475   2.866   6.895
10794SOL    HW233282   4.506   2.738   6.797
10795SOL     OW33283   6.332   3.179   2.859
10795SOL    HW133284   6.386   3.254   2.821
10795SOL    HW233285   6.271   3.214   2.930
10796SOL     OW33286   6.974   1.777   6.655
10796SOL    HW133287   6.910   1.791   6.731
10796SOL    HW233288   7.005   1.682   6.655
10797SOL     OW33289   5.597   4.502   6.680
10797SOL    HW133290   5.613   4.414   6.726
10797SOL    HW233291   5.499   4.519   6.676
10798SOL     OW33292   2.530   5.883   0.589
10798SOL    HW133293   2.440   5.879   0.545
10798SOL    HW233294   2.598   5.913   0.522
10799SOL     OW33295   1.916   0.909   3.077
10799SOL    HW133296   1.902   0.955   2.989
10799SOL    HW233297   2.012   0.884   3.086
10800SOL     OW33298   1.428   0.559   4.894
10800SOL    HW133299   1.515   0.576   4.941
10800SOL    HW233300   1.367   0.637   4.909
10801SOL     OW33301   2.868   5.997   6.735
10801SOL    HW133302   2.926   5.965   6.810
10801SOL    HW233303   2.773   5.975   6.755
10802SOL     OW33304   0.618   4.695   3.709
10802SOL    HW133305   0.533   4.643   3.701
10802SOL    HW233306   0.608   4.765   3.780
10803SOL     OW33307   6.850   4.374   4.740
10803SOL    HW133308   6.853   4.324   4.827
10803SOL    HW233309   6.854   4.309   4.664
10804SOL     OW33310   4.218   4.982   6.685
10804SOL    HW133311   4.290   4.919   6.656
10804SOL    HW233312   4.234   5.071   6.644
10805SOL     OW33313   4.835   5.953   0.722
10805SOL    HW133314   4.766   5.881   0.708
10805SOL    HW233315   4.905   5.945   0.651
10806SOL     OW33316   5.889   2.813   5.083
10806SOL    HW133317   5.893   2.739   5.017
10806SOL    HW233318   5.919   2.780   5.172
10807SOL     OW33319   4.412   2.896   5.597
10807SOL    HW133320   4.386   2.942   5.683
10807SOL    HW233321   4.382   2.952   5.520
10808SOL     OW33322   0.334   2.694   1.310
10808SOL    HW133323   0.331   2.793   1.327
10808SOL    HW233324   0.422   2.670   1.271
10809SOL     OW33325   1.007   1.020   2.908
10809SOL    HW133326   0.922   0.969   2.891
10809SOL    HW233327   1.078   0.957   2.937
10810SOL     OW33328   1.964   1.736   6.193
10810SOL    HW133329   1.939   1.695   6.281
10810SOL    HW233330   1.928   1.829   6.187
10811SOL     OW33331   4.015   5.964   6.429
10811SOL    HW133332   4.105   6.005   6.421
10811SOL    HW233333   4.017   5.872   6.391
10812SOL     OW33334   6.554   3.221   2.618
10812SOL    HW133335   6.464   3.179   2.605
10812SOL    HW233336   6.545   3.321   2.617
10813SOL     OW33337   3.440   6.093   2.448
10813SOL    HW133338   3.483   6.165   2.502
10813SOL    HW233339   3.395   6.133   2.368
10814SOL     OW33340   1.740   5.719   4.431
10814SOL    HW133341   1.683   5.769   4.366
10814SOL    HW233342   1.685   5.650   4.477
10815SOL     OW33343   5.607   2.365   5.700
10815SOL    HW133344   5.516   2.395   5.672
10815SOL    HW233345   5.648   2.311   5.627
10816SOL     OW33346   2.219   2.441   0.726
10816SOL    HW133347   2.137   2.490   0.754
10816SOL    HW233348   2.206   2.343   0.740
10817SOL     OW33349   3.588   1.816   1.785
10817SOL    HW133350   3.514   1.813   1.718
10817SOL    HW233351   3.651   1.890   1.761
10818SOL     OW33352   4.828   3.300   5.982
10818SOL    HW133353   4.772   3.308   5.900
10818SOL    HW233354   4.815   3.381   6.039
10819SOL     OW33355   2.149   3.024   5.194
10819SOL    HW133356   2.109   3.049   5.106
10819SOL    HW233357   2.249   3.026   5.187
10820SOL     OW33358   1.549   6.520   5.312
10820SOL    HW133359   1.472   6.583   5.322
10820SOL    HW233360   1.633   6.571   5.298
10821SOL     OW33361   0.094   0.294   0.060
10821SOL    HW133362   0.072   0.198   0.077
10821SOL    HW233363   0.023   0.334   0.001
10822SOL     OW33364   0.325   5.012   5.944
10822SOL    HW133365   0.385   5.018   5.864
10822SOL    HW233366   0.277   4.924   5.943
10823SOL     OW33367   2.200   1.890   0.555
10823SOL    HW133368   2.276   1.947   0.522
10823SOL    HW233369   2.117   1.913   0.504
10824SOL     OW33370   5.294   1.295   4.667
10824SOL    HW133371   5.368   1.245   4.712
10824SOL    HW233372   5.331   1.343   4.587
10825SOL     OW33373   3.758   1.036   1.977
10825SOL    HW133374   3.824   1.071   2.044
10825SOL    HW233375   3.744   1.104   1.905
10826SOL     OW33376   0.173   3.695   0.977
10826SOL    HW133377   0.206   3.654   0.892
10826SOL    HW233378   0.121   3.627   1.029
10827SOL     OW33379   0.069   2.725   4.283
10827SOL    HW133380   0.164   2.740   4.310
10827SOL    HW233381   0.013   2.710   4.365
10828SOL     OW33382   2.635   4.747   6.933
10828SOL    HW133383   2.594   4.783   6.850
10828SOL    HW233384   2.622   4.648   6.937
10829SOL     OW33385   2.232   3.593   1.400
10829SOL    HW133386   2.230   3.494   1.389
10829SOL    HW233387   2.250   3.615   1.497
10830SOL     OW33388   6.454   0.134   3.791
10830SOL    HW133389   6.467   0.058   3.855
10830SOL    HW233390   6.543   0.171   3.765
10831SOL     OW33391   5.355   3.109   1.991
10831SOL    HW133392   5.385   3.020   1.956
10831SOL    HW233393   5.276   3.140   1.939
10832SOL     OW33394   1.836   2.617   1.914
10832SOL    HW133395   1.813   2.539   1.972
10832SOL    HW233396   1.935   2.617   1.896
10833SOL     OW33397   3.196   0.026   4.601
10833SOL    HW133398   3.110   0.033   4.552
10833SOL    HW233399   3.190   0.078   4.686
10834SOL     OW33400   0.021   1.906   5.749
10834SOL    HW133401   6.968   1.911   5.814
10834SOL    HW233402   0.027   1.813   5.712
10835SOL     OW33403   0.111   1.407   0.255
10835SOL    HW133404   0.180   1.410   0.182
10835SOL    HW233405   0.132   1.476   0.323
10836SOL     OW33406   0.096   2.133   1.250
10836SOL    HW133407   0.047   2.073   1.187
10836SOL    HW233408   0.187   2.153   1.214
10837SOL     OW33409   1.368   5.157   0.722
10837SOL    HW133410   1.432   5.144   0.647
10837SOL    HW233411   1.401   5.232   0.781
10838SOL     OW33412   6.811   5.837   0.565
10838SOL    HW133413   6.853   5.834   0.474
10838SOL    HW233414   6.852   5.911   0.618
10839SOL     OW33415   2.343   1.868   6.682
10839SOL    HW133416   2.436   1.902   6.673
10839SOL    HW233417   2.342   1.768   6.670
10840SOL     OW33418   1.666   0.877   3.194
10840SOL    HW133419   1.687   0.957   3.250
10840SOL    HW233420   1.745   0.855   3.137
10841SOL     OW33421   4.558   3.812   0.256
10841SOL    HW133422   4.553   3.813   0.356
10841SOL    HW233423   4.621   3.882   0.225
10842SOL     OW33424   5.786   1.987   1.825
10842SOL    HW133425   5.728   1.911   1.793
10842SOL    HW233426   5.800   2.051   1.750
10843SOL     OW33427   1.053   2.327   1.176
10843SOL    HW133428   1.111   2.372   1.108
10843SOL    HW233429   1.109   2.265   1.232
10844SOL     OW33430   4.845   6.784   3.929
10844SOL    HW133431   4.940   6.752   3.921
10844SOL    HW233432   4.840   6.854   4.001
10845SOL     OW33433   2.522   3.660   1.683
10845SOL    HW133434   2.604   3.627   1.729
10845SOL    HW233435   2.442   3.613   1.719
10846SOL     OW33436   3.502   2.797   1.929
10846SOL    HW133437   3.419   2.839   1.965
10846SOL    HW233438   3.577   2.811   1.994
10847SOL     OW33439   5.424   1.790   5.320
10847SOL    HW133440   5.352   1.721   5.331
10847SOL    HW233441   5.401   1.850   5.244
10848SOL     OW33442   1.844   0.729   6.798
10848SOL    HW133443   1.926   0.689   6.757
10848SOL    HW233444   1.819   0.812   6.748
10849SOL     OW33445   0.746   4.283   4.628
10849SOL    HW133446   0.833   4.266   4.675
10849SOL    HW233447   0.750   4.246   4.535
10850SOL     OW33448   6.160   0.357   2.942
10850SOL    HW133449   6.062   0.352   2.965
10850SOL    HW233450   6.177   0.439   2.887
10851SOL     OW33451   4.493   2.777   0.215
10851SOL    HW133452   4.443   2.853   0.174
10851SOL    HW233453   4.590   2.799   0.219
10852SOL     OW33454   6.352   1.450   5.928
10852SOL    HW133455   6.318   1.358   5.911
10852SOL    HW233456   6.391   1.488   5.844
10853SOL     OW33457   2.644   0.186   5.457
10853SOL    HW133458   2.556   0.198   5.409
10853SOL    HW233459   2.688   0.102   5.426
10854SOL     OW33460   5.996   0.375   6.915
10854SOL    HW133461   5.921   0.349   6.976
10854SOL    HW233462   5.958   0.419   6.833
10855SOL     OW33463   0.924   6.011   0.134
10855SOL    HW133464   0.913   6.000   0.233
10855SOL    HW233465   0.834   6.009   0.091
10856SOL     OW33466   4.985   6.988   6.293
10856SOL    HW133467   4.995   6.974   6.195
10856SOL    HW233468   5.004   6.902   6.341
10857SOL     OW33469   6.601   6.716   4.885
10857SOL    HW133470   6.615   6.808   4.848
10857SOL    HW233471   6.607   6.719   4.985
10858SOL     OW33472   2.049   2.648   0.818
10858SOL    HW133473   1.954   2.670   0.795
10858SOL    HW233474   2.053   2.622   0.915
10859SOL     OW33475   2.632   5.761   1.741
10859SOL    HW133476   2.699   5.833   1.722
10859SOL    HW233477   2.604   5.717   1.656
10860SOL     OW33478   5.599   1.529   1.284
10860SOL    HW133479   5.631   1.512   1.378
10860SOL    HW233480   5.501   1.550   1.286
10861SOL     OW33481   2.205   4.756   0.892
10861SOL    HW133482   2.262   4.797   0.964
10861SOL    HW233483   2.181   4.663   0.917
10862SOL     OW33484   3.863   4.561   5.287
10862SOL    HW133485   3.832   4.467   5.272
10862SOL    HW233486   3.790   4.614   5.329
10863SOL     OW33487   0.503   6.834   3.455
10863SOL    HW133488   0.463   6.774   3.386
10863SOL    HW233489   0.480   6.929   3.433
10864SOL     OW33490   2.935   3.714   2.710
10864SOL    HW133491   2.970   3.805   2.690
10864SOL    HW233492   2.967   3.684   2.800
10865SOL     OW33493   3.102   2.149   2.384
10865SOL    HW133494   3.070   2.067   2.337
10865SOL    HW233495   3.051   2.229   2.351
10866SOL     OW33496   0.302   3.443   4.966
10866SOL    HW133497   0.364   3.505   5.014
10866SOL    HW233498   0.261   3.491   4.889
10867SOL     OW33499   4.815   2.719   0.426
10867SOL    HW133500   4.890   2.676   0.375
10867SOL    HW233501   4.821   2.693   0.522
10868SOL     OW33502   0.739   6.705   5.848
10868SOL    HW133503   0.648   6.686   5.884
10868SOL    HW233504   0.733   6.726   5.750
10869NA      NA33505   6.974   0.841   6.895
10870NA      NA33506   4.724   4.681   4.997
10871NA      NA33507   0.843   4.700   2.983
10872NA      NA33508   6.223   3.517   3.525
10873NA      NA33509   4.307   2.269   5.159
10874NA      NA33510   2.381   3.541   6.988
10875NA      NA33511   1.648   5.360   0.265
10876NA      NA33512   4.200   5.123   2.092
10877NA      NA33513   5.308   3.618   1.204
10878NA      NA33514   3.727   1.897   0.540
10879NA      NA33515   5.208   6.330   1.449
10880NA      NA33516   2.786   6.270   4.441
10881NA      NA33517   3.243   5.564   2.712
10882NA      NA33518   4.219   4.832   6.051
   7.02259   7.02259   7.02259
