Generated by trjconv : CNT in water t= 570.00000
33518
    1C        C    1   2.844   2.764   4.746
    1C        C    2   2.899   2.719   4.868
    1C        C    3   2.836   2.767   4.983
    1C        C    4   2.848   2.774   4.260
    1C        C    5   2.901   2.727   4.382
    1C        C    6   2.849   2.775   4.504
    1C        C    7   3.014   2.639   4.624
    1C        C    8   2.898   2.719   4.624
    1C        C    9   3.078   2.605   4.746
    1C        C   10   3.009   2.630   4.866
    1C        C   11   3.185   2.491   4.978
    1C        C   12   3.062   2.559   4.975
    1C        C   13   2.850   2.772   3.771
    1C        C   14   2.903   2.726   3.894
    1C        C   15   2.849   2.776   4.014
    1C        C   16   3.016   2.647   4.138
    1C        C   17   2.901   2.729   4.137
    1C        C   18   3.081   2.616   4.259
    1C        C   19   3.021   2.652   4.382
    1C        C   20   3.209   2.552   4.504
    1C        C   21   3.080   2.608   4.503
    1C        C   22   3.279   2.533   4.626
    1C        C   23   3.210   2.552   4.747
    1C        C   24   3.413   2.483   4.866
    1C        C   25   3.271   2.502   4.865
    1C        C   26   3.491   2.480   4.983
    1C        C   27   2.853   2.775   3.282
    1C        C   28   2.908   2.730   3.404
    1C        C   29   2.857   2.777   3.527
    1C        C   30   3.018   2.640   3.649
    1C        C   31   2.905   2.725   3.650
    1C        C   32   3.079   2.607   3.772
    1C        C   33   3.017   2.642   3.894
    1C        C   34   3.208   2.554   4.016
    1C        C   35   3.077   2.607   4.017
    1C        C   36   3.277   2.537   4.138
    1C        C   37   3.212   2.563   4.261
    1C        C   38   3.417   2.509   4.381
    1C        C   39   3.278   2.535   4.382
    1C        C   40   3.488   2.500   4.503
    1C        C   41   3.417   2.503   4.625
    1C        C   42   3.630   2.483   4.744
    1C        C   43   3.488   2.482   4.745
    1C        C   44   3.705   2.487   4.863
    1C        C   45   3.630   2.479   4.982
    1C        C   46   2.842   2.755   2.795
    1C        C   47   2.900   2.715   2.917
    1C        C   48   2.848   2.765   3.039
    1C        C   49   3.013   2.633   3.162
    1C        C   50   2.903   2.721   3.161
    1C        C   51   3.078   2.603   3.284
    1C        C   52   3.019   2.643   3.406
    1C        C   53   3.207   2.543   3.529
    1C        C   54   3.078   2.602   3.527
    1C        C   55   3.275   2.518   3.650
    1C        C   56   3.207   2.546   3.770
    1C        C   57   3.413   2.507   3.895
    1C        C   58   3.274   2.529   3.893
    1C        C   59   3.486   2.502   4.016
    1C        C   60   3.416   2.512   4.138
    1C        C   61   3.629   2.497   4.261
    1C        C   62   3.488   2.498   4.259
    1C        C   63   3.702   2.506   4.381
    1C        C   64   3.629   2.502   4.502
    1C        C   65   3.838   2.542   4.621
    1C        C   66   3.701   2.508   4.624
    1C        C   67   3.908   2.563   4.741
    1C        C   68   3.841   2.526   4.859
    1C        C   69   4.051   2.584   4.978
    1C        C   70   3.921   2.533   4.974
    1C        C   71   2.828   2.739   2.307
    1C        C   72   2.883   2.691   2.428
    1C        C   73   2.837   2.744   2.550
    1C        C   74   3.012   2.627   2.673
    1C        C   75   2.893   2.704   2.674
    1C        C   76   3.073   2.594   2.796
    1C        C   77   3.013   2.631   2.918
    1C        C   78   3.205   2.541   3.037
    1C        C   79   3.076   2.598   3.041
    1C        C   80   3.275   2.530   3.160
    1C        C   81   3.211   2.553   3.283
    1C        C   82   3.413   2.497   3.404
    1C        C   83   3.274   2.523   3.406
    1C        C   84   3.484   2.493   3.526
    1C        C   85   3.415   2.499   3.650
    1C        C   86   3.625   2.499   3.768
    1C        C   87   3.484   2.497   3.773
    1C        C   88   3.695   2.507   3.891
    1C        C   89   3.627   2.502   4.015
    1C        C   90   3.833   2.545   4.135
    1C        C   91   3.697   2.507   4.137
    1C        C   92   3.904   2.568   4.255
    1C        C   93   3.839   2.540   4.377
    1C        C   94   4.030   2.633   4.499
    1C        C   95   3.905   2.567   4.499
    1C        C   96   4.088   2.676   4.620
    1C        C   97   4.033   2.631   4.742
    1C        C   98   4.194   2.764   4.861
    1C        C   99   4.103   2.653   4.864
    1C        C  100   4.216   2.843   4.975
    1C        C  101   2.820   2.732   2.070
    1C        C  102   2.995   2.599   2.190
    1C        C  103   2.879   2.682   2.187
    1C        C  104   3.065   2.572   2.311
    1C        C  105   3.003   2.616   2.430
    1C        C  106   3.198   2.528   2.551
    1C        C  107   3.068   2.585   2.551
    1C        C  108   3.269   2.514   2.672
    1C        C  109   3.202   2.537   2.794
    1C        C  110   3.411   2.491   2.915
    1C        C  111   3.271   2.514   2.915
    1C        C  112   3.482   2.488   3.037
    1C        C  113   3.413   2.501   3.160
    1C        C  114   3.625   2.495   3.278
    1C        C  115   3.483   2.493   3.282
    1C        C  116   3.695   2.503   3.400
    1C        C  117   3.625   2.497   3.522
    1C        C  118   3.831   2.542   3.646
    1C        C  119   3.694   2.505   3.645
    1C        C  120   3.897   2.567   3.768
    1C        C  121   3.832   2.543   3.891
    1C        C  122   4.022   2.638   4.014
    1C        C  123   3.900   2.567   4.013
    1C        C  124   4.086   2.673   4.135
    1C        C  125   4.032   2.629   4.258
    1C        C  126   4.194   2.771   4.379
    1C        C  127   4.092   2.673   4.378
    1C        C  128   4.246   2.821   4.500
    1C        C  129   4.194   2.769   4.621
    1C        C  130   4.330   2.936   4.739
    1C        C  131   4.247   2.820   4.742
    1C        C  132   4.353   3.003   4.861
    1C        C  133   4.286   2.963   4.978
    1C        C  134   3.176   2.471   2.078
    1C        C  135   3.042   2.511   2.086
    1C        C  136   3.261   2.480   2.189
    1C        C  137   3.197   2.519   2.308
    1C        C  138   3.405   2.482   2.429
    1C        C  139   3.265   2.499   2.430
    1C        C  140   3.480   2.481   2.549
    1C        C  141   3.409   2.491   2.670
    1C        C  142   3.621   2.487   2.792
    1C        C  143   3.480   2.486   2.792
    1C        C  144   3.694   2.500   2.912
    1C        C  145   3.623   2.494   3.034
    1C        C  146   3.831   2.539   3.154
    1C        C  147   3.695   2.502   3.156
    1C        C  148   3.897   2.564   3.277
    1C        C  149   3.831   2.541   3.400
    1C        C  150   4.021   2.631   3.523
    1C        C  151   3.896   2.565   3.523
    1C        C  152   4.076   2.676   3.645
    1C        C  153   4.018   2.641   3.769
    1C        C  154   4.187   2.769   3.888
    1C        C  155   4.077   2.679   3.891
    1C        C  156   4.241   2.818   4.009
    1C        C  157   4.194   2.765   4.131
    1C        C  158   4.337   2.920   4.252
    1C        C  159   4.244   2.813   4.254
    1C        C  160   4.379   2.982   4.372
    1C        C  161   4.335   2.930   4.495
    1C        C  162   4.438   3.117   4.614
    1C        C  163   4.372   2.992   4.617
    1C        C  164   4.461   3.184   4.735
    1C        C  165   4.429   3.122   4.858
    1C        C  166   4.522   3.317   4.969
    1C        C  167   4.476   3.186   4.973
    1C        C  168   3.477   2.437   2.074
    1C        C  169   3.402   2.464   2.189
    1C        C  170   3.619   2.463   2.307
    1C        C  171   3.477   2.462   2.309
    1C        C  172   3.692   2.487   2.426
    1C        C  173   3.621   2.484   2.548
    1C        C  174   3.826   2.537   2.665
    1C        C  175   3.692   2.494   2.670
    1C        C  176   3.893   2.561   2.788
    1C        C  177   3.830   2.538   2.912
    1C        C  178   4.025   2.625   3.032
    1C        C  179   3.900   2.560   3.033
    1C        C  180   4.080   2.669   3.155
    1C        C  181   4.022   2.630   3.277
    1C        C  182   4.188   2.759   3.396
    1C        C  183   4.082   2.666   3.400
    1C        C  184   4.239   2.809   3.518
    1C        C  185   4.187   2.763   3.642
    1C        C  186   4.327   2.922   3.765
    1C        C  187   4.236   2.814   3.764
    1C        C  188   4.374   2.982   3.884
    1C        C  189   4.332   2.926   4.007
    1C        C  190   4.447   3.102   4.127
    1C        C  191   4.376   2.980   4.130
    1C        C  192   4.470   3.170   4.249
    1C        C  193   4.446   3.106   4.373
    1C        C  194   4.510   3.315   4.490
    1C        C  195   4.466   3.181   4.491
    1C        C  196   4.518   3.388   4.611
    1C        C  197   4.501   3.321   4.734
    1C        C  198   4.553   3.535   4.854
    1C        C  199   4.531   3.394   4.853
    1C        C  200   4.574   3.620   4.967
    1C        C  201   3.616   2.419   2.072
    1C        C  202   3.824   2.516   2.183
    1C        C  203   3.693   2.459   2.185
    1C        C  204   3.898   2.541   2.302
    1C        C  205   3.829   2.523   2.423
    1C        C  206   4.022   2.617   2.542
    1C        C  207   3.897   2.550   2.544
    1C        C  208   4.079   2.662   2.663
    1C        C  209   4.019   2.626   2.785
    1C        C  210   4.194   2.747   2.907
    1C        C  211   4.082   2.661   2.907
    1C        C  212   4.244   2.799   3.028
    1C        C  213   4.194   2.752   3.151
    1C        C  214   4.330   2.915   3.273
    1C        C  215   4.241   2.805   3.274
    1C        C  216   4.368   2.974   3.395
    1C        C  217   4.329   2.917   3.519
    1C        C  218   4.435   3.101   3.639
    1C        C  219   4.370   2.975   3.641
    1C        C  220   4.467   3.168   3.759
    1C        C  221   4.440   3.106   3.883
    1C        C  222   4.504   3.306   4.003
    1C        C  223   4.474   3.168   4.005
    1C        C  224   4.513   3.378   4.124
    1C        C  225   4.506   3.307   4.246
    1C        C  226   4.525   3.522   4.369
    1C        C  227   4.524   3.380   4.365
    1C        C  228   4.520   3.598   4.487
    1C        C  229   4.531   3.529   4.610
    1C        C  230   4.503   3.741   4.727
    1C        C  231   4.537   3.603   4.730
    1C        C  232   4.497   3.821   4.843
    1C        C  233   4.540   3.756   4.960
    1C        C  234   4.016   2.612   2.062
    1C        C  235   3.896   2.541   2.065
    1C        C  236   4.085   2.648   2.178
    1C        C  237   4.024   2.608   2.299
    1C        C  238   4.200   2.732   2.421
    1C        C  239   4.084   2.649   2.420
    1C        C  240   4.252   2.786   2.541
    1C        C  241   4.194   2.744   2.663
    1C        C  242   4.338   2.901   2.784
    1C        C  243   4.247   2.794   2.785
    1C        C  244   4.377   2.963   2.905
    1C        C  245   4.332   2.910   3.028
    1C        C  246   4.444   3.091   3.148
    1C        C  247   4.375   2.968   3.150
    1C        C  248   4.461   3.162   3.269
    1C        C  249   4.431   3.100   3.393
    1C        C  250   4.502   3.300   3.513
    1C        C  251   4.460   3.165   3.515
    1C        C  252   4.511   3.371   3.635
    1C        C  253   4.504   3.305   3.759
    1C        C  254   4.527   3.517   3.877
    1C        C  255   4.517   3.376   3.881
    1C        C  256   4.523   3.588   3.998
    1C        C  257   4.523   3.519   4.121
    1C        C  258   4.496   3.727   4.243
    1C        C  259   4.524   3.589   4.244
    1C        C  260   4.476   3.802   4.361
    1C        C  261   4.495   3.737   4.485
    1C        C  262   4.430   3.942   4.603
    1C        C  263   4.480   3.810   4.605
    1C        C  264   4.400   4.010   4.723
    1C        C  265   4.434   3.947   4.845
    1C        C  266   4.319   4.133   4.960
    1C        C  267   4.393   4.015   4.960
    1C        C  268   4.269   2.771   2.065
    1C        C  269   4.196   2.736   2.180
    1C        C  270   4.346   2.889   2.300
    1C        C  271   4.256   2.779   2.300
    1C        C  272   4.380   2.958   2.419
    1C        C  273   4.341   2.896   2.539
    1C        C  274   4.449   3.080   2.662
    1C        C  275   4.381   2.956   2.661
    1C        C  276   4.475   3.150   2.781
    1C        C  277   4.449   3.084   2.903
    1C        C  278   4.508   3.290   3.025
    1C        C  279   4.473   3.153   3.024
    1C        C  280   4.508   3.365   3.145
    1C        C  281   4.497   3.298   3.269
    1C        C  282   4.521   3.509   3.390
    1C        C  283   4.516   3.368   3.390
    1C        C  284   4.519   3.584   3.510
    1C        C  285   4.522   3.512   3.632
    1C        C  286   4.491   3.723   3.754
    1C        C  287   4.521   3.585   3.753
    1C        C  288   4.475   3.791   3.877
    1C        C  289   4.495   3.727   4.001
    1C        C  290   4.430   3.931   4.118
    1C        C  291   4.478   3.798   4.122
    1C        C  292   4.397   3.996   4.239
    1C        C  293   4.427   3.935   4.362
    1C        C  294   4.326   4.127   4.479
    1C        C  295   4.399   4.006   4.481
    1C        C  296   4.284   4.188   4.600
    1C        C  297   4.328   4.132   4.722
    1C        C  298   4.203   4.315   4.837
    1C        C  299   4.284   4.197   4.840
    1C        C  300   4.163   4.398   4.946
    1C        C  301   4.354   2.881   2.061
    1C        C  302   4.467   3.068   2.175
    1C        C  303   4.397   2.943   2.179
    1C        C  304   4.483   3.143   2.295
    1C        C  305   4.451   3.080   2.418
    1C        C  306   4.510   3.282   2.535
    1C        C  307   4.479   3.145   2.540
    1C        C  308   4.515   3.356   2.656
    1C        C  309   4.508   3.288   2.779
    1C        C  310   4.526   3.499   2.898
    1C        C  311   4.521   3.358   2.901
    1C        C  312   4.523   3.573   3.018
    1C        C  313   4.518   3.506   3.143
    1C        C  314   4.487   3.714   3.263
    1C        C  315   4.512   3.575   3.266
    1C        C  316   4.477   3.786   3.384
    1C        C  317   4.493   3.723   3.509
    1C        C  318   4.423   3.922   3.626
    1C        C  319   4.473   3.790   3.631
    1C        C  320   4.387   3.983   3.749
    1C        C  321   4.418   3.920   3.872
    1C        C  322   4.316   4.105   3.991
    1C        C  323   4.396   3.989   3.994
    1C        C  324   4.271   4.162   4.112
    1C        C  325   4.321   4.116   4.236
    1C        C  326   4.185   4.282   4.353
    1C        C  327   4.286   4.182   4.355
    1C        C  328   4.133   4.335   4.473
    1C        C  329   4.188   4.291   4.595
    1C        C  330   4.024   4.432   4.714
    1C        C  331   4.142   4.352   4.714
    1C        C  332   3.969   4.493   4.828
    1C        C  333   4.046   4.476   4.944
    1C        C  334   4.550   3.266   2.064
    1C        C  335   4.535   3.127   2.064
    1C        C  336   4.538   3.351   2.175
    1C        C  337   4.517   3.281   2.295
    1C        C  338   4.526   3.497   2.411
    1C        C  339   4.522   3.355   2.415
    1C        C  340   4.523   3.570   2.532
    1C        C  341   4.519   3.497   2.653
    1C        C  342   4.494   3.707   2.775
    1C        C  343   4.513   3.567   2.775
    1C        C  344   4.475   3.779   2.895
    1C        C  345   4.494   3.711   3.017
    1C        C  346   4.422   3.912   3.137
    1C        C  347   4.471   3.779   3.138
    1C        C  348   4.390   3.978   3.258
    1C        C  349   4.429   3.919   3.380
    1C        C  350   4.316   4.099   3.503
    1C        C  351   4.397   3.984   3.502
    1C        C  352   4.272   4.160   3.623
    1C        C  353   4.314   4.104   3.746
    1C        C  354   4.170   4.259   3.867
    1C        C  355   4.268   4.157   3.868
    1C        C  356   4.118   4.310   3.988
    1C        C  357   4.173   4.264   4.110
    1C        C  358   4.007   4.396   4.230
    1C        C  359   4.124   4.317   4.231
    1C        C  360   3.947   4.442   4.350
    1C        C  361   4.016   4.415   4.471
    1C        C  362   3.829   4.516   4.593
    1C        C  363   3.956   4.454   4.592
    1C        C  364   3.762   4.550   4.712
    1C        C  365   3.839   4.548   4.831
    1C        C  366   3.627   4.594   4.949
    1C        C  367   3.764   4.571   4.947
    1C        C  368   4.507   3.564   2.052
    1C        C  369   4.528   3.492   2.170
    1C        C  370   4.498   3.707   2.288
    1C        C  371   4.519   3.567   2.289
    1C        C  372   4.487   3.777   2.410
    1C        C  373   4.499   3.710   2.533
    1C        C  374   4.428   3.912   2.647
    1C        C  375   4.479   3.780   2.654
    1C        C  376   4.395   3.976   2.769
    1C        C  377   4.423   3.911   2.891
    1C        C  378   4.312   4.090   3.013
    1C        C  379   4.390   3.973   3.014
    1C        C  380   4.269   4.150   3.133
    1C        C  381   4.308   4.093   3.257
    1C        C  382   4.168   4.250   3.378
    1C        C  383   4.267   4.148   3.380
    1C        C  384   4.115   4.297   3.500
    1C        C  385   4.171   4.259   3.623
    1C        C  386   3.999   4.384   3.744
    1C        C  387   4.116   4.305   3.745
    1C        C  388   3.937   4.422   3.865
    1C        C  389   4.003   4.390   3.987
    1C        C  390   3.817   4.492   4.109
    1C        C  391   3.943   4.428   4.109
    1C        C  392   3.749   4.518   4.230
    1C        C  393   3.820   4.503   4.351
    1C        C  394   3.617   4.561   4.472
    1C        C  395   3.755   4.533   4.473
    1C        C  396   3.546   4.571   4.594
    1C        C  397   3.621   4.566   4.713
    1C        C  398   3.410   4.554   4.838
    1C        C  399   3.549   4.582   4.833
    1C        C  400   3.343   4.527   4.958
    1C        C  401   4.502   3.703   2.051
    1C        C  402   4.452   3.916   2.164
    1C        C  403   4.491   3.780   2.167
    1C        C  404   4.409   3.977   2.284
    1C        C  405   4.433   3.907   2.405
    1C        C  406   4.324   4.095   2.525
    1C        C  407   4.398   3.974   2.525
    1C        C  408   4.271   4.145   2.645
    1C        C  409   4.312   4.090   2.769
    1C        C  410   4.167   4.246   2.892
    1C        C  411   4.265   4.144   2.891
    1C        C  412   4.118   4.298   3.013
    1C        C  413   4.172   4.253   3.135
    1C        C  414   3.997   4.374   3.254
    1C        C  415   4.118   4.301   3.256
    1C        C  416   3.938   4.412   3.376
    1C        C  417   3.999   4.378   3.499
    1C        C  418   3.811   4.479   3.620
    1C        C  419   3.938   4.417   3.621
    1C        C  420   3.745   4.508   3.741
    1C        C  421   3.809   4.480   3.865
    1C        C  422   3.609   4.543   3.984
    1C        C  423   3.746   4.510   3.988
    1C        C  424   3.541   4.552   4.108
    1C        C  425   3.611   4.550   4.230
    1C        C  426   3.401   4.557   4.354
    1C        C  427   3.542   4.564   4.353
    1C        C  428   3.332   4.551   4.477
    1C        C  429   3.405   4.565   4.597
    1C        C  430   3.196   4.525   4.719
    1C        C  431   3.335   4.554   4.719
    1C        C  432   3.126   4.494   4.839
    1C        C  433   3.208   4.492   4.952
    1C        C  434   4.380   4.123   2.050
    1C        C  435   4.441   3.996   2.050
    1C        C  436   4.302   4.163   2.163
    1C        C  437   4.333   4.097   2.286
    1C        C  438   4.180   4.252   2.404
    1C        C  439   4.284   4.156   2.404
    1C        C  440   4.122   4.295   2.525
    1C        C  441   4.172   4.246   2.647
    1C        C  442   4.001   4.374   2.769
    1C        C  443   4.115   4.290   2.768
    1C        C  444   3.940   4.416   2.889
    1C        C  445   4.002   4.379   3.011
    1C        C  446   3.806   4.466   3.132
    1C        C  447   3.934   4.407   3.132
    1C        C  448   3.743   4.499   3.254
    1C        C  449   3.813   4.479   3.375
    1C        C  450   3.609   4.539   3.494
    1C        C  451   3.745   4.499   3.497
    1C        C  452   3.541   4.552   3.617
    1C        C  453   3.608   4.543   3.741
    1C        C  454   3.397   4.558   3.864
    1C        C  455   3.538   4.558   3.863
    1C        C  456   3.329   4.547   3.987
    1C        C  457   3.400   4.555   4.109
    1C        C  458   3.193   4.512   4.235
    1C        C  459   3.330   4.546   4.232
    1C        C  460   3.128   4.486   4.358
    1C        C  461   3.195   4.516   4.479
    1C        C  462   3.000   4.430   4.603
    1C        C  463   3.126   4.496   4.600
    1C        C  464   2.931   4.403   4.723
    1C        C  465   2.992   4.444   4.845
    1C        C  466   2.801   4.336   4.959
    1C        C  467   2.907   4.428   4.959
    1C        C  468   4.125   4.285   2.041
    1C        C  469   4.190   4.252   2.160
    1C        C  470   4.005   4.369   2.278
    1C        C  471   4.125   4.292   2.280
    1C        C  472   3.939   4.398   2.399
    1C        C  473   4.001   4.370   2.523
    1C        C  474   3.811   4.461   2.645
    1C        C  475   3.942   4.409   2.645
    1C        C  476   3.743   4.494   2.764
    1C        C  477   3.810   4.470   2.886
    1C        C  478   3.605   4.524   3.011
    1C        C  479   3.742   4.490   3.008
    1C        C  480   3.534   4.536   3.133
    1C        C  481   3.606   4.531   3.254
    1C        C  482   3.393   4.538   3.377
    1C        C  483   3.534   4.544   3.375
    1C        C  484   3.326   4.537   3.501
    1C        C  485   3.399   4.550   3.621
    1C        C  486   3.190   4.511   3.747
    1C        C  487   3.327   4.548   3.742
    1C        C  488   3.125   4.485   3.870
    1C        C  489   3.193   4.507   3.991
    1C        C  490   3.004   4.414   4.115
    1C        C  491   3.127   4.482   4.114
    1C        C  492   2.941   4.385   4.238
    1C        C  493   3.000   4.427   4.360
    1C        C  494   2.827   4.305   4.484
    1C        C  495   2.939   4.390   4.482
    1C        C  496   2.772   4.255   4.604
    1C        C  497   2.821   4.313   4.723
    1C        C  498   2.667   4.163   4.844
    1C        C  499   2.759   4.271   4.843
    1C        C  500   2.602   4.113   4.957
    1C        C  501   4.002   4.350   2.043
    1C        C  502   3.811   4.458   2.161
    1C        C  503   3.941   4.402   2.157
    1C        C  504   3.741   4.479   2.282
    1C        C  505   3.810   4.456   2.403
    1C        C  506   3.604   4.512   2.520
    1C        C  507   3.741   4.480   2.523
    1C        C  508   3.534   4.525   2.642
    1C        C  509   3.604   4.522   2.765
    1C        C  510   3.394   4.524   2.887
    1C        C  511   3.535   4.528   2.888
    1C        C  512   3.324   4.521   3.009
    1C        C  513   3.393   4.541   3.131
    1C        C  514   3.185   4.504   3.256
    1C        C  515   3.323   4.535   3.254
    1C        C  516   3.121   4.477   3.379
    1C        C  517   3.189   4.503   3.500
    1C        C  518   3.003   4.412   3.623
    1C        C  519   3.126   4.482   3.625
    1C        C  520   2.945   4.374   3.747
    1C        C  521   3.004   4.412   3.869
    1C        C  522   2.837   4.285   3.994
    1C        C  523   2.946   4.374   3.992
    1C        C  524   2.791   4.236   4.118
    1C        C  525   2.836   4.291   4.241
    1C        C  526   2.704   4.127   4.361
    1C        C  527   2.787   4.242   4.364
    1C        C  528   2.663   4.071   4.484
    1C        C  529   2.692   4.139   4.604
    1C        C  530   2.589   3.957   4.730
    1C        C  531   2.643   4.089   4.727
    1C        C  532   2.542   3.901   4.852
    1C        C  533   2.522   3.997   4.956
    1C        C  534   3.617   4.555   2.043
    1C        C  535   3.750   4.512   2.047
    1C        C  536   3.532   4.538   2.157
    1C        C  537   3.604   4.517   2.278
    1C        C  538   3.391   4.530   2.398
    1C        C  539   3.533   4.525   2.399
    1C        C  540   3.323   4.522   2.521
    1C        C  541   3.393   4.524   2.644
    1C        C  542   3.183   4.491   2.765
    1C        C  543   3.321   4.523   2.766
    1C        C  544   3.118   4.468   2.888
    1C        C  545   3.186   4.493   3.009
    1C        C  546   3.001   4.399   3.134
    1C        C  547   3.122   4.473   3.133
    1C        C  548   2.943   4.363   3.258
    1C        C  549   2.998   4.408   3.380
    1C        C  550   2.833   4.280   3.507
    1C        C  551   2.939   4.373   3.504
    1C        C  552   2.783   4.232   3.630
    1C        C  553   2.835   4.285   3.750
    1C        C  554   2.707   4.117   3.874
    1C        C  555   2.789   4.231   3.872
    1C        C  556   2.666   4.061   3.997
    1C        C  557   2.708   4.122   4.117
    1C        C  558   2.602   3.939   4.245
    1C        C  559   2.670   4.063   4.240
    1C        C  560   2.570   3.876   4.367
    1C        C  561   2.596   3.947   4.486
    1C        C  562   2.531   3.750   4.618
    1C        C  563   2.564   3.887   4.610
    1C        C  564   2.518   3.681   4.741
    1C        C  565   2.519   3.760   4.859
    1C        C  566   2.531   3.550   4.979
    1C        C  567   2.520   3.688   4.979
    1C        C  568   3.324   4.472   2.040
    1C        C  569   3.393   4.510   2.156
    1C        C  570   3.183   4.473   2.281
    1C        C  571   3.320   4.513   2.278
    1C        C  572   3.115   4.455   2.404
    1C        C  573   3.186   4.489   2.521
    1C        C  574   2.993   4.397   2.647
    1C        C  575   3.117   4.465   2.643
    1C        C  576   2.935   4.356   2.768
    1C        C  577   2.997   4.396   2.889
    1C        C  578   2.830   4.271   3.019
    1C        C  579   2.939   4.361   3.013
    1C        C  580   2.782   4.220   3.141
    1C        C  581   2.837   4.270   3.261
    1C        C  582   2.706   4.109   3.386
    1C        C  583   2.789   4.223   3.385
    1C        C  584   2.667   4.051   3.510
    1C        C  585   2.700   4.117   3.630
    1C        C  586   2.600   3.931   3.755
    1C        C  587   2.666   4.056   3.753
    1C        C  588   2.575   3.868   3.879
    1C        C  589   2.603   3.934   4.001
    1C        C  590   2.535   3.737   4.128
    1C        C  591   2.570   3.874   4.124
    1C        C  592   2.521   3.669   4.251
    1C        C  593   2.533   3.739   4.373
    1C        C  594   2.509   3.535   4.498
    1C        C  595   2.521   3.676   4.498
    1C        C  596   2.517   3.466   4.621
    1C        C  597   2.515   3.539   4.742
    1C        C  598   2.535   3.328   4.862
    1C        C  599   2.529   3.469   4.864
    1C        C  600   2.531   3.248   4.977
    1C        C  601   3.189   4.440   2.043
    1C        C  602   2.982   4.386   2.158
    1C        C  603   3.115   4.439   2.162
    1C        C  604   2.927   4.356   2.285
    1C        C  605   2.989   4.392   2.407
    1C        C  606   2.815   4.271   2.530
    1C        C  607   2.926   4.359   2.529
    1C        C  608   2.767   4.223   2.653
    1C        C  609   2.820   4.274   2.774
    1C        C  610   2.690   4.111   2.894
    1C        C  611   2.773   4.225   2.898
    1C        C  612   2.656   4.052   3.018
    1C        C  613   2.696   4.107   3.141
    1C        C  614   2.594   3.926   3.266
    1C        C  615   2.661   4.050   3.265
    1C        C  616   2.568   3.863   3.390
    1C        C  617   2.601   3.926   3.512
    1C        C  618   2.530   3.729   3.639
    1C        C  619   2.568   3.865   3.634
    1C        C  620   2.516   3.661   3.762
    1C        C  621   2.533   3.733   3.882
    1C        C  622   2.508   3.526   4.011
    1C        C  623   2.522   3.666   4.006
    1C        C  624   2.509   3.453   4.132
    1C        C  625   2.511   3.528   4.252
    1C        C  626   2.536   3.323   4.381
    1C        C  627   2.512   3.462   4.377
    1C        C  628   2.554   3.252   4.502
    1C        C  629   2.539   3.326   4.621
    1C        C  630   2.596   3.120   4.745
    1C        C  631   2.551   3.255   4.743
    1C        C  632   2.616   3.049   4.867
    1C        C  633   2.568   3.113   4.985
    1C        C  634   2.779   4.303   2.054
    1C        C  635   2.894   4.384   2.045
    1C        C  636   2.748   4.228   2.168
    1C        C  637   2.813   4.271   2.286
    1C        C  638   2.678   4.108   2.411
    1C        C  639   2.764   4.220   2.408
    1C        C  640   2.642   4.045   2.532
    1C        C  641   2.685   4.108   2.652
    1C        C  642   2.588   3.921   2.778
    1C        C  643   2.648   4.049   2.775
    1C        C  644   2.564   3.856   2.902
    1C        C  645   2.595   3.924   3.021
    1C        C  646   2.528   3.724   3.147
    1C        C  647   2.570   3.859   3.144
    1C        C  648   2.512   3.658   3.271
    1C        C  649   2.524   3.729   3.392
    1C        C  650   2.507   3.521   3.520
    1C        C  651   2.514   3.662   3.516
    1C        C  652   2.506   3.450   3.642
    1C        C  653   2.502   3.520   3.765
    1C        C  654   2.530   3.314   3.891
    1C        C  655   2.507   3.454   3.889
    1C        C  656   2.544   3.245   4.013
    1C        C  657   2.532   3.314   4.136
    1C        C  658   2.605   3.120   4.261
    1C        C  659   2.553   3.251   4.261
    1C        C  660   2.633   3.055   4.383
    1C        C  661   2.602   3.120   4.505
    1C        C  662   2.711   2.935   4.628
    1C        C  663   2.634   3.054   4.626
    1C        C  664   2.753   2.874   4.748
    1C        C  665   2.698   2.931   4.865
    1C        C  666   2.733   2.860   4.981
    1C        C  667   2.679   4.022   2.056
    1C        C  668   2.685   4.102   2.170
    1C        C  669   2.586   3.912   2.291
    1C        C  670   2.644   4.042   2.291
    1C        C  671   2.557   3.849   2.414
    1C        C  672   2.582   3.917   2.535
    1C        C  673   2.524   3.716   2.659
    1C        C  674   2.561   3.852   2.658
    1C        C  675   2.512   3.649   2.783
    1C        C  676   2.528   3.719   2.905
    1C        C  677   2.507   3.510   3.030
    1C        C  678   2.515   3.651   3.027
    1C        C  679   2.511   3.443   3.154
    1C        C  680   2.507   3.516   3.275
    1C        C  681   2.535   3.309   3.401
    1C        C  682   2.511   3.448   3.399
    1C        C  683   2.556   3.243   3.524
    1C        C  684   2.531   3.311   3.646
    1C        C  685   2.599   3.113   3.772
    1C        C  686   2.550   3.245   3.769
    1C        C  687   2.638   3.054   3.894
    1C        C  688   2.603   3.117   4.016
    1C        C  689   2.711   2.937   4.140
    1C        C  690   2.633   3.055   4.139
    1C        C  691   2.754   2.879   4.262
    1C        C  692   2.711   2.937   4.384
    1C        C  693   2.755   2.880   4.505
    1C        C  694   2.630   3.891   2.055
    1C        C  695   2.530   3.703   2.173
    1C        C  696   2.578   3.835   2.173
    1C        C  697   2.507   3.638   2.297
    1C        C  698   2.521   3.712   2.416
    1C        C  699   2.493   3.503   2.542
    1C        C  700   2.508   3.643   2.539
    1C        C  701   2.500   3.436   2.666
    1C        C  702   2.494   3.509   2.787
    1C        C  703   2.528   3.299   2.911
    1C        C  704   2.501   3.437   2.909
    1C        C  705   2.541   3.230   3.034
    1C        C  706   2.527   3.303   3.155
    1C        C  707   2.595   3.106   3.279
    1C        C  708   2.546   3.239   3.279
    1C        C  709   2.632   3.048   3.402
    1C        C  710   2.606   3.111   3.526
    1C        C  711   2.713   2.933   3.649
    1C        C  712   2.632   3.048   3.650
    1C        C  713   2.758   2.879   3.772
    1C        C  714   2.713   2.934   3.894
    1C        C  715   2.754   2.881   4.018
    1C        C  716   2.447   3.500   2.062
    1C        C  717   2.489   3.634   2.058
    1C        C  718   2.467   3.423   2.181
    1C        C  719   2.482   3.498   2.301
    1C        C  720   2.517   3.289   2.426
    1C        C  721   2.486   3.427   2.423
    1C        C  722   2.541   3.223   2.548
    1C        C  723   2.524   3.297   2.668
    1C        C  724   2.597   3.098   2.789
    1C        C  725   2.542   3.228   2.790
    1C        C  726   2.627   3.035   2.912
    1C        C  727   2.592   3.098   3.033
    1C        C  728   2.706   2.924   3.158
    1C        C  729   2.627   3.041   3.157
    1C        C  730   2.755   2.877   3.282
    1C        C  731   2.714   2.933   3.405
    1C        C  732   2.758   2.877   3.527
    1C        C  733   2.492   3.201   2.069
    1C        C  734   2.488   3.282   2.183
    1C        C  735   2.583   3.088   2.306
    1C        C  736   2.523   3.217   2.305
    1C        C  737   2.612   3.019   2.426
    1C        C  738   2.588   3.090   2.546
    1C        C  739   2.702   2.912   2.668
    1C        C  740   2.624   3.030   2.668
    1C        C  741   2.744   2.857   2.791
    1C        C  742   2.705   2.917   2.912
    1C        C  743   2.750   2.867   3.036
    1C        C  744   2.540   3.070   2.072
    1C        C  745   2.686   2.903   2.187
    1C        C  746   2.608   3.021   2.184
    1C        C  747   2.736   2.847   2.307
    1C        C  748   2.686   2.899   2.428
    1C        C  749   2.740   2.847   2.548
    1C        C  750   2.730   2.838   2.071
    1C        C  751   3.641   2.310   1.975
    1C        O  752   3.694   2.204   2.019
    1C        O  753   3.652   2.334   1.838
    1C        C  754   4.630   3.057   1.975
    1C        O  755   4.607   3.041   1.852
    1C        O  756   4.756   3.005   2.006
    1C        C  757   4.458   4.225   1.977
    1C        O  758   4.571   4.268   2.013
    1C        O  759   4.458   4.235   1.837
    1C        C  760   3.580   4.651   1.936
    1C        O  761   3.648   4.756   1.919
    1C        O  762   3.504   4.617   1.824
    1C        C  763   2.863   4.507   1.968
    1C        O  764   2.885   4.513   1.844
    1C        O  765   2.804   4.621   2.023
    1C        C  766   2.333   3.463   1.976
    1C        O  767   2.343   3.432   1.854
    1C        O  768   2.197   3.485   2.002
    1C        C  769   4.692   3.597   5.054
    1C        O  770   4.689   3.558   5.174
    1C        O  771   4.815   3.563   4.997
    1C        C  772   4.260   4.448   5.046
    1C        O  773   4.254   4.426   5.170
    1C        O  774   4.331   4.567   5.025
    1C        C  775   4.141   2.492   5.051
    1C        O  776   4.137   2.366   5.042
    1C        O  777   4.235   2.529   5.147
    1C        C  778   2.878   4.538   5.053
    1C        O  779   2.894   4.658   5.016
    1C        O  780   2.935   4.517   5.179
    1C        C  781   2.512   3.040   5.100
    1C        O  782   2.420   2.954   5.090
    1C        O  783   2.516   3.092   5.229
    1C        C  784   2.381   4.016   4.998
    1C        O  785   2.281   4.052   4.930
    1C        O  786   2.349   4.032   5.133
    1C        C  787   2.959   2.443   1.985
    1C        O  788   2.970   2.464   1.861
    1C        O  789   2.884   2.333   2.023
    1C        C  790   3.192   2.371   5.065
    1C        O  791   3.169   2.251   5.033
    1C        O  792   3.179   2.394   5.202
    1C        H  793   4.294   3.019   5.068
    1C        H  794   4.169   2.815   5.067
    1C        H  795   4.494   3.124   5.059
    1C        H  796   4.550   3.360   5.063
    1C        H  797   4.523   3.804   5.054
    1C        H  798   4.465   4.013   5.040
    1C        H  799   4.285   4.176   5.051
    1C        H  800   4.047   4.561   5.010
    1C        H  801   3.809   4.563   5.044
    1C        H  802   3.582   4.604   5.045
    1C        H  803   3.397   4.528   5.050
    1C        H  804   3.155   4.495   5.045
    1C        H  805   3.894   2.463   5.050
    1C        H  806   3.676   2.436   5.068
    1C        H  807   2.999   2.546   5.060
    1C        H  808   3.449   2.493   5.080
    1C        H  809   2.898   2.782   5.070
    1C        H  810   2.700   2.889   5.078
    1C        H  811   2.478   3.290   5.061
    1C        H  812   2.533   3.502   5.075
    1C        H  813   2.494   3.737   5.071
    1C        H  814   2.655   4.124   5.049
    1C        H  815   2.746   4.314   5.049
    1C        H  816   2.675   2.856   1.981
    1C        H  817   2.847   2.689   1.976
    1C        H  818   3.217   2.439   1.984
    1C        H  819   3.434   2.479   1.985
    1C        H  820   3.886   2.468   1.987
    1C        H  821   4.044   2.647   1.965
    1C        H  822   4.283   2.697   1.990
    1C        H  823   4.334   2.948   1.980
    1C        H  824   4.616   3.305   1.989
    1C        H  825   4.534   3.520   1.959
    1C        H  826   4.456   3.744   1.964
    1C        H  827   3.811   4.537   1.962
    1C        H  828   3.936   4.310   1.969
    1C        H  829   4.191   4.310   1.960
    1C        H  830   4.500   3.969   1.965
    1C        H  831   2.672   3.823   1.983
    1C        H  832   2.753   4.044   1.982
    1C        H  833   2.698   4.323   1.986
    1C        H  834   3.370   4.466   1.944
    1C        H  835   3.130   4.460   1.956
    1C        H  836   2.508   2.998   2.000
    1C        H  837   2.436   3.227   1.981
    1C        H  838   2.452   3.697   1.980
    2V3OU   H29  839   2.798   3.552   6.142
    2V3OU   C27  840   2.776   3.505   6.241
    2V3OU   H27  841   2.727   3.572   6.316
    2V3OU   H28  842   2.726   3.405   6.232
    2V3OU   O11  843   2.905   3.476   6.296
    2V3OU   C15  844   2.921   3.396   6.408
    2V3OU   C13  845   3.054   3.368   6.444
    2V3OU   C14  846   3.072   3.262   6.534
    2V3OU   C16  847   2.970   3.186   6.590
    2V3OU    H6  848   2.988   3.096   6.651
    2V3OU   C12  849   3.211   3.227   6.568
    2V3OU    O2  850   3.234   3.118   6.625
    2V3OU   C10  851   3.326   3.310   6.527
    2V3OU    C8  852   3.456   3.272   6.557
    2V3OU   O10  853   3.485   3.156   6.621
    2V3OU   H26  854   3.407   3.121   6.667
    2V3OU    C6  855   3.566   3.350   6.509
    2V3OU    C5  856   3.542   3.468   6.438
    2V3OU    C4  857   3.704   3.295   6.516
    2V3OU    H4  858   3.725   3.230   6.606
    2V3OU    H5  859   3.710   3.224   6.428
    2V3OU    C2  860   3.815   3.400   6.501
    2V3OU    O6  861   3.808   3.480   6.620
    2V3OU   H21  862   3.763   3.555   6.577
    2V3OU    C3  863   3.786   3.497   6.386
    2V3OU    H2  864   3.866   3.574   6.376
    2V3OU    H3  865   3.786   3.439   6.290
    2V3OU   C25  866   3.946   3.322   6.489
    2V3OU    O7  867   3.995   3.295   6.380
    2V3OU   C26  868   4.025   3.290   6.615
    2V3OU   H22  869   4.057   3.386   6.665
    2V3OU   H23  870   4.114   3.227   6.590
    2V3OU    O8  871   3.964   3.208   6.713
    2V3OU   H24  872   3.926   3.267   6.781
    2V3OU    C1  873   3.650   3.564   6.397
    2V3OU    H1  874   3.627   3.613   6.298
    2V3OU    O3  875   3.656   3.662   6.501
    2V3OU   C19  876   3.612   3.795   6.472
    2V3OU    H9  877   3.527   3.812   6.401
    2V3OU    O4  878   3.714   3.850   6.391
    2V3OU   C20  879   3.845   3.876   6.441
    2V3OU   H10  880   3.889   3.772   6.443
    2V3OU   C24  881   3.606   3.862   6.610
    2V3OU   H16  882   3.538   3.807   6.679
    2V3OU   H17  883   3.567   3.966   6.593
    2V3OU   C23  884   3.744   3.881   6.673
    2V3OU   H15  885   3.782   3.775   6.690
    2V3OU    N1  886   3.733   3.958   6.795
    2V3OU   H19  887   3.802   3.922   6.858
    2V3OU   H20  888   3.642   3.940   6.833
    2V3OU   C21  889   3.850   3.945   6.577
    2V3OU   H11  890   3.955   3.927   6.615
    2V3OU    O5  891   3.828   4.085   6.568
    2V3OU   H18  892   3.776   4.104   6.648
    2V3OU   C22  893   3.919   3.947   6.328
    2V3OU   H12  894   3.866   4.042   6.303
    2V3OU   H13  895   3.904   3.889   6.233
    2V3OU   H14  896   4.027   3.954   6.354
    2V3OU   C11  897   3.161   3.466   6.421
    2V3OU    O1  898   3.131   3.578   6.374
    2V3OU    C9  899   3.300   3.428   6.452
    2V3OU    C7  900   3.408   3.503   6.406
    2V3OU    O9  901   3.394   3.616   6.328
    2V3OU   H25  902   3.299   3.633   6.320
    2V3OU   C17  903   2.820   3.312   6.460
    2V3OU    H7  904   2.720   3.343   6.429
    2V3OU   C18  905   2.839   3.207   6.549
    2V3OU    H8  906   2.758   3.144   6.589
    3SOL     OW  907   2.894   3.856   4.967
    3SOL    HW1  908   2.810   3.908   4.949
    3SOL    HW2  909   2.964   3.882   4.900
    4SOL     OW  910   1.258   0.348   0.821
    4SOL    HW1  911   1.291   0.434   0.859
    4SOL    HW2  912   1.309   0.272   0.861
    5SOL     OW  913   4.126   1.991   0.828
    5SOL    HW1  914   4.145   1.966   0.733
    5SOL    HW2  915   4.061   1.926   0.868
    6SOL     OW  916   3.485   1.770   2.213
    6SOL    HW1  917   3.451   1.698   2.152
    6SOL    HW2  918   3.512   1.849   2.158
    7SOL     OW  919   2.312   2.889   4.865
    7SOL    HW1  920   2.310   2.790   4.858
    7SOL    HW2  921   2.359   2.916   4.949
    8SOL     OW  922   1.258   1.869   6.136
    8SOL    HW1  923   1.202   1.787   6.144
    8SOL    HW2  924   1.314   1.863   6.054
    9SOL     OW  925   2.184   2.258   5.757
    9SOL    HW1  926   2.204   2.170   5.800
    9SOL    HW2  927   2.092   2.287   5.783
   10SOL     OW  928   5.712   5.326   1.024
   10SOL    HW1  929   5.635   5.264   1.043
   10SOL    HW2  930   5.685   5.420   1.043
   11SOL     OW  931   3.677   1.571   0.165
   11SOL    HW1  932   3.668   1.605   0.072
   11SOL    HW2  933   3.640   1.478   0.171
   12SOL     OW  934   5.542   4.878   1.222
   12SOL    HW1  935   5.515   4.956   1.279
   12SOL    HW2  936   5.462   4.843   1.174
   13SOL     OW  937   4.519   5.359   1.622
   13SOL    HW1  938   4.540   5.455   1.638
   13SOL    HW2  939   4.468   5.322   1.700
   14SOL     OW  940   4.507   5.586   0.975
   14SOL    HW1  941   4.407   5.586   0.971
   14SOL    HW2  942   4.544   5.582   0.882
   15SOL     OW  943   0.816   0.103   6.907
   15SOL    HW1  944   0.864   0.046   6.840
   15SOL    HW2  945   0.868   0.105   6.992
   16SOL     OW  946   2.332   5.263   5.628
   16SOL    HW1  947   2.313   5.238   5.723
   16SOL    HW2  948   2.246   5.272   5.578
   17SOL     OW  949   0.014   1.988   3.807
   17SOL    HW1  950   6.978   1.910   3.827
   17SOL    HW2  951   7.003   2.069   3.855
   18SOL     OW  952   2.803   0.423   5.687
   18SOL    HW1  953   2.871   0.353   5.668
   18SOL    HW2  954   2.759   0.452   5.602
   19SOL     OW  955   3.856   5.964   3.330
   19SOL    HW1  956   3.800   5.890   3.294
   19SOL    HW2  957   3.938   5.926   3.374
   20SOL     OW  958   0.450   1.799   4.986
   20SOL    HW1  959   0.442   1.804   4.887
   20SOL    HW2  960   0.434   1.890   5.025
   21SOL     OW  961   1.681   3.214   1.693
   21SOL    HW1  962   1.671   3.177   1.601
   21SOL    HW2  963   1.680   3.139   1.760
   22SOL     OW  964   0.796   1.074   0.270
   22SOL    HW1  965   0.832   0.981   0.271
   22SOL    HW2  966   0.787   1.108   0.364
   23SOL     OW  967   0.618   5.276   0.252
   23SOL    HW1  968   0.605   5.179   0.268
   23SOL    HW2  969   0.679   5.314   0.322
   24SOL     OW  970   4.839   0.742   0.357
   24SOL    HW1  971   4.766   0.810   0.359
   24SOL    HW2  972   4.828   0.678   0.433
   25SOL     OW  973   0.979   1.000   4.977
   25SOL    HW1  974   1.063   1.050   4.955
   25SOL    HW2  975   0.903   1.064   4.985
   26SOL     OW  976   2.056   6.824   5.606
   26SOL    HW1  977   1.964   6.842   5.642
   26SOL    HW2  978   2.077   6.727   5.617
   27SOL     OW  979   6.952   6.818   2.095
   27SOL    HW1  980   0.011   6.790   2.144
   27SOL    HW2  981   6.974   6.889   2.029
   28SOL     OW  982   1.843   0.586   5.184
   28SOL    HW1  983   1.882   0.504   5.226
   28SOL    HW2  984   1.885   0.667   5.224
   29SOL     OW  985   5.563   0.800   1.074
   29SOL    HW1  986   5.502   0.741   1.021
   29SOL    HW2  987   5.590   0.753   1.158
   30SOL     OW  988   4.442   6.924   4.637
   30SOL    HW1  989   4.538   6.914   4.663
   30SOL    HW2  990   4.383   6.895   4.712
   31SOL     OW  991   6.253   4.404   4.209
   31SOL    HW1  992   6.311   4.323   4.205
   31SOL    HW2  993   6.295   4.473   4.268
   32SOL     OW  994   3.432   1.014   1.184
   32SOL    HW1  995   3.467   0.922   1.170
   32SOL    HW2  996   3.384   1.019   1.271
   33SOL     OW  997   1.955   4.405   5.683
   33SOL    HW1  998   2.046   4.364   5.694
   33SOL    HW2  999   1.922   4.439   5.771
   34SOL     OW 1000   2.404   6.673   4.800
   34SOL    HW1 1001   2.494   6.701   4.833
   34SOL    HW2 1002   2.402   6.574   4.787
   35SOL     OW 1003   1.952   3.041   4.521
   35SOL    HW1 1004   1.975   3.122   4.575
   35SOL    HW2 1005   2.035   2.993   4.493
   36SOL     OW 1006   5.500   1.262   4.106
   36SOL    HW1 1007   5.540   1.262   4.198
   36SOL    HW2 1008   5.401   1.252   4.113
   37SOL     OW 1009   1.412   6.623   4.126
   37SOL    HW1 1010   1.352   6.693   4.165
   37SOL    HW2 1011   1.359   6.541   4.106
   38SOL     OW 1012   1.016   3.559   1.508
   38SOL    HW1 1013   0.981   3.645   1.547
   38SOL    HW2 1014   1.025   3.491   1.581
   39SOL     OW 1015   6.311   5.476   1.521
   39SOL    HW1 1016   6.291   5.415   1.598
   39SOL    HW2 1017   6.404   5.458   1.488
   40SOL     OW 1018   3.670   0.644   6.593
   40SOL    HW1 1019   3.581   0.600   6.604
   40SOL    HW2 1020   3.720   0.601   6.518
   41SOL     OW 1021   6.799   3.231   1.379
   41SOL    HW1 1022   6.870   3.168   1.409
   41SOL    HW2 1023   6.825   3.325   1.402
   42SOL     OW 1024   2.776   3.673   0.732
   42SOL    HW1 1025   2.836   3.604   0.772
   42SOL    HW2 1026   2.693   3.681   0.786
   43SOL     OW 1027   4.926   0.832   3.707
   43SOL    HW1 1028   4.958   0.794   3.620
   43SOL    HW2 1029   4.975   0.788   3.782
   44SOL     OW 1030   0.039   0.534   7.009
   44SOL    HW1 1031   0.077   0.499   6.923
   44SOL    HW2 1032   6.963   0.532   7.005
   45SOL     OW 1033   1.899   3.682   5.931
   45SOL    HW1 1034   1.953   3.626   5.994
   45SOL    HW2 1035   1.905   3.644   5.839
   46SOL     OW 1036   1.182   4.487   4.288
   46SOL    HW1 1037   1.135   4.502   4.375
   46SOL    HW2 1038   1.259   4.424   4.302
   47SOL     OW 1039   0.055   4.521   6.544
   47SOL    HW1 1040   0.039   4.453   6.616
   47SOL    HW2 1041   0.142   4.567   6.561
   48SOL     OW 1042   0.824   4.077   0.151
   48SOL    HW1 1043   0.825   4.110   0.245
   48SOL    HW2 1044   0.735   4.099   0.109
   49SOL     OW 1045   2.985   1.120   0.190
   49SOL    HW1 1046   3.060   1.077   0.139
   49SOL    HW2 1047   2.929   1.174   0.127
   50SOL     OW 1048   4.990   1.824   5.682
   50SOL    HW1 1049   4.974   1.872   5.769
   50SOL    HW2 1050   5.009   1.728   5.700
   51SOL     OW 1051   1.675   6.441   2.284
   51SOL    HW1 1052   1.695   6.357   2.335
   51SOL    HW2 1053   1.719   6.518   2.329
   52SOL     OW 1054   5.569   3.196   3.010
   52SOL    HW1 1055   5.554   3.291   3.036
   52SOL    HW2 1056   5.656   3.187   2.962
   53SOL     OW 1057   4.012   0.064   0.841
   53SOL    HW1 1058   3.971   0.045   0.930
   53SOL    HW2 1059   4.112   0.060   0.848
   54SOL     OW 1060   0.581   1.337   6.104
   54SOL    HW1 1061   0.558   1.419   6.157
   54SOL    HW2 1062   0.643   1.280   6.158
   55SOL     OW 1063   1.863   3.287   6.519
   55SOL    HW1 1064   1.879   3.245   6.608
   55SOL    HW2 1065   1.822   3.377   6.531
   56SOL     OW 1066   1.114   2.167   6.394
   56SOL    HW1 1067   1.114   2.158   6.493
   56SOL    HW2 1068   1.073   2.255   6.369
   57SOL     OW 1069   4.087   5.354   1.452
   57SOL    HW1 1070   4.063   5.426   1.388
   57SOL    HW2 1071   4.154   5.388   1.518
   58SOL     OW 1072   0.539   0.894   0.059
   58SOL    HW1 1073   0.545   0.864   0.154
   58SOL    HW2 1074   0.491   0.824   0.006
   59SOL     OW 1075   4.149   3.035   6.970
   59SOL    HW1 1076   4.162   2.982   6.886
   59SOL    HW2 1077   4.239   3.055   7.010
   60SOL     OW 1078   6.456   2.189   2.801
   60SOL    HW1 1079   6.511   2.106   2.800
   60SOL    HW2 1080   6.423   2.210   2.709
   61SOL     OW 1081   1.797   5.408   2.657
   61SOL    HW1 1082   1.763   5.337   2.719
   61SOL    HW2 1083   1.794   5.373   2.563
   62SOL     OW 1084   4.900   3.247   3.378
   62SOL    HW1 1085   4.868   3.167   3.327
   62SOL    HW2 1086   4.902   3.327   3.317
   63SOL     OW 1087   3.939   6.690   6.109
   63SOL    HW1 1088   3.891   6.619   6.161
   63SOL    HW2 1089   3.874   6.760   6.080
   64SOL     OW 1090   1.899   1.829   6.843
   64SOL    HW1 1091   1.877   1.870   6.932
   64SOL    HW2 1092   1.993   1.797   6.844
   65SOL     OW 1093   0.618   5.448   5.107
   65SOL    HW1 1094   0.676   5.477   5.183
   65SOL    HW2 1095   0.631   5.510   5.029
   66SOL     OW 1096   4.191   1.035   1.466
   66SOL    HW1 1097   4.152   1.036   1.558
   66SOL    HW2 1098   4.144   1.103   1.409
   67SOL     OW 1099   6.937   2.965   2.326
   67SOL    HW1 1100   6.889   2.971   2.414
   67SOL    HW2 1101   6.889   3.021   2.258
   68SOL     OW 1102   0.715   1.017   6.191
   68SOL    HW1 1103   0.727   0.925   6.229
   68SOL    HW2 1104   0.758   1.022   6.101
   69SOL     OW 1105   1.482   0.221   6.354
   69SOL    HW1 1106   1.577   0.248   6.371
   69SOL    HW2 1107   1.472   0.193   6.258
   70SOL     OW 1108   4.709   4.827   3.394
   70SOL    HW1 1109   4.708   4.849   3.296
   70SOL    HW2 1110   4.747   4.904   3.445
   71SOL     OW 1111   5.029   0.484   5.164
   71SOL    HW1 1112   5.096   0.439   5.106
   71SOL    HW2 1113   4.937   0.466   5.129
   72SOL     OW 1114   6.461   1.498   2.559
   72SOL    HW1 1115   6.493   1.486   2.465
   72SOL    HW2 1116   6.538   1.522   2.618
   73SOL     OW 1117   2.950   0.680   0.911
   73SOL    HW1 1118   2.892   0.756   0.941
   73SOL    HW2 1119   2.892   0.606   0.877
   74SOL     OW 1120   2.389   0.612   0.542
   74SOL    HW1 1121   2.464   0.675   0.524
   74SOL    HW2 1122   2.421   0.518   0.530
   75SOL     OW 1123   2.559   2.615   1.472
   75SOL    HW1 1124   2.542   2.528   1.519
   75SOL    HW2 1125   2.581   2.597   1.376
   76SOL     OW 1126   3.136   4.879   6.406
   76SOL    HW1 1127   3.228   4.916   6.391
   76SOL    HW2 1128   3.134   4.830   6.493
   77SOL     OW 1129   6.899   4.998   4.962
   77SOL    HW1 1130   6.993   5.031   4.973
   77SOL    HW2 1131   6.851   5.006   5.050
   78SOL     OW 1132   5.336   1.579   1.582
   78SOL    HW1 1133   5.378   1.597   1.493
   78SOL    HW2 1134   5.364   1.649   1.647
   79SOL     OW 1135   1.772   3.813   3.932
   79SOL    HW1 1136   1.745   3.827   4.028
   79SOL    HW2 1137   1.713   3.744   3.891
   80SOL     OW 1138   3.917   2.198   5.109
   80SOL    HW1 1139   4.003   2.248   5.102
   80SOL    HW2 1140   3.868   2.227   5.191
   81SOL     OW 1141   2.918   4.840   3.261
   81SOL    HW1 1142   2.883   4.764   3.206
   81SOL    HW2 1143   2.924   4.813   3.357
   82SOL     OW 1144   2.676   0.823   1.404
   82SOL    HW1 1145   2.684   0.769   1.487
   82SOL    HW2 1146   2.581   0.829   1.376
   83SOL     OW 1147   5.729   2.538   3.883
   83SOL    HW1 1148   5.805   2.599   3.863
   83SOL    HW2 1149   5.737   2.455   3.826
   84SOL     OW 1150   5.330   2.599   2.874
   84SOL    HW1 1151   5.358   2.512   2.834
   84SOL    HW2 1152   5.232   2.598   2.892
   85SOL     OW 1153   2.695   5.648   3.234
   85SOL    HW1 1154   2.652   5.576   3.179
   85SOL    HW2 1155   2.722   5.609   3.322
   86SOL     OW 1156   4.836   0.896   6.802
   86SOL    HW1 1157   4.928   0.864   6.823
   86SOL    HW2 1158   4.824   0.989   6.837
   87SOL     OW 1159   3.008   2.831   6.454
   87SOL    HW1 1160   3.004   2.767   6.531
   87SOL    HW2 1161   3.102   2.858   6.438
   88SOL     OW 1162   1.623   2.026   1.068
   88SOL    HW1 1163   1.589   2.083   1.143
   88SOL    HW2 1164   1.712   2.059   1.039
   89SOL     OW 1165   4.219   3.578   5.137
   89SOL    HW1 1166   4.237   3.569   5.234
   89SOL    HW2 1167   4.256   3.499   5.088
   90SOL     OW 1168   6.845   4.141   1.747
   90SOL    HW1 1169   6.924   4.197   1.720
   90SOL    HW2 1170   6.797   4.110   1.665
   91SOL     OW 1171   5.141   5.123   0.261
   91SOL    HW1 1172   5.224   5.118   0.206
   91SOL    HW2 1173   5.094   5.209   0.242
   92SOL     OW 1174   6.019   6.341   6.767
   92SOL    HW1 1175   5.944   6.391   6.724
   92SOL    HW2 1176   6.044   6.263   6.710
   93SOL     OW 1177   2.900   3.546   1.715
   93SOL    HW1 1178   2.907   3.493   1.799
   93SOL    HW2 1179   2.872   3.486   1.640
   94SOL     OW 1180   3.259   1.064   4.379
   94SOL    HW1 1181   3.276   0.969   4.351
   94SOL    HW2 1182   3.322   1.125   4.331
   95SOL     OW 1183   1.140   6.267   4.669
   95SOL    HW1 1184   1.191   6.328   4.730
   95SOL    HW2 1185   1.178   6.175   4.674
   96SOL     OW 1186   6.926   6.327   0.045
   96SOL    HW1 1187   6.979   6.341   0.129
   96SOL    HW2 1188   6.901   6.230   0.037
   97SOL     OW 1189   3.676   5.152   4.462
   97SOL    HW1 1190   3.765   5.158   4.506
   97SOL    HW2 1191   3.606   5.134   4.531
   98SOL     OW 1192   6.962   2.671   4.857
   98SOL    HW1 1193   6.905   2.748   4.888
   98SOL    HW2 1194   7.023   2.642   4.930
   99SOL     OW 1195   4.740   4.488   4.740
   99SOL    HW1 1196   4.680   4.457   4.814
   99SOL    HW2 1197   4.718   4.438   4.657
  100SOL     OW 1198   1.799   1.940   4.908
  100SOL    HW1 1199   1.799   1.925   4.809
  100SOL    HW2 1200   1.705   1.934   4.942
  101SOL     OW 1201   5.148   2.837   2.515
  101SOL    HW1 1202   5.177   2.930   2.537
  101SOL    HW2 1203   5.052   2.837   2.488
  102SOL     OW 1204   4.581   6.159   0.736
  102SOL    HW1 1205   4.494   6.154   0.786
  102SOL    HW2 1206   4.632   6.240   0.765
  103SOL     OW 1207   1.886   2.054   1.061
  103SOL    HW1 1208   1.917   1.979   1.119
  103SOL    HW2 1209   1.946   2.062   0.982
  104SOL     OW 1210   0.636   3.775   1.546
  104SOL    HW1 1211   0.632   3.683   1.584
  104SOL    HW2 1212   0.685   3.774   1.459
  105SOL     OW 1213   6.897   2.270   4.735
  105SOL    HW1 1214   6.878   2.173   4.723
  105SOL    HW2 1215   6.826   2.311   4.792
  106SOL     OW 1216   4.542   3.647   1.701
  106SOL    HW1 1217   4.592   3.578   1.648
  106SOL    HW2 1218   4.607   3.705   1.749
  107SOL     OW 1219   4.347   0.505   2.376
  107SOL    HW1 1220   4.372   0.601   2.391
  107SOL    HW2 1221   4.420   0.460   2.325
  108SOL     OW 1222   3.417   1.440   4.908
  108SOL    HW1 1223   3.508   1.427   4.948
  108SOL    HW2 1224   3.402   1.537   4.888
  109SOL     OW 1225   2.379   1.655   4.933
  109SOL    HW1 1226   2.419   1.609   4.853
  109SOL    HW2 1227   2.321   1.730   4.902
  110SOL     OW 1228   4.157   4.625   5.457
  110SOL    HW1 1229   4.085   4.562   5.486
  110SOL    HW2 1230   4.246   4.588   5.484
  111SOL     OW 1231   6.561   3.307   0.986
  111SOL    HW1 1232   6.640   3.246   0.997
  111SOL    HW2 1233   6.543   3.354   1.072
  112SOL     OW 1234   3.759   6.616   4.651
  112SOL    HW1 1235   3.767   6.712   4.625
  112SOL    HW2 1236   3.819   6.561   4.593
  113SOL     OW 1237   1.752   4.991   2.613
  113SOL    HW1 1238   1.844   4.953   2.625
  113SOL    HW2 1239   1.757   5.076   2.560
  114SOL     OW 1240   6.744   2.207   1.677
  114SOL    HW1 1241   6.677   2.183   1.747
  114SOL    HW2 1242   6.727   2.301   1.647
  115SOL     OW 1243   4.033   1.400   2.994
  115SOL    HW1 1244   4.020   1.438   3.085
  115SOL    HW2 1245   4.094   1.320   3.000
  116SOL     OW 1246   5.978   5.962   6.848
  116SOL    HW1 1247   6.006   6.021   6.772
  116SOL    HW2 1248   5.881   5.939   6.838
  117SOL     OW 1249   2.389   1.182   0.535
  117SOL    HW1 1250   2.471   1.126   0.545
  117SOL    HW2 1251   2.337   1.180   0.621
  118SOL     OW 1252   1.207   2.578   2.002
  118SOL    HW1 1253   1.108   2.562   2.010
  118SOL    HW2 1254   1.245   2.518   1.932
  119SOL     OW 1255   5.516   5.267   5.127
  119SOL    HW1 1256   5.480   5.259   5.034
  119SOL    HW2 1257   5.446   5.309   5.186
  120SOL     OW 1258   4.552   1.833   4.445
  120SOL    HW1 1259   4.476   1.803   4.387
  120SOL    HW2 1260   4.530   1.815   4.541
  121SOL     OW 1261   0.383   5.128   6.061
  121SOL    HW1 1262   0.414   5.034   6.070
  121SOL    HW2 1263   0.398   5.177   6.147
  122SOL     OW 1264   0.399   4.463   5.960
  122SOL    HW1 1265   0.468   4.414   5.907
  122SOL    HW2 1266   0.412   4.445   6.057
  123SOL     OW 1267   0.825   2.462   0.964
  123SOL    HW1 1268   0.861   2.533   1.025
  123SOL    HW2 1269   0.726   2.454   0.975
  124SOL     OW 1270   2.012   3.560   7.006
  124SOL    HW1 1271   1.997   3.657   7.022
  124SOL    HW2 1272   2.026   3.543   6.908
  125SOL     OW 1273   4.186   2.728   0.515
  125SOL    HW1 1274   4.134   2.646   0.538
  125SOL    HW2 1275   4.124   2.799   0.484
  126SOL     OW 1276   3.642   3.244   5.183
  126SOL    HW1 1277   3.668   3.178   5.253
  126SOL    HW2 1278   3.563   3.209   5.132
  127SOL     OW 1279   0.276   4.686   6.046
  127SOL    HW1 1280   0.191   4.707   5.999
  127SOL    HW2 1281   0.324   4.613   5.999
  128SOL     OW 1282   5.181   4.112   5.763
  128SOL    HW1 1283   5.269   4.147   5.793
  128SOL    HW2 1284   5.112   4.131   5.833
  129SOL     OW 1285   1.226   5.507   2.038
  129SOL    HW1 1286   1.252   5.411   2.035
  129SOL    HW2 1287   1.288   5.560   1.980
  130SOL     OW 1288   6.436   3.480   5.002
  130SOL    HW1 1289   6.531   3.488   4.970
  130SOL    HW2 1290   6.379   3.447   4.927
  131SOL     OW 1291   0.563   3.640   2.712
  131SOL    HW1 1292   0.542   3.583   2.633
  131SOL    HW2 1293   0.478   3.674   2.752
  132SOL     OW 1294   4.159   3.183   2.022
  132SOL    HW1 1295   4.210   3.248   1.966
  132SOL    HW2 1296   4.061   3.196   2.007
  133SOL     OW 1297   4.032   4.226   5.575
  133SOL    HW1 1298   4.070   4.242   5.666
  133SOL    HW2 1299   4.099   4.254   5.506
  134SOL     OW 1300   6.945   1.647   6.672
  134SOL    HW1 1301   6.992   1.728   6.705
  134SOL    HW2 1302   6.847   1.658   6.683
  135SOL     OW 1303   4.548   5.728   3.974
  135SOL    HW1 1304   4.599   5.660   4.028
  135SOL    HW2 1305   4.590   5.818   3.987
  136SOL     OW 1306   3.792   6.021   6.206
  136SOL    HW1 1307   3.722   6.060   6.147
  136SOL    HW2 1308   3.783   6.059   6.298
  137SOL     OW 1309   2.085   4.293   0.243
  137SOL    HW1 1310   2.149   4.335   0.180
  137SOL    HW2 1311   2.133   4.228   0.302
  138SOL     OW 1312   0.757   5.110   1.049
  138SOL    HW1 1313   0.811   5.050   1.109
  138SOL    HW2 1314   0.715   5.183   1.104
  139SOL     OW 1315   0.737   0.632   1.186
  139SOL    HW1 1316   0.763   0.592   1.274
  139SOL    HW2 1317   0.756   0.566   1.113
  140SOL     OW 1318   2.431   6.987   2.147
  140SOL    HW1 1319   2.342   6.962   2.108
  140SOL    HW2 1320   2.431   6.969   2.245
  141SOL     OW 1321   2.125   1.796   0.074
  141SOL    HW1 1322   2.189   1.865   0.108
  141SOL    HW2 1323   2.141   1.780   7.001
  142SOL     OW 1324   2.161   4.306   6.208
  142SOL    HW1 1325   2.139   4.317   6.305
  142SOL    HW2 1326   2.121   4.381   6.156
  143SOL     OW 1327   5.600   6.142   1.972
  143SOL    HW1 1328   5.649   6.194   2.042
  143SOL    HW2 1329   5.644   6.054   1.959
  144SOL     OW 1330   1.956   5.154   3.195
  144SOL    HW1 1331   1.987   5.107   3.112
  144SOL    HW2 1332   1.901   5.091   3.250
  145SOL     OW 1333   6.546   6.405   3.320
  145SOL    HW1 1334   6.640   6.420   3.351
  145SOL    HW2 1335   6.547   6.351   3.236
  146SOL     OW 1336   6.682   0.760   4.539
  146SOL    HW1 1337   6.770   0.745   4.585
  146SOL    HW2 1338   6.665   0.858   4.533
  147SOL     OW 1339   6.183   0.235   4.730
  147SOL    HW1 1340   6.165   0.283   4.815
  147SOL    HW2 1341   6.281   0.237   4.710
  148SOL     OW 1342   1.455   6.586   2.936
  148SOL    HW1 1343   1.529   6.635   2.983
  148SOL    HW2 1344   1.371   6.639   2.942
  149SOL     OW 1345   1.931   2.230   5.090
  149SOL    HW1 1346   1.929   2.261   4.995
  149SOL    HW2 1347   1.953   2.133   5.094
  150SOL     OW 1348   5.265   2.856   4.703
  150SOL    HW1 1349   5.316   2.935   4.668
  150SOL    HW2 1350   5.261   2.786   4.632
  151SOL     OW 1351   5.777   2.892   1.699
  151SOL    HW1 1352   5.750   2.972   1.646
  151SOL    HW2 1353   5.841   2.919   1.771
  152SOL     OW 1354   6.347   2.418   0.471
  152SOL    HW1 1355   6.327   2.420   0.373
  152SOL    HW2 1356   6.375   2.326   0.498
  153SOL     OW 1357   2.357   1.939   3.800
  153SOL    HW1 1358   2.427   1.884   3.845
  153SOL    HW2 1359   2.322   1.889   3.721
  154SOL     OW 1360   0.086   1.211   3.905
  154SOL    HW1 1361   0.065   1.299   3.948
  154SOL    HW2 1362   0.001   1.169   3.872
  155SOL     OW 1363   5.834   5.160   3.350
  155SOL    HW1 1364   5.928   5.191   3.363
  155SOL    HW2 1365   5.808   5.099   3.424
  156SOL     OW 1366   4.330   0.052   1.132
  156SOL    HW1 1367   4.374   0.129   1.179
  156SOL    HW2 1368   4.308   0.078   1.038
  157SOL     OW 1369   5.080   0.657   0.941
  157SOL    HW1 1370   5.018   0.609   1.003
  157SOL    HW2 1371   5.028   0.710   0.875
  158SOL     OW 1372   1.126   2.444   5.447
  158SOL    HW1 1373   1.186   2.516   5.481
  158SOL    HW2 1374   1.032   2.465   5.470
  159SOL     OW 1375   0.081   4.755   6.852
  159SOL    HW1 1376   0.127   4.736   6.765
  159SOL    HW2 1377   0.091   4.853   6.873
  160SOL     OW 1378   3.931   0.295   1.797
  160SOL    HW1 1379   3.903   0.338   1.711
  160SOL    HW2 1380   3.944   0.197   1.783
  161SOL     OW 1381   6.107   6.953   0.814
  161SOL    HW1 1382   6.080   6.938   0.909
  161SOL    HW2 1383   6.186   6.896   0.792
  162SOL     OW 1384   4.531   0.066   5.063
  162SOL    HW1 1385   4.474   7.008   5.055
  162SOL    HW2 1386   4.563   0.094   4.972
  163SOL     OW 1387   1.012   3.704   2.993
  163SOL    HW1 1388   0.939   3.697   2.925
  163SOL    HW2 1389   0.984   3.656   3.076
  164SOL     OW 1390   2.135   2.188   2.826
  164SOL    HW1 1391   2.199   2.259   2.797
  164SOL    HW2 1392   2.153   2.165   2.922
  165SOL     OW 1393   0.270   5.944   5.056
  165SOL    HW1 1394   0.275   6.017   4.988
  165SOL    HW2 1395   0.178   5.942   5.095
  166SOL     OW 1396   0.720   4.897   4.182
  166SOL    HW1 1397   0.777   4.972   4.217
  166SOL    HW2 1398   0.672   4.853   4.258
  167SOL     OW 1399   0.081   1.200   3.084
  167SOL    HW1 1400   0.104   1.295   3.104
  167SOL    HW2 1401   0.028   1.195   3.000
  168SOL     OW 1402   3.464   4.129   4.190
  168SOL    HW1 1403   3.388   4.118   4.255
  168SOL    HW2 1404   3.533   4.058   4.208
  169SOL     OW 1405   5.083   2.731   5.964
  169SOL    HW1 1406   5.017   2.658   5.946
  169SOL    HW2 1407   5.045   2.819   5.937
  170SOL     OW 1408   7.012   5.479   2.890
  170SOL    HW1 1409   0.041   5.563   2.905
  170SOL    HW2 1410   7.013   5.457   2.793
  171SOL     OW 1411   3.542   2.845   1.144
  171SOL    HW1 1412   3.572   2.865   1.238
  171SOL    HW2 1413   3.621   2.819   1.089
  172SOL     OW 1414   1.437   0.939   0.208
  172SOL    HW1 1415   1.339   0.924   0.195
  172SOL    HW2 1416   1.488   0.860   0.175
  173SOL     OW 1417   5.911   0.630   5.099
  173SOL    HW1 1418   6.006   0.606   5.115
  173SOL    HW2 1419   5.854   0.548   5.108
  174SOL     OW 1420   6.737   3.807   4.918
  174SOL    HW1 1421   6.662   3.870   4.942
  174SOL    HW2 1422   6.720   3.770   4.827
  175SOL     OW 1423   0.917   5.239   2.599
  175SOL    HW1 1424   0.990   5.260   2.534
  175SOL    HW2 1425   0.852   5.315   2.602
  176SOL     OW 1426   6.058   4.227   0.832
  176SOL    HW1 1427   6.147   4.197   0.864
  176SOL    HW2 1428   6.026   4.166   0.759
  177SOL     OW 1429   5.717   2.772   3.297
  177SOL    HW1 1430   5.747   2.845   3.236
  177SOL    HW2 1431   5.627   2.739   3.269
  178SOL     OW 1432   1.714   5.409   5.103
  178SOL    HW1 1433   1.808   5.380   5.117
  178SOL    HW2 1434   1.710   5.508   5.095
  179SOL     OW 1435   3.327   4.075   2.147
  179SOL    HW1 1436   3.417   4.088   2.106
  179SOL    HW2 1437   3.295   3.982   2.129
  180SOL     OW 1438   4.325   0.818   6.275
  180SOL    HW1 1439   4.372   0.753   6.334
  180SOL    HW2 1440   4.350   0.911   6.300
  181SOL     OW 1441   3.479   0.395   5.710
  181SOL    HW1 1442   3.457   0.343   5.792
  181SOL    HW2 1443   3.448   0.344   5.629
  182SOL     OW 1444   3.092   3.037   5.775
  182SOL    HW1 1445   2.992   3.032   5.785
  182SOL    HW2 1446   3.115   3.114   5.715
  183SOL     OW 1447   2.301   1.209   3.143
  183SOL    HW1 1448   2.281   1.216   3.045
  183SOL    HW2 1449   2.284   1.116   3.174
  184SOL     OW 1450   5.506   6.641   3.661
  184SOL    HW1 1451   5.560   6.622   3.743
  184SOL    HW2 1452   5.421   6.588   3.664
  185SOL     OW 1453   0.272   5.805   5.752
  185SOL    HW1 1454   0.275   5.805   5.652
  185SOL    HW2 1455   0.237   5.717   5.784
  186SOL     OW 1456   3.283   5.572   6.951
  186SOL    HW1 1457   3.202   5.534   6.906
  186SOL    HW2 1458   3.365   5.551   6.897
  187SOL     OW 1459   3.180   5.222   0.516
  187SOL    HW1 1460   3.193   5.318   0.494
  187SOL    HW2 1461   3.083   5.203   0.531
  188SOL     OW 1462   1.738   3.912   4.195
  188SOL    HW1 1463   1.826   3.957   4.211
  188SOL    HW2 1464   1.666   3.961   4.243
  189SOL     OW 1465   6.043   4.294   6.116
  189SOL    HW1 1466   6.040   4.295   6.216
  189SOL    HW2 1467   6.101   4.219   6.085
  190SOL     OW 1468   5.938   6.656   6.754
  190SOL    HW1 1469   5.900   6.588   6.691
  190SOL    HW2 1470   6.037   6.642   6.762
  191SOL     OW 1471   2.281   3.633   6.057
  191SOL    HW1 1472   2.326   3.720   6.079
  191SOL    HW2 1473   2.190   3.630   6.099
  192SOL     OW 1474   1.022   0.204   1.235
  192SOL    HW1 1475   0.984   0.214   1.143
  192SOL    HW2 1476   1.087   0.129   1.236
  193SOL     OW 1477   3.147   6.728   1.698
  193SOL    HW1 1478   3.217   6.781   1.746
  193SOL    HW2 1479   3.167   6.727   1.600
  194SOL     OW 1480   4.197   6.466   3.449
  194SOL    HW1 1481   4.209   6.373   3.414
  194SOL    HW2 1482   4.211   6.466   3.548
  195SOL     OW 1483   3.121   1.157   1.287
  195SOL    HW1 1484   3.132   1.059   1.303
  195SOL    HW2 1485   3.080   1.200   1.367
  196SOL     OW 1486   4.161   3.006   1.229
  196SOL    HW1 1487   4.218   3.004   1.311
  196SOL    HW2 1488   4.065   2.996   1.255
  197SOL     OW 1489   0.814   5.947   1.228
  197SOL    HW1 1490   0.816   5.847   1.234
  197SOL    HW2 1491   0.872   5.985   1.301
  198SOL     OW 1492   6.077   0.143   5.899
  198SOL    HW1 1493   6.124   0.105   5.819
  198SOL    HW2 1494   6.052   0.238   5.882
  199SOL     OW 1495   1.732   1.096   3.284
  199SOL    HW1 1496   1.707   1.107   3.380
  199SOL    HW2 1497   1.687   1.015   3.247
  200SOL     OW 1498   1.543   3.574   3.177
  200SOL    HW1 1499   1.634   3.566   3.218
  200SOL    HW2 1500   1.475   3.575   3.250
  201SOL     OW 1501   4.887   0.984   0.095
  201SOL    HW1 1502   4.986   0.997   0.109
  201SOL    HW2 1503   4.857   1.041   0.019
  202SOL     OW 1504   4.336   0.652   2.824
  202SOL    HW1 1505   4.327   0.696   2.913
  202SOL    HW2 1506   4.419   0.595   2.824
  203SOL     OW 1507   5.970   3.058   0.395
  203SOL    HW1 1508   5.887   3.001   0.396
  203SOL    HW2 1509   5.960   3.132   0.461
  204SOL     OW 1510   2.499   5.854   0.758
  204SOL    HW1 1511   2.528   5.792   0.831
  204SOL    HW2 1512   2.427   5.811   0.704
  205SOL     OW 1513   5.491   0.603   1.256
  205SOL    HW1 1514   5.404   0.651   1.248
  205SOL    HW2 1515   5.520   0.572   1.165
  206SOL     OW 1516   0.037   6.034   1.279
  206SOL    HW1 1517   0.003   6.092   1.354
  206SOL    HW2 1518   7.002   5.954   1.270
  207SOL     OW 1519   6.445   2.548   5.918
  207SOL    HW1 1520   6.514   2.480   5.944
  207SOL    HW2 1521   6.431   2.612   5.994
  208SOL     OW 1522   4.176   3.737   0.802
  208SOL    HW1 1523   4.082   3.710   0.822
  208SOL    HW2 1524   4.239   3.669   0.839
  209SOL     OW 1525   6.345   6.982   4.419
  209SOL    HW1 1526   6.267   6.968   4.480
  209SOL    HW2 1527   6.385   0.049   4.437
  210SOL     OW 1528   4.552   2.007   7.022
  210SOL    HW1 1529   4.574   2.052   0.085
  210SOL    HW2 1530   4.463   1.961   0.006
  211SOL     OW 1531   0.063   3.982   2.704
  211SOL    HW1 1532   0.082   4.080   2.705
  211SOL    HW2 1533   7.003   3.964   2.653
  212SOL     OW 1534   1.414   5.355   5.090
  212SOL    HW1 1535   1.363   5.269   5.102
  212SOL    HW2 1536   1.512   5.335   5.085
  213SOL     OW 1537   4.631   2.586   1.132
  213SOL    HW1 1538   4.709   2.527   1.113
  213SOL    HW2 1539   4.586   2.557   1.217
  214SOL     OW 1540   0.187   6.083   4.057
  214SOL    HW1 1541   0.111   6.020   4.042
  214SOL    HW2 1542   0.167   6.142   4.135
  215SOL     OW 1543   4.107   3.741   3.736
  215SOL    HW1 1544   4.041   3.792   3.681
  215SOL    HW2 1545   4.130   3.655   3.690
  216SOL     OW 1546   3.533   6.923   5.604
  216SOL    HW1 1547   3.466   6.996   5.593
  216SOL    HW2 1548   3.618   6.961   5.640
  217SOL     OW 1549   6.618   2.102   5.347
  217SOL    HW1 1550   6.716   2.081   5.354
  217SOL    HW2 1551   6.601   2.196   5.375
  218SOL     OW 1552   2.954   4.468   6.059
  218SOL    HW1 1553   2.982   4.554   6.016
  218SOL    HW2 1554   2.864   4.442   6.025
  219SOL     OW 1555   3.238   5.815   6.541
  219SOL    HW1 1556   3.193   5.875   6.608
  219SOL    HW2 1557   3.307   5.760   6.587
  220SOL     OW 1558   1.497   4.872   0.431
  220SOL    HW1 1559   1.410   4.823   0.424
  220SOL    HW2 1560   1.479   4.970   0.443
  221SOL     OW 1561   6.235   3.709   4.864
  221SOL    HW1 1562   6.235   3.781   4.795
  221SOL    HW2 1563   6.269   3.624   4.824
  222SOL     OW 1564   1.883   6.965   3.725
  222SOL    HW1 1565   1.945   0.015   3.700
  222SOL    HW2 1566   1.926   6.905   3.793
  223SOL     OW 1567   5.323   5.286   2.585
  223SOL    HW1 1568   5.315   5.348   2.664
  223SOL    HW2 1569   5.239   5.290   2.532
  224SOL     OW 1570   5.304   4.080   2.939
  224SOL    HW1 1571   5.343   4.164   2.976
  224SOL    HW2 1572   5.281   4.094   2.843
  225SOL     OW 1573   4.706   5.849   1.972
  225SOL    HW1 1574   4.632   5.795   2.012
  225SOL    HW2 1575   4.672   5.899   1.893
  226SOL     OW 1576   1.620   5.513   2.375
  226SOL    HW1 1577   1.720   5.507   2.370
  226SOL    HW2 1578   1.594   5.559   2.461
  227SOL     OW 1579   0.809   4.142   3.507
  227SOL    HW1 1580   0.877   4.079   3.544
  227SOL    HW2 1581   0.792   4.120   3.410
  228SOL     OW 1582   4.159   6.142   3.404
  228SOL    HW1 1583   4.244   6.099   3.434
  228SOL    HW2 1584   4.096   6.149   3.482
  229SOL     OW 1585   5.819   6.151   2.558
  229SOL    HW1 1586   5.757   6.074   2.548
  229SOL    HW2 1587   5.771   6.227   2.603
  230SOL     OW 1588   1.349   4.835   5.906
  230SOL    HW1 1589   1.390   4.775   5.974
  230SOL    HW2 1590   1.397   4.825   5.819
  231SOL     OW 1591   0.635   1.713   6.264
  231SOL    HW1 1592   0.632   1.616   6.287
  231SOL    HW2 1593   0.666   1.725   6.170
  232SOL     OW 1594   1.516   3.534   5.955
  232SOL    HW1 1595   1.604   3.516   5.911
  232SOL    HW2 1596   1.520   3.623   6.002
  233SOL     OW 1597   3.570   0.031   6.956
  233SOL    HW1 1598   3.485   7.016   6.992
  233SOL    HW2 1599   3.619   6.984   6.905
  234SOL     OW 1600   1.565   4.983   6.869
  234SOL    HW1 1601   1.510   4.999   6.951
  234SOL    HW2 1602   1.661   5.007   6.888
  235SOL     OW 1603   3.827   3.309   6.045
  235SOL    HW1 1604   3.850   3.245   5.972
  235SOL    HW2 1605   3.889   3.296   6.122
  236SOL     OW 1606   0.079   0.814   6.150
  236SOL    HW1 1607   7.019   0.760   6.150
  236SOL    HW2 1608   0.079   0.877   6.072
  237SOL     OW 1609   6.328   6.734   2.179
  237SOL    HW1 1610   6.341   6.811   2.241
  237SOL    HW2 1611   6.336   6.765   2.084
  238SOL     OW 1612   0.958   2.179   3.372
  238SOL    HW1 1613   1.013   2.242   3.426
  238SOL    HW2 1614   1.017   2.112   3.327
  239SOL     OW 1615   6.326   4.866   0.358
  239SOL    HW1 1616   6.251   4.867   0.292
  239SOL    HW2 1617   6.394   4.935   0.332
  240SOL     OW 1618   0.243   2.429   4.423
  240SOL    HW1 1619   0.285   2.432   4.332
  240SOL    HW2 1620   0.240   2.522   4.461
  241SOL     OW 1621   6.431   2.527   4.973
  241SOL    HW1 1622   6.335   2.528   4.945
  241SOL    HW2 1623   6.475   2.611   4.941
  242SOL     OW 1624   2.825   2.352   3.420
  242SOL    HW1 1625   2.878   2.278   3.378
  242SOL    HW2 1626   2.835   2.346   3.520
  243SOL     OW 1627   4.918   1.371   6.790
  243SOL    HW1 1628   4.993   1.405   6.733
  243SOL    HW2 1629   4.831   1.396   6.748
  244SOL     OW 1630   0.867   1.170   6.011
  244SOL    HW1 1631   0.908   1.255   6.044
  244SOL    HW2 1632   0.920   1.136   5.933
  245SOL     OW 1633   5.236   1.967   3.990
  245SOL    HW1 1634   5.302   2.042   3.980
  245SOL    HW2 1635   5.146   1.997   3.957
  246SOL     OW 1636   5.670   3.735   4.350
  246SOL    HW1 1637   5.638   3.811   4.406
  246SOL    HW2 1638   5.705   3.771   4.263
  247SOL     OW 1639   2.253   0.683   3.039
  247SOL    HW1 1640   2.157   0.671   3.063
  247SOL    HW2 1641   2.260   0.700   2.940
  248SOL     OW 1642   0.163   2.781   3.282
  248SOL    HW1 1643   0.181   2.774   3.184
  248SOL    HW2 1644   0.191   2.697   3.328
  249SOL     OW 1645   2.257   6.049   4.976
  249SOL    HW1 1646   2.343   6.018   4.935
  249SOL    HW2 1647   2.250   6.016   5.070
  250SOL     OW 1648   5.385   2.397   6.725
  250SOL    HW1 1649   5.307   2.429   6.672
  250SOL    HW2 1650   5.355   2.334   6.796
  251SOL     OW 1651   2.004   0.320   1.695
  251SOL    HW1 1652   2.071   0.257   1.734
  251SOL    HW2 1653   2.041   0.413   1.696
  252SOL     OW 1654   6.879   2.488   0.104
  252SOL    HW1 1655   6.884   2.534   0.193
  252SOL    HW2 1656   6.835   2.549   0.038
  253SOL     OW 1657   2.118   4.930   5.777
  253SOL    HW1 1658   2.184   4.980   5.833
  253SOL    HW2 1659   2.130   4.956   5.681
  254SOL     OW 1660   4.553   3.233   6.339
  254SOL    HW1 1661   4.480   3.300   6.357
  254SOL    HW2 1662   4.564   3.174   6.419
  255SOL     OW 1663   4.351   2.410   2.371
  255SOL    HW1 1664   4.305   2.324   2.350
  255SOL    HW2 1665   4.354   2.424   2.470
  256SOL     OW 1666   0.482   6.268   1.282
  256SOL    HW1 1667   0.531   6.183   1.303
  256SOL    HW2 1668   0.459   6.270   1.185
  257SOL     OW 1669   3.050   5.716   6.370
  257SOL    HW1 1670   3.117   5.767   6.424
  257SOL    HW2 1671   3.093   5.684   6.285
  258SOL     OW 1672   4.798   5.173   4.882
  258SOL    HW1 1673   4.747   5.254   4.854
  258SOL    HW2 1674   4.788   5.102   4.813
  259SOL     OW 1675   0.538   1.585   2.487
  259SOL    HW1 1676   0.477   1.648   2.535
  259SOL    HW2 1677   0.597   1.636   2.426
  260SOL     OW 1678   6.715   6.570   5.788
  260SOL    HW1 1679   6.670   6.658   5.796
  260SOL    HW2 1680   6.707   6.536   5.694
  261SOL     OW 1681   0.726   0.941   4.100
  261SOL    HW1 1682   0.790   0.912   4.029
  261SOL    HW2 1683   0.762   1.022   4.146
  262SOL     OW 1684   1.905   5.384   0.971
  262SOL    HW1 1685   1.919   5.475   0.933
  262SOL    HW2 1686   1.990   5.332   0.964
  263SOL     OW 1687   0.736   4.866   4.904
  263SOL    HW1 1688   0.753   4.964   4.917
  263SOL    HW2 1689   0.727   4.822   4.993
  264SOL     OW 1690   3.704   3.856   1.270
  264SOL    HW1 1691   3.681   3.904   1.355
  264SOL    HW2 1692   3.759   3.775   1.290
  265SOL     OW 1693   4.292   5.820   4.142
  265SOL    HW1 1694   4.286   5.730   4.100
  265SOL    HW2 1695   4.294   5.811   4.241
  266SOL     OW 1696   4.439   3.380   0.319
  266SOL    HW1 1697   4.513   3.322   0.284
  266SOL    HW2 1698   4.405   3.439   0.246
  267SOL     OW 1699   2.468   2.403   6.303
  267SOL    HW1 1700   2.530   2.393   6.224
  267SOL    HW2 1701   2.376   2.377   6.276
  268SOL     OW 1702   1.515   3.752   2.959
  268SOL    HW1 1703   1.500   3.845   2.992
  268SOL    HW2 1704   1.536   3.693   3.037
  269SOL     OW 1705   3.097   1.382   6.073
  269SOL    HW1 1706   3.076   1.374   5.975
  269SOL    HW2 1707   3.119   1.477   6.095
  270SOL     OW 1708   5.845   5.366   4.897
  270SOL    HW1 1709   5.900   5.428   4.841
  270SOL    HW2 1710   5.874   5.272   4.880
  271SOL     OW 1711   2.525   1.498   6.912
  271SOL    HW1 1712   2.526   1.420   6.975
  271SOL    HW2 1713   2.619   1.527   6.893
  272SOL     OW 1714   5.417   4.801   6.608
  272SOL    HW1 1715   5.483   4.876   6.600
  272SOL    HW2 1716   5.462   4.722   6.650
  273SOL     OW 1717   0.640   6.269   3.872
  273SOL    HW1 1718   0.660   6.297   3.966
  273SOL    HW2 1719   0.546   6.237   3.866
  274SOL     OW 1720   5.518   2.879   2.453
  274SOL    HW1 1721   5.577   2.920   2.522
  274SOL    HW2 1722   5.452   2.818   2.497
  275SOL     OW 1723   5.932   5.249   5.479
  275SOL    HW1 1724   5.858   5.234   5.413
  275SOL    HW2 1725   5.996   5.172   5.475
  276SOL     OW 1726   1.063   0.015   4.245
  276SOL    HW1 1727   0.999   6.967   4.219
  276SOL    HW2 1728   1.038   0.101   4.200
  277SOL     OW 1729   4.183   3.393   5.566
  277SOL    HW1 1730   4.244   3.442   5.504
  277SOL    HW2 1731   4.168   3.447   5.648
  278SOL     OW 1732   6.032   4.711   2.199
  278SOL    HW1 1733   6.105   4.774   2.172
  278SOL    HW2 1734   6.017   4.644   2.127
  279SOL     OW 1735   0.565   3.613   4.610
  279SOL    HW1 1736   0.582   3.703   4.649
  279SOL    HW2 1737   0.653   3.570   4.587
  280SOL     OW 1738   4.855   1.620   2.888
  280SOL    HW1 1739   4.818   1.664   2.806
  280SOL    HW2 1740   4.795   1.545   2.915
  281SOL     OW 1741   5.010   5.198   5.536
  281SOL    HW1 1742   4.955   5.144   5.473
  281SOL    HW2 1743   5.074   5.254   5.484
  282SOL     OW 1744   0.451   2.404   0.078
  282SOL    HW1 1745   0.357   2.430   0.098
  282SOL    HW2 1746   0.450   2.332   0.007
  283SOL     OW 1747   5.893   3.888   2.499
  283SOL    HW1 1748   5.923   3.808   2.447
  283SOL    HW2 1749   5.950   3.898   2.581
  284SOL     OW 1750   5.559   6.772   3.062
  284SOL    HW1 1751   5.628   6.707   3.092
  284SOL    HW2 1752   5.559   6.776   2.962
  285SOL     OW 1753   4.435   6.116   6.515
  285SOL    HW1 1754   4.464   6.165   6.597
  285SOL    HW2 1755   4.439   6.177   6.436
  286SOL     OW 1756   3.408   5.042   5.317
  286SOL    HW1 1757   3.416   5.088   5.228
  286SOL    HW2 1758   3.388   4.945   5.301
  287SOL     OW 1759   3.980   6.330   0.847
  287SOL    HW1 1760   3.903   6.267   0.850
  287SOL    HW2 1761   4.059   6.290   0.893
  288SOL     OW 1762   4.146   1.037   0.216
  288SOL    HW1 1763   4.201   0.979   0.156
  288SOL    HW2 1764   4.136   0.992   0.305
  289SOL     OW 1765   5.473   4.791   5.215
  289SOL    HW1 1766   5.387   4.781   5.264
  289SOL    HW2 1767   5.494   4.889   5.205
  290SOL     OW 1768   3.099   0.659   5.305
  290SOL    HW1 1769   3.174   0.706   5.257
  290SOL    HW2 1770   3.134   0.576   5.347
  291SOL     OW 1771   5.869   1.365   4.953
  291SOL    HW1 1772   5.885   1.319   5.040
  291SOL    HW2 1773   5.898   1.305   4.878
  292SOL     OW 1774   2.226   0.778   3.727
  292SOL    HW1 1775   2.129   0.756   3.736
  292SOL    HW2 1776   2.269   0.712   3.665
  293SOL     OW 1777   5.344   1.216   3.307
  293SOL    HW1 1778   5.273   1.272   3.265
  293SOL    HW2 1779   5.381   1.264   3.387
  294SOL     OW 1780   6.835   1.258   6.974
  294SOL    HW1 1781   6.901   1.293   6.907
  294SOL    HW2 1782   6.792   1.335   7.022
  295SOL     OW 1783   6.915   0.497   4.816
  295SOL    HW1 1784   6.835   0.507   4.875
  295SOL    HW2 1785   6.993   0.467   4.871
  296SOL     OW 1786   6.689   1.862   0.157
  296SOL    HW1 1787   6.748   1.891   0.081
  296SOL    HW2 1788   6.733   1.884   0.244
  297SOL     OW 1789   4.980   3.519   3.561
  297SOL    HW1 1790   4.987   3.419   3.564
  297SOL    HW2 1791   4.957   3.554   3.651
  298SOL     OW 1792   4.225   6.773   5.266
  298SOL    HW1 1793   4.224   6.673   5.272
  298SOL    HW2 1794   4.133   6.805   5.243
  299SOL     OW 1795   0.436   0.932   6.086
  299SOL    HW1 1796   0.413   1.015   6.035
  299SOL    HW2 1797   0.481   0.867   6.024
  300SOL     OW 1798   4.408   6.355   4.600
  300SOL    HW1 1799   4.373   6.442   4.565
  300SOL    HW2 1800   4.332   6.301   4.636
  301SOL     OW 1801   6.791   6.482   5.328
  301SOL    HW1 1802   6.786   6.582   5.325
  301SOL    HW2 1803   6.886   6.453   5.321
  302SOL     OW 1804   6.911   0.068   1.683
  302SOL    HW1 1805   6.904   0.165   1.660
  302SOL    HW2 1806   6.841   0.017   1.634
  303SOL     OW 1807   5.107   5.522   2.604
  303SOL    HW1 1808   5.027   5.560   2.650
  303SOL    HW2 1809   5.181   5.508   2.669
  304SOL     OW 1810   0.901   1.148   3.944
  304SOL    HW1 1811   0.837   1.220   3.973
  304SOL    HW2 1812   0.986   1.157   3.996
  305SOL     OW 1813   2.593   1.804   1.189
  305SOL    HW1 1814   2.536   1.845   1.118
  305SOL    HW2 1815   2.616   1.710   1.164
  306SOL     OW 1816   0.269   6.548   2.544
  306SOL    HW1 1817   0.291   6.645   2.555
  306SOL    HW2 1818   0.178   6.540   2.503
  307SOL     OW 1819   4.008   3.931   4.763
  307SOL    HW1 1820   4.021   3.868   4.840
  307SOL    HW2 1821   4.093   3.981   4.745
  308SOL     OW 1822   6.127   2.420   1.445
  308SOL    HW1 1823   6.223   2.425   1.473
  308SOL    HW2 1824   6.102   2.325   1.428
  309SOL     OW 1825   1.854   4.773   0.072
  309SOL    HW1 1826   1.903   4.691   0.043
  309SOL    HW2 1827   1.762   4.747   0.103
  310SOL     OW 1828   4.859   6.391   5.071
  310SOL    HW1 1829   4.956   6.409   5.056
  310SOL    HW2 1830   4.810   6.477   5.078
  311SOL     OW 1831   1.966   6.093   2.402
  311SOL    HW1 1832   1.991   6.162   2.471
  311SOL    HW2 1833   2.048   6.064   2.354
  312SOL     OW 1834   3.334   0.836   4.250
  312SOL    HW1 1835   3.302   0.864   4.160
  312SOL    HW2 1836   3.321   0.737   4.261
  313SOL     OW 1837   3.525   3.395   3.420
  313SOL    HW1 1838   3.507   3.486   3.457
  313SOL    HW2 1839   3.624   3.380   3.416
  314SOL     OW 1840   2.444   4.480   6.071
  314SOL    HW1 1841   2.421   4.402   6.013
  314SOL    HW2 1842   2.408   4.464   6.163
  315SOL     OW 1843   6.200   6.835   4.815
  315SOL    HW1 1844   6.196   6.748   4.863
  315SOL    HW2 1845   6.280   6.836   4.754
  316SOL     OW 1846   3.967   1.303   5.166
  316SOL    HW1 1847   3.922   1.298   5.076
  316SOL    HW2 1848   4.049   1.246   5.165
  317SOL     OW 1849   0.836   1.952   1.622
  317SOL    HW1 1850   0.890   2.036   1.629
  317SOL    HW2 1851   0.749   1.963   1.670
  318SOL     OW 1852   0.898   1.160   3.669
  318SOL    HW1 1853   0.917   1.143   3.766
  318SOL    HW2 1854   0.866   1.254   3.657
  319SOL     OW 1855   0.608   1.970   2.267
  319SOL    HW1 1856   0.547   2.012   2.335
  319SOL    HW2 1857   0.660   1.896   2.310
  320SOL     OW 1858   5.138   1.029   0.208
  320SOL    HW1 1859   5.165   1.099   0.274
  320SOL    HW2 1860   5.122   0.943   0.255
  321SOL     OW 1861   3.954   3.310   1.349
  321SOL    HW1 1862   3.862   3.341   1.373
  321SOL    HW2 1863   4.013   3.314   1.430
  322SOL     OW 1864   2.999   1.933   6.686
  322SOL    HW1 1865   2.906   1.951   6.654
  322SOL    HW2 1866   3.020   1.837   6.672
  323SOL     OW 1867   0.897   4.248   2.379
  323SOL    HW1 1868   0.954   4.167   2.366
  323SOL    HW2 1869   0.955   4.329   2.388
  324SOL     OW 1870   5.792   0.376   3.692
  324SOL    HW1 1871   5.789   0.419   3.602
  324SOL    HW2 1872   5.838   0.437   3.757
  325SOL     OW 1873   6.313   3.218   0.580
  325SOL    HW1 1874   6.318   3.270   0.495
  325SOL    HW2 1875   6.305   3.121   0.560
  326SOL     OW 1876   6.044   5.820   6.321
  326SOL    HW1 1877   6.005   5.732   6.348
  326SOL    HW2 1878   6.101   5.808   6.240
  327SOL     OW 1879   4.416   6.297   6.317
  327SOL    HW1 1880   4.414   6.269   6.221
  327SOL    HW2 1881   4.378   6.389   6.325
  328SOL     OW 1882   2.088   4.476   3.842
  328SOL    HW1 1883   2.131   4.561   3.872
  328SOL    HW2 1884   2.159   4.407   3.826
  329SOL     OW 1885   2.966   3.522   2.815
  329SOL    HW1 1886   2.907   3.550   2.739
  329SOL    HW2 1887   3.062   3.528   2.787
  330SOL     OW 1888   2.468   4.005   6.441
  330SOL    HW1 1889   2.439   3.979   6.533
  330SOL    HW2 1890   2.537   3.941   6.409
  331SOL     OW 1891   4.901   5.584   3.818
  331SOL    HW1 1892   4.835   5.628   3.759
  331SOL    HW2 1893   4.861   5.570   3.909
  332SOL     OW 1894   6.120   1.927   2.991
  332SOL    HW1 1895   6.038   1.894   3.037
  332SOL    HW2 1896   6.200   1.904   3.045
  333SOL     OW 1897   3.378   6.669   3.427
  333SOL    HW1 1898   3.437   6.725   3.370
  333SOL    HW2 1899   3.386   6.699   3.523
  334SOL     OW 1900   4.146   3.490   4.113
  334SOL    HW1 1901   4.123   3.395   4.093
  334SOL    HW2 1902   4.245   3.500   4.118
  335SOL     OW 1903   4.634   1.561   0.645
  335SOL    HW1 1904   4.585   1.523   0.566
  335SOL    HW2 1905   4.731   1.538   0.637
  336SOL     OW 1906   3.995   2.052   4.455
  336SOL    HW1 1907   4.036   1.961   4.453
  336SOL    HW2 1908   4.028   2.102   4.535
  337SOL     OW 1909   0.382   1.778   5.307
  337SOL    HW1 1910   0.329   1.780   5.222
  337SOL    HW2 1911   0.472   1.736   5.289
  338SOL     OW 1912   4.986   1.122   1.767
  338SOL    HW1 1913   5.033   1.087   1.686
  338SOL    HW2 1914   5.053   1.137   1.840
  339SOL     OW 1915   3.335   4.976   5.962
  339SOL    HW1 1916   3.377   4.886   5.975
  339SOL    HW2 1917   3.262   4.969   5.893
  340SOL     OW 1918   5.238   3.707   4.911
  340SOL    HW1 1919   5.215   3.646   4.835
  340SOL    HW2 1920   5.334   3.696   4.934
  341SOL     OW 1921   6.339   0.588   1.622
  341SOL    HW1 1922   6.340   0.554   1.529
  341SOL    HW2 1923   6.298   0.680   1.624
  342SOL     OW 1924   4.586   1.211   2.308
  342SOL    HW1 1925   4.624   1.257   2.228
  342SOL    HW2 1926   4.602   1.113   2.300
  343SOL     OW 1927   6.108   0.441   1.655
  343SOL    HW1 1928   6.183   0.507   1.654
  343SOL    HW2 1929   6.067   0.438   1.746
  344SOL     OW 1930   6.902   2.666   1.744
  344SOL    HW1 1931   6.926   2.656   1.647
  344SOL    HW2 1932   6.818   2.719   1.753
  345SOL     OW 1933   0.049   3.041   4.046
  345SOL    HW1 1934   0.034   3.075   3.953
  345SOL    HW2 1935   6.991   3.060   4.101
  346SOL     OW 1936   1.253   6.279   2.549
  346SOL    HW1 1937   1.271   6.370   2.589
  346SOL    HW2 1938   1.325   6.257   2.483
  347SOL     OW 1939   1.791   4.617   1.446
  347SOL    HW1 1940   1.871   4.559   1.462
  347SOL    HW2 1941   1.725   4.602   1.519
  348SOL     OW 1942   5.420   4.437   1.121
  348SOL    HW1 1943   5.454   4.371   1.187
  348SOL    HW2 1944   5.370   4.390   1.048
  349SOL     OW 1945   6.426   5.305   0.154
  349SOL    HW1 1946   6.464   5.222   0.113
  349SOL    HW2 1947   6.335   5.323   0.117
  350SOL     OW 1948   2.414   0.855   1.295
  350SOL    HW1 1949   2.412   0.805   1.208
  350SOL    HW2 1950   2.355   0.809   1.361
  351SOL     OW 1951   3.361   4.170   1.059
  351SOL    HW1 1952   3.265   4.160   1.034
  351SOL    HW2 1953   3.390   4.091   1.112
  352SOL     OW 1954   3.790   0.529   2.136
  352SOL    HW1 1955   3.693   0.513   2.153
  352SOL    HW2 1956   3.825   0.599   2.198
  353SOL     OW 1957   2.527   5.959   0.343
  353SOL    HW1 1958   2.535   5.986   0.439
  353SOL    HW2 1959   2.496   6.037   0.289
  354SOL     OW 1960   2.130   1.933   0.390
  354SOL    HW1 1961   2.165   1.940   0.483
  354SOL    HW2 1962   2.189   1.872   0.337
  355SOL     OW 1963   0.231   2.769   3.031
  355SOL    HW1 1964   0.328   2.747   3.022
  355SOL    HW2 1965   0.188   2.763   2.940
  356SOL     OW 1966   2.727   0.051   5.848
  356SOL    HW1 1967   2.766   0.117   5.783
  356SOL    HW2 1968   2.782   6.991   5.847
  357SOL     OW 1969   6.030   5.543   4.274
  357SOL    HW1 1970   6.001   5.477   4.344
  357SOL    HW2 1971   5.955   5.559   4.210
  358SOL     OW 1972   3.217   6.258   0.157
  358SOL    HW1 1973   3.128   6.232   0.194
  358SOL    HW2 1974   3.238   6.352   0.181
  359SOL     OW 1975   1.740   2.773   1.256
  359SOL    HW1 1976   1.825   2.782   1.204
  359SOL    HW2 1977   1.703   2.864   1.274
  360SOL     OW 1978   2.314   4.237   3.186
  360SOL    HW1 1979   2.320   4.162   3.253
  360SOL    HW2 1980   2.234   4.293   3.206
  361SOL     OW 1981   6.785   2.915   2.571
  361SOL    HW1 1982   6.738   2.828   2.554
  361SOL    HW2 1983   6.729   2.972   2.630
  362SOL     OW 1984   4.113   3.297   2.986
  362SOL    HW1 1985   4.083   3.208   2.950
  362SOL    HW2 1986   4.050   3.368   2.955
  363SOL     OW 1987   5.081   4.540   0.643
  363SOL    HW1 1988   5.137   4.602   0.697
  363SOL    HW2 1989   5.066   4.578   0.552
  364SOL     OW 1990   1.006   0.397   0.040
  364SOL    HW1 1991   1.052   0.411   6.976
  364SOL    HW2 1992   0.933   0.329   0.029
  365SOL     OW 1993   5.052   0.262   4.018
  365SOL    HW1 1994   5.031   0.271   4.116
  365SOL    HW2 1995   4.984   0.311   3.965
  366SOL     OW 1996   5.282   2.108   0.416
  366SOL    HW1 1997   5.348   2.174   0.451
  366SOL    HW2 1998   5.315   2.071   0.329
  367SOL     OW 1999   5.695   0.729   0.296
  367SOL    HW1 2000   5.762   0.803   0.302
  367SOL    HW2 2001   5.603   0.769   0.288
  368SOL     OW 2002   3.184   1.417   5.730
  368SOL    HW1 2003   3.279   1.432   5.759
  368SOL    HW2 2004   3.174   1.442   5.634
  369SOL     OW 2005   4.945   4.016   0.263
  369SOL    HW1 2006   4.884   3.970   0.198
  369SOL    HW2 2007   5.031   4.038   0.217
  370SOL     OW 2008   2.065   2.425   3.819
  370SOL    HW1 2009   2.150   2.400   3.774
  370SOL    HW2 2010   2.085   2.481   3.900
  371SOL     OW 2011   2.625   4.978   0.442
  371SOL    HW1 2012   2.571   5.058   0.468
  371SOL    HW2 2013   2.589   4.897   0.487
  372SOL     OW 2014   2.601   6.127   6.073
  372SOL    HW1 2015   2.615   6.208   6.016
  372SOL    HW2 2016   2.538   6.149   6.148
  373SOL     OW 2017   5.284   4.897   2.836
  373SOL    HW1 2018   5.270   4.901   2.737
  373SOL    HW2 2019   5.253   4.809   2.871
  374SOL     OW 2020   2.603   2.415   1.989
  374SOL    HW1 2021   2.575   2.433   1.894
  374SOL    HW2 2022   2.699   2.389   1.991
  375SOL     OW 2023   6.708   5.920   3.969
  375SOL    HW1 2024   6.759   5.925   3.883
  375SOL    HW2 2025   6.613   5.948   3.954
  376SOL     OW 2026   4.339   0.581   3.644
  376SOL    HW1 2027   4.297   0.518   3.579
  376SOL    HW2 2028   4.377   0.660   3.596
  377SOL     OW 2029   2.961   3.136   6.068
  377SOL    HW1 2030   3.061   3.146   6.073
  377SOL    HW2 2031   2.936   3.098   5.980
  378SOL     OW 2032   4.155   0.926   1.943
  378SOL    HW1 2033   4.172   0.869   2.023
  378SOL    HW2 2034   4.116   1.013   1.971
  379SOL     OW 2035   3.673   3.115   6.921
  379SOL    HW1 2036   3.656   3.021   6.949
  379SOL    HW2 2037   3.599   3.173   6.953
  380SOL     OW 2038   5.000   2.142   0.481
  380SOL    HW1 2039   5.097   2.124   0.463
  380SOL    HW2 2040   4.960   2.062   0.525
  381SOL     OW 2041   1.106   3.557   2.316
  381SOL    HW1 2042   1.072   3.464   2.324
  381SOL    HW2 2043   1.049   3.608   2.251
  382SOL     OW 2044   6.604   0.084   0.213
  382SOL    HW1 2045   6.587   0.113   0.307
  382SOL    HW2 2046   6.587   0.161   0.150
  383SOL     OW 2047   5.036   3.255   0.314
  383SOL    HW1 2048   5.079   3.261   0.224
  383SOL    HW2 2049   5.032   3.346   0.355
  384SOL     OW 2050   0.949   2.664   4.967
  384SOL    HW1 2051   1.045   2.673   4.992
  384SOL    HW2 2052   0.941   2.607   4.885
  385SOL     OW 2053   4.724   2.572   6.271
  385SOL    HW1 2054   4.700   2.516   6.351
  385SOL    HW2 2055   4.745   2.666   6.302
  386SOL     OW 2056   3.327   6.302   5.142
  386SOL    HW1 2057   3.300   6.398   5.130
  386SOL    HW2 2058   3.325   6.256   5.053
  387SOL     OW 2059   2.397   6.458   3.822
  387SOL    HW1 2060   2.458   6.421   3.892
  387SOL    HW2 2061   2.429   6.428   3.731
  388SOL     OW 2062   1.872   5.488   5.941
  388SOL    HW1 2063   1.780   5.460   5.916
  388SOL    HW2 2064   1.915   5.536   5.865
  389SOL     OW 2065   2.725   2.317   0.372
  389SOL    HW1 2066   2.638   2.315   0.421
  389SOL    HW2 2067   2.785   2.244   0.406
  390SOL     OW 2068   2.903   1.818   3.941
  390SOL    HW1 2069   2.970   1.872   3.992
  390SOL    HW2 2070   2.812   1.858   3.952
  391SOL     OW 2071   0.386   2.091   0.286
  391SOL    HW1 2072   0.367   2.045   0.199
  391SOL    HW2 2073   0.484   2.084   0.307
  392SOL     OW 2074   3.829   5.261   4.817
  392SOL    HW1 2075   3.857   5.172   4.781
  392SOL    HW2 2076   3.766   5.247   4.893
  393SOL     OW 2077   5.865   3.394   5.343
  393SOL    HW1 2078   5.812   3.312   5.361
  393SOL    HW2 2079   5.803   3.468   5.315
  394SOL     OW 2080   1.903   1.162   6.333
  394SOL    HW1 2081   1.812   1.139   6.366
  394SOL    HW2 2082   1.945   1.229   6.395
  395SOL     OW 2083   6.934   2.986   1.449
  395SOL    HW1 2084   6.946   3.023   1.541
  395SOL    HW2 2085   6.968   2.892   1.446
  396SOL     OW 2086   3.609   2.416   5.495
  396SOL    HW1 2087   3.620   2.448   5.589
  396SOL    HW2 2088   3.517   2.439   5.462
  397SOL     OW 2089   4.431   0.408   6.106
  397SOL    HW1 2090   4.336   0.375   6.096
  397SOL    HW2 2091   4.437   0.467   6.186
  398SOL     OW 2092   6.836   4.686   2.252
  398SOL    HW1 2093   6.800   4.599   2.218
  398SOL    HW2 2094   6.908   4.668   2.319
  399SOL     OW 2095   4.248   5.040   1.895
  399SOL    HW1 2096   4.211   4.996   1.813
  399SOL    HW2 2097   4.179   5.041   1.967
  400SOL     OW 2098   2.481   4.961   5.330
  400SOL    HW1 2099   2.490   5.000   5.421
  400SOL    HW2 2100   2.548   4.888   5.318
  401SOL     OW 2101   6.188   1.489   1.757
  401SOL    HW1 2102   6.282   1.512   1.734
  401SOL    HW2 2103   6.164   1.531   1.845
  402SOL     OW 2104   0.545   5.434   0.927
  402SOL    HW1 2105   0.467   5.458   0.870
  402SOL    HW2 2106   0.591   5.518   0.957
  403SOL     OW 2107   4.709   4.240   0.828
  403SOL    HW1 2108   4.782   4.305   0.806
  403SOL    HW2 2109   4.640   4.286   0.885
  404SOL     OW 2110   7.005   5.825   4.984
  404SOL    HW1 2111   0.037   5.795   4.907
  404SOL    HW2 2112   6.953   5.748   5.020
  405SOL     OW 2113   1.387   1.683   1.223
  405SOL    HW1 2114   1.422   1.591   1.203
  405SOL    HW2 2115   1.396   1.701   1.321
  406SOL     OW 2116   0.601   2.843   3.535
  406SOL    HW1 2117   0.700   2.833   3.539
  406SOL    HW2 2118   0.575   2.937   3.557
  407SOL     OW 2119   3.646   2.139   3.701
  407SOL    HW1 2120   3.555   2.130   3.660
  407SOL    HW2 2121   3.638   2.131   3.800
  408SOL     OW 2122   2.672   0.610   4.167
  408SOL    HW1 2123   2.598   0.582   4.105
  408SOL    HW2 2124   2.742   0.658   4.115
  409SOL     OW 2125   7.021   4.259   4.230
  409SOL    HW1 2126   0.081   4.279   4.281
  409SOL    HW2 2127   6.982   4.343   4.194
  410SOL     OW 2128   2.779   6.764   6.168
  410SOL    HW1 2129   2.822   6.750   6.257
  410SOL    HW2 2130   2.686   6.798   6.181
  411SOL     OW 2131   0.058   4.421   5.591
  411SOL    HW1 2132   0.065   4.438   5.689
  411SOL    HW2 2133   6.985   4.416   5.566
  412SOL     OW 2134   3.425   6.356   2.229
  412SOL    HW1 2135   3.362   6.431   2.249
  412SOL    HW2 2136   3.372   6.272   2.214
  413SOL     OW 2137   2.055   0.747   2.323
  413SOL    HW1 2138   1.991   0.822   2.340
  413SOL    HW2 2139   2.098   0.759   2.234
  414SOL     OW 2140   5.323   4.672   1.055
  414SOL    HW1 2141   5.331   4.575   1.078
  414SOL    HW2 2142   5.296   4.723   1.137
  415SOL     OW 2143   3.997   0.297   2.657
  415SOL    HW1 2144   4.005   0.226   2.727
  415SOL    HW2 2145   3.933   0.367   2.688
  416SOL     OW 2146   4.108   5.937   7.018
  416SOL    HW1 2147   4.098   5.862   0.060
  416SOL    HW2 2148   4.131   6.021   0.044
  417SOL     OW 2149   5.352   5.121   1.281
  417SOL    HW1 2150   5.258   5.156   1.281
  417SOL    HW2 2151   5.396   5.144   1.195
  418SOL     OW 2152   6.742   4.847   6.817
  418SOL    HW1 2153   6.791   4.885   6.738
  418SOL    HW2 2154   6.666   4.790   6.785
  419SOL     OW 2155   5.183   5.336   0.069
  419SOL    HW1 2156   5.263   5.301   0.117
  419SOL    HW2 2157   5.151   5.419   0.114
  420SOL     OW 2158   4.883   3.637   6.463
  420SOL    HW1 2159   4.945   3.706   6.500
  420SOL    HW2 2160   4.831   3.677   6.387
  421SOL     OW 2161   1.839   6.553   6.815
  421SOL    HW1 2162   1.779   6.482   6.851
  421SOL    HW2 2163   1.785   6.635   6.793
  422SOL     OW 2164   6.308   3.822   6.535
  422SOL    HW1 2165   6.236   3.773   6.583
  422SOL    HW2 2166   6.352   3.761   6.469
  423SOL     OW 2167   0.950   3.685   6.379
  423SOL    HW1 2168   0.883   3.613   6.360
  423SOL    HW2 2169   0.947   3.709   6.476
  424SOL     OW 2170   1.788   4.288   6.221
  424SOL    HW1 2171   1.785   4.270   6.123
  424SOL    HW2 2172   1.844   4.369   6.239
  425SOL     OW 2173   3.516   0.427   0.409
  425SOL    HW1 2174   3.422   0.397   0.426
  425SOL    HW2 2175   3.575   0.347   0.399
  426SOL     OW 2176   0.285   3.992   6.792
  426SOL    HW1 2177   0.366   4.038   6.830
  426SOL    HW2 2178   0.257   4.037   6.708
  427SOL     OW 2179   3.618   3.467   6.805
  427SOL    HW1 2180   3.654   3.400   6.871
  427SOL    HW2 2181   3.688   3.486   6.737
  428SOL     OW 2182   4.342   1.469   4.831
  428SOL    HW1 2183   4.323   1.535   4.904
  428SOL    HW2 2184   4.385   1.516   4.754
  429SOL     OW 2185   3.387   6.623   0.445
  429SOL    HW1 2186   3.440   6.679   0.380
  429SOL    HW2 2187   3.380   6.671   0.532
  430SOL     OW 2188   2.737   0.830   4.592
  430SOL    HW1 2189   2.802   0.878   4.650
  430SOL    HW2 2190   2.744   0.865   4.498
  431SOL     OW 2191   3.888   1.179   0.224
  431SOL    HW1 2192   3.979   1.152   0.193
  431SOL    HW2 2193   3.887   1.182   0.324
  432SOL     OW 2194   6.602   1.615   0.837
  432SOL    HW1 2195   6.594   1.596   0.935
  432SOL    HW2 2196   6.552   1.698   0.815
  433SOL     OW 2197   3.168   6.441   4.885
  433SOL    HW1 2198   3.196   6.490   4.967
  433SOL    HW2 2199   3.075   6.405   4.898
  434SOL     OW 2200   6.271   3.555   0.644
  434SOL    HW1 2201   6.246   3.632   0.584
  434SOL    HW2 2202   6.238   3.470   0.603
  435SOL     OW 2203   3.778   3.579   0.769
  435SOL    HW1 2204   3.762   3.669   0.810
  435SOL    HW2 2205   3.696   3.523   0.779
  436SOL     OW 2206   3.134   1.206   0.415
  436SOL    HW1 2207   3.190   1.136   0.459
  436SOL    HW2 2208   3.077   1.163   0.344
  437SOL     OW 2209   6.773   6.521   6.219
  437SOL    HW1 2210   6.799   6.559   6.308
  437SOL    HW2 2211   6.748   6.425   6.230
  438SOL     OW 2212   1.294   3.321   0.844
  438SOL    HW1 2213   1.259   3.306   0.936
  438SOL    HW2 2214   1.296   3.419   0.824
  439SOL     OW 2215   6.359   5.258   1.710
  439SOL    HW1 2216   6.444   5.246   1.658
  439SOL    HW2 2217   6.333   5.171   1.752
  440SOL     OW 2218   1.739   2.982   2.803
  440SOL    HW1 2219   1.668   2.993   2.733
  440SOL    HW2 2220   1.792   3.066   2.810
  441SOL     OW 2221   0.202   1.468   3.216
  441SOL    HW1 2222   0.175   1.564   3.218
  441SOL    HW2 2223   0.291   1.460   3.170
  442SOL     OW 2224   0.718   5.108   6.219
  442SOL    HW1 2225   0.802   5.158   6.198
  442SOL    HW2 2226   0.644   5.173   6.236
  443SOL     OW 2227   0.635   4.911   5.669
  443SOL    HW1 2228   0.547   4.876   5.702
  443SOL    HW2 2229   0.702   4.908   5.743
  444SOL     OW 2230   5.294   2.701   6.674
  444SOL    HW1 2231   5.233   2.627   6.701
  444SOL    HW2 2232   5.241   2.785   6.663
  445SOL     OW 2233   0.950   3.891   3.615
  445SOL    HW1 2234   1.044   3.922   3.624
  445SOL    HW2 2235   0.939   3.802   3.660
  446SOL     OW 2236   2.036   4.940   4.040
  446SOL    HW1 2237   1.988   4.986   4.114
  446SOL    HW2 2238   2.068   5.008   3.974
  447SOL     OW 2239   0.230   5.858   0.641
  447SOL    HW1 2240   0.219   5.774   0.588
  447SOL    HW2 2241   0.300   5.845   0.711
  448SOL     OW 2242   4.133   0.041   5.916
  448SOL    HW1 2243   4.172   0.119   5.965
  448SOL    HW2 2244   4.115   0.067   5.821
  449SOL     OW 2245   5.218   0.524   4.612
  449SOL    HW1 2246   5.238   0.437   4.566
  449SOL    HW2 2247   5.140   0.512   4.673
  450SOL     OW 2248   6.833   6.333   2.190
  450SOL    HW1 2249   6.792   6.348   2.280
  450SOL    HW2 2250   6.760   6.317   2.123
  451SOL     OW 2251   6.303   3.438   3.850
  451SOL    HW1 2252   6.352   3.414   3.934
  451SOL    HW2 2253   6.367   3.441   3.774
  452SOL     OW 2254   6.744   5.485   5.904
  452SOL    HW1 2255   6.684   5.547   5.854
  452SOL    HW2 2256   6.832   5.530   5.921
  453SOL     OW 2257   3.537   1.737   6.210
  453SOL    HW1 2258   3.535   1.678   6.290
  453SOL    HW2 2259   3.474   1.814   6.224
  454SOL     OW 2260   0.600   6.022   0.956
  454SOL    HW1 2261   0.590   6.091   0.885
  454SOL    HW2 2262   0.696   6.016   0.984
  455SOL     OW 2263   5.520   0.934   5.275
  455SOL    HW1 2264   5.577   0.995   5.219
  455SOL    HW2 2265   5.426   0.969   5.277
  456SOL     OW 2266   3.993   4.770   0.169
  456SOL    HW1 2267   4.029   4.759   0.076
  456SOL    HW2 2268   3.966   4.680   0.204
  457SOL     OW 2269   0.694   4.693   1.644
  457SOL    HW1 2270   0.680   4.714   1.740
  457SOL    HW2 2271   0.681   4.595   1.628
  458SOL     OW 2272   0.770   5.816   5.249
  458SOL    HW1 2273   0.704   5.862   5.190
  458SOL    HW2 2274   0.794   5.876   5.326
  459SOL     OW 2275   1.426   0.622   3.430
  459SOL    HW1 2276   1.404   0.705   3.481
  459SOL    HW2 2277   1.350   0.600   3.368
  460SOL     OW 2278   6.508   2.084   3.598
  460SOL    HW1 2279   6.605   2.105   3.587
  460SOL    HW2 2280   6.454   2.147   3.541
  461SOL     OW 2281   5.862   4.888   5.835
  461SOL    HW1 2282   5.816   4.899   5.747
  461SOL    HW2 2283   5.957   4.863   5.820
  462SOL     OW 2284   3.107   2.080   0.207
  462SOL    HW1 2285   3.047   2.133   0.147
  462SOL    HW2 2286   3.196   2.067   0.162
  463SOL     OW 2287   6.229   6.304   2.325
  463SOL    HW1 2288   6.282   6.380   2.287
  463SOL    HW2 2289   6.283   6.220   2.319
  464SOL     OW 2290   1.976   1.126   5.821
  464SOL    HW1 2291   1.984   1.201   5.756
  464SOL    HW2 2292   2.057   1.125   5.881
  465SOL     OW 2293   0.087   3.127   6.204
  465SOL    HW1 2294   0.159   3.058   6.199
  465SOL    HW2 2295   0.104   3.198   6.136
  466SOL     OW 2296   2.136   0.434   3.175
  466SOL    HW1 2297   2.126   0.349   3.123
  466SOL    HW2 2298   2.046   0.470   3.199
  467SOL     OW 2299   1.621   1.799   5.289
  467SOL    HW1 2300   1.694   1.827   5.351
  467SOL    HW2 2301   1.661   1.755   5.208
  468SOL     OW 2302   3.054   4.002   2.653
  468SOL    HW1 2303   2.961   3.967   2.666
  468SOL    HW2 2304   3.104   3.941   2.592
  469SOL     OW 2305   3.571   6.647   0.006
  469SOL    HW1 2306   3.550   6.557   6.992
  469SOL    HW2 2307   3.668   6.667   7.016
  470SOL     OW 2308   4.552   7.005   3.497
  470SOL    HW1 2309   4.500   0.031   3.427
  470SOL    HW2 2310   4.556   6.908   3.473
  471SOL     OW 2311   2.729   2.200   4.041
  471SOL    HW1 2312   2.678   2.286   4.050
  471SOL    HW2 2313   2.817   2.209   4.087
  472SOL     OW 2314   3.762   4.243   5.468
  472SOL    HW1 2315   3.713   4.177   5.525
  472SOL    HW2 2316   3.857   4.250   5.498
  473SOL     OW 2317   0.701   4.478   3.775
  473SOL    HW1 2318   0.663   4.441   3.860
  473SOL    HW2 2319   0.788   4.523   3.794
  474SOL     OW 2320   4.885   4.475   5.289
  474SOL    HW1 2321   4.891   4.401   5.355
  474SOL    HW2 2322   4.975   4.515   5.274
  475SOL     OW 2323   2.389   6.354   6.980
  475SOL    HW1 2324   2.404   6.453   6.987
  475SOL    HW2 2325   2.364   6.319   0.047
  476SOL     OW 2326   6.784   6.053   2.806
  476SOL    HW1 2327   6.826   6.036   2.717
  476SOL    HW2 2328   6.777   5.967   2.856
  477SOL     OW 2329   2.202   4.699   3.993
  477SOL    HW1 2330   2.142   4.772   3.958
  477SOL    HW2 2331   2.210   4.708   4.092
  478SOL     OW 2332   1.071   5.349   3.271
  478SOL    HW1 2333   1.068   5.418   3.345
  478SOL    HW2 2334   1.115   5.389   3.191
  479SOL     OW 2335   4.239   1.850   1.411
  479SOL    HW1 2336   4.190   1.923   1.459
  479SOL    HW2 2337   4.310   1.890   1.353
  480SOL     OW 2338   1.517   6.529   3.442
  480SOL    HW1 2339   1.538   6.431   3.446
  480SOL    HW2 2340   1.450   6.551   3.513
  481SOL     OW 2341   2.159   6.990   0.913
  481SOL    HW1 2342   2.144   6.987   0.815
  481SOL    HW2 2343   2.249   6.952   0.935
  482SOL     OW 2344   5.700   5.305   0.716
  482SOL    HW1 2345   5.672   5.321   0.811
  482SOL    HW2 2346   5.708   5.392   0.668
  483SOL     OW 2347   6.040   2.094   2.765
  483SOL    HW1 2348   6.070   2.058   2.853
  483SOL    HW2 2349   5.970   2.035   2.726
  484SOL     OW 2350   6.423   2.108   4.252
  484SOL    HW1 2351   6.411   2.037   4.182
  484SOL    HW2 2352   6.346   2.171   4.249
  485SOL     OW 2353   3.569   6.272   1.411
  485SOL    HW1 2354   3.604   6.244   1.500
  485SOL    HW2 2355   3.646   6.300   1.353
  486SOL     OW 2356   0.471   0.759   5.699
  486SOL    HW1 2357   0.418   0.755   5.614
  486SOL    HW2 2358   0.428   0.702   5.768
  487SOL     OW 2359   6.615   3.078   6.333
  487SOL    HW1 2360   6.653   3.140   6.264
  487SOL    HW2 2361   6.533   3.117   6.372
  488SOL     OW 2362   0.879   4.686   2.298
  488SOL    HW1 2363   0.779   4.677   2.307
  488SOL    HW2 2364   0.909   4.636   2.217
  489SOL     OW 2365   3.447   5.558   6.352
  489SOL    HW1 2366   3.389   5.606   6.286
  489SOL    HW2 2367   3.466   5.619   6.429
  490SOL     OW 2368   4.861   0.284   4.512
  490SOL    HW1 2369   4.767   0.270   4.544
  490SOL    HW2 2370   4.911   0.338   4.580
  491SOL     OW 2371   0.646   2.448   3.390
  491SOL    HW1 2372   0.654   2.359   3.345
  491SOL    HW2 2373   0.587   2.508   3.336
  492SOL     OW 2374   1.486   1.286   4.676
  492SOL    HW1 2375   1.506   1.226   4.598
  492SOL    HW2 2376   1.516   1.242   4.761
  493SOL     OW 2377   6.946   4.069   4.560
  493SOL    HW1 2378   6.896   3.992   4.522
  493SOL    HW2 2379   6.979   4.046   4.652
  494SOL     OW 2380   6.312   1.230   6.763
  494SOL    HW1 2381   6.362   1.149   6.794
  494SOL    HW2 2382   6.375   1.309   6.760
  495SOL     OW 2383   4.766   4.468   0.413
  495SOL    HW1 2384   4.852   4.508   0.383
  495SOL    HW2 2385   4.780   4.371   0.433
  496SOL     OW 2386   5.505   3.596   2.953
  496SOL    HW1 2387   5.416   3.561   2.925
  496SOL    HW2 2388   5.552   3.528   3.009
  497SOL     OW 2389   4.038   6.918   3.968
  497SOL    HW1 2390   3.960   6.976   3.946
  497SOL    HW2 2391   4.008   6.822   3.969
  498SOL     OW 2392   1.196   2.613   1.623
  498SOL    HW1 2393   1.273   2.582   1.678
  498SOL    HW2 2394   1.184   2.712   1.635
  499SOL     OW 2395   3.602   1.228   5.066
  499SOL    HW1 2396   3.578   1.131   5.068
  499SOL    HW2 2397   3.593   1.267   5.158
  500SOL     OW 2398   1.804   4.263   2.565
  500SOL    HW1 2399   1.848   4.342   2.608
  500SOL    HW2 2400   1.744   4.294   2.492
  501SOL     OW 2401   0.718   5.428   6.797
  501SOL    HW1 2402   0.635   5.375   6.782
  501SOL    HW2 2403   0.728   5.446   6.895
  502SOL     OW 2404   2.584   4.862   6.505
  502SOL    HW1 2405   2.629   4.939   6.550
  502SOL    HW2 2406   2.593   4.780   6.562
  503SOL     OW 2407   6.323   5.386   4.679
  503SOL    HW1 2408   6.375   5.327   4.741
  503SOL    HW2 2409   6.255   5.331   4.630
  504SOL     OW 2410   1.774   5.237   4.888
  504SOL    HW1 2411   1.705   5.165   4.891
  504SOL    HW2 2412   1.751   5.308   4.955
  505SOL     OW 2413   3.156   6.896   4.901
  505SOL    HW1 2414   3.114   6.807   4.918
  505SOL    HW2 2415   3.180   6.938   4.988
  506SOL     OW 2416   1.813   3.064   0.655
  506SOL    HW1 2417   1.851   2.980   0.694
  506SOL    HW2 2418   1.760   3.041   0.573
  507SOL     OW 2419   4.150   2.260   4.207
  507SOL    HW1 2420   4.051   2.256   4.220
  507SOL    HW2 2421   4.194   2.283   4.294
  508SOL     OW 2422   6.374   4.992   4.302
  508SOL    HW1 2423   6.452   5.050   4.280
  508SOL    HW2 2424   6.332   4.959   4.217
  509SOL     OW 2425   4.315   3.279   1.191
  509SOL    HW1 2426   4.388   3.212   1.202
  509SOL    HW2 2427   4.244   3.241   1.131
  510SOL     OW 2428   0.972   4.241   4.512
  510SOL    HW1 2429   0.874   4.232   4.532
  510SOL    HW2 2430   0.993   4.195   4.425
  511SOL     OW 2431   0.496   6.555   1.276
  511SOL    HW1 2432   0.497   6.456   1.281
  511SOL    HW2 2433   0.426   6.591   1.338
  512SOL     OW 2434   1.213   3.726   6.278
  512SOL    HW1 2435   1.117   3.720   6.307
  512SOL    HW2 2436   1.217   3.758   6.184
  513SOL     OW 2437   1.053   5.065   4.077
  513SOL    HW1 2438   1.129   5.095   4.020
  513SOL    HW2 2439   0.995   5.143   4.098
  514SOL     OW 2440   5.488   1.594   3.354
  514SOL    HW1 2441   5.444   1.603   3.444
  514SOL    HW2 2442   5.587   1.589   3.365
  515SOL     OW 2443   2.673   5.540   7.019
  515SOL    HW1 2444   2.605   5.599   0.040
  515SOL    HW2 2445   2.632   5.494   6.941
  516SOL     OW 2446   1.157   4.806   3.811
  516SOL    HW1 2447   1.157   4.792   3.712
  516SOL    HW2 2448   1.063   4.815   3.843
  517SOL     OW 2449   4.464   0.577   6.354
  517SOL    HW1 2450   4.542   0.585   6.416
  517SOL    HW2 2451   4.382   0.552   6.407
  518SOL     OW 2452   2.264   1.669   0.290
  518SOL    HW1 2453   2.237   1.676   0.194
  518SOL    HW2 2454   2.337   1.601   0.299
  519SOL     OW 2455   0.778   6.525   0.652
  519SOL    HW1 2456   0.756   6.540   0.556
  519SOL    HW2 2457   0.720   6.583   0.709
  520SOL     OW 2458   5.903   4.652   4.266
  520SOL    HW1 2459   5.894   4.563   4.222
  520SOL    HW2 2460   5.989   4.694   4.239
  521SOL     OW 2461   6.659   0.446   0.464
  521SOL    HW1 2462   6.692   0.501   0.387
  521SOL    HW2 2463   6.667   0.499   0.549
  522SOL     OW 2464   3.446   3.782   5.606
  522SOL    HW1 2465   3.428   3.855   5.673
  522SOL    HW2 2466   3.361   3.733   5.586
  523SOL     OW 2467   6.348   6.885   3.861
  523SOL    HW1 2468   6.321   6.792   3.834
  523SOL    HW2 2469   6.266   6.939   3.880
  524SOL     OW 2470   3.860   0.620   5.361
  524SOL    HW1 2471   3.878   0.711   5.398
  524SOL    HW2 2472   3.802   0.569   5.424
  525SOL     OW 2473   2.655   2.556   7.000
  525SOL    HW1 2474   2.719   2.541   6.925
  525SOL    HW2 2475   2.677   2.493   0.051
  526SOL     OW 2476   4.792   5.832   4.577
  526SOL    HW1 2477   4.749   5.891   4.646
  526SOL    HW2 2478   4.820   5.888   4.499
  527SOL     OW 2479   6.923   2.008   0.037
  527SOL    HW1 2480   6.966   2.013   0.127
  527SOL    HW2 2481   6.918   2.099   7.020
  528SOL     OW 2482   1.788   1.428   5.983
  528SOL    HW1 2483   1.721   1.497   6.010
  528SOL    HW2 2484   1.783   1.413   5.884
  529SOL     OW 2485   6.659   5.088   4.291
  529SOL    HW1 2486   6.702   5.169   4.330
  529SOL    HW2 2487   6.647   5.100   4.192
  530SOL     OW 2488   6.950   2.967   5.231
  530SOL    HW1 2489   6.893   3.036   5.276
  530SOL    HW2 2490   6.893   2.890   5.203
  531SOL     OW 2491   6.785   0.764   0.047
  531SOL    HW1 2492   6.790   0.685   7.009
  531SOL    HW2 2493   6.851   0.833   0.018
  532SOL     OW 2494   2.161   0.783   5.785
  532SOL    HW1 2495   2.110   0.714   5.837
  532SOL    HW2 2496   2.257   0.781   5.813
  533SOL     OW 2497   4.567   0.379   4.984
  533SOL    HW1 2498   4.477   0.403   5.020
  533SOL    HW2 2499   4.566   0.285   4.950
  534SOL     OW 2500   3.262   5.458   3.252
  534SOL    HW1 2501   3.317   5.465   3.335
  534SOL    HW2 2502   3.165   5.460   3.276
  535SOL     OW 2503   5.830   3.703   1.707
  535SOL    HW1 2504   5.887   3.771   1.660
  535SOL    HW2 2505   5.871   3.682   1.796
  536SOL     OW 2506   1.412   6.477   1.368
  536SOL    HW1 2507   1.500   6.499   1.324
  536SOL    HW2 2508   1.338   6.524   1.319
  537SOL     OW 2509   2.106   6.975   3.376
  537SOL    HW1 2510   2.152   6.928   3.451
  537SOL    HW2 2511   2.011   6.994   3.403
  538SOL     OW 2512   1.632   5.050   4.306
  538SOL    HW1 2513   1.602   5.008   4.391
  538SOL    HW2 2514   1.571   5.022   4.232
  539SOL     OW 2515   1.130   5.661   1.429
  539SOL    HW1 2516   1.105   5.655   1.332
  539SOL    HW2 2517   1.095   5.580   1.477
  540SOL     OW 2518   1.775   3.115   0.935
  540SOL    HW1 2519   1.867   3.149   0.951
  540SOL    HW2 2520   1.769   3.078   0.842
  541SOL     OW 2521   4.414   5.617   5.137
  541SOL    HW1 2522   4.316   5.597   5.138
  541SOL    HW2 2523   4.463   5.545   5.187
  542SOL     OW 2524   5.603   0.158   5.931
  542SOL    HW1 2525   5.599   0.112   6.020
  542SOL    HW2 2526   5.516   0.148   5.884
  543SOL     OW 2527   5.789   6.964   1.176
  543SOL    HW1 2528   5.850   6.941   1.252
  543SOL    HW2 2529   5.782   0.040   1.168
  544SOL     OW 2530   0.904   5.547   0.277
  544SOL    HW1 2531   0.861   5.489   0.345
  544SOL    HW2 2532   0.879   5.642   0.293
  545SOL     OW 2533   3.023   1.559   3.537
  545SOL    HW1 2534   2.934   1.525   3.506
  545SOL    HW2 2535   3.081   1.483   3.564
  546SOL     OW 2536   2.100   2.097   0.157
  546SOL    HW1 2537   2.079   2.088   0.254
  546SOL    HW2 2538   2.195   2.072   0.141
  547SOL     OW 2539   2.792   1.618   0.121
  547SOL    HW1 2540   2.835   1.698   0.164
  547SOL    HW2 2541   2.800   1.625   0.022
  548SOL     OW 2542   3.417   3.529   5.369
  548SOL    HW1 2543   3.490   3.464   5.391
  548SOL    HW2 2544   3.358   3.541   5.449
  549SOL     OW 2545   0.481   4.361   1.052
  549SOL    HW1 2546   0.451   4.333   0.961
  549SOL    HW2 2547   0.560   4.422   1.044
  550SOL     OW 2548   6.781   3.579   0.324
  550SOL    HW1 2549   6.855   3.640   0.294
  550SOL    HW2 2550   6.810   3.527   0.403
  551SOL     OW 2551   0.132   0.982   0.231
  551SOL    HW1 2552   0.035   1.005   0.239
  551SOL    HW2 2553   0.143   0.906   0.167
  552SOL     OW 2554   4.863   4.482   0.853
  552SOL    HW1 2555   4.924   4.509   0.778
  552SOL    HW2 2556   4.811   4.561   0.884
  553SOL     OW 2557   1.270   2.305   1.344
  553SOL    HW1 2558   1.230   2.216   1.321
  553SOL    HW2 2559   1.214   2.378   1.305
  554SOL     OW 2560   4.305   5.042   4.555
  554SOL    HW1 2561   4.210   5.030   4.586
  554SOL    HW2 2562   4.307   5.046   4.455
  555SOL     OW 2563   1.620   4.748   5.299
  555SOL    HW1 2564   1.708   4.701   5.282
  555SOL    HW2 2565   1.565   4.693   5.362
  556SOL     OW 2566   6.106   4.066   2.918
  556SOL    HW1 2567   6.097   4.150   2.971
  556SOL    HW2 2568   6.015   4.028   2.900
  557SOL     OW 2569   6.498   5.772   5.558
  557SOL    HW1 2570   6.497   5.720   5.643
  557SOL    HW2 2571   6.553   5.854   5.569
  558SOL     OW 2572   4.121   3.549   5.780
  558SOL    HW1 2573   4.144   3.497   5.863
  558SOL    HW2 2574   4.064   3.627   5.805
  559SOL     OW 2575   5.813   4.965   6.424
  559SOL    HW1 2576   5.904   4.945   6.388
  559SOL    HW2 2577   5.760   5.015   6.356
  560SOL     OW 2578   4.217   6.508   0.304
  560SOL    HW1 2579   4.281   6.514   0.380
  560SOL    HW2 2580   4.231   6.586   0.243
  561SOL     OW 2581   5.742   0.119   2.041
  561SOL    HW1 2582   5.715   0.049   2.108
  561SOL    HW2 2583   5.816   0.083   1.983
  562SOL     OW 2584   6.711   0.564   0.706
  562SOL    HW1 2585   6.799   0.611   0.714
  562SOL    HW2 2586   6.703   0.495   0.777
  563SOL     OW 2587   2.684   0.827   5.400
  563SOL    HW1 2588   2.694   0.887   5.480
  563SOL    HW2 2589   2.766   0.833   5.343
  564SOL     OW 2590   0.907   1.406   5.724
  564SOL    HW1 2591   0.900   1.441   5.818
  564SOL    HW2 2592   0.815   1.393   5.687
  565SOL     OW 2593   4.624   3.681   5.882
  565SOL    HW1 2594   4.657   3.756   5.825
  565SOL    HW2 2595   4.675   3.597   5.861
  566SOL     OW 2596   6.623   4.748   2.108
  566SOL    HW1 2597   6.580   4.658   2.098
  566SOL    HW2 2598   6.715   4.737   2.146
  567SOL     OW 2599   4.024   3.711   5.323
  567SOL    HW1 2600   4.120   3.725   5.302
  567SOL    HW2 2601   3.995   3.776   5.394
  568SOL     OW 2602   2.175   1.047   6.485
  568SOL    HW1 2603   2.152   1.144   6.477
  568SOL    HW2 2604   2.103   1.000   6.535
  569SOL     OW 2605   1.912   4.095   6.509
  569SOL    HW1 2606   1.979   4.027   6.539
  569SOL    HW2 2607   1.864   4.061   6.428
  570SOL     OW 2608   6.924   6.059   0.068
  570SOL    HW1 2609   6.987   6.043   0.144
  570SOL    HW2 2610   6.830   6.051   0.100
  571SOL     OW 2611   3.918   6.467   2.143
  571SOL    HW1 2612   3.885   6.377   2.171
  571SOL    HW2 2613   3.951   6.516   2.224
  572SOL     OW 2614   1.366   4.268   4.145
  572SOL    HW1 2615   1.448   4.231   4.100
  572SOL    HW2 2616   1.392   4.309   4.233
  573SOL     OW 2617   3.528   2.389   6.542
  573SOL    HW1 2618   3.469   2.411   6.465
  573SOL    HW2 2619   3.478   2.401   6.628
  574SOL     OW 2620   2.773   2.231   3.715
  574SOL    HW1 2621   2.677   2.203   3.719
  574SOL    HW2 2622   2.830   2.150   3.703
  575SOL     OW 2623   4.468   2.372   6.293
  575SOL    HW1 2624   4.510   2.295   6.247
  575SOL    HW2 2625   4.530   2.407   6.364
  576SOL     OW 2626   1.152   3.336   2.866
  576SOL    HW1 2627   1.158   3.378   2.775
  576SOL    HW2 2628   1.204   3.390   2.932
  577SOL     OW 2629   4.221   1.869   3.929
  577SOL    HW1 2630   4.210   1.772   3.953
  577SOL    HW2 2631   4.318   1.887   3.911
  578SOL     OW 2632   0.153   3.982   4.136
  578SOL    HW1 2633   0.244   4.010   4.165
  578SOL    HW2 2634   0.086   4.051   4.163
  579SOL     OW 2635   3.893   3.588   0.525
  579SOL    HW1 2636   3.827   3.656   0.492
  579SOL    HW2 2637   3.869   3.563   0.619
  580SOL     OW 2638   0.358   6.863   0.299
  580SOL    HW1 2639   0.331   6.957   0.279
  580SOL    HW2 2640   0.445   6.842   0.253
  581SOL     OW 2641   4.072   3.300   3.261
  581SOL    HW1 2642   4.092   3.291   3.164
  581SOL    HW2 2643   4.041   3.393   3.280
  582SOL     OW 2644   6.691   4.321   0.614
  582SOL    HW1 2645   6.659   4.416   0.613
  582SOL    HW2 2646   6.791   4.319   0.614
  583SOL     OW 2647   2.498   6.542   6.634
  583SOL    HW1 2648   2.535   6.625   6.592
  583SOL    HW2 2649   2.565   6.468   6.628
  584SOL     OW 2650   1.125   4.861   4.223
  584SOL    HW1 2651   1.058   4.842   4.295
  584SOL    HW2 2652   1.094   4.941   4.170
  585SOL     OW 2653   5.580   0.756   5.458
  585SOL    HW1 2654   5.572   0.812   5.376
  585SOL    HW2 2655   5.657   0.693   5.448
  586SOL     OW 2656   3.027   5.635   1.096
  586SOL    HW1 2657   3.079   5.720   1.106
  586SOL    HW2 2658   3.076   5.573   1.033
  587SOL     OW 2659   2.160   2.969   6.428
  587SOL    HW1 2660   2.252   3.008   6.433
  587SOL    HW2 2661   2.126   2.952   6.520
  588SOL     OW 2662   2.224   0.184   1.828
  588SOL    HW1 2663   2.319   0.213   1.844
  588SOL    HW2 2664   2.224   0.094   1.784
  589SOL     OW 2665   4.582   4.555   1.138
  589SOL    HW1 2666   4.519   4.631   1.151
  589SOL    HW2 2667   4.586   4.500   1.222
  590SOL     OW 2668   6.900   3.585   1.728
  590SOL    HW1 2669   6.873   3.494   1.758
  590SOL    HW2 2670   6.828   3.651   1.750
  591SOL     OW 2671   2.810   0.085   3.017
  591SOL    HW1 2672   2.712   0.104   3.008
  591SOL    HW2 2673   2.861   0.171   3.021
  592SOL     OW 2674   5.339   0.177   5.815
  592SOL    HW1 2675   5.309   0.241   5.744
  592SOL    HW2 2676   5.292   0.198   5.901
  593SOL     OW 2677   6.973   0.974   4.651
  593SOL    HW1 2678   0.032   1.010   4.693
  593SOL    HW2 2679   6.983   0.875   4.638
  594SOL     OW 2680   5.841   2.135   1.388
  594SOL    HW1 2681   5.773   2.087   1.442
  594SOL    HW2 2682   5.813   2.230   1.376
  595SOL     OW 2683   3.335   0.104   3.646
  595SOL    HW1 2684   3.331   0.025   3.708
  595SOL    HW2 2685   3.277   0.177   3.681
  596SOL     OW 2686   0.792   4.319   1.926
  596SOL    HW1 2687   0.756   4.300   2.017
  596SOL    HW2 2688   0.892   4.312   1.927
  597SOL     OW 2689   4.732   2.054   5.829
  597SOL    HW1 2690   4.672   2.108   5.770
  597SOL    HW2 2691   4.736   2.096   5.920
  598SOL     OW 2692   3.165   3.473   1.516
  598SOL    HW1 2693   3.171   3.434   1.424
  598SOL    HW2 2694   3.148   3.400   1.582
  599SOL     OW 2695   5.884   6.157   3.710
  599SOL    HW1 2696   5.864   6.149   3.808
  599SOL    HW2 2697   5.966   6.212   3.697
  600SOL     OW 2698   2.836   1.450   1.178
  600SOL    HW1 2699   2.892   1.509   1.119
  600SOL    HW2 2700   2.883   1.363   1.192
  601SOL     OW 2701   2.068   5.011   2.981
  601SOL    HW1 2702   2.015   4.929   2.961
  601SOL    HW2 2703   2.151   5.012   2.925
  602SOL     OW 2704   6.944   0.257   2.408
  602SOL    HW1 2705   6.910   0.166   2.385
  602SOL    HW2 2706   6.891   0.326   2.358
  603SOL     OW 2707   4.241   1.962   2.989
  603SOL    HW1 2708   4.152   1.935   2.954
  603SOL    HW2 2709   4.281   1.887   3.041
  604SOL     OW 2710   1.270   3.239   5.674
  604SOL    HW1 2711   1.284   3.337   5.655
  604SOL    HW2 2712   1.327   3.185   5.612
  605SOL     OW 2713   5.270   0.220   4.523
  605SOL    HW1 2714   5.226   0.132   4.540
  605SOL    HW2 2715   5.346   0.231   4.586
  606SOL     OW 2716   2.480   6.503   1.873
  606SOL    HW1 2717   2.517   6.566   1.805
  606SOL    HW2 2718   2.545   6.428   1.889
  607SOL     OW 2719   3.633   0.821   4.303
  607SOL    HW1 2720   3.634   0.727   4.337
  607SOL    HW2 2721   3.538   0.848   4.283
  608SOL     OW 2722   5.706   3.028   0.963
  608SOL    HW1 2723   5.736   2.945   1.010
  608SOL    HW2 2724   5.711   3.014   0.864
  609SOL     OW 2725   3.670   3.910   4.900
  609SOL    HW1 2726   3.732   3.988   4.903
  609SOL    HW2 2727   3.655   3.875   4.992
  610SOL     OW 2728   6.476   1.833   4.734
  610SOL    HW1 2729   6.439   1.926   4.725
  610SOL    HW2 2730   6.402   1.767   4.725
  611SOL     OW 2731   6.008   0.041   0.361
  611SOL    HW1 2732   6.071   6.987   0.361
  611SOL    HW2 2733   6.057   0.124   0.333
  612SOL     OW 2734   1.675   4.457   6.642
  612SOL    HW1 2735   1.712   4.441   6.734
  612SOL    HW2 2736   1.722   4.535   6.601
  613SOL     OW 2737   3.690   1.414   6.733
  613SOL    HW1 2738   3.719   1.375   6.645
  613SOL    HW2 2739   3.664   1.510   6.720
  614SOL     OW 2740   5.195   3.030   0.918
  614SOL    HW1 2741   5.212   3.128   0.902
  614SOL    HW2 2742   5.223   3.006   1.011
  615SOL     OW 2743   6.308   6.083   0.167
  615SOL    HW1 2744   6.298   6.067   0.069
  615SOL    HW2 2745   6.306   5.995   0.215
  616SOL     OW 2746   4.678   1.832   4.823
  616SOL    HW1 2747   4.727   1.769   4.882
  616SOL    HW2 2748   4.729   1.845   4.738
  617SOL     OW 2749   6.575   6.484   5.027
  617SOL    HW1 2750   6.532   6.442   5.107
  617SOL    HW2 2751   6.530   6.451   4.944
  618SOL     OW 2752   5.563   4.806   0.711
  618SOL    HW1 2753   5.547   4.747   0.790
  618SOL    HW2 2754   5.638   4.770   0.657
  619SOL     OW 2755   1.962   0.083   6.702
  619SOL    HW1 2756   1.998   0.171   6.733
  619SOL    HW2 2757   1.897   0.099   6.627
  620SOL     OW 2758   4.778   1.843   1.972
  620SOL    HW1 2759   4.731   1.886   1.895
  620SOL    HW2 2760   4.795   1.911   2.043
  621SOL     OW 2761   2.379   0.240   6.236
  621SOL    HW1 2762   2.461   0.183   6.239
  621SOL    HW2 2763   2.302   0.185   6.203
  622SOL     OW 2764   0.285   3.470   5.748
  622SOL    HW1 2765   0.187   3.453   5.739
  622SOL    HW2 2766   0.314   3.537   5.679
  623SOL     OW 2767   6.668   1.516   2.749
  623SOL    HW1 2768   6.751   1.546   2.796
  623SOL    HW2 2769   6.652   1.419   2.771
  624SOL     OW 2770   6.880   0.644   6.487
  624SOL    HW1 2771   6.883   0.721   6.551
  624SOL    HW2 2772   6.800   0.653   6.428
  625SOL     OW 2773   3.385   0.803   1.487
  625SOL    HW1 2774   3.484   0.798   1.480
  625SOL    HW2 2775   3.360   0.853   1.570
  626SOL     OW 2776   0.413   5.846   3.695
  626SOL    HW1 2777   0.485   5.779   3.715
  626SOL    HW2 2778   0.325   5.810   3.725
  627SOL     OW 2779   6.448   5.333   6.661
  627SOL    HW1 2780   6.442   5.301   6.755
  627SOL    HW2 2781   6.536   5.308   6.622
  628SOL     OW 2782   3.873   4.328   6.396
  628SOL    HW1 2783   3.865   4.419   6.436
  628SOL    HW2 2784   3.866   4.259   6.468
  629SOL     OW 2785   1.894   0.143   0.224
  629SOL    HW1 2786   1.827   0.187   0.164
  629SOL    HW2 2787   1.849   0.072   0.278
  630SOL     OW 2788   5.932   2.546   0.859
  630SOL    HW1 2789   6.003   2.558   0.789
  630SOL    HW2 2790   5.976   2.525   0.947
  631SOL     OW 2791   1.894   3.496   2.518
  631SOL    HW1 2792   1.956   3.468   2.591
  631SOL    HW2 2793   1.879   3.595   2.523
  632SOL     OW 2794   3.439   4.619   1.303
  632SOL    HW1 2795   3.433   4.705   1.252
  632SOL    HW2 2796   3.350   4.598   1.344
  633SOL     OW 2797   0.819   6.001   0.049
  633SOL    HW1 2798   0.791   6.020   0.143
  633SOL    HW2 2799   0.750   5.943   0.005
  634SOL     OW 2800   2.942   3.358   5.467
  634SOL    HW1 2801   2.874   3.287   5.483
  634SOL    HW2 2802   2.897   3.442   5.438
  635SOL     OW 2803   6.541   0.098   6.415
  635SOL    HW1 2804   6.506   0.017   6.462
  635SOL    HW2 2805   6.532   0.177   6.475
  636SOL     OW 2806   2.185   1.567   4.358
  636SOL    HW1 2807   2.149   1.523   4.441
  636SOL    HW2 2808   2.123   1.641   4.330
  637SOL     OW 2809   6.943   1.634   2.027
  637SOL    HW1 2810   6.874   1.690   1.981
  637SOL    HW2 2811   0.011   1.668   2.004
  638SOL     OW 2812   6.829   3.383   5.305
  638SOL    HW1 2813   6.868   3.351   5.219
  638SOL    HW2 2814   6.767   3.459   5.288
  639SOL     OW 2815   5.559   3.160   1.613
  639SOL    HW1 2816   5.529   3.161   1.708
  639SOL    HW2 2817   5.625   3.233   1.597
  640SOL     OW 2818   6.333   3.289   2.917
  640SOL    HW1 2819   6.402   3.337   2.863
  640SOL    HW2 2820   6.260   3.354   2.942
  641SOL     OW 2821   2.517   5.469   4.394
  641SOL    HW1 2822   2.505   5.560   4.435
  641SOL    HW2 2823   2.470   5.466   4.306
  642SOL     OW 2824   0.865   5.090   4.341
  642SOL    HW1 2825   0.810   5.099   4.424
  642SOL    HW2 2826   0.961   5.109   4.363
  643SOL     OW 2827   4.416   4.976   0.606
  643SOL    HW1 2828   4.444   4.985   0.702
  643SOL    HW2 2829   4.496   4.984   0.547
  644SOL     OW 2830   6.312   0.640   4.558
  644SOL    HW1 2831   6.345   0.559   4.508
  644SOL    HW2 2832   6.244   0.611   4.625
  645SOL     OW 2833   4.099   6.492   1.779
  645SOL    HW1 2834   4.049   6.575   1.803
  645SOL    HW2 2835   4.043   6.412   1.800
  646SOL     OW 2836   3.650   1.995   4.822
  646SOL    HW1 2837   3.687   2.001   4.915
  646SOL    HW2 2838   3.641   1.899   4.795
  647SOL     OW 2839   2.675   2.245   0.086
  647SOL    HW1 2840   2.693   2.242   0.185
  647SOL    HW2 2841   2.758   2.218   0.037
  648SOL     OW 2842   5.363   1.793   4.135
  648SOL    HW1 2843   5.306   1.861   4.088
  648SOL    HW2 2844   5.308   1.747   4.205
  649SOL     OW 2845   3.503   5.642   0.510
  649SOL    HW1 2846   3.583   5.699   0.492
  649SOL    HW2 2847   3.514   5.554   0.465
  650SOL     OW 2848   2.158   3.205   1.427
  650SOL    HW1 2849   2.209   3.191   1.512
  650SOL    HW2 2850   2.061   3.217   1.448
  651SOL     OW 2851   0.173   1.633   2.785
  651SOL    HW1 2852   0.103   1.701   2.805
  651SOL    HW2 2853   0.178   1.619   2.686
  652SOL     OW 2854   4.094   6.284   0.382
  652SOL    HW1 2855   4.152   6.203   0.374
  652SOL    HW2 2856   4.145   6.364   0.351
  653SOL     OW 2857   1.328   6.987   2.795
  653SOL    HW1 2858   1.404   0.008   2.843
  653SOL    HW2 2859   1.294   0.024   2.723
  654SOL     OW 2860   1.219   0.186   5.864
  654SOL    HW1 2861   1.280   0.255   5.826
  654SOL    HW2 2862   1.266   0.135   5.936
  655SOL     OW 2863   1.688   4.076   1.135
  655SOL    HW1 2864   1.760   4.093   1.067
  655SOL    HW2 2865   1.707   3.991   1.184
  656SOL     OW 2866   2.213   0.541   6.968
  656SOL    HW1 2867   2.263   0.544   6.882
  656SOL    HW2 2868   2.176   0.449   6.983
  657SOL     OW 2869   3.705   3.356   3.914
  657SOL    HW1 2870   3.692   3.269   3.961
  657SOL    HW2 2871   3.778   3.348   3.847
  658SOL     OW 2872   1.996   0.599   4.793
  658SOL    HW1 2873   1.907   0.609   4.836
  658SOL    HW2 2874   2.012   0.503   4.770
  659SOL     OW 2875   1.938   5.604   6.831
  659SOL    HW1 2876   1.873   5.541   6.872
  659SOL    HW2 2877   1.890   5.664   6.766
  660SOL     OW 2878   5.542   4.164   2.566
  660SOL    HW1 2879   5.495   4.112   2.495
  660SOL    HW2 2880   5.517   4.127   2.656
  661SOL     OW 2881   4.625   5.884   4.252
  661SOL    HW1 2882   4.611   5.922   4.344
  661SOL    HW2 2883   4.543   5.836   4.224
  662SOL     OW 2884   6.081   3.704   6.621
  662SOL    HW1 2885   6.085   3.624   6.682
  662SOL    HW2 2886   6.043   3.782   6.671
  663SOL     OW 2887   1.375   4.320   5.893
  663SOL    HW1 2888   1.319   4.382   5.838
  663SOL    HW2 2889   1.380   4.355   5.987
  664SOL     OW 2890   1.667   0.282   5.344
  664SOL    HW1 2891   1.759   0.291   5.306
  664SOL    HW2 2892   1.600   0.319   5.280
  665SOL     OW 2893   2.511   4.467   3.242
  665SOL    HW1 2894   2.443   4.540   3.248
  665SOL    HW2 2895   2.468   4.383   3.210
  666SOL     OW 2896   3.183   0.417   0.067
  666SOL    HW1 2897   3.238   0.490   0.107
  666SOL    HW2 2898   3.088   0.447   0.059
  667SOL     OW 2899   1.130   2.771   2.314
  667SOL    HW1 2900   1.219   2.783   2.268
  667SOL    HW2 2901   1.098   2.859   2.348
  668SOL     OW 2902   5.490   6.940   0.153
  668SOL    HW1 2903   5.573   6.969   0.105
  668SOL    HW2 2904   5.445   7.020   0.193
  669SOL     OW 2905   6.803   5.587   2.574
  669SOL    HW1 2906   6.723   5.614   2.628
  669SOL    HW2 2907   6.804   5.638   2.488
  670SOL     OW 2908   4.018   3.884   2.933
  670SOL    HW1 2909   3.999   3.886   2.835
  670SOL    HW2 2910   3.952   3.942   2.980
  671SOL     OW 2911   1.806   6.987   6.474
  671SOL    HW1 2912   1.880   6.923   6.450
  671SOL    HW2 2913   1.722   6.936   6.492
  672SOL     OW 2914   1.320   2.576   3.199
  672SOL    HW1 2915   1.402   2.608   3.151
  672SOL    HW2 2916   1.279   2.652   3.250
  673SOL     OW 2917   5.281   0.472   6.936
  673SOL    HW1 2918   5.263   0.439   6.843
  673SOL    HW2 2919   5.225   0.553   6.953
  674SOL     OW 2920   6.974   2.331   4.303
  674SOL    HW1 2921   6.907   2.327   4.377
  674SOL    HW2 2922   0.026   2.391   4.330
  675SOL     OW 2923   5.423   6.343   3.640
  675SOL    HW1 2924   5.514   6.382   3.653
  675SOL    HW2 2925   5.416   6.256   3.689
  676SOL     OW 2926   3.115   4.880   4.487
  676SOL    HW1 2927   3.166   4.901   4.570
  676SOL    HW2 2928   3.046   4.810   4.508
  677SOL     OW 2929   4.809   6.681   1.017
  677SOL    HW1 2930   4.769   6.746   1.082
  677SOL    HW2 2931   4.737   6.638   0.964
  678SOL     OW 2932   2.450   1.139   6.415
  678SOL    HW1 2933   2.505   1.057   6.429
  678SOL    HW2 2934   2.358   1.124   6.451
  679SOL     OW 2935   6.451   0.255   2.541
  679SOL    HW1 2936   6.368   0.270   2.487
  679SOL    HW2 2937   6.507   0.184   2.497
  680SOL     OW 2938   6.339   4.133   4.179
  680SOL    HW1 2939   6.421   4.129   4.237
  680SOL    HW2 2940   6.258   4.113   4.234
  681SOL     OW 2941   1.149   5.297   2.389
  681SOL    HW1 2942   1.127   5.394   2.400
  681SOL    HW2 2943   1.246   5.286   2.369
  682SOL     OW 2944   0.605   0.124   5.940
  682SOL    HW1 2945   0.583   0.028   5.927
  682SOL    HW2 2946   0.524   0.180   5.921
  683SOL     OW 2947   5.459   1.747   1.781
  683SOL    HW1 2948   5.464   1.695   1.866
  683SOL    HW2 2949   5.476   1.844   1.800
  684SOL     OW 2950   0.130   5.911   6.611
  684SOL    HW1 2951   0.085   5.947   6.693
  684SOL    HW2 2952   0.176   5.825   6.633
  685SOL     OW 2953   6.159   0.386   5.603
  685SOL    HW1 2954   6.076   0.337   5.576
  685SOL    HW2 2955   6.221   0.322   5.649
  686SOL     OW 2956   5.579   4.567   1.743
  686SOL    HW1 2957   5.641   4.494   1.773
  686SOL    HW2 2958   5.517   4.530   1.674
  687SOL     OW 2959   5.435   1.748   6.537
  687SOL    HW1 2960   5.534   1.733   6.543
  687SOL    HW2 2961   5.396   1.743   6.629
  688SOL     OW 2962   6.064   3.380   5.179
  688SOL    HW1 2963   6.118   3.296   5.176
  688SOL    HW2 2964   5.991   3.371   5.247
  689SOL     OW 2965   5.478   4.310   4.389
  689SOL    HW1 2966   5.402   4.310   4.454
  689SOL    HW2 2967   5.448   4.349   4.302
  690SOL     OW 2968   0.124   2.613   5.068
  690SOL    HW1 2969   0.072   2.607   5.153
  690SOL    HW2 2970   0.192   2.685   5.076
  691SOL     OW 2971   0.377   3.129   6.795
  691SOL    HW1 2972   0.331   3.053   6.839
  691SOL    HW2 2973   0.472   3.132   6.826
  692SOL     OW 2974   2.626   0.410   3.711
  692SOL    HW1 2975   2.601   0.469   3.634
  692SOL    HW2 2976   2.676   0.331   3.677
  693SOL     OW 2977   6.130   1.584   3.586
  693SOL    HW1 2978   6.123   1.583   3.486
  693SOL    HW2 2979   6.224   1.603   3.613
  694SOL     OW 2980   1.341   0.465   2.937
  694SOL    HW1 2981   1.376   0.428   2.851
  694SOL    HW2 2982   1.281   0.542   2.918
  695SOL     OW 2983   4.858   5.576   6.597
  695SOL    HW1 2984   4.780   5.534   6.551
  695SOL    HW2 2985   4.908   5.633   6.531
  696SOL     OW 2986   5.260   5.609   2.387
  696SOL    HW1 2987   5.194   5.575   2.453
  696SOL    HW2 2988   5.214   5.663   2.317
  697SOL     OW 2989   1.169   3.998   3.424
  697SOL    HW1 2990   1.210   4.088   3.437
  697SOL    HW2 2991   1.193   3.939   3.501
  698SOL     OW 2992   4.881   6.362   3.924
  698SOL    HW1 2993   4.853   6.444   3.873
  698SOL    HW2 2994   4.803   6.300   3.932
  699SOL     OW 2995   1.618   5.005   6.021
  699SOL    HW1 2996   1.688   4.959   5.965
  699SOL    HW2 2997   1.562   5.063   5.962
  700SOL     OW 2998   1.561   1.902   4.999
  700SOL    HW1 2999   1.484   1.964   4.989
  700SOL    HW2 3000   1.530   1.808   4.985
  701SOL     OW 3001   1.146   4.750   5.009
  701SOL    HW1 3002   1.181   4.773   5.100
  701SOL    HW2 3003   1.087   4.670   5.015
  702SOL     OW 3004   5.889   6.230   5.176
  702SOL    HW1 3005   5.953   6.158   5.203
  702SOL    HW2 3006   5.879   6.230   5.077
  703SOL     OW 3007   5.557   3.956   6.185
  703SOL    HW1 3008   5.639   3.962   6.242
  703SOL    HW2 3009   5.566   3.879   6.121
  704SOL     OW 3010   2.355   6.740   1.733
  704SOL    HW1 3011   2.309   6.723   1.820
  704SOL    HW2 3012   2.450   6.767   1.750
  705SOL     OW 3013   0.867   1.777   3.714
  705SOL    HW1 3014   0.926   1.857   3.707
  705SOL    HW2 3015   0.786   1.791   3.656
  706SOL     OW 3016   5.416   3.626   4.075
  706SOL    HW1 3017   5.328   3.589   4.047
  706SOL    HW2 3018   5.417   3.725   4.059
  707SOL     OW 3019   4.756   2.877   2.896
  707SOL    HW1 3020   4.829   2.935   2.931
  707SOL    HW2 3021   4.744   2.894   2.798
  708SOL     OW 3022   4.815   1.460   1.733
  708SOL    HW1 3023   4.783   1.454   1.638
  708SOL    HW2 3024   4.890   1.525   1.739
  709SOL     OW 3025   1.213   4.962   6.923
  709SOL    HW1 3026   1.254   4.881   6.881
  709SOL    HW2 3027   1.283   5.014   6.971
  710SOL     OW 3028   3.042   3.932   3.229
  710SOL    HW1 3029   3.029   3.863   3.158
  710SOL    HW2 3030   3.072   3.888   3.314
  711SOL     OW 3031   0.408   0.932   4.684
  711SOL    HW1 3032   0.448   0.852   4.638
  711SOL    HW2 3033   0.457   1.014   4.656
  712SOL     OW 3034   6.962   4.026   3.452
  712SOL    HW1 3035   7.023   4.105   3.454
  712SOL    HW2 3036   6.943   4.000   3.357
  713SOL     OW 3037   2.681   4.170   5.420
  713SOL    HW1 3038   2.595   4.120   5.411
  713SOL    HW2 3039   2.748   4.113   5.466
  714SOL     OW 3040   4.533   5.015   4.935
  714SOL    HW1 3041   4.500   4.921   4.943
  714SOL    HW2 3042   4.620   5.017   4.886
  715SOL     OW 3043   6.732   0.331   6.150
  715SOL    HW1 3044   6.705   0.258   6.087
  715SOL    HW2 3045   6.774   0.290   6.231
  716SOL     OW 3046   5.911   5.547   0.217
  716SOL    HW1 3047   5.981   5.507   0.158
  716SOL    HW2 3048   5.837   5.481   0.230
  717SOL     OW 3049   5.920   3.290   6.309
  717SOL    HW1 3050   6.001   3.252   6.353
  717SOL    HW2 3051   5.904   3.383   6.343
  718SOL     OW 3052   3.081   2.590   6.938
  718SOL    HW1 3053   3.022   2.632   7.008
  718SOL    HW2 3054   3.156   2.653   6.917
  719SOL     OW 3055   5.844   4.687   6.640
  719SOL    HW1 3056   5.913   4.629   6.683
  719SOL    HW2 3057   5.846   4.778   6.681
  720SOL     OW 3058   4.166   1.332   5.921
  720SOL    HW1 3059   4.223   1.287   5.852
  720SOL    HW2 3060   4.145   1.267   5.994
  721SOL     OW 3061   1.102   6.912   5.228
  721SOL    HW1 3062   1.057   6.825   5.247
  721SOL    HW2 3063   1.185   6.896   5.174
  722SOL     OW 3064   4.606   0.668   5.089
  722SOL    HW1 3065   4.598   0.581   5.139
  722SOL    HW2 3066   4.702   0.687   5.069
  723SOL     OW 3067   0.631   3.170   1.879
  723SOL    HW1 3068   0.541   3.157   1.920
  723SOL    HW2 3069   0.690   3.217   1.944
  724SOL     OW 3070   0.221   2.183   4.568
  724SOL    HW1 3071   0.181   2.128   4.495
  724SOL    HW2 3072   0.250   2.271   4.530
  725SOL     OW 3073   2.515   5.106   2.736
  725SOL    HW1 3074   2.525   5.020   2.686
  725SOL    HW2 3075   2.540   5.091   2.832
  726SOL     OW 3076   5.328   5.930   6.061
  726SOL    HW1 3077   5.341   5.832   6.051
  726SOL    HW2 3078   5.418   5.975   6.065
  727SOL     OW 3079   1.907   4.714   4.368
  727SOL    HW1 3080   1.946   4.623   4.382
  727SOL    HW2 3081   1.853   4.715   4.284
  728SOL     OW 3082   6.260   2.792   6.004
  728SOL    HW1 3083   6.203   2.745   6.071
  728SOL    HW2 3084   6.301   2.873   6.045
  729SOL     OW 3085   4.117   1.622   0.588
  729SOL    HW1 3086   4.183   1.625   0.513
  729SOL    HW2 3087   4.054   1.699   0.580
  730SOL     OW 3088   6.307   1.391   4.359
  730SOL    HW1 3089   6.208   1.405   4.364
  730SOL    HW2 3090   6.330   1.349   4.271
  731SOL     OW 3091   6.767   2.194   3.663
  731SOL    HW1 3092   6.811   2.226   3.747
  731SOL    HW2 3093   6.829   2.132   3.614
  732SOL     OW 3094   0.874   3.563   3.238
  732SOL    HW1 3095   0.778   3.554   3.265
  732SOL    HW2 3096   0.908   3.653   3.265
  733SOL     OW 3097   4.489   4.760   4.112
  733SOL    HW1 3098   4.398   4.776   4.075
  733SOL    HW2 3099   4.482   4.714   4.201
  734SOL     OW 3100   0.936   6.307   0.161
  734SOL    HW1 3101   0.844   6.267   0.163
  734SOL    HW2 3102   0.942   6.375   0.088
  735SOL     OW 3103   3.414   4.495   6.336
  735SOL    HW1 3104   3.497   4.464   6.291
  735SOL    HW2 3105   3.417   4.595   6.345
  736SOL     OW 3106   5.988   1.126   2.300
  736SOL    HW1 3107   5.938   1.100   2.383
  736SOL    HW2 3108   5.956   1.070   2.223
  737SOL     OW 3109   5.590   3.767   0.246
  737SOL    HW1 3110   5.663   3.700   0.227
  737SOL    HW2 3111   5.556   3.804   0.159
  738SOL     OW 3112   0.513   4.294   3.625
  738SOL    HW1 3113   0.608   4.321   3.637
  738SOL    HW2 3114   0.489   4.300   3.528
  739SOL     OW 3115   4.866   6.360   6.009
  739SOL    HW1 3116   4.956   6.316   6.000
  739SOL    HW2 3117   4.798   6.307   5.959
  740SOL     OW 3118   5.909   6.699   0.414
  740SOL    HW1 3119   5.956   6.649   0.341
  740SOL    HW2 3120   5.971   6.768   0.453
  741SOL     OW 3121   2.449   0.568   4.018
  741SOL    HW1 3122   2.379   0.496   4.008
  741SOL    HW2 3123   2.407   0.657   4.001
  742SOL     OW 3124   1.619   6.481   2.753
  742SOL    HW1 3125   1.662   6.559   2.707
  742SOL    HW2 3126   1.548   6.514   2.814
  743SOL     OW 3127   1.835   4.050   2.934
  743SOL    HW1 3128   1.782   4.006   3.006
  743SOL    HW2 3129   1.894   3.983   2.890
  744SOL     OW 3130   6.540   5.014   1.057
  744SOL    HW1 3131   6.620   4.956   1.044
  744SOL    HW2 3132   6.500   5.035   0.968
  745SOL     OW 3133   1.816   5.858   2.371
  745SOL    HW1 3134   1.880   5.922   2.413
  745SOL    HW2 3135   1.852   5.765   2.381
  746SOL     OW 3136   3.064   6.897   3.367
  746SOL    HW1 3137   3.088   6.808   3.404
  746SOL    HW2 3138   2.965   6.902   3.353
  747SOL     OW 3139   6.808   3.494   0.815
  747SOL    HW1 3140   6.745   3.530   0.885
  747SOL    HW2 3141   6.757   3.437   0.751
  748SOL     OW 3142   3.122   3.056   3.166
  748SOL    HW1 3143   3.188   3.129   3.152
  748SOL    HW2 3144   3.116   3.000   3.084
  749SOL     OW 3145   5.567   2.243   5.216
  749SOL    HW1 3146   5.520   2.322   5.176
  749SOL    HW2 3147   5.662   2.266   5.234
  750SOL     OW 3148   3.315   3.662   2.213
  750SOL    HW1 3149   3.288   3.568   2.191
  750SOL    HW2 3150   3.306   3.719   2.132
  751SOL     OW 3151   5.635   1.480   6.868
  751SOL    HW1 3152   5.643   1.499   6.966
  751SOL    HW2 3153   5.589   1.393   6.855
  752SOL     OW 3154   4.547   0.780   2.495
  752SOL    HW1 3155   4.460   0.806   2.537
  752SOL    HW2 3156   4.575   0.850   2.430
  753SOL     OW 3157   3.697   1.604   2.076
  753SOL    HW1 3158   3.629   1.629   2.144
  753SOL    HW2 3159   3.702   1.676   2.006
  754SOL     OW 3160   5.322   5.503   6.827
  754SOL    HW1 3161   5.382   5.547   6.894
  754SOL    HW2 3162   5.268   5.431   6.872
  755SOL     OW 3163   6.005   5.480   1.909
  755SOL    HW1 3164   6.006   5.548   1.982
  755SOL    HW2 3165   6.098   5.465   1.875
  756SOL     OW 3166   2.439   6.739   3.875
  756SOL    HW1 3167   2.539   6.733   3.880
  756SOL    HW2 3168   2.402   6.649   3.853
  757SOL     OW 3169   6.867   0.492   4.073
  757SOL    HW1 3170   6.782   0.482   4.124
  757SOL    HW2 3171   6.851   0.476   3.976
  758SOL     OW 3172   4.409   1.825   0.830
  758SOL    HW1 3173   4.398   1.907   0.887
  758SOL    HW2 3174   4.402   1.743   0.887
  759SOL     OW 3175   2.155   0.572   1.757
  759SOL    HW1 3176   2.136   0.664   1.722
  759SOL    HW2 3177   2.077   0.540   1.810
  760SOL     OW 3178   4.350   1.693   6.096
  760SOL    HW1 3179   4.410   1.771   6.080
  760SOL    HW2 3180   4.392   1.632   6.163
  761SOL     OW 3181   5.580   0.603   6.958
  761SOL    HW1 3182   5.503   0.547   6.989
  761SOL    HW2 3183   5.568   0.697   6.990
  762SOL     OW 3184   2.198   4.728   4.886
  762SOL    HW1 3185   2.109   4.728   4.932
  762SOL    HW2 3186   2.228   4.822   4.871
  763SOL     OW 3187   0.032   5.087   0.259
  763SOL    HW1 3188   0.129   5.100   0.238
  763SOL    HW2 3189   7.005   5.068   0.174
  764SOL     OW 3190   6.063   1.379   2.422
  764SOL    HW1 3191   6.027   1.293   2.386
  764SOL    HW2 3192   5.997   1.416   2.488
  765SOL     OW 3193   0.860   6.902   3.126
  765SOL    HW1 3194   0.786   6.968   3.114
  765SOL    HW2 3195   0.945   6.940   3.089
  766SOL     OW 3196   0.102   6.365   0.277
  766SOL    HW1 3197   0.037   6.351   0.352
  766SOL    HW2 3198   0.191   6.327   0.302
  767SOL     OW 3199   5.768   6.044   1.158
  767SOL    HW1 3200   5.680   6.043   1.205
  767SOL    HW2 3201   5.777   5.963   1.100
  768SOL     OW 3202   2.984   7.002   4.025
  768SOL    HW1 3203   2.980   6.954   4.113
  768SOL    HW2 3204   2.893   7.001   3.983
  769SOL     OW 3205   4.181   0.752   6.990
  769SOL    HW1 3206   4.111   0.759   0.037
  769SOL    HW2 3207   4.174   0.663   6.944
  770SOL     OW 3208   3.240   4.948   4.738
  770SOL    HW1 3209   3.240   5.046   4.757
  770SOL    HW2 3210   3.219   4.898   4.822
  771SOL     OW 3211   0.583   6.327   4.610
  771SOL    HW1 3212   0.635   6.244   4.594
  771SOL    HW2 3213   0.540   6.323   4.700
  772SOL     OW 3214   0.462   3.183   6.333
  772SOL    HW1 3215   0.496   3.275   6.351
  772SOL    HW2 3216   0.388   3.161   6.397
  773SOL     OW 3217   6.846   3.245   2.384
  773SOL    HW1 3218   6.875   3.239   2.480
  773SOL    HW2 3219   6.754   3.283   2.379
  774SOL     OW 3220   1.522   1.176   2.050
  774SOL    HW1 3221   1.612   1.160   2.010
  774SOL    HW2 3222   1.503   1.274   2.052
  775SOL     OW 3223   1.753   2.854   4.004
  775SOL    HW1 3224   1.789   2.881   4.093
  775SOL    HW2 3225   1.764   2.755   3.993
  776SOL     OW 3226   1.577   0.424   4.778
  776SOL    HW1 3227   1.637   0.448   4.855
  776SOL    HW2 3228   1.628   0.369   4.712
  777SOL     OW 3229   4.113   0.007   6.599
  777SOL    HW1 3230   4.139   6.958   6.662
  777SOL    HW2 3231   4.018   0.033   6.616
  778SOL     OW 3232   4.924   5.573   4.748
  778SOL    HW1 3233   4.840   5.568   4.694
  778SOL    HW2 3234   4.945   5.668   4.769
  779SOL     OW 3235   0.572   0.421   2.080
  779SOL    HW1 3236   0.614   0.427   1.989
  779SOL    HW2 3237   0.637   0.450   2.150
  780SOL     OW 3238   5.713   2.519   5.003
  780SOL    HW1 3239   5.715   2.436   4.948
  780SOL    HW2 3240   5.745   2.499   5.096
  781SOL     OW 3241   1.139   3.187   6.580
  781SOL    HW1 3242   1.207   3.133   6.529
  781SOL    HW2 3243   1.114   3.267   6.525
  782SOL     OW 3244   0.034   4.913   0.926
  782SOL    HW1 3245   6.999   4.968   0.868
  782SOL    HW2 3246   7.007   4.834   0.960
  783SOL     OW 3247   1.519   5.878   0.304
  783SOL    HW1 3248   1.535   5.967   0.263
  783SOL    HW2 3249   1.495   5.888   0.400
  784SOL     OW 3250   5.500   5.434   3.469
  784SOL    HW1 3251   5.401   5.428   3.456
  784SOL    HW2 3252   5.530   5.362   3.532
  785SOL     OW 3253   6.520   2.474   3.437
  785SOL    HW1 3254   6.423   2.453   3.423
  785SOL    HW2 3255   6.538   2.568   3.408
  786SOL     OW 3256   6.075   6.374   0.880
  786SOL    HW1 3257   6.148   6.318   0.841
  786SOL    HW2 3258   5.987   6.349   0.838
  787SOL     OW 3259   4.444   1.058   0.346
  787SOL    HW1 3260   4.528   1.111   0.355
  787SOL    HW2 3261   4.434   1.025   0.252
  788SOL     OW 3262   0.062   4.266   3.417
  788SOL    HW1 3263   0.042   4.312   3.331
  788SOL    HW2 3264   0.087   4.334   3.486
  789SOL     OW 3265   5.500   3.196   1.017
  789SOL    HW1 3266   5.566   3.121   1.023
  789SOL    HW2 3267   5.514   3.259   1.093
  790SOL     OW 3268   3.214   0.496   4.067
  790SOL    HW1 3269   3.187   0.582   4.023
  790SOL    HW2 3270   3.138   0.432   4.065
  791SOL     OW 3271   3.946   1.252   4.642
  791SOL    HW1 3272   3.887   1.173   4.629
  791SOL    HW2 3273   3.909   1.330   4.590
  792SOL     OW 3274   5.356   0.904   3.593
  792SOL    HW1 3275   5.387   0.884   3.686
  792SOL    HW2 3276   5.289   0.979   3.596
  793SOL     OW 3277   0.173   6.900   6.666
  793SOL    HW1 3278   0.187   6.971   6.736
  793SOL    HW2 3279   0.260   6.855   6.646
  794SOL     OW 3280   3.457   4.764   5.254
  794SOL    HW1 3281   3.535   4.791   5.311
  794SOL    HW2 3282   3.439   4.667   5.265
  795SOL     OW 3283   5.306   5.018   0.058
  795SOL    HW1 3284   5.309   5.084   7.007
  795SOL    HW2 3285   5.264   4.933   0.026
  796SOL     OW 3286   0.613   1.635   5.668
  796SOL    HW1 3287   0.576   1.603   5.755
  796SOL    HW2 3288   0.569   1.721   5.642
  797SOL     OW 3289   5.673   3.038   5.575
  797SOL    HW1 3290   5.761   3.055   5.621
  797SOL    HW2 3291   5.689   3.026   5.477
  798SOL     OW 3292   6.836   1.111   4.457
  798SOL    HW1 3293   6.887   1.060   4.527
  798SOL    HW2 3294   6.739   1.089   4.464
  799SOL     OW 3295   6.689   4.026   3.484
  799SOL    HW1 3296   6.648   3.940   3.453
  799SOL    HW2 3297   6.788   4.016   3.488
  800SOL     OW 3298   0.179   2.314   2.421
  800SOL    HW1 3299   0.234   2.283   2.343
  800SOL    HW2 3300   0.126   2.237   2.457
  801SOL     OW 3301   0.551   2.761   3.814
  801SOL    HW1 3302   0.461   2.721   3.831
  801SOL    HW2 3303   0.558   2.786   3.717
  802SOL     OW 3304   6.532   1.245   0.951
  802SOL    HW1 3305   6.582   1.270   1.034
  802SOL    HW2 3306   6.593   1.253   0.872
  803SOL     OW 3307   1.989   0.168   4.472
  803SOL    HW1 3308   1.967   0.255   4.429
  803SOL    HW2 3309   1.990   0.096   4.404
  804SOL     OW 3310   6.248   6.556   0.722
  804SOL    HW1 3311   6.338   6.520   0.747
  804SOL    HW2 3312   6.182   6.530   0.792
  805SOL     OW 3313   2.028   3.062   6.184
  805SOL    HW1 3314   2.085   3.010   6.248
  805SOL    HW2 3315   1.942   3.014   6.169
  806SOL     OW 3316   4.238   6.663   7.021
  806SOL    HW1 3317   4.192   6.747   0.027
  806SOL    HW2 3318   4.328   6.686   6.984
  807SOL     OW 3319   0.838   6.688   3.304
  807SOL    HW1 3320   0.790   6.732   3.380
  807SOL    HW2 3321   0.847   6.753   3.228
  808SOL     OW 3322   5.476   3.862   4.645
  808SOL    HW1 3323   5.504   3.934   4.580
  808SOL    HW2 3324   5.376   3.857   4.647
  809SOL     OW 3325   0.484   6.276   5.910
  809SOL    HW1 3326   0.484   6.376   5.908
  809SOL    HW2 3327   0.468   6.245   6.003
  810SOL     OW 3328   5.854   5.557   6.431
  810SOL    HW1 3329   5.932   5.507   6.393
  810SOL    HW2 3330   5.805   5.603   6.358
  811SOL     OW 3331   3.467   5.027   2.894
  811SOL    HW1 3332   3.455   5.124   2.872
  811SOL    HW2 3333   3.383   4.991   2.932
  812SOL     OW 3334   0.010   0.719   2.590
  812SOL    HW1 3335   0.058   0.639   2.554
  812SOL    HW2 3336   6.986   0.694   2.674
  813SOL     OW 3337   5.132   5.189   2.005
  813SOL    HW1 3338   5.191   5.267   2.026
  813SOL    HW2 3339   5.056   5.186   2.070
  814SOL     OW 3340   5.022   5.526   1.483
  814SOL    HW1 3341   5.004   5.559   1.391
  814SOL    HW2 3342   4.971   5.442   1.499
  815SOL     OW 3343   1.345   0.980   0.821
  815SOL    HW1 3344   1.396   0.944   0.900
  815SOL    HW2 3345   1.266   1.032   0.853
  816SOL     OW 3346   5.942   0.708   1.824
  816SOL    HW1 3347   5.979   0.730   1.735
  816SOL    HW2 3348   5.963   0.781   1.889
  817SOL     OW 3349   0.709   2.261   2.324
  817SOL    HW1 3350   0.776   2.201   2.367
  817SOL    HW2 3351   0.635   2.281   2.390
  818SOL     OW 3352   5.875   1.501   2.585
  818SOL    HW1 3353   5.782   1.476   2.558
  818SOL    HW2 3354   5.871   1.568   2.659
  819SOL     OW 3355   0.525   5.321   2.021
  819SOL    HW1 3356   0.597   5.345   2.086
  819SOL    HW2 3357   0.446   5.285   2.070
  820SOL     OW 3358   2.318   3.019   5.719
  820SOL    HW1 3359   2.382   3.091   5.690
  820SOL    HW2 3360   2.308   2.952   5.645
  821SOL     OW 3361   0.929   4.479   0.563
  821SOL    HW1 3362   0.958   4.385   0.582
  821SOL    HW2 3363   1.009   4.537   0.552
  822SOL     OW 3364   0.701   2.807   4.979
  822SOL    HW1 3365   0.793   2.781   5.009
  822SOL    HW2 3366   0.663   2.873   5.044
  823SOL     OW 3367   3.770   3.953   2.002
  823SOL    HW1 3368   3.859   3.931   2.043
  823SOL    HW2 3369   3.723   3.869   1.977
  824SOL     OW 3370   6.265   2.785   6.423
  824SOL    HW1 3371   6.358   2.754   6.403
  824SOL    HW2 3372   6.257   2.801   6.522
  825SOL     OW 3373   1.627   3.092   1.468
  825SOL    HW1 3374   1.648   2.998   1.493
  825SOL    HW2 3375   1.610   3.098   1.370
  826SOL     OW 3376   1.454   2.406   6.570
  826SOL    HW1 3377   1.432   2.310   6.590
  826SOL    HW2 3378   1.454   2.459   6.655
  827SOL     OW 3379   3.260   4.462   0.984
  827SOL    HW1 3380   3.183   4.524   0.971
  827SOL    HW2 3381   3.231   4.368   0.964
  828SOL     OW 3382   6.106   0.597   5.396
  828SOL    HW1 3383   6.033   0.663   5.417
  828SOL    HW2 3384   6.145   0.563   5.482
  829SOL     OW 3385   3.627   3.961   5.457
  829SOL    HW1 3386   3.704   3.924   5.510
  829SOL    HW2 3387   3.549   3.898   5.465
  830SOL     OW 3388   4.579   3.268   6.066
  830SOL    HW1 3389   4.516   3.228   6.134
  830SOL    HW2 3390   4.624   3.194   6.016
  831SOL     OW 3391   5.520   0.269   5.101
  831SOL    HW1 3392   5.604   0.324   5.094
  831SOL    HW2 3393   5.441   0.330   5.109
  832SOL     OW 3394   2.725   1.651   5.973
  832SOL    HW1 3395   2.727   1.567   6.026
  832SOL    HW2 3396   2.799   1.651   5.906
  833SOL     OW 3397   1.286   0.678   5.138
  833SOL    HW1 3398   1.325   0.756   5.187
  833SOL    HW2 3399   1.323   0.593   5.175
  834SOL     OW 3400   3.292   4.613   5.766
  834SOL    HW1 3401   3.386   4.641   5.747
  834SOL    HW2 3402   3.259   4.554   5.693
  835SOL     OW 3403   3.862   1.377   2.105
  835SOL    HW1 3404   3.822   1.321   2.177
  835SOL    HW2 3405   3.811   1.463   2.097
  836SOL     OW 3406   2.235   0.817   6.354
  836SOL    HW1 3407   2.209   0.910   6.378
  836SOL    HW2 3408   2.160   0.755   6.376
  837SOL     OW 3409   4.149   1.829   4.458
  837SOL    HW1 3410   4.214   1.794   4.391
  837SOL    HW2 3411   4.120   1.755   4.519
  838SOL     OW 3412   1.081   6.259   2.096
  838SOL    HW1 3413   1.157   6.214   2.049
  838SOL    HW2 3414   1.102   6.356   2.109
  839SOL     OW 3415   2.232   1.560   1.919
  839SOL    HW1 3416   2.195   1.534   1.830
  839SOL    HW2 3417   2.330   1.579   1.910
  840SOL     OW 3418   1.246   0.779   5.784
  840SOL    HW1 3419   1.199   0.811   5.702
  840SOL    HW2 3420   1.345   0.784   5.770
  841SOL     OW 3421   0.296   3.477   1.028
  841SOL    HW1 3422   0.290   3.378   1.025
  841SOL    HW2 3423   0.336   3.511   0.942
  842SOL     OW 3424   4.126   4.836   4.193
  842SOL    HW1 3425   4.206   4.808   4.140
  842SOL    HW2 3426   4.043   4.813   4.143
  843SOL     OW 3427   0.023   3.351   1.570
  843SOL    HW1 3428   0.094   3.422   1.579
  843SOL    HW2 3429   6.973   3.386   1.512
  844SOL     OW 3430   6.180   4.678   6.262
  844SOL    HW1 3431   6.144   4.649   6.350
  844SOL    HW2 3432   6.136   4.627   6.189
  845SOL     OW 3433   2.111   5.003   5.509
  845SOL    HW1 3434   2.011   5.003   5.500
  845SOL    HW2 3435   2.152   5.036   5.424
  846SOL     OW 3436   3.920   2.104   0.233
  846SOL    HW1 3437   3.820   2.092   0.229
  846SOL    HW2 3438   3.943   2.154   0.317
  847SOL     OW 3439   4.983   4.367   2.065
  847SOL    HW1 3440   4.985   4.332   1.971
  847SOL    HW2 3441   5.075   4.366   2.104
  848SOL     OW 3442   5.727   0.271   5.717
  848SOL    HW1 3443   5.650   0.309   5.667
  848SOL    HW2 3444   5.694   0.228   5.801
  849SOL     OW 3445   0.646   6.170   4.252
  849SOL    HW1 3446   0.668   6.101   4.183
  849SOL    HW2 3447   0.675   6.138   4.342
  850SOL     OW 3448   3.006   0.786   3.211
  850SOL    HW1 3449   2.974   0.879   3.197
  850SOL    HW2 3450   3.101   0.778   3.181
  851SOL     OW 3451   6.933   1.160   5.857
  851SOL    HW1 3452   6.904   1.179   5.951
  851SOL    HW2 3453   6.956   1.246   5.811
  852SOL     OW 3454   3.020   5.218   5.113
  852SOL    HW1 3455   2.971   5.300   5.084
  852SOL    HW2 3456   2.965   5.137   5.090
  853SOL     OW 3457   0.677   4.524   0.716
  853SOL    HW1 3458   0.606   4.461   0.685
  853SOL    HW2 3459   0.763   4.504   0.668
  854SOL     OW 3460   6.013   4.921   1.202
  854SOL    HW1 3461   5.948   4.991   1.232
  854SOL    HW2 3462   6.100   4.963   1.179
  855SOL     OW 3463   4.894   0.162   0.710
  855SOL    HW1 3464   4.963   0.209   0.654
  855SOL    HW2 3465   4.815   0.222   0.722
  856SOL     OW 3466   1.370   0.223   4.549
  856SOL    HW1 3467   1.451   0.164   4.543
  856SOL    HW2 3468   1.350   0.242   4.646
  857SOL     OW 3469   5.599   4.081   1.516
  857SOL    HW1 3470   5.625   4.168   1.475
  857SOL    HW2 3471   5.507   4.056   1.484
  858SOL     OW 3472   3.562   4.143   2.621
  858SOL    HW1 3473   3.473   4.136   2.575
  858SOL    HW2 3474   3.552   4.121   2.718
  859SOL     OW 3475   0.323   4.503   0.325
  859SOL    HW1 3476   0.338   4.548   0.414
  859SOL    HW2 3477   0.411   4.473   0.288
  860SOL     OW 3478   1.568   3.821   6.602
  860SOL    HW1 3479   1.666   3.815   6.582
  860SOL    HW2 3480   1.518   3.756   6.544
  861SOL     OW 3481   4.158   4.629   6.395
  861SOL    HW1 3482   4.177   4.614   6.298
  861SOL    HW2 3483   4.190   4.550   6.447
  862SOL     OW 3484   4.707   4.257   3.622
  862SOL    HW1 3485   4.730   4.191   3.694
  862SOL    HW2 3486   4.746   4.346   3.645
  863SOL     OW 3487   6.032   2.644   1.825
  863SOL    HW1 3488   6.063   2.569   1.884
  863SOL    HW2 3489   5.992   2.606   1.742
  864SOL     OW 3490   0.313   6.029   2.347
  864SOL    HW1 3491   0.254   5.951   2.324
  864SOL    HW2 3492   0.262   6.114   2.339
  865SOL     OW 3493   1.952   0.935   3.693
  865SOL    HW1 3494   1.890   0.901   3.621
  865SOL    HW2 3495   1.920   0.904   3.782
  866SOL     OW 3496   4.427   0.905   1.459
  866SOL    HW1 3497   4.346   0.962   1.448
  866SOL    HW2 3498   4.399   0.809   1.468
  867SOL     OW 3499   2.812   1.893   6.114
  867SOL    HW1 3500   2.837   1.846   6.198
  867SOL    HW2 3501   2.767   1.828   6.052
  868SOL     OW 3502   5.135   1.888   3.539
  868SOL    HW1 3503   5.195   1.876   3.618
  868SOL    HW2 3504   5.050   1.932   3.569
  869SOL     OW 3505   6.645   3.639   0.998
  869SOL    HW1 3506   6.547   3.654   0.997
  869SOL    HW2 3507   6.692   3.723   1.025
  870SOL     OW 3508   6.154   1.530   0.505
  870SOL    HW1 3509   6.107   1.503   0.589
  870SOL    HW2 3510   6.240   1.480   0.498
  871SOL     OW 3511   0.053   4.645   0.690
  871SOL    HW1 3512   0.036   4.565   0.749
  871SOL    HW2 3513   0.140   4.686   0.715
  872SOL     OW 3514   6.911   2.029   1.828
  872SOL    HW1 3515   6.955   2.092   1.892
  872SOL    HW2 3516   6.849   2.080   1.769
  873SOL     OW 3517   3.797   6.875   4.567
  873SOL    HW1 3518   3.820   6.921   4.481
  873SOL    HW2 3519   3.733   6.932   4.619
  874SOL     OW 3520   0.927   4.063   6.489
  874SOL    HW1 3521   0.884   4.149   6.462
  874SOL    HW2 3522   0.999   4.039   6.423
  875SOL     OW 3523   6.202   5.947   6.509
  875SOL    HW1 3524   6.138   5.888   6.461
  875SOL    HW2 3525   6.287   5.952   6.457
  876SOL     OW 3526   2.928   1.797   1.480
  876SOL    HW1 3527   2.958   1.719   1.424
  876SOL    HW2 3528   2.845   1.835   1.440
  877SOL     OW 3529   5.762   5.926   6.218
  877SOL    HW1 3530   5.774   5.934   6.317
  877SOL    HW2 3531   5.750   5.830   6.193
  878SOL     OW 3532   4.136   3.148   0.996
  878SOL    HW1 3533   4.040   3.178   1.004
  878SOL    HW2 3534   4.159   3.090   1.073
  879SOL     OW 3535   5.191   3.194   3.874
  879SOL    HW1 3536   5.133   3.206   3.793
  879SOL    HW2 3537   5.250   3.115   3.862
  880SOL     OW 3538   3.999   6.217   1.650
  880SOL    HW1 3539   3.988   6.210   1.749
  880SOL    HW2 3540   4.092   6.188   1.625
  881SOL     OW 3541   5.152   5.369   3.250
  881SOL    HW1 3542   5.159   5.396   3.346
  881SOL    HW2 3543   5.236   5.321   3.222
  882SOL     OW 3544   0.983   2.159   4.953
  882SOL    HW1 3545   0.887   2.188   4.946
  882SOL    HW2 3546   1.025   2.202   5.032
  883SOL     OW 3547   2.916   4.858   0.172
  883SOL    HW1 3548   2.871   4.918   0.106
  883SOL    HW2 3549   2.868   4.863   0.260
  884SOL     OW 3550   3.676   4.384   1.550
  884SOL    HW1 3551   3.656   4.348   1.642
  884SOL    HW2 3552   3.732   4.317   1.500
  885SOL     OW 3553   4.349   6.129   6.090
  885SOL    HW1 3554   4.280   6.081   6.143
  885SOL    HW2 3555   4.386   6.068   6.020
  886SOL     OW 3556   4.026   2.241   6.206
  886SOL    HW1 3557   3.950   2.192   6.163
  886SOL    HW2 3558   3.991   2.322   6.254
  887SOL     OW 3559   6.292   6.251   4.756
  887SOL    HW1 3560   6.337   6.261   4.667
  887SOL    HW2 3561   6.357   6.213   4.822
  888SOL     OW 3562   6.348   0.899   3.083
  888SOL    HW1 3563   6.416   0.954   3.130
  888SOL    HW2 3564   6.274   0.958   3.050
  889SOL     OW 3565   0.584   0.530   4.861
  889SOL    HW1 3566   0.678   0.513   4.829
  889SOL    HW2 3567   0.520   0.497   4.792
  890SOL     OW 3568   2.015   3.188   1.019
  890SOL    HW1 3569   2.003   3.131   1.101
  890SOL    HW2 3570   2.112   3.205   1.004
  891SOL     OW 3571   5.960   3.538   5.860
  891SOL    HW1 3572   5.926   3.499   5.775
  891SOL    HW2 3573   5.898   3.514   5.935
  892SOL     OW 3574   2.107   4.521   1.744
  892SOL    HW1 3575   2.200   4.555   1.760
  892SOL    HW2 3576   2.097   4.430   1.785
  893SOL     OW 3577   2.041   0.001   2.289
  893SOL    HW1 3578   2.020   6.929   2.268
  893SOL    HW2 3579   1.980   0.034   2.361
  894SOL     OW 3580   1.497   5.415   4.368
  894SOL    HW1 3581   1.590   5.391   4.396
  894SOL    HW2 3582   1.468   5.354   4.294
  895SOL     OW 3583   2.474   0.937   4.697
  895SOL    HW1 3584   2.470   0.928   4.597
  895SOL    HW2 3585   2.556   0.988   4.722
  896SOL     OW 3586   4.453   0.086   3.269
  896SOL    HW1 3587   4.373   0.043   3.228
  896SOL    HW2 3588   4.458   0.182   3.239
  897SOL     OW 3589   5.987   0.976   6.153
  897SOL    HW1 3590   5.996   0.877   6.139
  897SOL    HW2 3591   6.037   1.003   6.235
  898SOL     OW 3592   5.229   6.544   3.599
  898SOL    HW1 3593   5.289   6.465   3.590
  898SOL    HW2 3594   5.232   6.598   3.514
  899SOL     OW 3595   1.368   5.108   0.409
  899SOL    HW1 3596   1.443   5.161   0.448
  899SOL    HW2 3597   1.307   5.170   0.359
  900SOL     OW 3598   0.564   5.261   3.236
  900SOL    HW1 3599   0.584   5.242   3.140
  900SOL    HW2 3600   0.467   5.241   3.254
  901SOL     OW 3601   6.486   1.840   3.404
  901SOL    HW1 3602   6.511   1.782   3.480
  901SOL    HW2 3603   6.399   1.886   3.424
  902SOL     OW 3604   1.472   6.082   0.119
  902SOL    HW1 3605   1.419   6.167   0.122
  902SOL    HW2 3606   1.419   6.011   0.072
  903SOL     OW 3607   1.060   5.026   6.371
  903SOL    HW1 3608   1.093   5.031   6.466
  903SOL    HW2 3609   0.994   4.951   6.364
  904SOL     OW 3610   2.021   1.803   3.929
  904SOL    HW1 3611   2.116   1.820   3.955
  904SOL    HW2 3612   2.013   1.810   3.829
  905SOL     OW 3613   5.827   3.449   3.823
  905SOL    HW1 3614   5.904   3.386   3.820
  905SOL    HW2 3615   5.749   3.410   3.776
  906SOL     OW 3616   6.458   3.383   5.534
  906SOL    HW1 3617   6.526   3.386   5.461
  906SOL    HW2 3618   6.386   3.450   5.516
  907SOL     OW 3619   6.928   3.747   2.520
  907SOL    HW1 3620   6.851   3.686   2.536
  907SOL    HW2 3621   6.900   3.841   2.535
  908SOL     OW 3622   2.871   1.306   3.877
  908SOL    HW1 3623   2.850   1.209   3.866
  908SOL    HW2 3624   2.970   1.318   3.888
  909SOL     OW 3625   3.752   6.900   1.977
  909SOL    HW1 3626   3.781   6.804   1.973
  909SOL    HW2 3627   3.659   6.905   2.013
  910SOL     OW 3628   1.259   0.726   1.849
  910SOL    HW1 3629   1.292   0.806   1.900
  910SOL    HW2 3630   1.335   0.662   1.836
  911SOL     OW 3631   1.081   2.870   0.826
  911SOL    HW1 3632   1.033   2.938   0.772
  911SOL    HW2 3633   1.038   2.862   0.916
  912SOL     OW 3634   1.892   1.176   0.184
  912SOL    HW1 3635   1.888   1.120   0.101
  912SOL    HW2 3636   1.843   1.130   0.258
  913SOL     OW 3637   2.143   1.734   2.413
  913SOL    HW1 3638   2.216   1.671   2.443
  913SOL    HW2 3639   2.063   1.681   2.387
  914SOL     OW 3640   2.754   4.728   2.366
  914SOL    HW1 3641   2.704   4.646   2.340
  914SOL    HW2 3642   2.832   4.740   2.305
  915SOL     OW 3643   2.763   2.205   0.835
  915SOL    HW1 3644   2.819   2.288   0.834
  915SOL    HW2 3645   2.819   2.127   0.808
  916SOL     OW 3646   0.779   3.573   2.056
  916SOL    HW1 3647   0.804   3.548   1.962
  916SOL    HW2 3648   0.766   3.489   2.110
  917SOL     OW 3649   3.527   0.754   6.021
  917SOL    HW1 3650   3.494   0.702   5.942
  917SOL    HW2 3651   3.626   0.745   6.029
  918SOL     OW 3652   0.019   2.339   5.021
  918SOL    HW1 3653   0.038   2.243   5.044
  918SOL    HW2 3654   6.985   2.343   4.940
  919SOL     OW 3655   0.977   1.126   1.143
  919SOL    HW1 3656   1.027   1.069   1.208
  919SOL    HW2 3657   0.908   1.071   1.096
  920SOL     OW 3658   1.312   2.048   2.260
  920SOL    HW1 3659   1.286   1.963   2.215
  920SOL    HW2 3660   1.316   2.122   2.192
  921SOL     OW 3661   4.223   4.448   0.803
  921SOL    HW1 3662   4.187   4.535   0.772
  921SOL    HW2 3663   4.277   4.406   0.730
  922SOL     OW 3664   2.196   5.679   6.909
  922SOL    HW1 3665   2.246   5.678   6.822
  922SOL    HW2 3666   2.102   5.650   6.893
  923SOL     OW 3667   3.917   1.304   6.974
  923SOL    HW1 3668   3.821   1.286   6.953
  923SOL    HW2 3669   3.926   1.327   0.048
  924SOL     OW 3670   5.797   4.836   2.095
  924SOL    HW1 3671   5.872   4.801   2.150
  924SOL    HW2 3672   5.724   4.768   2.089
  925SOL     OW 3673   5.830   2.410   1.940
  925SOL    HW1 3674   5.911   2.443   1.989
  925SOL    HW2 3675   5.857   2.344   1.871
  926SOL     OW 3676   4.205   5.494   1.706
  926SOL    HW1 3677   4.172   5.410   1.750
  926SOL    HW2 3678   4.152   5.572   1.740
  927SOL     OW 3679   4.778   5.265   5.229
  927SOL    HW1 3680   4.853   5.293   5.168
  927SOL    HW2 3681   4.800   5.178   5.272
  928SOL     OW 3682   0.141   1.686   1.520
  928SOL    HW1 3683   0.176   1.653   1.608
  928SOL    HW2 3684   0.048   1.651   1.506
  929SOL     OW 3685   0.352   2.753   2.167
  929SOL    HW1 3686   0.394   2.702   2.242
  929SOL    HW2 3687   0.292   2.824   2.203
  930SOL     OW 3688   5.973   5.211   2.261
  930SOL    HW1 3689   5.978   5.113   2.281
  930SOL    HW2 3690   6.065   5.247   2.249
  931SOL     OW 3691   0.900   2.772   1.729
  931SOL    HW1 3692   0.805   2.786   1.759
  931SOL    HW2 3693   0.901   2.720   1.644
  932SOL     OW 3694   4.638   6.113   1.237
  932SOL    HW1 3695   4.629   6.056   1.319
  932SOL    HW2 3696   4.617   6.208   1.260
  933SOL     OW 3697   0.859   6.438   3.578
  933SOL    HW1 3698   0.935   6.470   3.521
  933SOL    HW2 3699   0.773   6.470   3.538
  934SOL     OW 3700   3.807   1.766   5.193
  934SOL    HW1 3701   3.774   1.684   5.146
  934SOL    HW2 3702   3.774   1.848   5.145
  935SOL     OW 3703   1.160   3.494   4.357
  935SOL    HW1 3704   1.258   3.511   4.358
  935SOL    HW2 3705   1.112   3.573   4.395
  936SOL     OW 3706   1.058   1.412   1.753
  936SOL    HW1 3707   1.051   1.408   1.853
  936SOL    HW2 3708   0.969   1.437   1.714
  937SOL     OW 3709   4.884   2.218   3.064
  937SOL    HW1 3710   4.918   2.181   2.977
  937SOL    HW2 3711   4.909   2.156   3.138
  938SOL     OW 3712   0.794   0.749   6.308
  938SOL    HW1 3713   0.772   0.656   6.280
  938SOL    HW2 3714   0.894   0.761   6.311
  939SOL     OW 3715   6.340   0.948   4.464
  939SOL    HW1 3716   6.416   0.967   4.526
  939SOL    HW2 3717   6.332   0.850   4.450
  940SOL     OW 3718   6.075   0.103   3.401
  940SOL    HW1 3719   5.979   0.076   3.389
  940SOL    HW2 3720   6.123   0.034   3.456
  941SOL     OW 3721   5.700   2.985   5.307
  941SOL    HW1 3722   5.638   2.916   5.269
  941SOL    HW2 3723   5.794   2.959   5.290
  942SOL     OW 3724   4.333   6.501   5.290
  942SOL    HW1 3725   4.317   6.445   5.209
  942SOL    HW2 3726   4.430   6.523   5.297
  943SOL     OW 3727   5.149   2.315   0.282
  943SOL    HW1 3728   5.177   2.264   0.363
  943SOL    HW2 3729   5.149   2.255   0.203
  944SOL     OW 3730   4.942   4.593   4.366
  944SOL    HW1 3731   5.037   4.570   4.345
  944SOL    HW2 3732   4.885   4.575   4.286
  945SOL     OW 3733   5.573   2.737   6.585
  945SOL    HW1 3734   5.480   2.725   6.620
  945SOL    HW2 3735   5.598   2.657   6.531
  946SOL     OW 3736   6.203   3.487   6.200
  946SOL    HW1 3737   6.238   3.393   6.209
  946SOL    HW2 3738   6.147   3.509   6.280
  947SOL     OW 3739   1.187   2.594   6.098
  947SOL    HW1 3740   1.266   2.635   6.054
  947SOL    HW2 3741   1.217   2.524   6.163
  948SOL     OW 3742   3.696   2.156   0.452
  948SOL    HW1 3743   3.638   2.234   0.474
  948SOL    HW2 3744   3.655   2.104   0.376
  949SOL     OW 3745   5.183   5.653   6.239
  949SOL    HW1 3746   5.224   5.615   6.156
  949SOL    HW2 3747   5.252   5.704   6.290
  950SOL     OW 3748   3.334   5.299   0.754
  950SOL    HW1 3749   3.424   5.291   0.799
  950SOL    HW2 3750   3.345   5.287   0.655
  951SOL     OW 3751   1.171   2.680   3.919
  951SOL    HW1 3752   1.262   2.670   3.960
  951SOL    HW2 3753   1.104   2.700   3.990
  952SOL     OW 3754   4.862   0.882   1.299
  952SOL    HW1 3755   4.900   0.973   1.318
  952SOL    HW2 3756   4.926   0.812   1.330
  953SOL     OW 3757   3.898   6.616   5.772
  953SOL    HW1 3758   3.868   6.592   5.680
  953SOL    HW2 3759   3.993   6.646   5.769
  954SOL     OW 3760   6.305   6.642   1.010
  954SOL    HW1 3761   6.214   6.642   1.053
  954SOL    HW2 3762   6.333   6.548   0.991
  955SOL     OW 3763   1.190   5.963   3.309
  955SOL    HW1 3764   1.132   6.027   3.258
  955SOL    HW2 3765   1.179   5.978   3.407
  956SOL     OW 3766   1.840   2.828   0.755
  956SOL    HW1 3767   1.871   2.736   0.777
  956SOL    HW2 3768   1.754   2.847   0.802
  957SOL     OW 3769   2.022   6.245   4.435
  957SOL    HW1 3770   1.985   6.237   4.527
  957SOL    HW2 3771   1.968   6.311   4.383
  958SOL     OW 3772   4.453   2.819   6.841
  958SOL    HW1 3773   4.494   2.788   6.926
  958SOL    HW2 3774   4.402   2.745   6.799
  959SOL     OW 3775   1.620   3.952   0.792
  959SOL    HW1 3776   1.706   3.979   0.834
  959SOL    HW2 3777   1.574   4.032   0.755
  960SOL     OW 3778   1.669   3.758   6.040
  960SOL    HW1 3779   1.687   3.818   6.118
  960SOL    HW2 3780   1.755   3.727   6.001
  961SOL     OW 3781   3.306   6.575   6.413
  961SOL    HW1 3782   3.404   6.578   6.429
  961SOL    HW2 3783   3.286   6.506   6.343
  962SOL     OW 3784   0.921   0.211   3.241
  962SOL    HW1 3785   0.870   0.291   3.208
  962SOL    HW2 3786   0.990   0.186   3.173
  963SOL     OW 3787   5.541   0.379   2.436
  963SOL    HW1 3788   5.633   0.344   2.419
  963SOL    HW2 3789   5.537   0.476   2.414
  964SOL     OW 3790   5.720   4.275   1.343
  964SOL    HW1 3791   5.743   4.367   1.309
  964SOL    HW2 3792   5.672   4.225   1.271
  965SOL     OW 3793   2.153   1.586   0.518
  965SOL    HW1 3794   2.194   1.610   0.430
  965SOL    HW2 3795   2.072   1.642   0.534
  966SOL     OW 3796   5.952   3.085   1.835
  966SOL    HW1 3797   5.959   3.176   1.794
  966SOL    HW2 3798   6.043   3.045   1.844
  967SOL     OW 3799   1.265   5.094   3.019
  967SOL    HW1 3800   1.229   5.094   3.112
  967SOL    HW2 3801   1.199   5.138   2.958
  968SOL     OW 3802   0.292   4.263   0.502
  968SOL    HW1 3803   0.280   4.332   0.430
  968SOL    HW2 3804   0.226   4.189   0.489
  969SOL     OW 3805   3.919   6.665   6.519
  969SOL    HW1 3806   3.958   6.724   6.448
  969SOL    HW2 3807   3.958   6.688   6.608
  970SOL     OW 3808   5.011   3.425   6.363
  970SOL    HW1 3809   5.028   3.433   6.265
  970SOL    HW2 3810   4.965   3.508   6.396
  971SOL     OW 3811   0.110   2.533   6.561
  971SOL    HW1 3812   0.147   2.496   6.647
  971SOL    HW2 3813   0.163   2.612   6.533
  972SOL     OW 3814   4.823   6.965   6.572
  972SOL    HW1 3815   4.777   6.948   6.659
  972SOL    HW2 3816   4.882   6.887   6.549
  973SOL     OW 3817   6.376   3.251   5.867
  973SOL    HW1 3818   6.323   3.335   5.870
  973SOL    HW2 3819   6.470   3.272   5.841
  974SOL     OW 3820   2.146   0.342   4.625
  974SOL    HW1 3821   2.209   0.392   4.566
  974SOL    HW2 3822   2.087   0.284   4.568
  975SOL     OW 3823   2.903   0.222   4.746
  975SOL    HW1 3824   2.986   0.218   4.690
  975SOL    HW2 3825   2.823   0.234   4.686
  976SOL     OW 3826   0.219   5.048   4.068
  976SOL    HW1 3827   0.292   5.115   4.056
  976SOL    HW2 3828   0.136   5.094   4.100
  977SOL     OW 3829   1.380   2.199   1.994
  977SOL    HW1 3830   1.447   2.262   2.033
  977SOL    HW2 3831   1.427   2.129   1.939
  978SOL     OW 3832   6.125   3.069   4.204
  978SOL    HW1 3833   6.146   3.026   4.292
  978SOL    HW2 3834   6.042   3.028   4.166
  979SOL     OW 3835   6.364   1.680   2.909
  979SOL    HW1 3836   6.395   1.775   2.915
  979SOL    HW2 3837   6.387   1.631   2.993
  980SOL     OW 3838   6.644   0.170   5.497
  980SOL    HW1 3839   6.692   0.238   5.552
  980SOL    HW2 3840   6.653   0.080   5.541
  981SOL     OW 3841   6.670   3.135   6.796
  981SOL    HW1 3842   6.578   3.165   6.820
  981SOL    HW2 3843   6.666   3.043   6.758
  982SOL     OW 3844   1.742   4.441   0.431
  982SOL    HW1 3845   1.805   4.456   0.507
  982SOL    HW2 3846   1.649   4.460   0.461
  983SOL     OW 3847   5.156   1.124   3.600
  983SOL    HW1 3848   5.217   1.161   3.529
  983SOL    HW2 3849   5.065   1.111   3.562
  984SOL     OW 3850   4.891   3.077   5.000
  984SOL    HW1 3851   4.950   3.021   4.942
  984SOL    HW2 3852   4.850   3.150   4.944
  985SOL     OW 3853   1.966   4.095   0.477
  985SOL    HW1 3854   2.033   4.079   0.405
  985SOL    HW2 3855   1.950   4.010   0.528
  986SOL     OW 3856   5.045   4.040   5.204
  986SOL    HW1 3857   5.140   4.071   5.196
  986SOL    HW2 3858   4.993   4.107   5.257
  987SOL     OW 3859   2.947   0.741   2.803
  987SOL    HW1 3860   2.962   0.839   2.813
  987SOL    HW2 3861   3.025   0.691   2.841
  988SOL     OW 3862   3.748   2.767   1.412
  988SOL    HW1 3863   3.814   2.755   1.337
  988SOL    HW2 3864   3.783   2.723   1.495
  989SOL     OW 3865   0.618   1.420   4.369
  989SOL    HW1 3866   0.683   1.449   4.298
  989SOL    HW2 3867   0.580   1.331   4.344
  990SOL     OW 3868   5.040   6.788   2.154
  990SOL    HW1 3869   5.039   6.881   2.191
  990SOL    HW2 3870   5.086   6.787   2.065
  991SOL     OW 3871   6.066   1.612   5.568
  991SOL    HW1 3872   6.063   1.528   5.622
  991SOL    HW2 3873   6.148   1.664   5.592
  992SOL     OW 3874   0.052   2.736   0.987
  992SOL    HW1 3875   7.017   2.665   1.028
  992SOL    HW2 3876   0.131   2.752   1.047
  993SOL     OW 3877   4.181   0.036   4.524
  993SOL    HW1 3878   4.275   0.025   4.491
  993SOL    HW2 3879   4.183   0.075   4.616
  994SOL     OW 3880   3.136   3.845   3.462
  994SOL    HW1 3881   3.127   3.756   3.508
  994SOL    HW2 3882   3.134   3.918   3.530
  995SOL     OW 3883   0.741   1.682   5.317
  995SOL    HW1 3884   0.789   1.693   5.230
  995SOL    HW2 3885   0.698   1.592   5.320
  996SOL     OW 3886   1.020   3.355   6.953
  996SOL    HW1 3887   1.036   3.389   6.860
  996SOL    HW2 3888   0.921   3.345   6.968
  997SOL     OW 3889   6.625   1.496   0.424
  997SOL    HW1 3890   6.684   1.488   0.504
  997SOL    HW2 3891   6.537   1.451   0.443
  998SOL     OW 3892   4.813   0.244   3.082
  998SOL    HW1 3893   4.828   0.212   2.989
  998SOL    HW2 3894   4.899   0.275   3.122
  999SOL     OW 3895   6.735   5.297   0.551
  999SOL    HW1 3896   6.788   5.349   0.617
  999SOL    HW2 3897   6.711   5.208   0.590
 1000SOL     OW 3898   4.104   1.911   4.865
 1000SOL    HW1 3899   4.037   1.985   4.867
 1000SOL    HW2 3900   4.139   1.896   4.957
 1001SOL     OW 3901   4.701   1.017   4.921
 1001SOL    HW1 3902   4.707   1.067   4.835
 1001SOL    HW2 3903   4.605   0.999   4.943
 1002SOL     OW 3904   0.523   1.218   0.291
 1002SOL    HW1 3905   0.447   1.154   0.290
 1002SOL    HW2 3906   0.610   1.168   0.297
 1003SOL     OW 3907   4.139   5.155   2.793
 1003SOL    HW1 3908   4.173   5.243   2.760
 1003SOL    HW2 3909   4.042   5.145   2.767
 1004SOL     OW 3910   6.002   5.923   0.265
 1004SOL    HW1 3911   5.914   5.885   0.236
 1004SOL    HW2 3912   6.050   5.856   0.322
 1005SOL     OW 3913   5.864   6.410   3.282
 1005SOL    HW1 3914   5.960   6.425   3.258
 1005SOL    HW2 3915   5.805   6.453   3.213
 1006SOL     OW 3916   1.913   5.093   0.357
 1006SOL    HW1 3917   1.879   5.000   0.365
 1006SOL    HW2 3918   1.859   5.153   0.417
 1007SOL     OW 3919   6.085   1.615   2.946
 1007SOL    HW1 3920   6.110   1.535   2.892
 1007SOL    HW2 3921   6.162   1.679   2.949
 1008SOL     OW 3922   3.086   2.035   4.894
 1008SOL    HW1 3923   3.159   2.014   4.829
 1008SOL    HW2 3924   3.117   2.105   4.959
 1009SOL     OW 3925   3.304   6.163   5.979
 1009SOL    HW1 3926   3.269   6.144   5.887
 1009SOL    HW2 3927   3.232   6.149   6.046
 1010SOL     OW 3928   5.298   6.750   5.384
 1010SOL    HW1 3929   5.307   6.650   5.392
 1010SOL    HW2 3930   5.284   6.774   5.288
 1011SOL     OW 3931   2.763   5.245   4.605
 1011SOL    HW1 3932   2.765   5.326   4.547
 1011SOL    HW2 3933   2.721   5.169   4.555
 1012SOL     OW 3934   3.658   6.618   1.383
 1012SOL    HW1 3935   3.719   6.545   1.352
 1012SOL    HW2 3936   3.693   6.706   1.353
 1013SOL     OW 3937   0.516   0.260   0.011
 1013SOL    HW1 3938   0.580   0.220   0.077
 1013SOL    HW2 3939   0.450   0.190   7.007
 1014SOL     OW 3940   5.978   6.967   6.056
 1014SOL    HW1 3941   6.025   7.017   5.983
 1014SOL    HW2 3942   5.938   0.009   6.120
 1015SOL     OW 3943   2.623   0.737   5.108
 1015SOL    HW1 3944   2.673   0.812   5.151
 1015SOL    HW2 3945   2.642   0.736   5.010
 1016SOL     OW 3946   4.467   2.861   1.351
 1016SOL    HW1 3947   4.495   2.857   1.447
 1016SOL    HW2 3948   4.421   2.776   1.326
 1017SOL     OW 3949   4.575   6.792   6.142
 1017SOL    HW1 3950   4.486   6.835   6.125
 1017SOL    HW2 3951   4.625   6.847   6.209
 1018SOL     OW 3952   1.551   2.062   1.804
 1018SOL    HW1 3953   1.637   2.069   1.752
 1018SOL    HW2 3954   1.478   2.107   1.753
 1019SOL     OW 3955   5.568   0.966   0.616
 1019SOL    HW1 3956   5.587   1.007   0.706
 1019SOL    HW2 3957   5.650   0.975   0.559
 1020SOL     OW 3958   3.628   2.070   1.752
 1020SOL    HW1 3959   3.646   2.156   1.800
 1020SOL    HW2 3960   3.570   2.089   1.673
 1021SOL     OW 3961   6.940   1.860   1.246
 1021SOL    HW1 3962   6.898   1.871   1.156
 1021SOL    HW2 3963   0.012   1.832   1.235
 1022SOL     OW 3964   3.589   3.076   0.304
 1022SOL    HW1 3965   3.586   2.985   0.264
 1022SOL    HW2 3966   3.624   3.070   0.398
 1023SOL     OW 3967   6.557   0.714   4.265
 1023SOL    HW1 3968   6.500   0.790   4.232
 1023SOL    HW2 3969   6.615   0.747   4.340
 1024SOL     OW 3970   6.326   2.392   3.658
 1024SOL    HW1 3971   6.334   2.297   3.627
 1024SOL    HW2 3972   6.291   2.449   3.583
 1025SOL     OW 3973   2.590   4.231   1.554
 1025SOL    HW1 3974   2.546   4.284   1.627
 1025SOL    HW2 3975   2.559   4.264   1.465
 1026SOL     OW 3976   0.767   2.330   6.200
 1026SOL    HW1 3977   0.847   2.352   6.255
 1026SOL    HW2 3978   0.703   2.275   6.254
 1027SOL     OW 3979   2.088   4.962   0.930
 1027SOL    HW1 3980   2.162   4.919   0.878
 1027SOL    HW2 3981   2.059   4.901   1.004
 1028SOL     OW 3982   0.554   5.199   6.913
 1028SOL    HW1 3983   0.537   5.256   6.993
 1028SOL    HW2 3984   0.486   5.126   6.909
 1029SOL     OW 3985   3.735   0.573   4.715
 1029SOL    HW1 3986   3.651   0.520   4.700
 1029SOL    HW2 3987   3.750   0.586   4.813
 1030SOL     OW 3988   4.390   5.245   4.822
 1030SOL    HW1 3989   4.421   5.155   4.854
 1030SOL    HW2 3990   4.468   5.296   4.787
 1031SOL     OW 3991   2.569   6.100   0.986
 1031SOL    HW1 3992   2.549   6.021   0.927
 1031SOL    HW2 3993   2.663   6.094   1.018
 1032SOL     OW 3994   1.022   1.842   5.463
 1032SOL    HW1 3995   1.065   1.825   5.374
 1032SOL    HW2 3996   0.994   1.755   5.504
 1033SOL     OW 3997   3.029   0.128   1.682
 1033SOL    HW1 3998   3.106   0.076   1.718
 1033SOL    HW2 3999   3.058   0.180   1.602
 1034SOL     OW 4000   0.016   6.144   2.168
 1034SOL    HW1 4001   7.023   6.052   2.204
 1034SOL    HW2 4002   6.953   6.192   2.157
 1035SOL     OW 4003   3.410   2.122   3.038
 1035SOL    HW1 4004   3.317   2.129   3.001
 1035SOL    HW2 4005   3.472   2.088   2.967
 1036SOL     OW 4006   4.902   6.715   6.658
 1036SOL    HW1 4007   4.833   6.682   6.721
 1036SOL    HW2 4008   4.993   6.696   6.696
 1037SOL     OW 4009   4.077   1.010   6.193
 1037SOL    HW1 4010   4.125   0.936   6.146
 1037SOL    HW2 4011   4.129   1.095   6.184
 1038SOL     OW 4012   2.615   1.893   5.343
 1038SOL    HW1 4013   2.630   1.895   5.442
 1038SOL    HW2 4014   2.624   1.985   5.306
 1039SOL     OW 4015   5.306   1.733   2.593
 1039SOL    HW1 4016   5.216   1.717   2.551
 1039SOL    HW2 4017   5.302   1.707   2.689
 1040SOL     OW 4018   6.007   4.322   4.311
 1040SOL    HW1 4019   6.080   4.368   4.260
 1040SOL    HW2 4020   6.046   4.271   4.387
 1041SOL     OW 4021   1.697   6.803   4.487
 1041SOL    HW1 4022   1.694   6.804   4.388
 1041SOL    HW2 4023   1.776   6.750   4.518
 1042SOL     OW 4024   4.545   4.184   0.601
 1042SOL    HW1 4025   4.632   4.189   0.552
 1042SOL    HW2 4026   4.562   4.182   0.699
 1043SOL     OW 4027   3.944   0.225   6.485
 1043SOL    HW1 4028   4.031   0.226   6.437
 1043SOL    HW2 4029   3.889   0.147   6.453
 1044SOL     OW 4030   3.744   4.050   3.381
 1044SOL    HW1 4031   3.697   3.963   3.397
 1044SOL    HW2 4032   3.777   4.087   3.468
 1045SOL     OW 4033   2.747   1.075   2.734
 1045SOL    HW1 4034   2.664   1.073   2.790
 1045SOL    HW2 4035   2.824   1.104   2.789
 1046SOL     OW 4036   3.030   0.884   2.159
 1046SOL    HW1 4037   2.983   0.871   2.246
 1046SOL    HW2 4038   3.057   0.796   2.121
 1047SOL     OW 4039   6.908   6.526   1.775
 1047SOL    HW1 4040   6.950   6.476   1.699
 1047SOL    HW2 4041   6.966   6.517   1.856
 1048SOL     OW 4042   6.129   4.099   5.045
 1048SOL    HW1 4043   6.184   4.018   5.066
 1048SOL    HW2 4044   6.032   4.075   5.049
 1049SOL     OW 4045   0.802   3.777   5.610
 1049SOL    HW1 4046   0.888   3.808   5.648
 1049SOL    HW2 4047   0.766   3.702   5.666
 1050SOL     OW 4048   2.689   0.679   1.170
 1050SOL    HW1 4049   2.685   0.579   1.179
 1050SOL    HW2 4050   2.679   0.720   1.261
 1051SOL     OW 4051   4.691   4.505   1.537
 1051SOL    HW1 4052   4.689   4.494   1.636
 1051SOL    HW2 4053   4.597   4.501   1.501
 1052SOL     OW 4054   3.158   0.243   3.801
 1052SOL    HW1 4055   3.156   0.333   3.757
 1052SOL    HW2 4056   3.134   0.253   3.897
 1053SOL     OW 4057   3.934   5.250   3.783
 1053SOL    HW1 4058   3.856   5.240   3.845
 1053SOL    HW2 4059   3.904   5.233   3.689
 1054SOL     OW 4060   3.998   6.161   4.900
 1054SOL    HW1 4061   3.980   6.143   4.997
 1054SOL    HW2 4062   3.912   6.161   4.849
 1055SOL     OW 4063   4.146   4.732   4.456
 1055SOL    HW1 4064   4.179   4.638   4.444
 1055SOL    HW2 4065   4.144   4.777   4.367
 1056SOL     OW 4066   2.747   5.791   0.338
 1056SOL    HW1 4067   2.695   5.876   0.328
 1056SOL    HW2 4068   2.777   5.781   0.432
 1057SOL     OW 4069   3.637   3.970   1.536
 1057SOL    HW1 4070   3.548   3.937   1.566
 1057SOL    HW2 4071   3.706   3.948   1.605
 1058SOL     OW 4072   2.601   6.788   1.775
 1058SOL    HW1 4073   2.689   6.742   1.763
 1058SOL    HW2 4074   2.611   6.859   1.846
 1059SOL     OW 4075   4.427   0.298   0.672
 1059SOL    HW1 4076   4.514   0.248   0.673
 1059SOL    HW2 4077   4.413   0.343   0.760
 1060SOL     OW 4078   3.602   1.524   3.979
 1060SOL    HW1 4079   3.568   1.565   3.895
 1060SOL    HW2 4080   3.533   1.463   4.017
 1061SOL     OW 4081   2.533   5.777   1.092
 1061SOL    HW1 4082   2.457   5.720   1.122
 1061SOL    HW2 4083   2.614   5.756   1.147
 1062SOL     OW 4084   5.075   4.337   4.478
 1062SOL    HW1 4085   4.976   4.325   4.482
 1062SOL    HW2 4086   5.102   4.415   4.535
 1063SOL     OW 4087   3.573   2.125   5.779
 1063SOL    HW1 4088   3.505   2.199   5.780
 1063SOL    HW2 4089   3.582   2.090   5.685
 1064SOL     OW 4090   0.554   3.764   3.151
 1064SOL    HW1 4091   0.530   3.861   3.151
 1064SOL    HW2 4092   0.651   3.754   3.127
 1065SOL     OW 4093   4.272   5.076   6.808
 1065SOL    HW1 4094   4.286   4.978   6.795
 1065SOL    HW2 4095   4.229   5.092   6.896
 1066SOL     OW 4096   4.680   0.541   3.608
 1066SOL    HW1 4097   4.703   0.533   3.705
 1066SOL    HW2 4098   4.627   0.461   3.580
 1067SOL     OW 4099   3.152   4.147   0.160
 1067SOL    HW1 4100   3.102   4.231   0.176
 1067SOL    HW2 4101   3.123   4.107   0.073
 1068SOL     OW 4102   1.034   5.468   1.579
 1068SOL    HW1 4103   1.075   5.382   1.608
 1068SOL    HW2 4104   1.020   5.528   1.658
 1069SOL     OW 4105   3.350   3.357   2.892
 1069SOL    HW1 4106   3.330   3.448   2.857
 1069SOL    HW2 4107   3.289   3.336   2.968
 1070SOL     OW 4108   1.768   6.214   0.823
 1070SOL    HW1 4109   1.722   6.165   0.749
 1070SOL    HW2 4110   1.859   6.243   0.792
 1071SOL     OW 4111   5.179   6.105   3.558
 1071SOL    HW1 4112   5.195   6.196   3.519
 1071SOL    HW2 4113   5.255   6.081   3.618
 1072SOL     OW 4114   4.096   5.847   3.456
 1072SOL    HW1 4115   4.131   5.904   3.531
 1072SOL    HW2 4116   4.173   5.810   3.404
 1073SOL     OW 4117   2.948   5.505   3.477
 1073SOL    HW1 4118   2.865   5.460   3.444
 1073SOL    HW2 4119   3.001   5.440   3.531
 1074SOL     OW 4120   1.822   4.697   3.527
 1074SOL    HW1 4121   1.724   4.715   3.539
 1074SOL    HW2 4122   1.847   4.709   3.431
 1075SOL     OW 4123   0.683   4.173   2.609
 1075SOL    HW1 4124   0.779   4.161   2.584
 1075SOL    HW2 4125   0.627   4.168   2.527
 1076SOL     OW 4126   5.904   3.597   3.249
 1076SOL    HW1 4127   5.837   3.631   3.315
 1076SOL    HW2 4128   5.966   3.532   3.295
 1077SOL     OW 4129   4.313   0.385   2.024
 1077SOL    HW1 4130   4.325   0.403   1.926
 1077SOL    HW2 4131   4.341   0.465   2.076
 1078SOL     OW 4132   6.533   2.596   2.337
 1078SOL    HW1 4133   6.536   2.502   2.371
 1078SOL    HW2 4134   6.558   2.596   2.240
 1079SOL     OW 4135   1.537   4.494   3.174
 1079SOL    HW1 4136   1.592   4.578   3.173
 1079SOL    HW2 4137   1.444   4.516   3.203
 1080SOL     OW 4138   1.963   5.567   3.799
 1080SOL    HW1 4139   1.931   5.599   3.710
 1080SOL    HW2 4140   1.947   5.469   3.807
 1081SOL     OW 4141   1.625   0.378   0.147
 1081SOL    HW1 4142   1.540   0.373   0.096
 1081SOL    HW2 4143   1.678   0.294   0.131
 1082SOL     OW 4144   1.991   0.110   1.065
 1082SOL    HW1 4145   2.037   0.044   1.006
 1082SOL    HW2 4146   2.059   0.159   1.119
 1083SOL     OW 4147   3.587   2.762   1.922
 1083SOL    HW1 4148   3.641   2.822   1.863
 1083SOL    HW2 4149   3.630   2.756   2.012
 1084SOL     OW 4150   6.354   4.110   1.339
 1084SOL    HW1 4151   6.297   4.127   1.419
 1084SOL    HW2 4152   6.297   4.077   1.264
 1085SOL     OW 4153   1.544   5.616   4.094
 1085SOL    HW1 4154   1.446   5.604   4.105
 1085SOL    HW2 4155   1.568   5.713   4.102
 1086SOL     OW 4156   3.241   5.753   2.915
 1086SOL    HW1 4157   3.290   5.820   2.860
 1086SOL    HW2 4158   3.208   5.679   2.855
 1087SOL     OW 4159   4.118   2.948   5.355
 1087SOL    HW1 4160   4.168   2.862   5.353
 1087SOL    HW2 4161   4.161   3.009   5.422
 1088SOL     OW 4162   0.118   4.254   2.738
 1088SOL    HW1 4163   0.130   4.352   2.721
 1088SOL    HW2 4164   0.140   4.233   2.833
 1089SOL     OW 4165   6.667   6.903   3.063
 1089SOL    HW1 4166   6.568   6.900   3.078
 1089SOL    HW2 4167   6.695   6.825   3.008
 1090SOL     OW 4168   2.545   2.229   6.480
 1090SOL    HW1 4169   2.640   2.207   6.458
 1090SOL    HW2 4170   2.504   2.278   6.404
 1091SOL     OW 4171   1.556   2.244   6.118
 1091SOL    HW1 4172   1.504   2.262   6.035
 1091SOL    HW2 4173   1.498   2.196   6.184
 1092SOL     OW 4174   3.182   4.951   1.600
 1092SOL    HW1 4175   3.165   4.853   1.610
 1092SOL    HW2 4176   3.238   4.983   1.677
 1093SOL     OW 4177   0.688   2.445   1.456
 1093SOL    HW1 4178   0.669   2.475   1.549
 1093SOL    HW2 4179   0.742   2.361   1.458
 1094SOL     OW 4180   1.158   5.813   2.606
 1094SOL    HW1 4181   1.177   5.870   2.526
 1094SOL    HW2 4182   1.168   5.868   2.689
 1095SOL     OW 4183   1.116   3.177   6.144
 1095SOL    HW1 4184   1.064   3.141   6.221
 1095SOL    HW2 4185   1.155   3.266   6.169
 1096SOL     OW 4186   3.517   2.914   2.744
 1096SOL    HW1 4187   3.516   3.014   2.755
 1096SOL    HW2 4188   3.441   2.887   2.685
 1097SOL     OW 4189   2.901   5.037   5.722
 1097SOL    HW1 4190   2.919   5.135   5.718
 1097SOL    HW2 4191   2.803   5.021   5.716
 1098SOL     OW 4192   3.010   0.633   2.554
 1098SOL    HW1 4193   2.981   0.663   2.645
 1098SOL    HW2 4194   3.081   0.563   2.563
 1099SOL     OW 4195   3.104   0.396   2.247
 1099SOL    HW1 4196   3.145   0.459   2.313
 1099SOL    HW2 4197   3.151   0.404   2.159
 1100SOL     OW 4198   6.632   0.833   0.423
 1100SOL    HW1 4199   6.729   0.853   0.440
 1100SOL    HW2 4200   6.624   0.748   0.372
 1101SOL     OW 4201   5.652   3.657   0.878
 1101SOL    HW1 4202   5.690   3.698   0.961
 1101SOL    HW2 4203   5.565   3.612   0.900
 1102SOL     OW 4204   0.001   3.759   4.099
 1102SOL    HW1 4205   0.048   3.844   4.122
 1102SOL    HW2 4206   0.069   3.688   4.079
 1103SOL     OW 4207   0.599   2.767   0.263
 1103SOL    HW1 4208   0.639   2.740   0.175
 1103SOL    HW2 4209   0.551   2.854   0.253
 1104SOL     OW 4210   2.494   5.737   5.694
 1104SOL    HW1 4211   2.503   5.831   5.728
 1104SOL    HW2 4212   2.548   5.726   5.611
 1105SOL     OW 4213   4.145   5.794   0.677
 1105SOL    HW1 4214   4.242   5.803   0.655
 1105SOL    HW2 4215   4.113   5.877   0.723
 1106SOL     OW 4216   0.700   1.834   6.820
 1106SOL    HW1 4217   0.786   1.789   6.843
 1106SOL    HW2 4218   0.641   1.838   6.901
 1107SOL     OW 4219   6.402   0.116   1.364
 1107SOL    HW1 4220   6.384   0.172   1.283
 1107SOL    HW2 4221   6.346   0.033   1.360
 1108SOL     OW 4222   1.418   1.055   0.553
 1108SOL    HW1 4223   1.425   0.970   0.500
 1108SOL    HW2 4224   1.409   1.032   0.650
 1109SOL     OW 4225   4.127   1.295   3.725
 1109SOL    HW1 4226   4.029   1.288   3.741
 1109SOL    HW2 4227   4.162   1.207   3.693
 1110SOL     OW 4228   3.486   3.252   3.193
 1110SOL    HW1 4229   3.490   3.311   3.273
 1110SOL    HW2 4230   3.533   3.166   3.213
 1111SOL     OW 4231   4.087   6.674   6.749
 1111SOL    HW1 4232   4.158   6.741   6.726
 1111SOL    HW2 4233   4.090   6.656   6.848
 1112SOL     OW 4234   1.081   1.549   2.791
 1112SOL    HW1 4235   1.019   1.628   2.798
 1112SOL    HW2 4236   1.044   1.472   2.843
 1113SOL     OW 4237   6.617   3.648   1.493
 1113SOL    HW1 4238   6.573   3.572   1.542
 1113SOL    HW2 4239   6.572   3.662   1.405
 1114SOL     OW 4240   6.229   0.989   5.599
 1114SOL    HW1 4241   6.216   0.997   5.698
 1114SOL    HW2 4242   6.325   0.967   5.581
 1115SOL     OW 4243   2.205   5.129   0.449
 1115SOL    HW1 4244   2.111   5.100   0.465
 1115SOL    HW2 4245   2.213   5.169   0.357
 1116SOL     OW 4246   3.773   6.184   6.797
 1116SOL    HW1 4247   3.709   6.181   6.721
 1116SOL    HW2 4248   3.817   6.095   6.808
 1117SOL     OW 4249   2.581   2.931   0.896
 1117SOL    HW1 4250   2.670   2.969   0.871
 1117SOL    HW2 4251   2.510   2.975   0.841
 1118SOL     OW 4252   1.428   2.839   1.441
 1118SOL    HW1 4253   1.429   2.864   1.537
 1118SOL    HW2 4254   1.459   2.745   1.430
 1119SOL     OW 4255   2.970   3.840   3.806
 1119SOL    HW1 4256   2.898   3.872   3.744
 1119SOL    HW2 4257   2.935   3.765   3.861
 1120SOL     OW 4258   3.324   1.071   3.602
 1120SOL    HW1 4259   3.375   1.085   3.516
 1120SOL    HW2 4260   3.290   0.977   3.605
 1121SOL     OW 4261   4.770   4.053   3.048
 1121SOL    HW1 4262   4.858   4.022   3.083
 1121SOL    HW2 4263   4.702   3.980   3.057
 1122SOL     OW 4264   4.574   5.004   6.443
 1122SOL    HW1 4265   4.553   5.042   6.534
 1122SOL    HW2 4266   4.596   4.907   6.452
 1123SOL     OW 4267   3.546   0.751   2.062
 1123SOL    HW1 4268   3.535   0.673   2.124
 1123SOL    HW2 4269   3.627   0.804   2.089
 1124SOL     OW 4270   2.097   5.218   3.616
 1124SOL    HW1 4271   2.103   5.119   3.627
 1124SOL    HW2 4272   2.124   5.242   3.523
 1125SOL     OW 4273   3.252   3.970   5.432
 1125SOL    HW1 4274   3.248   4.053   5.375
 1125SOL    HW2 4275   3.185   3.977   5.505
 1126SOL     OW 4276   6.257   0.461   2.105
 1126SOL    HW1 4277   6.249   0.541   2.166
 1126SOL    HW2 4278   6.288   0.382   2.158
 1127SOL     OW 4279   2.056   5.469   6.163
 1127SOL    HW1 4280   1.971   5.501   6.120
 1127SOL    HW2 4281   2.128   5.463   6.095
 1128SOL     OW 4282   2.203   2.524   5.334
 1128SOL    HW1 4283   2.165   2.616   5.326
 1128SOL    HW2 4284   2.194   2.477   5.246
 1129SOL     OW 4285   4.144   5.376   6.361
 1129SOL    HW1 4286   4.053   5.411   6.383
 1129SOL    HW2 4287   4.184   5.434   6.289
 1130SOL     OW 4288   1.089   5.142   5.470
 1130SOL    HW1 4289   0.998   5.146   5.428
 1130SOL    HW2 4290   1.093   5.207   5.546
 1131SOL     OW 4291   0.167   4.720   6.307
 1131SOL    HW1 4292   0.106   4.647   6.337
 1131SOL    HW2 4293   0.196   4.703   6.213
 1132SOL     OW 4294   5.107   6.693   4.895
 1132SOL    HW1 4295   5.011   6.714   4.878
 1132SOL    HW2 4296   5.122   6.594   4.887
 1133SOL     OW 4297   6.754   1.937   6.685
 1133SOL    HW1 4298   6.848   1.957   6.713
 1133SOL    HW2 4299   6.704   2.023   6.671
 1134SOL     OW 4300   0.228   2.938   5.470
 1134SOL    HW1 4301   0.232   2.988   5.557
 1134SOL    HW2 4302   0.286   2.856   5.476
 1135SOL     OW 4303   0.223   1.696   4.310
 1135SOL    HW1 4304   0.265   1.666   4.395
 1135SOL    HW2 4305   0.132   1.654   4.301
 1136SOL     OW 4306   3.734   5.231   3.963
 1136SOL    HW1 4307   3.698   5.317   4.001
 1136SOL    HW2 4308   3.711   5.156   4.024
 1137SOL     OW 4309   0.653   0.316   6.794
 1137SOL    HW1 4310   0.696   0.228   6.815
 1137SOL    HW2 4311   0.586   0.337   6.865
 1138SOL     OW 4312   1.031   3.313   5.758
 1138SOL    HW1 4313   1.064   3.402   5.791
 1138SOL    HW2 4314   1.109   3.257   5.731
 1139SOL     OW 4315   0.662   0.380   2.491
 1139SOL    HW1 4316   0.649   0.334   2.579
 1139SOL    HW2 4317   0.577   0.375   2.438
 1140SOL     OW 4318   3.957   1.935   3.198
 1140SOL    HW1 4319   3.870   1.903   3.235
 1140SOL    HW2 4320   3.941   1.977   3.108
 1141SOL     OW 4321   0.142   6.382   6.065
 1141SOL    HW1 4322   0.087   6.413   5.987
 1141SOL    HW2 4323   0.232   6.425   6.061
 1142SOL     OW 4324   6.392   6.838   5.074
 1142SOL    HW1 4325   6.414   6.927   5.033
 1142SOL    HW2 4326   6.460   6.771   5.045
 1143SOL     OW 4327   5.384   2.722   1.067
 1143SOL    HW1 4328   5.447   2.697   1.140
 1143SOL    HW2 4329   5.339   2.809   1.090
 1144SOL     OW 4330   0.761   6.377   4.967
 1144SOL    HW1 4331   0.846   6.414   5.004
 1144SOL    HW2 4332   0.780   6.330   4.881
 1145SOL     OW 4333   2.133   5.129   4.963
 1145SOL    HW1 4334   2.175   5.060   4.904
 1145SOL    HW2 4335   2.204   5.191   4.997
 1146SOL     OW 4336   5.925   2.012   1.920
 1146SOL    HW1 4337   5.887   1.921   1.903
 1146SOL    HW2 4338   5.924   2.030   2.019
 1147SOL     OW 4339   6.468   3.908   2.061
 1147SOL    HW1 4340   6.513   3.997   2.067
 1147SOL    HW2 4341   6.378   3.913   2.106
 1148SOL     OW 4342   6.349   0.423   6.415
 1148SOL    HW1 4343   6.402   0.498   6.375
 1148SOL    HW2 4344   6.320   0.361   6.342
 1149SOL     OW 4345   4.937   3.481   3.146
 1149SOL    HW1 4346   4.890   3.468   3.058
 1149SOL    HW2 4347   4.909   3.569   3.185
 1150SOL     OW 4348   1.793   6.169   5.319
 1150SOL    HW1 4349   1.731   6.237   5.358
 1150SOL    HW2 4350   1.824   6.200   5.229
 1151SOL     OW 4351   2.505   5.150   0.191
 1151SOL    HW1 4352   2.592   5.198   0.206
 1151SOL    HW2 4353   2.430   5.211   0.215
 1152SOL     OW 4354   6.717   0.725   3.322
 1152SOL    HW1 4355   6.704   0.799   3.256
 1152SOL    HW2 4356   6.656   0.649   3.298
 1153SOL     OW 4357   2.344   4.361   2.427
 1153SOL    HW1 4358   2.395   4.444   2.452
 1153SOL    HW2 4359   2.352   4.294   2.500
 1154SOL     OW 4360   1.879   4.199   2.019
 1154SOL    HW1 4361   1.858   4.247   2.104
 1154SOL    HW2 4362   1.794   4.174   1.973
 1155SOL     OW 4363   4.819   0.635   2.037
 1155SOL    HW1 4364   4.745   0.679   1.986
 1155SOL    HW2 4365   4.803   0.536   2.038
 1156SOL     OW 4366   2.246   0.761   4.646
 1156SOL    HW1 4367   2.267   0.842   4.702
 1156SOL    HW2 4368   2.162   0.719   4.678
 1157SOL     OW 4369   1.230   3.452   3.724
 1157SOL    HW1 4370   1.303   3.439   3.790
 1157SOL    HW2 4371   1.147   3.484   3.771
 1158SOL     OW 4372   4.584   5.316   6.046
 1158SOL    HW1 4373   4.566   5.254   5.971
 1158SOL    HW2 4374   4.572   5.268   6.133
 1159SOL     OW 4375   6.157   4.468   2.651
 1159SOL    HW1 4376   6.219   4.482   2.728
 1159SOL    HW2 4377   6.151   4.552   2.597
 1160SOL     OW 4378   2.831   2.597   1.224
 1160SOL    HW1 4379   2.820   2.500   1.243
 1160SOL    HW2 4380   2.774   2.623   1.146
 1161SOL     OW 4381   3.990   0.898   3.498
 1161SOL    HW1 4382   4.081   0.894   3.538
 1161SOL    HW2 4383   3.963   0.993   3.483
 1162SOL     OW 4384   3.764   5.131   1.959
 1162SOL    HW1 4385   3.771   5.032   1.974
 1162SOL    HW2 4386   3.781   5.179   2.045
 1163SOL     OW 4387   4.740   6.852   2.497
 1163SOL    HW1 4388   4.680   6.915   2.448
 1163SOL    HW2 4389   4.761   6.774   2.438
 1164SOL     OW 4390   6.746   4.216   4.780
 1164SOL    HW1 4391   6.802   4.192   4.859
 1164SOL    HW2 4392   6.764   4.152   4.705
 1165SOL     OW 4393   0.541   4.892   1.860
 1165SOL    HW1 4394   0.606   4.818   1.878
 1165SOL    HW2 4395   0.448   4.855   1.858
 1166SOL     OW 4396   3.481   0.789   6.951
 1166SOL    HW1 4397   3.552   0.734   6.993
 1166SOL    HW2 4398   3.401   0.732   6.931
 1167SOL     OW 4399   4.736   1.603   5.509
 1167SOL    HW1 4400   4.780   1.514   5.506
 1167SOL    HW2 4401   4.806   1.675   5.504
 1168SOL     OW 4402   5.749   1.028   3.765
 1168SOL    HW1 4403   5.707   0.980   3.688
 1168SOL    HW2 4404   5.687   1.099   3.798
 1169SOL     OW 4405   1.667   2.621   1.035
 1169SOL    HW1 4406   1.640   2.687   0.965
 1169SOL    HW2 4407   1.668   2.665   1.125
 1170SOL     OW 4408   2.381   0.821   1.597
 1170SOL    HW1 4409   2.473   0.785   1.611
 1170SOL    HW2 4410   2.366   0.900   1.657
 1171SOL     OW 4411   4.446   0.888   0.778
 1171SOL    HW1 4412   4.372   0.910   0.842
 1171SOL    HW2 4413   4.411   0.828   0.706
 1172SOL     OW 4414   3.429   3.130   5.607
 1172SOL    HW1 4415   3.340   3.174   5.605
 1172SOL    HW2 4416   3.417   3.031   5.621
 1173SOL     OW 4417   5.529   6.630   5.762
 1173SOL    HW1 4418   5.462   6.678   5.705
 1173SOL    HW2 4419   5.571   6.694   5.826
 1174SOL     OW 4420   3.900   5.949   6.848
 1174SOL    HW1 4421   3.865   5.862   6.812
 1174SOL    HW2 4422   3.977   5.931   6.909
 1175SOL     OW 4423   0.016   5.273   4.798
 1175SOL    HW1 4424   0.042   5.279   4.895
 1175SOL    HW2 4425   0.050   5.188   4.760
 1176SOL     OW 4426   6.051   3.323   1.698
 1176SOL    HW1 4427   6.113   3.267   1.642
 1176SOL    HW2 4428   6.104   3.382   1.758
 1177SOL     OW 4429   6.214   3.468   5.928
 1177SOL    HW1 4430   6.207   3.412   6.010
 1177SOL    HW2 4431   6.122   3.494   5.898
 1178SOL     OW 4432   4.422   5.266   2.305
 1178SOL    HW1 4433   4.433   5.267   2.205
 1178SOL    HW2 4434   4.345   5.206   2.329
 1179SOL     OW 4435   1.387   5.264   6.009
 1179SOL    HW1 4436   1.398   5.206   5.928
 1179SOL    HW2 4437   1.361   5.207   6.087
 1180SOL     OW 4438   2.124   0.698   4.136
 1180SOL    HW1 4439   2.031   0.727   4.114
 1180SOL    HW2 4440   2.190   0.752   4.084
 1181SOL     OW 4441   1.483   4.505   2.263
 1181SOL    HW1 4442   1.471   4.432   2.196
 1181SOL    HW2 4443   1.404   4.566   2.261
 1182SOL     OW 4444   0.678   3.630   4.248
 1182SOL    HW1 4445   0.602   3.694   4.239
 1182SOL    HW2 4446   0.717   3.611   4.158
 1183SOL     OW 4447   4.231   5.592   0.882
 1183SOL    HW1 4448   4.177   5.666   0.843
 1183SOL    HW2 4449   4.183   5.554   0.961
 1184SOL     OW 4450   3.586   2.886   6.276
 1184SOL    HW1 4451   3.619   2.802   6.317
 1184SOL    HW2 4452   3.495   2.907   6.312
 1185SOL     OW 4453   2.989   1.422   6.599
 1185SOL    HW1 4454   2.980   1.422   6.500
 1185SOL    HW2 4455   3.079   1.458   6.624
 1186SOL     OW 4456   3.689   6.861   5.057
 1186SOL    HW1 4457   3.609   6.815   5.018
 1186SOL    HW2 4458   3.771   6.833   5.007
 1187SOL     OW 4459   0.582   2.280   4.595
 1187SOL    HW1 4460   0.507   2.261   4.533
 1187SOL    HW2 4461   0.598   2.200   4.654
 1188SOL     OW 4462   1.774   1.051   5.336
 1188SOL    HW1 4463   1.704   1.103   5.386
 1188SOL    HW2 4464   1.789   1.094   5.247
 1189SOL     OW 4465   1.328   0.973   1.449
 1189SOL    HW1 4466   1.343   1.069   1.473
 1189SOL    HW2 4467   1.303   0.921   1.531
 1190SOL     OW 4468   3.585   5.974   2.241
 1190SOL    HW1 4469   3.638   5.978   2.325
 1190SOL    HW2 4470   3.576   5.879   2.211
 1191SOL     OW 4471   2.370   4.174   1.909
 1191SOL    HW1 4472   2.390   4.205   2.002
 1191SOL    HW2 4473   2.272   4.155   1.900
 1192SOL     OW 4474   3.627   5.727   2.817
 1192SOL    HW1 4475   3.547   5.689   2.863
 1192SOL    HW2 4476   3.703   5.732   2.882
 1193SOL     OW 4477   2.896   1.024   3.873
 1193SOL    HW1 4478   2.908   1.028   3.774
 1193SOL    HW2 4479   2.837   0.946   3.896
 1194SOL     OW 4480   6.627   2.018   2.929
 1194SOL    HW1 4481   6.632   2.108   2.972
 1194SOL    HW2 4482   6.690   1.956   2.974
 1195SOL     OW 4483   3.423   0.079   0.272
 1195SOL    HW1 4484   3.330   0.043   0.281
 1195SOL    HW2 4485   3.453   0.114   0.361
 1196SOL     OW 4486   1.912   5.647   3.547
 1196SOL    HW1 4487   1.958   5.622   3.462
 1196SOL    HW2 4488   1.890   5.744   3.546
 1197SOL     OW 4489   3.711   4.956   0.179
 1197SOL    HW1 4490   3.745   4.862   0.184
 1197SOL    HW2 4491   3.786   5.017   0.153
 1198SOL     OW 4492   3.271   0.789   3.087
 1198SOL    HW1 4493   3.327   0.716   3.126
 1198SOL    HW2 4494   3.319   0.876   3.094
 1199SOL     OW 4495   3.680   3.861   4.002
 1199SOL    HW1 4496   3.703   3.765   3.988
 1199SOL    HW2 4497   3.581   3.869   4.018
 1200SOL     OW 4498   4.480   3.648   1.410
 1200SOL    HW1 4499   4.557   3.644   1.346
 1200SOL    HW2 4500   4.512   3.629   1.502
 1201SOL     OW 4501   1.650   2.364   5.322
 1201SOL    HW1 4502   1.695   2.297   5.382
 1201SOL    HW2 4503   1.591   2.423   5.376
 1202SOL     OW 4504   5.978   6.584   4.592
 1202SOL    HW1 4505   5.902   6.540   4.544
 1202SOL    HW2 4506   5.942   6.642   4.665
 1203SOL     OW 4507   6.170   0.058   2.155
 1203SOL    HW1 4508   6.196   0.105   2.071
 1203SOL    HW2 4509   6.249   0.008   2.192
 1204SOL     OW 4510   2.111   0.038   0.101
 1204SOL    HW1 4511   2.167   7.022   0.173
 1204SOL    HW2 4512   2.022   0.064   0.138
 1205SOL     OW 4513   0.904   3.428   6.026
 1205SOL    HW1 4514   0.848   3.370   5.966
 1205SOL    HW2 4515   0.994   3.442   5.984
 1206SOL     OW 4516   6.209   1.276   5.147
 1206SOL    HW1 4517   6.190   1.373   5.129
 1206SOL    HW2 4518   6.183   1.254   5.241
 1207SOL     OW 4519   6.438   5.966   6.330
 1207SOL    HW1 4520   6.440   6.025   6.250
 1207SOL    HW2 4521   6.521   5.978   6.384
 1208SOL     OW 4522   3.768   3.468   2.525
 1208SOL    HW1 4523   3.727   3.554   2.496
 1208SOL    HW2 4524   3.710   3.392   2.498
 1209SOL     OW 4525   6.885   3.667   5.083
 1209SOL    HW1 4526   6.905   3.700   5.175
 1209SOL    HW2 4527   6.853   3.744   5.027
 1210SOL     OW 4528   2.380   0.470   3.312
 1210SOL    HW1 4529   2.303   0.462   3.248
 1210SOL    HW2 4530   2.445   0.397   3.295
 1211SOL     OW 4531   0.087   3.334   3.454
 1211SOL    HW1 4532   0.178   3.349   3.415
 1211SOL    HW2 4533   0.020   3.390   3.406
 1212SOL     OW 4534   0.863   4.410   3.429
 1212SOL    HW1 4535   0.868   4.320   3.472
 1212SOL    HW2 4536   0.805   4.406   3.348
 1213SOL     OW 4537   5.728   3.739   5.017
 1213SOL    HW1 4538   5.773   3.811   5.070
 1213SOL    HW2 4539   5.697   3.667   5.079
 1214SOL     OW 4540   1.083   1.786   1.299
 1214SOL    HW1 4541   1.123   1.745   1.381
 1214SOL    HW2 4542   1.017   1.722   1.259
 1215SOL     OW 4543   0.700   5.433   2.551
 1215SOL    HW1 4544   0.726   5.473   2.463
 1215SOL    HW2 4545   0.699   5.505   2.621
 1216SOL     OW 4546   2.363   0.022   1.531
 1216SOL    HW1 4547   2.371   0.109   1.483
 1216SOL    HW2 4548   2.284   0.025   1.592
 1217SOL     OW 4549   1.873   2.825   3.253
 1217SOL    HW1 4550   1.850   2.732   3.284
 1217SOL    HW2 4551   1.832   2.841   3.164
 1218SOL     OW 4552   0.278   4.069   3.317
 1218SOL    HW1 4553   0.260   3.982   3.363
 1218SOL    HW2 4554   0.208   4.136   3.344
 1219SOL     OW 4555   2.304   6.162   3.050
 1219SOL    HW1 4556   2.395   6.204   3.042
 1219SOL    HW2 4557   2.272   6.168   3.144
 1220SOL     OW 4558   6.448   4.890   2.572
 1220SOL    HW1 4559   6.461   4.913   2.475
 1220SOL    HW2 4560   6.379   4.950   2.612
 1221SOL     OW 4561   4.716   4.730   6.484
 1221SOL    HW1 4562   4.684   4.638   6.508
 1221SOL    HW2 4563   4.771   4.766   6.559
 1222SOL     OW 4564   6.509   4.589   1.706
 1222SOL    HW1 4565   6.446   4.653   1.662
 1222SOL    HW2 4566   6.597   4.591   1.658
 1223SOL     OW 4567   0.197   4.768   4.743
 1223SOL    HW1 4568   0.191   4.707   4.663
 1223SOL    HW2 4569   0.201   4.713   4.826
 1224SOL     OW 4570   4.631   4.131   1.424
 1224SOL    HW1 4571   4.729   4.143   1.415
 1224SOL    HW2 4572   4.608   4.104   1.517
 1225SOL     OW 4573   5.059   1.443   6.547
 1225SOL    HW1 4574   5.121   1.368   6.525
 1225SOL    HW2 4575   5.102   1.530   6.524
 1226SOL     OW 4576   5.984   5.558   0.781
 1226SOL    HW1 4577   6.020   5.599   0.864
 1226SOL    HW2 4578   5.957   5.464   0.799
 1227SOL     OW 4579   5.227   4.245   6.853
 1227SOL    HW1 4580   5.285   4.311   6.805
 1227SOL    HW2 4581   5.222   4.270   6.950
 1228SOL     OW 4582   4.097   3.708   4.923
 1228SOL    HW1 4583   4.160   3.675   4.993
 1228SOL    HW2 4584   4.003   3.697   4.956
 1229SOL     OW 4585   2.091   5.242   2.147
 1229SOL    HW1 4586   2.147   5.322   2.171
 1229SOL    HW2 4587   2.078   5.239   2.048
 1230SOL     OW 4588   5.026   4.516   6.942
 1230SOL    HW1 4589   4.961   4.577   6.987
 1230SOL    HW2 4590   4.979   4.432   6.913
 1231SOL     OW 4591   2.090   0.446   0.604
 1231SOL    HW1 4592   2.105   0.542   0.630
 1231SOL    HW2 4593   2.099   0.437   0.505
 1232SOL     OW 4594   2.184   1.709   5.892
 1232SOL    HW1 4595   2.150   1.620   5.924
 1232SOL    HW2 4596   2.276   1.724   5.927
 1233SOL     OW 4597   0.070   5.475   4.590
 1233SOL    HW1 4598   0.012   5.542   4.636
 1233SOL    HW2 4599   0.069   5.389   4.642
 1234SOL     OW 4600   6.814   4.532   5.568
 1234SOL    HW1 4601   6.795   4.539   5.666
 1234SOL    HW2 4602   6.757   4.459   5.529
 1235SOL     OW 4603   6.345   5.476   0.916
 1235SOL    HW1 4604   6.254   5.451   0.883
 1235SOL    HW2 4605   6.412   5.411   0.882
 1236SOL     OW 4606   6.820   1.131   2.405
 1236SOL    HW1 4607   6.798   1.042   2.364
 1236SOL    HW2 4608   6.918   1.135   2.423
 1237SOL     OW 4609   0.690   0.427   4.204
 1237SOL    HW1 4610   0.638   0.371   4.141
 1237SOL    HW2 4611   0.753   0.370   4.257
 1238SOL     OW 4612   0.401   1.123   4.126
 1238SOL    HW1 4613   0.327   1.160   4.183
 1238SOL    HW2 4614   0.417   1.028   4.149
 1239SOL     OW 4615   5.480   4.671   3.743
 1239SOL    HW1 4616   5.425   4.591   3.765
 1239SOL    HW2 4617   5.464   4.742   3.812
 1240SOL     OW 4618   0.786   4.356   1.484
 1240SOL    HW1 4619   0.788   4.431   1.417
 1240SOL    HW2 4620   0.734   4.385   1.564
 1241SOL     OW 4621   3.397   5.018   6.403
 1241SOL    HW1 4622   3.359   5.110   6.405
 1241SOL    HW2 4623   3.457   5.004   6.482
 1242SOL     OW 4624   1.964   5.627   0.817
 1242SOL    HW1 4625   1.910   5.685   0.878
 1242SOL    HW2 4626   1.911   5.605   0.736
 1243SOL     OW 4627   0.241   3.693   3.667
 1243SOL    HW1 4628   0.256   3.746   3.751
 1243SOL    HW2 4629   0.284   3.603   3.677
 1244SOL     OW 4630   6.728   6.668   4.779
 1244SOL    HW1 4631   6.661   6.712   4.838
 1244SOL    HW2 4632   6.755   6.731   4.707
 1245SOL     OW 4633   4.733   0.514   1.640
 1245SOL    HW1 4634   4.787   0.453   1.698
 1245SOL    HW2 4635   4.729   0.477   1.547
 1246SOL     OW 4636   5.150   2.617   1.789
 1246SOL    HW1 4637   5.084   2.635   1.862
 1246SOL    HW2 4638   5.122   2.665   1.706
 1247SOL     OW 4639   4.704   0.176   2.276
 1247SOL    HW1 4640   4.670   0.265   2.245
 1247SOL    HW2 4641   4.796   0.187   2.314
 1248SOL     OW 4642   0.588   0.000   4.675
 1248SOL    HW1 4643   0.580   6.927   4.650
 1248SOL    HW2 4644   0.528   0.020   4.752
 1249SOL     OW 4645   6.725   6.673   6.631
 1249SOL    HW1 4646   6.790   6.690   6.557
 1249SOL    HW2 4647   6.773   6.679   6.719
 1250SOL     OW 4648   0.571   4.541   5.189
 1250SOL    HW1 4649   0.580   4.454   5.237
 1250SOL    HW2 4650   0.501   4.596   5.234
 1251SOL     OW 4651   2.460   0.733   3.190
 1251SOL    HW1 4652   2.515   0.649   3.189
 1251SOL    HW2 4653   2.371   0.715   3.149
 1252SOL     OW 4654   2.292   5.145   6.425
 1252SOL    HW1 4655   2.253   5.084   6.494
 1252SOL    HW2 4656   2.309   5.235   6.466
 1253SOL     OW 4657   2.757   5.751   0.614
 1253SOL    HW1 4658   2.728   5.791   0.701
 1253SOL    HW2 4659   2.853   5.725   0.620
 1254SOL     OW 4660   6.574   0.598   3.741
 1254SOL    HW1 4661   6.502   0.538   3.705
 1254SOL    HW2 4662   6.532   0.669   3.799
 1255SOL     OW 4663   6.144   2.308   6.144
 1255SOL    HW1 4664   6.150   2.229   6.205
 1255SOL    HW2 4665   6.184   2.388   6.189
 1256SOL     OW 4666   0.110   5.615   6.191
 1256SOL    HW1 4667   0.144   5.708   6.183
 1256SOL    HW2 4668   0.152   5.570   6.270
 1257SOL     OW 4669   6.985   6.475   2.721
 1257SOL    HW1 4670   6.902   6.527   2.700
 1257SOL    HW2 4671   0.041   6.535   2.715
 1258SOL     OW 4672   5.206   5.444   6.587
 1258SOL    HW1 4673   5.152   5.522   6.555
 1258SOL    HW2 4674   5.232   5.458   6.682
 1259SOL     OW 4675   5.940   6.491   4.931
 1259SOL    HW1 4676   6.019   6.512   4.872
 1259SOL    HW2 4677   5.866   6.556   4.912
 1260SOL     OW 4678   3.334   1.107   0.812
 1260SOL    HW1 4679   3.300   1.028   0.864
 1260SOL    HW2 4680   3.256   1.158   0.774
 1261SOL     OW 4681   0.513   4.326   4.903
 1261SOL    HW1 4682   0.424   4.301   4.940
 1261SOL    HW2 4683   0.523   4.426   4.904
 1262SOL     OW 4684   4.196   6.447   1.452
 1262SOL    HW1 4685   4.210   6.463   1.354
 1262SOL    HW2 4686   4.101   6.466   1.475
 1263SOL     OW 4687   0.059   1.545   1.289
 1263SOL    HW1 4688   0.066   1.465   1.349
 1263SOL    HW2 4689   0.105   1.623   1.331
 1264SOL     OW 4690   5.656   3.115   4.875
 1264SOL    HW1 4691   5.685   3.080   4.786
 1264SOL    HW2 4692   5.572   3.069   4.903
 1265SOL     OW 4693   5.661   4.896   4.881
 1265SOL    HW1 4694   5.666   4.800   4.910
 1265SOL    HW2 4695   5.734   4.915   4.816
 1266SOL     OW 4696   2.867   0.538   3.773
 1266SOL    HW1 4697   2.951   0.489   3.751
 1266SOL    HW2 4698   2.788   0.477   3.760
 1267SOL     OW 4699   0.549   4.141   2.363
 1267SOL    HW1 4700   0.509   4.090   2.287
 1267SOL    HW2 4701   0.480   4.202   2.402
 1268SOL     OW 4702   6.208   4.955   0.060
 1268SOL    HW1 4703   6.191   4.993   6.994
 1268SOL    HW2 4704   6.253   4.866   0.051
 1269SOL     OW 4705   0.843   4.346   6.393
 1269SOL    HW1 4706   0.791   4.321   6.312
 1269SOL    HW2 4707   0.841   4.445   6.405
 1270SOL     OW 4708   1.971   2.135   4.269
 1270SOL    HW1 4709   1.981   2.188   4.353
 1270SOL    HW2 4710   2.028   2.175   4.198
 1271SOL     OW 4711   5.628   3.435   3.121
 1271SOL    HW1 4712   5.598   3.474   3.207
 1271SOL    HW2 4713   5.719   3.395   3.133
 1272SOL     OW 4714   6.208   6.666   6.817
 1272SOL    HW1 4715   6.291   6.722   6.817
 1272SOL    HW2 4716   6.188   6.636   6.910
 1273SOL     OW 4717   2.879   6.999   4.888
 1273SOL    HW1 4718   2.884   0.063   4.839
 1273SOL    HW2 4719   2.970   6.970   4.916
 1274SOL     OW 4720   5.466   2.748   1.602
 1274SOL    HW1 4721   5.477   2.826   1.541
 1274SOL    HW2 4722   5.423   2.778   1.687
 1275SOL     OW 4723   3.517   1.263   3.733
 1275SOL    HW1 4724   3.471   1.349   3.757
 1275SOL    HW2 4725   3.449   1.197   3.701
 1276SOL     OW 4726   5.159   6.674   2.522
 1276SOL    HW1 4727   5.219   6.597   2.544
 1276SOL    HW2 4728   5.107   6.701   2.603
 1277SOL     OW 4729   0.452   1.926   4.492
 1277SOL    HW1 4730   0.524   1.866   4.457
 1277SOL    HW2 4731   0.460   2.016   4.449
 1278SOL     OW 4732   3.312   1.815   4.452
 1278SOL    HW1 4733   3.380   1.747   4.481
 1278SOL    HW2 4734   3.223   1.771   4.441
 1279SOL     OW 4735   1.839   4.824   0.355
 1279SOL    HW1 4736   1.760   4.847   0.297
 1279SOL    HW2 4737   1.898   4.760   0.306
 1280SOL     OW 4738   1.382   5.837   2.948
 1280SOL    HW1 4739   1.402   5.826   3.045
 1280SOL    HW2 4740   1.387   5.934   2.924
 1281SOL     OW 4741   0.596   6.526   3.777
 1281SOL    HW1 4742   0.620   6.434   3.810
 1281SOL    HW2 4743   0.594   6.525   3.677
 1282SOL     OW 4744   1.438   6.307   2.345
 1282SOL    HW1 4745   1.449   6.255   2.260
 1282SOL    HW2 4746   1.521   6.359   2.363
 1283SOL     OW 4747   5.284   4.141   5.085
 1283SOL    HW1 4748   5.374   4.097   5.081
 1283SOL    HW2 4749   5.234   4.122   5.000
 1284SOL     OW 4750   2.787   2.033   2.742
 1284SOL    HW1 4751   2.758   2.113   2.795
 1284SOL    HW2 4752   2.867   2.057   2.687
 1285SOL     OW 4753   5.843   2.529   5.907
 1285SOL    HW1 4754   5.807   2.569   5.990
 1285SOL    HW2 4755   5.884   2.440   5.928
 1286SOL     OW 4756   5.671   5.857   1.002
 1286SOL    HW1 4757   5.720   5.842   0.916
 1286SOL    HW2 4758   5.576   5.882   0.982
 1287SOL     OW 4759   6.032   3.827   5.798
 1287SOL    HW1 4760   5.994   3.735   5.789
 1287SOL    HW2 4761   6.048   3.847   5.895
 1288SOL     OW 4762   6.678   3.721   3.508
 1288SOL    HW1 4763   6.660   3.623   3.508
 1288SOL    HW2 4764   6.730   3.745   3.591
 1289SOL     OW 4765   0.312   5.111   2.879
 1289SOL    HW1 4766   0.271   5.202   2.872
 1289SOL    HW2 4767   0.255   5.045   2.830
 1290SOL     OW 4768   6.441   6.966   2.086
 1290SOL    HW1 4769   6.481   0.008   2.023
 1290SOL    HW2 4770   6.513   6.909   2.126
 1291SOL     OW 4771   1.420   6.322   1.585
 1291SOL    HW1 4772   1.414   6.394   1.654
 1291SOL    HW2 4773   1.431   6.364   1.495
 1292SOL     OW 4774   1.405   5.808   0.560
 1292SOL    HW1 4775   1.385   5.764   0.647
 1292SOL    HW2 4776   1.345   5.886   0.547
 1293SOL     OW 4777   6.172   1.728   6.496
 1293SOL    HW1 4778   6.177   1.787   6.415
 1293SOL    HW2 4779   6.091   1.669   6.488
 1294SOL     OW 4780   0.646   1.821   3.570
 1294SOL    HW1 4781   0.636   1.904   3.515
 1294SOL    HW2 4782   0.563   1.807   3.624
 1295SOL     OW 4783   4.994   3.895   1.129
 1295SOL    HW1 4784   4.992   3.969   1.195
 1295SOL    HW2 4785   4.900   3.867   1.108
 1296SOL     OW 4786   3.900   1.492   0.522
 1296SOL    HW1 4787   4.000   1.492   0.529
 1296SOL    HW2 4788   3.866   1.586   0.529
 1297SOL     OW 4789   6.512   1.143   6.312
 1297SOL    HW1 4790   6.556   1.151   6.401
 1297SOL    HW2 4791   6.570   1.089   6.251
 1298SOL     OW 4792   6.199   2.568   3.472
 1298SOL    HW1 4793   6.108   2.586   3.510
 1298SOL    HW2 4794   6.232   2.649   3.424
 1299SOL     OW 4795   1.408   3.206   4.752
 1299SOL    HW1 4796   1.378   3.301   4.738
 1299SOL    HW2 4797   1.466   3.201   4.833
 1300SOL     OW 4798   3.584   2.999   3.160
 1300SOL    HW1 4799   3.638   2.933   3.212
 1300SOL    HW2 4800   3.508   2.952   3.116
 1301SOL     OW 4801   1.399   1.599   1.722
 1301SOL    HW1 4802   1.462   1.616   1.798
 1301SOL    HW2 4803   1.452   1.587   1.638
 1302SOL     OW 4804   2.649   6.110   5.655
 1302SOL    HW1 4805   2.733   6.164   5.653
 1302SOL    HW2 4806   2.656   6.041   5.727
 1303SOL     OW 4807   3.009   0.016   1.027
 1303SOL    HW1 4808   2.940   6.982   1.071
 1303SOL    HW2 4809   3.100   7.014   1.059
 1304SOL     OW 4810   3.365   0.485   6.121
 1304SOL    HW1 4811   3.314   0.524   6.044
 1304SOL    HW2 4812   3.392   0.392   6.099
 1305SOL     OW 4813   6.056   6.989   3.825
 1305SOL    HW1 4814   5.971   7.004   3.774
 1305SOL    HW2 4815   6.043   6.915   3.891
 1306SOL     OW 4816   1.827   5.174   4.013
 1306SOL    HW1 4817   1.793   5.268   4.018
 1306SOL    HW2 4818   1.917   5.173   3.970
 1307SOL     OW 4819   1.142   1.459   4.539
 1307SOL    HW1 4820   1.111   1.365   4.542
 1307SOL    HW2 4821   1.083   1.512   4.478
 1308SOL     OW 4822   4.706   6.170   2.887
 1308SOL    HW1 4823   4.613   6.193   2.916
 1308SOL    HW2 4824   4.713   6.175   2.787
 1309SOL     OW 4825   5.869   2.865   4.438
 1309SOL    HW1 4826   5.808   2.879   4.360
 1309SOL    HW2 4827   5.889   2.768   4.449
 1310SOL     OW 4828   5.189   3.179   5.689
 1310SOL    HW1 4829   5.174   3.084   5.662
 1310SOL    HW2 4830   5.286   3.201   5.678
 1311SOL     OW 4831   4.704   4.704   6.886
 1311SOL    HW1 4832   4.612   4.672   6.866
 1311SOL    HW2 4833   4.733   4.770   6.817
 1312SOL     OW 4834   6.871   0.577   1.719
 1312SOL    HW1 4835   6.930   0.557   1.797
 1312SOL    HW2 4836   6.812   0.655   1.740
 1313SOL     OW 4837   3.594   5.034   4.842
 1313SOL    HW1 4838   3.608   5.096   4.919
 1313SOL    HW2 4839   3.538   4.956   4.871
 1314SOL     OW 4840   0.009   1.408   5.759
 1314SOL    HW1 4841   7.015   1.455   5.673
 1314SOL    HW2 4842   0.067   1.466   5.817
 1315SOL     OW 4843   1.808   6.940   3.473
 1315SOL    HW1 4844   1.712   6.967   3.475
 1315SOL    HW2 4845   1.839   6.919   3.566
 1316SOL     OW 4846   3.129   6.254   3.512
 1316SOL    HW1 4847   3.078   6.174   3.544
 1316SOL    HW2 4848   3.113   6.267   3.415
 1317SOL     OW 4849   0.095   3.060   4.600
 1317SOL    HW1 4850   0.114   3.135   4.663
 1317SOL    HW2 4851   0.181   3.019   4.569
 1318SOL     OW 4852   0.685   6.978   1.701
 1318SOL    HW1 4853   0.778   6.947   1.721
 1318SOL    HW2 4854   0.687   0.024   1.630
 1319SOL     OW 4855   7.000   6.702   0.735
 1319SOL    HW1 4856   7.005   6.609   0.771
 1319SOL    HW2 4857   6.979   6.699   0.637
 1320SOL     OW 4858   5.150   5.504   5.147
 1320SOL    HW1 4859   5.126   5.481   5.052
 1320SOL    HW2 4860   5.077   5.559   5.187
 1321SOL     OW 4861   3.614   1.128   0.861
 1321SOL    HW1 4862   3.638   1.209   0.807
 1321SOL    HW2 4863   3.519   1.102   0.841
 1322SOL     OW 4864   5.361   0.863   6.312
 1322SOL    HW1 4865   5.363   0.900   6.219
 1322SOL    HW2 4866   5.267   0.844   6.338
 1323SOL     OW 4867   6.504   0.737   3.956
 1323SOL    HW1 4868   6.556   0.686   4.024
 1323SOL    HW2 4869   6.406   0.722   3.970
 1324SOL     OW 4870   1.221   2.448   0.532
 1324SOL    HW1 4871   1.258   2.397   0.454
 1324SOL    HW2 4872   1.167   2.386   0.590
 1325SOL     OW 4873   4.511   5.450   4.375
 1325SOL    HW1 4874   4.448   5.409   4.441
 1325SOL    HW2 4875   4.464   5.460   4.287
 1326SOL     OW 4876   5.539   4.024   4.408
 1326SOL    HW1 4877   5.621   4.034   4.352
 1326SOL    HW2 4878   5.491   4.112   4.413
 1327SOL     OW 4879   2.854   6.502   4.054
 1327SOL    HW1 4880   2.819   6.421   4.102
 1327SOL    HW2 4881   2.952   6.492   4.039
 1328SOL     OW 4882   2.719   1.346   1.578
 1328SOL    HW1 4883   2.714   1.445   1.561
 1328SOL    HW2 4884   2.676   1.326   1.667
 1329SOL     OW 4885   1.327   6.164   1.778
 1329SOL    HW1 4886   1.370   6.226   1.713
 1329SOL    HW2 4887   1.369   6.074   1.771
 1330SOL     OW 4888   5.443   6.561   1.252
 1330SOL    HW1 4889   5.412   6.503   1.177
 1330SOL    HW2 4890   5.508   6.628   1.217
 1331SOL     OW 4891   0.678   2.119   1.843
 1331SOL    HW1 4892   0.643   2.060   1.916
 1331SOL    HW2 4893   0.754   2.174   1.879
 1332SOL     OW 4894   4.720   2.075   0.816
 1332SOL    HW1 4895   4.734   2.154   0.757
 1332SOL    HW2 4896   4.809   2.034   0.838
 1333SOL     OW 4897   4.393   3.196   5.302
 1333SOL    HW1 4898   4.451   3.273   5.327
 1333SOL    HW2 4899   4.312   3.230   5.253
 1334SOL     OW 4900   1.432   3.464   4.147
 1334SOL    HW1 4901   1.427   3.530   4.223
 1334SOL    HW2 4902   1.527   3.451   4.121
 1335SOL     OW 4903   2.151   5.292   3.350
 1335SOL    HW1 4904   2.138   5.389   3.330
 1335SOL    HW2 4905   2.102   5.237   3.282
 1336SOL     OW 4906   0.200   6.195   5.308
 1336SOL    HW1 4907   0.291   6.155   5.295
 1336SOL    HW2 4908   0.134   6.122   5.325
 1337SOL     OW 4909   3.858   6.400   6.512
 1337SOL    HW1 4910   3.915   6.482   6.504
 1337SOL    HW2 4911   3.763   6.425   6.497
 1338SOL     OW 4912   3.567   5.215   0.833
 1338SOL    HW1 4913   3.622   5.288   0.793
 1338SOL    HW2 4914   3.611   5.181   0.916
 1339SOL     OW 4915   0.059   3.862   6.782
 1339SOL    HW1 4916   0.145   3.905   6.810
 1339SOL    HW2 4917   0.069   3.763   6.786
 1340SOL     OW 4918   2.944   1.643   5.803
 1340SOL    HW1 4919   2.986   1.552   5.805
 1340SOL    HW2 4920   3.013   1.712   5.822
 1341SOL     OW 4921   5.791   1.907   4.380
 1341SOL    HW1 4922   5.861   1.838   4.362
 1341SOL    HW2 4923   5.777   1.914   4.479
 1342SOL     OW 4924   0.512   0.056   1.278
 1342SOL    HW1 4925   0.515   6.989   1.319
 1342SOL    HW2 4926   0.419   0.092   1.284
 1343SOL     OW 4927   2.801   5.776   3.698
 1343SOL    HW1 4928   2.885   5.728   3.674
 1343SOL    HW2 4929   2.721   5.723   3.668
 1344SOL     OW 4930   5.356   2.058   2.466
 1344SOL    HW1 4931   5.261   2.032   2.484
 1344SOL    HW2 4932   5.406   2.063   2.552
 1345SOL     OW 4933   6.432   6.131   2.393
 1345SOL    HW1 4934   6.410   6.053   2.451
 1345SOL    HW2 4935   6.524   6.120   2.356
 1346SOL     OW 4936   0.011   1.863   2.820
 1346SOL    HW1 4937   0.056   1.947   2.851
 1346SOL    HW2 4938   6.950   1.850   2.871
 1347SOL     OW 4939   4.619   1.033   3.309
 1347SOL    HW1 4940   4.667   0.948   3.333
 1347SOL    HW2 4941   4.678   1.111   3.331
 1348SOL     OW 4942   5.099   5.781   4.857
 1348SOL    HW1 4943   5.086   5.857   4.794
 1348SOL    HW2 4944   5.084   5.812   4.950
 1349SOL     OW 4945   4.757   2.301   0.395
 1349SOL    HW1 4946   4.832   2.240   0.421
 1349SOL    HW2 4947   4.691   2.251   0.339
 1350SOL     OW 4948   3.031   1.256   4.286
 1350SOL    HW1 4949   3.108   1.238   4.347
 1350SOL    HW2 4950   3.056   1.231   4.192
 1351SOL     OW 4951   1.633   1.567   3.489
 1351SOL    HW1 4952   1.595   1.657   3.468
 1351SOL    HW2 4953   1.637   1.555   3.588
 1352SOL     OW 4954   1.374   6.163   4.476
 1352SOL    HW1 4955   1.352   6.115   4.561
 1352SOL    HW2 4956   1.425   6.247   4.498
 1353SOL     OW 4957   2.454   3.245   5.634
 1353SOL    HW1 4958   2.541   3.286   5.660
 1353SOL    HW2 4959   2.454   3.227   5.535
 1354SOL     OW 4960   0.369   6.649   7.008
 1354SOL    HW1 4961   0.316   6.644   0.070
 1354SOL    HW2 4962   0.370   6.560   6.964
 1355SOL     OW 4963   4.220   3.321   6.983
 1355SOL    HW1 4964   4.162   3.243   6.961
 1355SOL    HW2 4965   4.187   3.365   0.043
 1356SOL     OW 4966   3.320   2.856   2.295
 1356SOL    HW1 4967   3.409   2.867   2.339
 1356SOL    HW2 4968   3.324   2.780   2.230
 1357SOL     OW 4969   3.402   2.181   5.322
 1357SOL    HW1 4970   3.402   2.129   5.236
 1357SOL    HW2 4971   3.327   2.248   5.320
 1358SOL     OW 4972   1.693   3.111   5.971
 1358SOL    HW1 4973   1.658   3.160   6.051
 1358SOL    HW2 4974   1.716   3.017   5.997
 1359SOL     OW 4975   0.293   1.693   6.645
 1359SOL    HW1 4976   0.374   1.654   6.601
 1359SOL    HW2 4977   0.226   1.718   6.575
 1360SOL     OW 4978   3.503   3.489   4.052
 1360SOL    HW1 4979   3.417   3.527   4.016
 1360SOL    HW2 4980   3.544   3.429   3.983
 1361SOL     OW 4981   0.990   6.517   1.091
 1361SOL    HW1 4982   1.078   6.494   1.049
 1361SOL    HW2 4983   0.974   6.456   1.169
 1362SOL     OW 4984   3.194   1.631   6.995
 1362SOL    HW1 4985   3.185   1.611   0.069
 1362SOL    HW2 4986   3.290   1.619   6.968
 1363SOL     OW 4987   6.704   6.538   0.930
 1363SOL    HW1 4988   6.764   6.609   0.967
 1363SOL    HW2 4989   6.692   6.466   0.998
 1364SOL     OW 4990   1.048   3.724   1.289
 1364SOL    HW1 4991   1.011   3.664   1.360
 1364SOL    HW2 4992   1.131   3.685   1.251
 1365SOL     OW 4993   1.271   3.454   6.217
 1365SOL    HW1 4994   1.350   3.408   6.259
 1365SOL    HW2 4995   1.251   3.538   6.267
 1366SOL     OW 4996   3.624   0.589   0.857
 1366SOL    HW1 4997   3.570   0.538   0.790
 1366SOL    HW2 4998   3.698   0.531   0.890
 1367SOL     OW 4999   0.809   6.915   4.510
 1367SOL    HW1 5000   0.775   6.896   4.418
 1367SOL    HW2 5001   0.741   6.967   4.561
 1368SOL     OW 5002   1.526   6.180   4.914
 1368SOL    HW1 5003   1.574   6.116   4.973
 1368SOL    HW2 5004   1.593   6.225   4.853
 1369SOL     OW 5005   1.986   6.006   3.342
 1369SOL    HW1 5006   2.051   6.061   3.289
 1369SOL    HW2 5007   1.941   5.940   3.282
 1370SOL     OW 5008   0.137   2.789   2.654
 1370SOL    HW1 5009   0.060   2.727   2.644
 1370SOL    HW2 5010   0.104   2.883   2.658
 1371SOL     OW 5011   6.192   1.814   6.244
 1371SOL    HW1 5012   6.118   1.747   6.246
 1371SOL    HW2 5013   6.273   1.772   6.203
 1372SOL     OW 5014   4.984   2.254   1.716
 1372SOL    HW1 5015   5.045   2.287   1.644
 1372SOL    HW2 5016   5.038   2.222   1.794
 1373SOL     OW 5017   5.349   2.547   1.433
 1373SOL    HW1 5018   5.345   2.623   1.498
 1373SOL    HW2 5019   5.424   2.562   1.369
 1374SOL     OW 5020   4.067   3.473   2.495
 1374SOL    HW1 5021   3.969   3.456   2.487
 1374SOL    HW2 5022   4.112   3.391   2.531
 1375SOL     OW 5023   5.233   4.410   4.904
 1375SOL    HW1 5024   5.137   4.434   4.913
 1375SOL    HW2 5025   5.246   4.353   4.823
 1376SOL     OW 5026   2.968   4.407   5.598
 1376SOL    HW1 5027   3.002   4.353   5.674
 1376SOL    HW2 5028   2.995   4.364   5.512
 1377SOL     OW 5029   1.412   1.738   3.437
 1377SOL    HW1 5030   1.354   1.693   3.505
 1377SOL    HW2 5031   1.413   1.836   3.454
 1378SOL     OW 5032   4.667   2.256   4.227
 1378SOL    HW1 5033   4.736   2.300   4.284
 1378SOL    HW2 5034   4.600   2.209   4.285
 1379SOL     OW 5035   4.879   5.869   6.860
 1379SOL    HW1 5036   4.863   5.964   6.833
 1379SOL    HW2 5037   4.791   5.821   6.864
 1380SOL     OW 5038   6.965   6.168   3.738
 1380SOL    HW1 5039   6.928   6.200   3.825
 1380SOL    HW2 5040   6.936   6.074   3.722
 1381SOL     OW 5041   6.396   3.042   6.067
 1381SOL    HW1 5042   6.374   3.113   6.134
 1381SOL    HW2 5043   6.387   3.078   5.975
 1382SOL     OW 5044   4.356   1.650   5.825
 1382SOL    HW1 5045   4.436   1.707   5.807
 1382SOL    HW2 5046   4.335   1.652   5.923
 1383SOL     OW 5047   6.272   0.638   0.966
 1383SOL    HW1 5048   6.309   0.725   0.933
 1383SOL    HW2 5049   6.198   0.607   0.906
 1384SOL     OW 5050   5.915   2.776   2.030
 1384SOL    HW1 5051   5.960   2.725   1.957
 1384SOL    HW2 5052   5.844   2.719   2.071
 1385SOL     OW 5053   6.686   6.171   1.504
 1385SOL    HW1 5054   6.656   6.265   1.519
 1385SOL    HW2 5055   6.609   6.108   1.517
 1386SOL     OW 5056   2.062   0.126   3.700
 1386SOL    HW1 5057   2.081   0.223   3.685
 1386SOL    HW2 5058   2.122   0.071   3.642
 1387SOL     OW 5059   1.144   5.810   1.762
 1387SOL    HW1 5060   1.208   5.792   1.688
 1387SOL    HW2 5061   1.190   5.864   1.833
 1388SOL     OW 5062   6.337   0.957   1.931
 1388SOL    HW1 5063   6.411   0.981   1.867
 1388SOL    HW2 5064   6.374   0.902   2.005
 1389SOL     OW 5065   6.163   1.124   1.800
 1389SOL    HW1 5066   6.149   1.203   1.860
 1389SOL    HW2 5067   6.250   1.080   1.823
 1390SOL     OW 5068   1.189   1.808   4.281
 1390SOL    HW1 5069   1.207   1.885   4.219
 1390SOL    HW2 5070   1.226   1.830   4.372
 1391SOL     OW 5071   0.894   3.057   3.352
 1391SOL    HW1 5072   0.866   2.968   3.316
 1391SOL    HW2 5073   0.978   3.087   3.307
 1392SOL     OW 5074   5.207   4.824   4.201
 1392SOL    HW1 5075   5.189   4.858   4.293
 1392SOL    HW2 5076   5.306   4.812   4.189
 1393SOL     OW 5077   3.937   4.507   6.763
 1393SOL    HW1 5078   3.896   4.417   6.746
 1393SOL    HW2 5079   3.893   4.548   6.843
 1394SOL     OW 5080   1.531   6.490   0.113
 1394SOL    HW1 5081   1.621   6.458   0.143
 1394SOL    HW2 5082   1.461   6.425   0.143
 1395SOL     OW 5083   3.768   4.723   6.199
 1395SOL    HW1 5084   3.764   4.815   6.160
 1395SOL    HW2 5085   3.782   4.729   6.298
 1396SOL     OW 5086   5.286   5.739   3.498
 1396SOL    HW1 5087   5.366   5.798   3.486
 1396SOL    HW2 5088   5.279   5.712   3.594
 1397SOL     OW 5089   5.259   6.197   5.154
 1397SOL    HW1 5090   5.197   6.122   5.177
 1397SOL    HW2 5091   5.290   6.242   5.238
 1398SOL     OW 5092   1.581   0.260   5.042
 1398SOL    HW1 5093   1.636   0.325   4.990
 1398SOL    HW2 5094   1.628   0.172   5.048
 1399SOL     OW 5095   3.629   5.538   2.392
 1399SOL    HW1 5096   3.633   5.603   2.316
 1399SOL    HW2 5097   3.570   5.462   2.367
 1400SOL     OW 5098   1.167   0.191   2.765
 1400SOL    HW1 5099   1.127   0.108   2.726
 1400SOL    HW2 5100   1.234   0.228   2.701
 1401SOL     OW 5101   6.808   1.927   4.374
 1401SOL    HW1 5102   6.827   1.853   4.439
 1401SOL    HW2 5103   6.741   1.989   4.413
 1402SOL     OW 5104   6.136   2.471   6.712
 1402SOL    HW1 5105   6.038   2.491   6.711
 1402SOL    HW2 5106   6.158   2.409   6.637
 1403SOL     OW 5107   3.580   0.474   1.847
 1403SOL    HW1 5108   3.677   0.458   1.830
 1403SOL    HW2 5109   3.556   0.569   1.824
 1404SOL     OW 5110   5.317   1.589   0.486
 1404SOL    HW1 5111   5.363   1.677   0.498
 1404SOL    HW2 5112   5.385   1.516   0.479
 1405SOL     OW 5113   3.500   2.889   1.429
 1405SOL    HW1 5114   3.589   2.845   1.444
 1405SOL    HW2 5115   3.427   2.821   1.438
 1406SOL     OW 5116   0.869   3.806   2.129
 1406SOL    HW1 5117   0.833   3.825   2.220
 1406SOL    HW2 5118   0.833   3.719   2.097
 1407SOL     OW 5119   7.016   2.530   2.413
 1407SOL    HW1 5120   6.978   2.567   2.498
 1407SOL    HW2 5121   0.066   2.466   2.434
 1408SOL     OW 5122   6.268   5.530   6.536
 1408SOL    HW1 5123   6.190   5.557   6.594
 1408SOL    HW2 5124   6.347   5.510   6.594
 1409SOL     OW 5125   0.089   1.422   3.641
 1409SOL    HW1 5126   0.149   1.421   3.561
 1409SOL    HW2 5127   0.137   1.381   3.718
 1410SOL     OW 5128   6.502   1.882   6.931
 1410SOL    HW1 5129   6.555   1.950   6.880
 1410SOL    HW2 5130   6.554   1.852   7.011
 1411SOL     OW 5131   1.639   0.962   1.732
 1411SOL    HW1 5132   1.581   0.931   1.657
 1411SOL    HW2 5133   1.638   0.893   1.805
 1412SOL     OW 5134   1.286   2.697   0.421
 1412SOL    HW1 5135   1.338   2.662   0.344
 1412SOL    HW2 5136   1.248   2.621   0.473
 1413SOL     OW 5137   2.534   6.784   3.234
 1413SOL    HW1 5138   2.475   6.858   3.266
 1413SOL    HW2 5139   2.619   6.823   3.198
 1414SOL     OW 5140   1.573   0.862   2.429
 1414SOL    HW1 5141   1.636   0.843   2.504
 1414SOL    HW2 5142   1.589   0.954   2.394
 1415SOL     OW 5143   5.425   6.191   4.933
 1415SOL    HW1 5144   5.475   6.277   4.947
 1415SOL    HW2 5145   5.382   6.163   5.018
 1416SOL     OW 5146   4.591   5.358   3.709
 1416SOL    HW1 5147   4.658   5.399   3.648
 1416SOL    HW2 5148   4.635   5.334   3.796
 1417SOL     OW 5149   3.494   2.743   5.943
 1417SOL    HW1 5150   3.399   2.756   5.914
 1417SOL    HW2 5151   3.504   2.652   5.984
 1418SOL     OW 5152   3.595   3.832   3.445
 1418SOL    HW1 5153   3.510   3.825   3.393
 1418SOL    HW2 5154   3.582   3.793   3.536
 1419SOL     OW 5155   3.566   6.557   3.816
 1419SOL    HW1 5156   3.568   6.475   3.758
 1419SOL    HW2 5157   3.654   6.602   3.813
 1420SOL     OW 5158   0.806   6.146   2.495
 1420SOL    HW1 5159   0.899   6.179   2.478
 1420SOL    HW2 5160   0.741   6.197   2.439
 1421SOL     OW 5161   3.796   0.799   2.563
 1421SOL    HW1 5162   3.723   0.779   2.629
 1421SOL    HW2 5163   3.885   0.780   2.604
 1422SOL     OW 5164   2.663   6.542   0.605
 1422SOL    HW1 5165   2.578   6.508   0.646
 1422SOL    HW2 5166   2.659   6.528   0.506
 1423SOL     OW 5167   5.145   1.109   1.984
 1423SOL    HW1 5168   5.117   1.202   2.010
 1423SOL    HW2 5169   5.070   1.046   2.000
 1424SOL     OW 5170   6.556   5.241   2.832
 1424SOL    HW1 5171   6.495   5.300   2.780
 1424SOL    HW2 5172   6.509   5.210   2.915
 1425SOL     OW 5173   1.507   0.814   4.346
 1425SOL    HW1 5174   1.449   0.787   4.423
 1425SOL    HW2 5175   1.599   0.835   4.379
 1426SOL     OW 5176   1.766   1.509   5.418
 1426SOL    HW1 5177   1.670   1.489   5.399
 1426SOL    HW2 5178   1.778   1.608   5.426
 1427SOL     OW 5179   5.479   1.490   5.383
 1427SOL    HW1 5180   5.392   1.452   5.351
 1427SOL    HW2 5181   5.462   1.572   5.437
 1428SOL     OW 5182   5.787   1.035   0.431
 1428SOL    HW1 5183   5.880   1.007   0.404
 1428SOL    HW2 5184   5.740   1.072   0.351
 1429SOL     OW 5185   5.686   6.163   6.970
 1429SOL    HW1 5186   5.752   6.186   0.018
 1429SOL    HW2 5187   5.677   6.064   6.964
 1430SOL     OW 5188   2.741   4.653   3.061
 1430SOL    HW1 5189   2.713   4.569   3.108
 1430SOL    HW2 5190   2.674   4.676   2.991
 1431SOL     OW 5191   1.877   6.978   0.803
 1431SOL    HW1 5192   1.926   0.041   0.814
 1431SOL    HW2 5193   1.897   6.919   0.881
 1432SOL     OW 5194   3.150   0.278   1.214
 1432SOL    HW1 5195   3.125   0.294   1.119
 1432SOL    HW2 5196   3.250   0.276   1.222
 1433SOL     OW 5197   4.661   0.507   3.864
 1433SOL    HW1 5198   4.666   0.525   3.962
 1433SOL    HW2 5199   4.594   0.434   3.847
 1434SOL     OW 5200   0.987   1.322   5.201
 1434SOL    HW1 5201   0.944   1.410   5.183
 1434SOL    HW2 5202   0.955   1.286   5.288
 1435SOL     OW 5203   0.000   2.460   3.418
 1435SOL    HW1 5204   0.022   2.457   3.320
 1435SOL    HW2 5205   6.935   2.417   3.433
 1436SOL     OW 5206   4.691   3.827   0.753
 1436SOL    HW1 5207   4.592   3.843   0.748
 1436SOL    HW2 5208   4.711   3.771   0.833
 1437SOL     OW 5209   4.580   1.470   2.672
 1437SOL    HW1 5210   4.490   1.426   2.665
 1437SOL    HW2 5211   4.573   1.550   2.732
 1438SOL     OW 5212   2.488   0.188   1.808
 1438SOL    HW1 5213   2.541   0.193   1.724
 1438SOL    HW2 5214   2.531   0.123   1.871
 1439SOL     OW 5215   0.499   5.691   2.078
 1439SOL    HW1 5216   0.462   5.772   2.033
 1439SOL    HW2 5217   0.570   5.650   2.021
 1440SOL     OW 5218   2.157   2.702   1.617
 1440SOL    HW1 5219   2.124   2.748   1.534
 1440SOL    HW2 5220   2.248   2.738   1.640
 1441SOL     OW 5221   5.087   5.833   6.668
 1441SOL    HW1 5222   5.017   5.818   6.738
 1441SOL    HW2 5223   5.065   5.779   6.587
 1442SOL     OW 5224   5.448   5.223   1.056
 1442SOL    HW1 5225   5.445   5.323   1.055
 1442SOL    HW2 5226   5.390   5.187   0.983
 1443SOL     OW 5227   6.945   2.740   2.164
 1443SOL    HW1 5228   7.023   2.686   2.195
 1443SOL    HW2 5229   6.907   2.792   2.240
 1444SOL     OW 5230   0.585   5.855   6.097
 1444SOL    HW1 5231   0.659   5.922   6.086
 1444SOL    HW2 5232   0.502   5.892   6.055
 1445SOL     OW 5233   0.554   2.802   1.281
 1445SOL    HW1 5234   0.620   2.875   1.302
 1445SOL    HW2 5235   0.549   2.790   1.182
 1446SOL     OW 5236   6.763   5.333   1.558
 1446SOL    HW1 5237   6.696   5.404   1.536
 1446SOL    HW2 5238   6.769   5.268   1.482
 1447SOL     OW 5239   6.608   6.420   3.912
 1447SOL    HW1 5240   6.544   6.379   3.847
 1447SOL    HW2 5241   6.599   6.519   3.910
 1448SOL     OW 5242   1.007   1.139   5.667
 1448SOL    HW1 5243   0.969   1.226   5.696
 1448SOL    HW2 5244   1.106   1.141   5.676
 1449SOL     OW 5245   2.152   3.232   2.923
 1449SOL    HW1 5246   2.144   3.229   3.022
 1449SOL    HW2 5247   2.201   3.150   2.891
 1450SOL     OW 5248   3.324   1.877   3.230
 1450SOL    HW1 5249   3.269   1.819   3.170
 1450SOL    HW2 5250   3.394   1.924   3.176
 1451SOL     OW 5251   3.270   1.210   2.470
 1451SOL    HW1 5252   3.236   1.277   2.536
 1451SOL    HW2 5253   3.256   1.117   2.506
 1452SOL     OW 5254   4.268   2.567   6.264
 1452SOL    HW1 5255   4.338   2.500   6.292
 1452SOL    HW2 5256   4.234   2.542   6.173
 1453SOL     OW 5257   1.143   3.379   5.036
 1453SOL    HW1 5258   1.094   3.331   4.963
 1453SOL    HW2 5259   1.076   3.421   5.097
 1454SOL     OW 5260   3.039   2.190   2.697
 1454SOL    HW1 5261   2.997   2.218   2.610
 1454SOL    HW2 5262   3.134   2.162   2.680
 1455SOL     OW 5263   0.082   5.334   2.384
 1455SOL    HW1 5264   0.086   5.432   2.364
 1455SOL    HW2 5265   0.043   5.320   2.475
 1456SOL     OW 5266   6.638   6.057   4.285
 1456SOL    HW1 5267   6.609   5.973   4.239
 1456SOL    HW2 5268   6.737   6.069   4.272
 1457SOL     OW 5269   1.044   5.359   5.736
 1457SOL    HW1 5270   0.988   5.442   5.740
 1457SOL    HW2 5271   1.105   5.356   5.815
 1458SOL     OW 5272   6.649   5.178   5.142
 1458SOL    HW1 5273   6.680   5.112   5.211
 1458SOL    HW2 5274   6.550   5.188   5.149
 1459SOL     OW 5275   6.569   6.033   5.037
 1459SOL    HW1 5276   6.473   6.045   5.062
 1459SOL    HW2 5277   6.625   6.100   5.086
 1460SOL     OW 5278   1.823   6.224   5.048
 1460SOL    HW1 5279   1.755   6.151   5.043
 1460SOL    HW2 5280   1.893   6.208   4.978
 1461SOL     OW 5281   6.008   3.561   4.012
 1461SOL    HW1 5282   6.066   3.480   4.023
 1461SOL    HW2 5283   5.943   3.546   3.937
 1462SOL     OW 5284   0.173   1.780   2.024
 1462SOL    HW1 5285   0.207   1.718   2.094
 1462SOL    HW2 5286   0.235   1.859   2.017
 1463SOL     OW 5287   1.245   5.227   6.566
 1463SOL    HW1 5288   1.313   5.157   6.591
 1463SOL    HW2 5289   1.286   5.291   6.501
 1464SOL     OW 5290   1.282   4.752   4.547
 1464SOL    HW1 5291   1.374   4.789   4.552
 1464SOL    HW2 5292   1.215   4.825   4.558
 1465SOL     OW 5293   1.516   2.510   5.749
 1465SOL    HW1 5294   1.474   2.419   5.753
 1465SOL    HW2 5295   1.451   2.578   5.782
 1466SOL     OW 5296   5.545   1.232   2.823
 1466SOL    HW1 5297   5.505   1.299   2.760
 1466SOL    HW2 5298   5.595   1.162   2.772
 1467SOL     OW 5299   0.308   0.099   3.520
 1467SOL    HW1 5300   0.407   0.105   3.514
 1467SOL    HW2 5301   0.282   0.009   3.554
 1468SOL     OW 5302   3.527   6.427   3.331
 1468SOL    HW1 5303   3.471   6.490   3.278
 1468SOL    HW2 5304   3.611   6.473   3.359
 1469SOL     OW 5305   5.907   4.310   3.295
 1469SOL    HW1 5306   5.921   4.309   3.394
 1469SOL    HW2 5307   5.841   4.381   3.271
 1470SOL     OW 5308   6.606   2.326   2.488
 1470SOL    HW1 5309   6.518   2.279   2.491
 1470SOL    HW2 5310   6.647   2.313   2.398
 1471SOL     OW 5311   4.571   6.991   6.929
 1471SOL    HW1 5312   4.623   0.019   6.997
 1471SOL    HW2 5313   4.525   0.030   6.867
 1472SOL     OW 5314   2.383   0.553   6.758
 1472SOL    HW1 5315   2.320   0.607   6.702
 1472SOL    HW2 5316   2.449   0.613   6.802
 1473SOL     OW 5317   1.865   5.833   3.183
 1473SOL    HW1 5318   1.779   5.795   3.151
 1473SOL    HW2 5319   1.941   5.775   3.153
 1474SOL     OW 5320   1.889   3.965   2.206
 1474SOL    HW1 5321   1.987   3.972   2.191
 1474SOL    HW2 5322   1.840   4.018   2.136
 1475SOL     OW 5323   6.072   0.209   6.640
 1475SOL    HW1 5324   6.096   0.131   6.583
 1475SOL    HW2 5325   5.989   0.188   6.692
 1476SOL     OW 5326   5.463   0.329   6.586
 1476SOL    HW1 5327   5.526   0.402   6.613
 1476SOL    HW2 5328   5.511   0.241   6.585
 1477SOL     OW 5329   3.266   4.098   1.755
 1477SOL    HW1 5330   3.279   4.197   1.744
 1477SOL    HW2 5331   3.347   4.059   1.798
 1478SOL     OW 5332   5.085   4.143   6.035
 1478SOL    HW1 5333   5.160   4.077   6.034
 1478SOL    HW2 5334   5.011   4.108   6.094
 1479SOL     OW 5335   4.844   4.323   1.122
 1479SOL    HW1 5336   4.860   4.377   1.039
 1479SOL    HW2 5337   4.780   4.250   1.101
 1480SOL     OW 5338   2.691   1.441   4.535
 1480SOL    HW1 5339   2.628   1.513   4.563
 1480SOL    HW2 5340   2.640   1.358   4.511
 1481SOL     OW 5341   4.167   1.602   5.647
 1481SOL    HW1 5342   4.246   1.632   5.701
 1481SOL    HW2 5343   4.085   1.649   5.679
 1482SOL     OW 5344   6.503   1.250   1.566
 1482SOL    HW1 5345   6.439   1.318   1.603
 1482SOL    HW2 5346   6.461   1.204   1.488
 1483SOL     OW 5347   6.559   0.307   0.025
 1483SOL    HW1 5348   6.548   0.315   6.950
 1483SOL    HW2 5349   6.481   0.348   0.071
 1484SOL     OW 5350   2.906   6.316   4.909
 1484SOL    HW1 5351   2.937   6.227   4.876
 1484SOL    HW2 5352   2.886   6.310   5.007
 1485SOL     OW 5353   5.238   3.704   3.514
 1485SOL    HW1 5354   5.187   3.661   3.588
 1485SOL    HW2 5355   5.212   3.801   3.507
 1486SOL     OW 5356   5.331   6.291   4.046
 1486SOL    HW1 5357   5.272   6.218   4.080
 1486SOL    HW2 5358   5.279   6.351   3.986
 1487SOL     OW 5359   6.304   0.958   0.234
 1487SOL    HW1 5360   6.282   1.050   0.200
 1487SOL    HW2 5361   6.345   0.904   0.161
 1488SOL     OW 5362   6.962   2.664   2.979
 1488SOL    HW1 5363   6.890   2.611   3.024
 1488SOL    HW2 5364   6.999   2.731   3.042
 1489SOL     OW 5365   3.262   5.295   6.735
 1489SOL    HW1 5366   3.211   5.250   6.661
 1489SOL    HW2 5367   3.264   5.393   6.718
 1490SOL     OW 5368   6.285   3.233   2.337
 1490SOL    HW1 5369   6.204   3.291   2.346
 1490SOL    HW2 5370   6.258   3.137   2.338
 1491SOL     OW 5371   5.175   2.782   3.673
 1491SOL    HW1 5372   5.213   2.692   3.648
 1491SOL    HW2 5373   5.115   2.814   3.600
 1492SOL     OW 5374   0.844   2.466   2.229
 1492SOL    HW1 5375   0.792   2.385   2.257
 1492SOL    HW2 5376   0.938   2.440   2.209
 1493SOL     OW 5377   5.974   2.146   6.631
 1493SOL    HW1 5378   5.907   2.073   6.640
 1493SOL    HW2 5379   6.066   2.107   6.623
 1494SOL     OW 5380   0.973   3.937   6.056
 1494SOL    HW1 5381   0.911   3.995   6.004
 1494SOL    HW2 5382   0.920   3.879   6.117
 1495SOL     OW 5383   6.642   4.175   3.808
 1495SOL    HW1 5384   6.684   4.255   3.765
 1495SOL    HW2 5385   6.574   4.204   3.875
 1496SOL     OW 5386   6.531   6.287   5.787
 1496SOL    HW1 5387   6.608   6.338   5.749
 1496SOL    HW2 5388   6.487   6.341   5.859
 1497SOL     OW 5389   5.066   2.867   2.144
 1497SOL    HW1 5390   5.067   2.775   2.107
 1497SOL    HW2 5391   5.109   2.930   2.079
 1498SOL     OW 5392   3.384   4.287   0.529
 1498SOL    HW1 5393   3.468   4.337   0.547
 1498SOL    HW2 5394   3.321   4.300   0.606
 1499SOL     OW 5395   0.702   4.536   4.307
 1499SOL    HW1 5396   0.639   4.473   4.261
 1499SOL    HW2 5397   0.793   4.530   4.264
 1500SOL     OW 5398   2.504   5.330   2.034
 1500SOL    HW1 5399   2.431   5.319   1.966
 1500SOL    HW2 5400   2.513   5.426   2.057
 1501SOL     OW 5401   6.013   1.559   0.998
 1501SOL    HW1 5402   5.954   1.504   0.939
 1501SOL    HW2 5403   6.092   1.505   1.026
 1502SOL     OW 5404   0.524   6.270   6.549
 1502SOL    HW1 5405   0.620   6.271   6.576
 1502SOL    HW2 5406   0.490   6.364   6.544
 1503SOL     OW 5407   0.222   5.277   1.557
 1503SOL    HW1 5408   0.133   5.322   1.568
 1503SOL    HW2 5409   0.208   5.180   1.539
 1504SOL     OW 5410   1.678   0.147   3.197
 1504SOL    HW1 5411   1.627   0.091   3.263
 1504SOL    HW2 5412   1.775   0.144   3.219
 1505SOL     OW 5413   6.826   4.588   5.045
 1505SOL    HW1 5414   6.862   4.636   5.125
 1505SOL    HW2 5415   6.784   4.653   4.983
 1506SOL     OW 5416   1.451   0.834   1.019
 1506SOL    HW1 5417   1.514   0.769   0.978
 1506SOL    HW2 5418   1.465   0.837   1.118
 1507SOL     OW 5419   2.617   2.131   3.095
 1507SOL    HW1 5420   2.553   2.178   3.033
 1507SOL    HW2 5421   2.591   2.149   3.190
 1508SOL     OW 5422   1.610   0.381   2.159
 1508SOL    HW1 5423   1.543   0.307   2.171
 1508SOL    HW2 5424   1.575   0.448   2.094
 1509SOL     OW 5425   4.950   1.527   4.279
 1509SOL    HW1 5426   4.873   1.547   4.340
 1509SOL    HW2 5427   4.934   1.442   4.231
 1510SOL     OW 5428   3.059   6.953   5.227
 1510SOL    HW1 5429   3.157   6.959   5.208
 1510SOL    HW2 5430   3.032   6.856   5.235
 1511SOL     OW 5431   3.452   4.192   5.400
 1511SOL    HW1 5432   3.396   4.224   5.477
 1511SOL    HW2 5433   3.502   4.110   5.428
 1512SOL     OW 5434   5.139   6.050   0.620
 1512SOL    HW1 5435   5.096   5.965   0.591
 1512SOL    HW2 5436   5.069   6.113   0.654
 1513SOL     OW 5437   2.646   0.581   5.879
 1513SOL    HW1 5438   2.715   0.541   5.820
 1513SOL    HW2 5439   2.643   0.533   5.966
 1514SOL     OW 5440   3.362   1.767   6.568
 1514SOL    HW1 5441   3.359   1.867   6.568
 1514SOL    HW2 5442   3.454   1.736   6.591
 1515SOL     OW 5443   3.591   0.744   2.771
 1515SOL    HW1 5444   3.524   0.816   2.751
 1515SOL    HW2 5445   3.542   0.659   2.790
 1516SOL     OW 5446   6.669   6.803   6.247
 1516SOL    HW1 5447   6.695   6.863   6.323
 1516SOL    HW2 5448   6.727   6.721   6.249
 1517SOL     OW 5449   2.516   6.331   2.991
 1517SOL    HW1 5450   2.614   6.341   3.008
 1517SOL    HW2 5451   2.465   6.392   3.052
 1518SOL     OW 5452   1.168   3.105   7.019
 1518SOL    HW1 5453   1.117   3.187   6.994
 1518SOL    HW2 5454   1.154   3.085   0.092
 1519SOL     OW 5455   0.607   4.417   6.765
 1519SOL    HW1 5456   0.683   4.480   6.753
 1519SOL    HW2 5457   0.606   4.350   6.691
 1520SOL     OW 5458   0.026   6.823   3.199
 1520SOL    HW1 5459   0.059   6.857   3.111
 1520SOL    HW2 5460   7.011   6.898   3.251
 1521SOL     OW 5461   1.969   4.753   6.494
 1521SOL    HW1 5462   2.014   4.839   6.472
 1521SOL    HW2 5463   1.874   4.757   6.464
 1522SOL     OW 5464   5.547   6.589   4.236
 1522SOL    HW1 5465   5.482   6.587   4.160
 1522SOL    HW2 5466   5.562   6.684   4.264
 1523SOL     OW 5467   2.301   6.611   0.538
 1523SOL    HW1 5468   2.364   6.558   0.595
 1523SOL    HW2 5469   2.233   6.656   0.596
 1524SOL     OW 5470   2.047   2.840   4.340
 1524SOL    HW1 5471   2.021   2.757   4.290
 1524SOL    HW2 5472   2.131   2.878   4.302
 1525SOL     OW 5473   5.639   4.097   6.539
 1525SOL    HW1 5474   5.612   4.111   6.634
 1525SOL    HW2 5475   5.666   4.184   6.498
 1526SOL     OW 5476   0.950   1.661   1.019
 1526SOL    HW1 5477   0.960   1.743   0.963
 1526SOL    HW2 5478   1.035   1.608   1.015
 1527SOL     OW 5479   5.371   1.447   4.704
 1527SOL    HW1 5480   5.387   1.464   4.802
 1527SOL    HW2 5481   5.282   1.485   4.679
 1528SOL     OW 5482   3.786   2.917   2.688
 1528SOL    HW1 5483   3.803   2.831   2.639
 1528SOL    HW2 5484   3.688   2.924   2.709
 1529SOL     OW 5485   4.195   1.332   5.581
 1529SOL    HW1 5486   4.180   1.430   5.593
 1529SOL    HW2 5487   4.220   1.313   5.486
 1530SOL     OW 5488   2.623   6.959   1.576
 1530SOL    HW1 5489   2.535   6.990   1.543
 1530SOL    HW2 5490   2.610   6.882   1.639
 1531SOL     OW 5491   4.887   6.393   4.387
 1531SOL    HW1 5492   4.909   6.329   4.314
 1531SOL    HW2 5493   4.928   6.362   4.473
 1532SOL     OW 5494   3.126   5.716   1.527
 1532SOL    HW1 5495   3.152   5.642   1.588
 1532SOL    HW2 5496   3.174   5.800   1.554
 1533SOL     OW 5497   5.802   6.251   0.854
 1533SOL    HW1 5498   5.769   6.340   0.885
 1533SOL    HW2 5499   5.814   6.190   0.933
 1534SOL     OW 5500   2.062   4.637   6.950
 1534SOL    HW1 5501   2.118   4.642   6.867
 1534SOL    HW2 5502   2.065   4.724   6.998
 1535SOL     OW 5503   5.127   4.244   3.506
 1535SOL    HW1 5504   5.198   4.250   3.436
 1535SOL    HW2 5505   5.062   4.319   3.495
 1536SOL     OW 5506   4.243   3.855   6.515
 1536SOL    HW1 5507   4.339   3.853   6.487
 1536SOL    HW2 5508   4.212   3.950   6.520
 1537SOL     OW 5509   3.161   5.689   2.590
 1537SOL    HW1 5510   3.115   5.614   2.638
 1537SOL    HW2 5511   3.260   5.681   2.601
 1538SOL     OW 5512   2.470   0.859   0.807
 1538SOL    HW1 5513   2.539   0.909   0.754
 1538SOL    HW2 5514   2.407   0.813   0.745
 1539SOL     OW 5515   6.783   3.154   1.105
 1539SOL    HW1 5516   6.855   3.089   1.083
 1539SOL    HW2 5517   6.779   3.169   1.204
 1540SOL     OW 5518   3.393   6.300   3.531
 1540SOL    HW1 5519   3.427   6.363   3.462
 1540SOL    HW2 5520   3.295   6.312   3.543
 1541SOL     OW 5521   4.561   2.201   5.701
 1541SOL    HW1 5522   4.534   2.288   5.741
 1541SOL    HW2 5523   4.488   2.134   5.715
 1542SOL     OW 5524   6.941   5.006   2.979
 1542SOL    HW1 5525   6.939   4.948   2.898
 1542SOL    HW2 5526   6.887   4.963   3.052
 1543SOL     OW 5527   3.190   5.480   0.926
 1543SOL    HW1 5528   3.159   5.400   0.977
 1543SOL    HW2 5529   3.256   5.451   0.857
 1544SOL     OW 5530   4.065   3.262   3.986
 1544SOL    HW1 5531   4.008   3.205   3.926
 1544SOL    HW2 5532   4.060   3.226   4.080
 1545SOL     OW 5533   6.222   5.076   1.303
 1545SOL    HW1 5534   6.262   5.167   1.292
 1545SOL    HW2 5535   6.174   5.071   1.391
 1546SOL     OW 5536   6.351   6.389   5.436
 1546SOL    HW1 5537   6.378   6.319   5.501
 1546SOL    HW2 5538   6.258   6.371   5.403
 1547SOL     OW 5539   1.512   3.398   6.410
 1547SOL    HW1 5540   1.513   3.413   6.509
 1547SOL    HW2 5541   1.527   3.301   6.390
 1548SOL     OW 5542   6.432   2.153   0.447
 1548SOL    HW1 5543   6.466   2.174   0.355
 1548SOL    HW2 5544   6.357   2.087   0.440
 1549SOL     OW 5545   4.775   1.263   4.714
 1549SOL    HW1 5546   4.787   1.358   4.687
 1549SOL    HW2 5547   4.697   1.224   4.666
 1550SOL     OW 5548   3.124   3.722   4.399
 1550SOL    HW1 5549   3.102   3.689   4.490
 1550SOL    HW2 5550   3.215   3.690   4.372
 1551SOL     OW 5551   7.006   5.406   6.088
 1551SOL    HW1 5552   0.028   5.485   6.130
 1551SOL    HW2 5553   6.992   5.335   6.157
 1552SOL     OW 5554   1.915   4.071   1.456
 1552SOL    HW1 5555   2.001   4.121   1.445
 1552SOL    HW2 5556   1.840   4.135   1.470
 1553SOL     OW 5557   1.826   1.868   5.496
 1553SOL    HW1 5558   1.858   1.952   5.451
 1553SOL    HW2 5559   1.897   1.798   5.489
 1554SOL     OW 5560   4.402   2.065   3.188
 1554SOL    HW1 5561   4.356   2.058   3.099
 1554SOL    HW2 5562   4.360   2.140   3.240
 1555SOL     OW 5563   5.825   5.283   5.737
 1555SOL    HW1 5564   5.867   5.239   5.658
 1555SOL    HW2 5565   5.731   5.251   5.748
 1556SOL     OW 5566   1.717   1.051   5.776
 1556SOL    HW1 5567   1.817   1.059   5.773
 1556SOL    HW2 5568   1.683   1.096   5.858
 1557SOL     OW 5569   1.047   1.986   5.685
 1557SOL    HW1 5570   0.997   1.912   5.730
 1557SOL    HW2 5571   1.067   1.960   5.590
 1558SOL     OW 5572   6.938   6.398   4.645
 1558SOL    HW1 5573   0.009   6.368   4.631
 1558SOL    HW2 5574   6.939   6.488   4.690
 1559SOL     OW 5575   1.720   1.150   6.057
 1559SOL    HW1 5576   1.673   1.233   6.028
 1559SOL    HW2 5577   1.817   1.157   6.034
 1560SOL     OW 5578   0.175   0.500   0.310
 1560SOL    HW1 5579   0.240   0.512   0.385
 1560SOL    HW2 5580   0.225   0.500   0.223
 1561SOL     OW 5581   5.947   6.027   1.498
 1561SOL    HW1 5582   5.964   5.977   1.414
 1561SOL    HW2 5583   5.850   6.053   1.502
 1562SOL     OW 5584   5.372   0.362   4.297
 1562SOL    HW1 5585   5.326   0.309   4.368
 1562SOL    HW2 5586   5.398   0.302   4.221
 1563SOL     OW 5587   2.960   6.842   5.978
 1563SOL    HW1 5588   3.052   6.832   6.017
 1563SOL    HW2 5589   2.892   6.839   6.051
 1564SOL     OW 5590   2.044   2.353   3.171
 1564SOL    HW1 5591   2.105   2.405   3.111
 1564SOL    HW2 5592   2.059   2.255   3.157
 1565SOL     OW 5593   6.300   4.662   0.982
 1565SOL    HW1 5594   6.376   4.617   1.029
 1565SOL    HW2 5595   6.334   4.708   0.900
 1566SOL     OW 5596   6.197   4.889   2.099
 1566SOL    HW1 5597   6.240   4.851   2.017
 1566SOL    HW2 5598   6.197   4.989   2.094
 1567SOL     OW 5599   6.704   5.599   5.444
 1567SOL    HW1 5600   6.671   5.506   5.432
 1567SOL    HW2 5601   6.630   5.656   5.480
 1568SOL     OW 5602   0.336   6.661   0.829
 1568SOL    HW1 5603   0.299   6.615   0.748
 1568SOL    HW2 5604   0.267   6.724   0.865
 1569SOL     OW 5605   3.057   6.429   5.360
 1569SOL    HW1 5606   3.021   6.462   5.446
 1569SOL    HW2 5607   3.116   6.349   5.376
 1570SOL     OW 5608   2.870   2.100   1.902
 1570SOL    HW1 5609   2.863   2.191   1.944
 1570SOL    HW2 5610   2.836   2.031   1.965
 1571SOL     OW 5611   0.072   3.176   0.739
 1571SOL    HW1 5612   0.133   3.119   0.793
 1571SOL    HW2 5613   0.044   3.255   0.793
 1572SOL     OW 5614   0.314   5.623   3.140
 1572SOL    HW1 5615   0.222   5.629   3.178
 1572SOL    HW2 5616   0.380   5.651   3.211
 1573SOL     OW 5617   4.807   6.698   0.442
 1573SOL    HW1 5618   4.777   6.693   0.347
 1573SOL    HW2 5619   4.799   6.793   0.474
 1574SOL     OW 5620   5.519   3.632   1.998
 1574SOL    HW1 5621   5.499   3.567   1.924
 1574SOL    HW2 5622   5.448   3.626   2.067
 1575SOL     OW 5623   3.950   2.226   0.479
 1575SOL    HW1 5624   3.852   2.231   0.462
 1575SOL    HW2 5625   3.983   2.313   0.514
 1576SOL     OW 5626   6.401   4.869   2.949
 1576SOL    HW1 5627   6.374   4.923   2.869
 1576SOL    HW2 5628   6.501   4.864   2.954
 1577SOL     OW 5629   1.836   0.636   0.653
 1577SOL    HW1 5630   1.929   0.664   0.630
 1577SOL    HW2 5631   1.821   0.542   0.621
 1578SOL     OW 5632   5.972   6.074   4.482
 1578SOL    HW1 5633   5.930   6.011   4.417
 1578SOL    HW2 5634   6.068   6.089   4.456
 1579SOL     OW 5635   0.222   0.482   2.865
 1579SOL    HW1 5636   0.194   0.427   2.786
 1579SOL    HW2 5637   0.141   0.507   2.918
 1580SOL     OW 5638   3.066   3.971   5.639
 1580SOL    HW1 5639   2.983   3.978   5.694
 1580SOL    HW2 5640   3.144   3.958   5.700
 1581SOL     OW 5641   6.168   3.228   4.481
 1581SOL    HW1 5642   6.104   3.215   4.406
 1581SOL    HW2 5643   6.147   3.314   4.528
 1582SOL     OW 5644   5.954   6.660   4.255
 1582SOL    HW1 5645   5.968   6.734   4.321
 1582SOL    HW2 5646   5.925   6.577   4.302
 1583SOL     OW 5647   1.939   2.891   1.690
 1583SOL    HW1 5648   1.975   2.837   1.614
 1583SOL    HW2 5649   1.849   2.927   1.665
 1584SOL     OW 5650   2.439   6.972   6.491
 1584SOL    HW1 5651   2.476   0.002   6.566
 1584SOL    HW2 5652   2.340   6.961   6.504
 1585SOL     OW 5653   5.987   0.670   6.075
 1585SOL    HW1 5654   6.028   0.635   6.160
 1585SOL    HW2 5655   5.889   0.646   6.074
 1586SOL     OW 5656   3.753   3.196   3.028
 1586SOL    HW1 5657   3.811   3.172   2.950
 1586SOL    HW2 5658   3.733   3.114   3.081
 1587SOL     OW 5659   2.111   6.889   6.310
 1587SOL    HW1 5660   2.032   6.828   6.314
 1587SOL    HW2 5661   2.145   6.905   6.402
 1588SOL     OW 5662   6.116   3.983   0.498
 1588SOL    HW1 5663   6.056   4.010   0.423
 1588SOL    HW2 5664   6.108   3.885   0.513
 1589SOL     OW 5665   5.031   4.911   3.076
 1589SOL    HW1 5666   5.060   4.815   3.078
 1589SOL    HW2 5667   4.939   4.919   3.115
 1590SOL     OW 5668   2.257   6.423   4.417
 1590SOL    HW1 5669   2.284   6.414   4.321
 1590SOL    HW2 5670   2.183   6.360   4.438
 1591SOL     OW 5671   2.482   3.362   0.114
 1591SOL    HW1 5672   2.495   3.264   0.103
 1591SOL    HW2 5673   2.393   3.389   0.077
 1592SOL     OW 5674   3.789   3.639   3.942
 1592SOL    HW1 5675   3.869   3.685   3.981
 1592SOL    HW2 5676   3.760   3.565   4.003
 1593SOL     OW 5677   1.577   4.226   3.998
 1593SOL    HW1 5678   1.644   4.299   4.004
 1593SOL    HW2 5679   1.618   4.146   3.955
 1594SOL     OW 5680   0.642   5.437   2.896
 1594SOL    HW1 5681   0.661   5.529   2.861
 1594SOL    HW2 5682   0.686   5.426   2.985
 1595SOL     OW 5683   0.138   3.216   4.824
 1595SOL    HW1 5684   0.238   3.220   4.819
 1595SOL    HW2 5685   0.108   3.236   4.917
 1596SOL     OW 5686   2.770   5.028   6.626
 1596SOL    HW1 5687   2.821   5.054   6.544
 1596SOL    HW2 5688   2.833   4.992   6.695
 1597SOL     OW 5689   2.816   0.173   0.610
 1597SOL    HW1 5690   2.773   0.235   0.544
 1597SOL    HW2 5691   2.757   0.094   0.623
 1598SOL     OW 5692   0.115   5.619   1.534
 1598SOL    HW1 5693   0.063   5.687   1.585
 1598SOL    HW2 5694   0.085   5.617   1.439
 1599SOL     OW 5695   2.928   5.402   0.520
 1599SOL    HW1 5696   3.015   5.445   0.543
 1599SOL    HW2 5697   2.882   5.455   0.450
 1600SOL     OW 5698   3.371   1.708   4.893
 1600SOL    HW1 5699   3.273   1.717   4.872
 1600SOL    HW2 5700   3.385   1.727   4.990
 1601SOL     OW 5701   2.035   4.924   5.114
 1601SOL    HW1 5702   1.993   4.853   5.056
 1601SOL    HW2 5703   2.038   5.010   5.063
 1602SOL     OW 5704   0.433   3.399   2.231
 1602SOL    HW1 5705   0.468   3.397   2.325
 1602SOL    HW2 5706   0.380   3.482   2.217
 1603SOL     OW 5707   6.180   6.869   0.415
 1603SOL    HW1 5708   6.235   6.878   0.498
 1603SOL    HW2 5709   6.241   6.850   0.337
 1604SOL     OW 5710   0.832   5.457   4.403
 1604SOL    HW1 5711   0.911   5.411   4.443
 1604SOL    HW2 5712   0.817   5.544   4.449
 1605SOL     OW 5713   4.837   5.026   2.608
 1605SOL    HW1 5714   4.886   5.113   2.615
 1605SOL    HW2 5715   4.869   4.963   2.679
 1606SOL     OW 5716   5.864   5.904   4.286
 1606SOL    HW1 5717   5.878   5.909   4.187
 1606SOL    HW2 5718   5.788   5.842   4.306
 1607SOL     OW 5719   4.659   3.435   1.572
 1607SOL    HW1 5720   4.674   3.396   1.481
 1607SOL    HW2 5721   4.697   3.373   1.641
 1608SOL     OW 5722   2.808   0.299   0.844
 1608SOL    HW1 5723   2.812   0.258   0.753
 1608SOL    HW2 5724   2.721   0.275   0.887
 1609SOL     OW 5725   5.649   1.577   5.064
 1609SOL    HW1 5726   5.722   1.513   5.042
 1609SOL    HW2 5727   5.561   1.536   5.038
 1610SOL     OW 5728   4.692   6.527   3.064
 1610SOL    HW1 5729   4.684   6.626   3.059
 1610SOL    HW2 5730   4.695   6.489   2.971
 1611SOL     OW 5731   4.268   3.813   1.427
 1611SOL    HW1 5732   4.298   3.905   1.403
 1611SOL    HW2 5733   4.347   3.751   1.424
 1612SOL     OW 5734   3.055   0.796   4.773
 1612SOL    HW1 5735   3.142   0.773   4.817
 1612SOL    HW2 5736   3.065   0.882   4.723
 1613SOL     OW 5737   1.837   0.641   1.690
 1613SOL    HW1 5738   1.813   0.614   1.597
 1613SOL    HW2 5739   1.908   0.712   1.687
 1614SOL     OW 5740   6.894   2.445   5.209
 1614SOL    HW1 5741   6.959   2.417   5.139
 1614SOL    HW2 5742   6.918   2.403   5.297
 1615SOL     OW 5743   6.550   5.367   5.736
 1615SOL    HW1 5744   6.624   5.365   5.803
 1615SOL    HW2 5745   6.584   5.336   5.647
 1616SOL     OW 5746   2.356   2.064   6.172
 1616SOL    HW1 5747   2.351   2.030   6.266
 1616SOL    HW2 5748   2.451   2.062   6.140
 1617SOL     OW 5749   3.234   0.816   3.463
 1617SOL    HW1 5750   3.281   0.750   3.404
 1617SOL    HW2 5751   3.218   0.900   3.412
 1618SOL     OW 5752   5.350   2.816   1.849
 1618SOL    HW1 5753   5.308   2.896   1.891
 1618SOL    HW2 5754   5.281   2.744   1.838
 1619SOL     OW 5755   1.456   2.597   4.675
 1619SOL    HW1 5756   1.368   2.642   4.689
 1619SOL    HW2 5757   1.500   2.634   4.594
 1620SOL     OW 5758   3.687   6.172   1.676
 1620SOL    HW1 5759   3.674   6.150   1.772
 1620SOL    HW2 5760   3.718   6.091   1.627
 1621SOL     OW 5761   1.975   2.511   1.615
 1621SOL    HW1 5762   1.925   2.499   1.529
 1621SOL    HW2 5763   2.061   2.558   1.598
 1622SOL     OW 5764   2.302   2.116   5.342
 1622SOL    HW1 5765   2.381   2.150   5.393
 1622SOL    HW2 5766   2.221   2.169   5.367
 1623SOL     OW 5767   2.187   2.210   4.913
 1623SOL    HW1 5768   2.157   2.118   4.939
 1623SOL    HW2 5769   2.125   2.248   4.845
 1624SOL     OW 5770   2.100   0.710   0.556
 1624SOL    HW1 5771   2.192   0.693   0.521
 1624SOL    HW2 5772   2.073   0.803   0.533
 1625SOL     OW 5773   1.032   6.807   1.506
 1625SOL    HW1 5774   1.124   6.767   1.508
 1625SOL    HW2 5775   0.987   6.785   1.420
 1626SOL     OW 5776   2.585   3.075   6.269
 1626SOL    HW1 5777   2.552   3.074   6.174
 1626SOL    HW2 5778   2.683   3.095   6.270
 1627SOL     OW 5779   4.739   4.108   3.389
 1627SOL    HW1 5780   4.727   4.163   3.306
 1627SOL    HW2 5781   4.705   4.159   3.468
 1628SOL     OW 5782   3.235   3.447   0.420
 1628SOL    HW1 5783   3.244   3.516   0.492
 1628SOL    HW2 5784   3.144   3.454   0.380
 1629SOL     OW 5785   2.786   2.309   2.802
 1629SOL    HW1 5786   2.792   2.339   2.898
 1629SOL    HW2 5787   2.878   2.299   2.764
 1630SOL     OW 5788   5.659   5.055   3.945
 1630SOL    HW1 5789   5.735   4.995   3.970
 1630SOL    HW2 5790   5.631   5.108   4.025
 1631SOL     OW 5791   0.997   0.039   6.003
 1631SOL    HW1 5792   0.983   0.111   6.071
 1631SOL    HW2 5793   1.044   0.077   5.923
 1632SOL     OW 5794   4.294   6.870   6.725
 1632SOL    HW1 5795   4.341   6.801   6.780
 1632SOL    HW2 5796   4.361   6.921   6.672
 1633SOL     OW 5797   6.253   3.724   3.022
 1633SOL    HW1 5798   6.312   3.758   3.095
 1633SOL    HW2 5799   6.168   3.688   3.061
 1634SOL     OW 5800   3.708   1.186   1.116
 1634SOL    HW1 5801   3.634   1.157   1.176
 1634SOL    HW2 5802   3.679   1.181   1.020
 1635SOL     OW 5803   1.283   4.433   3.254
 1635SOL    HW1 5804   1.288   4.360   3.322
 1635SOL    HW2 5805   1.219   4.504   3.286
 1636SOL     OW 5806   3.079   6.393   0.523
 1636SOL    HW1 5807   3.091   6.434   0.432
 1636SOL    HW2 5808   3.014   6.318   0.518
 1637SOL     OW 5809   1.059   3.048   2.604
 1637SOL    HW1 5810   1.137   3.109   2.601
 1637SOL    HW2 5811   1.085   2.962   2.648
 1638SOL     OW 5812   1.575   2.681   6.089
 1638SOL    HW1 5813   1.546   2.628   6.169
 1638SOL    HW2 5814   1.636   2.626   6.033
 1639SOL     OW 5815   4.151   4.833   2.690
 1639SOL    HW1 5816   4.145   4.926   2.728
 1639SOL    HW2 5817   4.143   4.766   2.764
 1640SOL     OW 5818   5.985   6.851   1.046
 1640SOL    HW1 5819   5.900   6.898   1.068
 1640SOL    HW2 5820   5.973   6.753   1.060
 1641SOL     OW 5821   6.578   2.759   4.811
 1641SOL    HW1 5822   6.496   2.808   4.783
 1641SOL    HW2 5823   6.654   2.823   4.819
 1642SOL     OW 5824   0.901   2.336   1.886
 1642SOL    HW1 5825   0.967   2.282   1.940
 1642SOL    HW2 5826   0.922   2.433   1.895
 1643SOL     OW 5827   3.806   0.316   5.830
 1643SOL    HW1 5828   3.836   0.411   5.834
 1643SOL    HW2 5829   3.707   0.312   5.836
 1644SOL     OW 5830   4.148   1.244   1.202
 1644SOL    HW1 5831   4.175   1.299   1.123
 1644SOL    HW2 5832   4.079   1.177   1.175
 1645SOL     OW 5833   2.158   5.944   6.517
 1645SOL    HW1 5834   2.163   6.041   6.542
 1645SOL    HW2 5835   2.068   5.924   6.477
 1646SOL     OW 5836   2.432   3.493   0.353
 1646SOL    HW1 5837   2.472   3.423   0.295
 1646SOL    HW2 5838   2.465   3.583   0.325
 1647SOL     OW 5839   5.496   3.438   2.649
 1647SOL    HW1 5840   5.431   3.389   2.708
 1647SOL    HW2 5841   5.478   3.537   2.656
 1648SOL     OW 5842   3.173   0.611   2.883
 1648SOL    HW1 5843   3.211   0.672   2.953
 1648SOL    HW2 5844   3.147   0.524   2.924
 1649SOL     OW 5845   2.549   0.274   3.942
 1649SOL    HW1 5846   2.574   0.327   3.860
 1649SOL    HW2 5847   2.459   0.303   3.974
 1650SOL     OW 5848   3.054   0.136   4.318
 1650SOL    HW1 5849   3.058   0.184   4.231
 1650SOL    HW2 5850   2.978   0.071   4.317
 1651SOL     OW 5851   1.237   6.512   2.310
 1651SOL    HW1 5852   1.311   6.446   2.322
 1651SOL    HW2 5853   1.193   6.529   2.398
 1652SOL     OW 5854   3.486   3.327   1.965
 1652SOL    HW1 5855   3.420   3.397   1.937
 1652SOL    HW2 5856   3.457   3.238   1.931
 1653SOL     OW 5857   0.948   4.693   1.292
 1653SOL    HW1 5858   1.046   4.675   1.292
 1653SOL    HW2 5859   0.919   4.724   1.383
 1654SOL     OW 5860   0.633   2.086   3.863
 1654SOL    HW1 5861   0.647   2.149   3.787
 1654SOL    HW2 5862   0.564   2.018   3.839
 1655SOL     OW 5863   4.361   4.214   5.431
 1655SOL    HW1 5864   4.416   4.131   5.418
 1655SOL    HW2 5865   4.291   4.219   5.360
 1656SOL     OW 5866   0.313   3.747   2.400
 1656SOL    HW1 5867   0.264   3.700   2.473
 1656SOL    HW2 5868   0.405   3.771   2.430
 1657SOL     OW 5869   1.065   0.809   5.300
 1657SOL    HW1 5870   1.132   0.872   5.262
 1657SOL    HW2 5871   0.976   0.824   5.256
 1658SOL     OW 5872   5.960   0.081   2.783
 1658SOL    HW1 5873   5.866   0.114   2.794
 1658SOL    HW2 5874   6.024   0.155   2.806
 1659SOL     OW 5875   5.079   1.931   6.636
 1659SOL    HW1 5876   4.987   1.964   6.653
 1659SOL    HW2 5877   5.081   1.876   6.553
 1660SOL     OW 5878   2.244   6.107   3.619
 1660SOL    HW1 5879   2.199   6.192   3.593
 1660SOL    HW2 5880   2.177   6.032   3.616
 1661SOL     OW 5881   2.648   0.968   3.235
 1661SOL    HW1 5882   2.591   0.898   3.193
 1661SOL    HW2 5883   2.655   0.951   3.333
 1662SOL     OW 5884   6.583   0.507   3.289
 1662SOL    HW1 5885   6.548   0.514   3.196
 1662SOL    HW2 5886   6.631   0.419   3.300
 1663SOL     OW 5887   1.783   0.451   3.612
 1663SOL    HW1 5888   1.746   0.491   3.696
 1663SOL    HW2 5889   1.741   0.362   3.596
 1664SOL     OW 5890   1.870   5.822   4.409
 1664SOL    HW1 5891   1.952   5.767   4.393
 1664SOL    HW2 5892   1.820   5.784   4.487
 1665SOL     OW 5893   6.590   0.786   3.553
 1665SOL    HW1 5894   6.641   0.769   3.469
 1665SOL    HW2 5895   6.619   0.723   3.624
 1666SOL     OW 5896   5.397   2.148   6.154
 1666SOL    HW1 5897   5.407   2.247   6.168
 1666SOL    HW2 5898   5.360   2.107   6.237
 1667SOL     OW 5899   6.899   0.406   1.058
 1667SOL    HW1 5900   6.956   0.336   1.014
 1667SOL    HW2 5901   6.816   0.420   1.005
 1668SOL     OW 5902   1.713   0.621   4.537
 1668SOL    HW1 5903   1.744   0.631   4.632
 1668SOL    HW2 5904   1.726   0.707   4.489
 1669SOL     OW 5905   5.104   5.964   5.866
 1669SOL    HW1 5906   5.057   6.033   5.921
 1669SOL    HW2 5907   5.172   5.917   5.923
 1670SOL     OW 5908   6.813   3.274   6.215
 1670SOL    HW1 5909   6.795   3.322   6.301
 1670SOL    HW2 5910   6.904   3.232   6.219
 1671SOL     OW 5911   5.595   5.092   0.295
 1671SOL    HW1 5912   5.647   5.091   0.381
 1671SOL    HW2 5913   5.521   5.025   0.302
 1672SOL     OW 5914   1.731   4.633   2.859
 1672SOL    HW1 5915   1.678   4.655   2.778
 1672SOL    HW2 5916   1.734   4.534   2.871
 1673SOL     OW 5917   6.524   3.233   3.501
 1673SOL    HW1 5918   6.449   3.172   3.475
 1673SOL    HW2 5919   6.596   3.180   3.547
 1674SOL     OW 5920   2.148   5.604   0.265
 1674SOL    HW1 5921   2.081   5.654   0.212
 1674SOL    HW2 5922   2.233   5.657   0.271
 1675SOL     OW 5923   4.824   1.669   6.707
 1675SOL    HW1 5924   4.804   1.741   6.774
 1675SOL    HW2 5925   4.758   1.595   6.719
 1676SOL     OW 5926   2.892   1.940   3.407
 1676SOL    HW1 5927   2.891   1.961   3.505
 1676SOL    HW2 5928   2.939   2.013   3.358
 1677SOL     OW 5929   5.338   0.437   5.694
 1677SOL    HW1 5930   5.425   0.451   5.741
 1677SOL    HW2 5931   5.262   0.452   5.758
 1678SOL     OW 5932   4.674   6.460   1.891
 1678SOL    HW1 5933   4.772   6.465   1.871
 1678SOL    HW2 5934   4.622   6.491   1.811
 1679SOL     OW 5935   5.940   4.366   0.471
 1679SOL    HW1 5936   6.018   4.309   0.496
 1679SOL    HW2 5937   5.883   4.381   0.552
 1680SOL     OW 5938   0.667   2.270   5.655
 1680SOL    HW1 5939   0.764   2.269   5.631
 1680SOL    HW2 5940   0.644   2.357   5.698
 1681SOL     OW 5941   4.345   5.523   0.189
 1681SOL    HW1 5942   4.348   5.429   0.222
 1681SOL    HW2 5943   4.416   5.577   0.235
 1682SOL     OW 5944   6.966   2.687   5.570
 1682SOL    HW1 5945   6.934   2.611   5.626
 1682SOL    HW2 5946   6.992   2.654   5.480
 1683SOL     OW 5947   5.534   5.460   5.843
 1683SOL    HW1 5948   5.622   5.502   5.864
 1683SOL    HW2 5949   5.549   5.371   5.800
 1684SOL     OW 5950   0.349   6.409   4.410
 1684SOL    HW1 5951   0.425   6.395   4.473
 1684SOL    HW2 5952   0.378   6.468   4.335
 1685SOL     OW 5953   0.983   1.895   0.646
 1685SOL    HW1 5954   0.927   1.933   0.720
 1685SOL    HW2 5955   0.925   1.873   0.568
 1686SOL     OW 5956   1.905   6.724   6.313
 1686SOL    HW1 5957   1.858   6.720   6.401
 1686SOL    HW2 5958   1.887   6.640   6.261
 1687SOL     OW 5959   3.266   6.570   2.260
 1687SOL    HW1 5960   3.173   6.542   2.284
 1687SOL    HW2 5961   3.262   6.636   2.185
 1688SOL     OW 5962   0.453   1.530   3.686
 1688SOL    HW1 5963   0.402   1.477   3.618
 1688SOL    HW2 5964   0.392   1.556   3.761
 1689SOL     OW 5965   3.412   1.517   1.186
 1689SOL    HW1 5966   3.330   1.567   1.214
 1689SOL    HW2 5967   3.403   1.421   1.210
 1690SOL     OW 5968   1.018   2.241   0.397
 1690SOL    HW1 5969   1.089   2.187   0.441
 1690SOL    HW2 5970   0.933   2.234   0.449
 1691SOL     OW 5971   4.506   4.440   3.573
 1691SOL    HW1 5972   4.592   4.424   3.525
 1691SOL    HW2 5973   4.516   4.413   3.668
 1692SOL     OW 5974   1.065   0.185   3.720
 1692SOL    HW1 5975   0.983   0.141   3.683
 1692SOL    HW2 5976   1.146   0.132   3.697
 1693SOL     OW 5977   3.242   2.079   3.774
 1693SOL    HW1 5978   3.316   2.131   3.733
 1693SOL    HW2 5979   3.241   1.987   3.736
 1694SOL     OW 5980   6.090   5.910   4.955
 1694SOL    HW1 5981   6.106   5.991   4.899
 1694SOL    HW2 5982   6.114   5.828   4.902
 1695SOL     OW 5983   4.142   1.439   6.295
 1695SOL    HW1 5984   4.183   1.462   6.383
 1695SOL    HW2 5985   4.160   1.513   6.230
 1696SOL     OW 5986   3.859   5.712   1.551
 1696SOL    HW1 5987   3.915   5.690   1.631
 1696SOL    HW2 5988   3.825   5.627   1.509
 1697SOL     OW 5989   1.301   1.791   2.113
 1697SOL    HW1 5990   1.268   1.790   2.019
 1697SOL    HW2 5991   1.264   1.713   2.163
 1698SOL     OW 5992   4.395   1.833   0.363
 1698SOL    HW1 5993   4.363   1.745   0.397
 1698SOL    HW2 5994   4.442   1.882   0.437
 1699SOL     OW 5995   2.536   4.847   0.866
 1699SOL    HW1 5996   2.560   4.754   0.839
 1699SOL    HW2 5997   2.616   4.906   0.855
 1700SOL     OW 5998   6.089   2.639   4.666
 1700SOL    HW1 5999   6.007   2.630   4.609
 1700SOL    HW2 6000   6.104   2.735   4.688
 1701SOL     OW 6001   5.923   3.125   5.021
 1701SOL    HW1 6002   5.840   3.118   4.966
 1701SOL    HW2 6003   5.994   3.172   4.967
 1702SOL     OW 6004   4.988   2.603   1.420
 1702SOL    HW1 6005   5.072   2.550   1.427
 1702SOL    HW2 6006   4.971   2.628   1.325
 1703SOL     OW 6007   1.907   3.325   0.679
 1703SOL    HW1 6008   1.870   3.232   0.679
 1703SOL    HW2 6009   1.837   3.388   0.645
 1704SOL     OW 6010   0.183   1.922   2.286
 1704SOL    HW1 6011   0.148   1.878   2.203
 1704SOL    HW2 6012   0.108   1.939   2.349
 1705SOL     OW 6013   3.916   3.163   2.779
 1705SOL    HW1 6014   3.966   3.195   2.699
 1705SOL    HW2 6015   3.894   3.066   2.769
 1706SOL     OW 6016   2.141   0.935   6.020
 1706SOL    HW1 6017   2.137   0.920   5.921
 1706SOL    HW2 6018   2.219   0.884   6.058
 1707SOL     OW 6019   5.459   1.709   2.378
 1707SOL    HW1 6020   5.410   1.712   2.465
 1707SOL    HW2 6021   5.395   1.720   2.302
 1708SOL     OW 6022   0.487   4.375   1.443
 1708SOL    HW1 6023   0.422   4.448   1.463
 1708SOL    HW2 6024   0.571   4.415   1.405
 1709SOL     OW 6025   3.433   5.250   3.844
 1709SOL    HW1 6026   3.466   5.344   3.844
 1709SOL    HW2 6027   3.477   5.199   3.770
 1710SOL     OW 6028   6.729   4.775   4.888
 1710SOL    HW1 6029   6.724   4.758   4.790
 1710SOL    HW2 6030   6.786   4.856   4.905
 1711SOL     OW 6031   1.466   4.807   5.640
 1711SOL    HW1 6032   1.560   4.841   5.647
 1711SOL    HW2 6033   1.465   4.726   5.581
 1712SOL     OW 6034   1.845   4.614   2.072
 1712SOL    HW1 6035   1.930   4.595   2.023
 1712SOL    HW2 6036   1.867   4.637   2.167
 1713SOL     OW 6037   2.409   3.056   0.745
 1713SOL    HW1 6038   2.453   3.135   0.702
 1713SOL    HW2 6039   2.402   2.982   0.678
 1714SOL     OW 6040   4.448   1.074   1.925
 1714SOL    HW1 6041   4.403   1.156   1.889
 1714SOL    HW2 6042   4.461   1.009   1.850
 1715SOL     OW 6043   0.942   3.087   3.625
 1715SOL    HW1 6044   0.927   3.068   3.528
 1715SOL    HW2 6045   0.895   3.172   3.650
 1716SOL     OW 6046   0.310   0.148   6.721
 1716SOL    HW1 6047   0.271   0.164   6.630
 1716SOL    HW2 6048   0.410   0.152   6.715
 1717SOL     OW 6049   2.718   0.322   6.509
 1717SOL    HW1 6050   2.779   0.285   6.580
 1717SOL    HW2 6051   2.772   0.377   6.445
 1718SOL     OW 6052   2.015   4.058   5.635
 1718SOL    HW1 6053   1.940   4.049   5.701
 1718SOL    HW2 6054   2.077   3.980   5.645
 1719SOL     OW 6055   2.017   3.443   0.890
 1719SOL    HW1 6056   1.995   3.396   0.804
 1719SOL    HW2 6057   2.011   3.378   0.965
 1720SOL     OW 6058   6.895   2.380   2.229
 1720SOL    HW1 6059   6.875   2.440   2.151
 1720SOL    HW2 6060   6.964   2.423   2.287
 1721SOL     OW 6061   0.813   6.404   4.446
 1721SOL    HW1 6062   0.854   6.319   4.480
 1721SOL    HW2 6063   0.716   6.407   4.470
 1722SOL     OW 6064   5.878   0.214   1.724
 1722SOL    HW1 6065   5.826   0.235   1.807
 1722SOL    HW2 6066   5.975   0.205   1.746
 1723SOL     OW 6067   5.557   1.326   3.111
 1723SOL    HW1 6068   5.575   1.308   3.015
 1723SOL    HW2 6069   5.497   1.255   3.148
 1724SOL     OW 6070   4.996   0.579   0.119
 1724SOL    HW1 6071   4.988   0.481   0.098
 1724SOL    HW2 6072   4.933   0.601   0.193
 1725SOL     OW 6073   3.914   5.523   2.172
 1725SOL    HW1 6074   3.868   5.584   2.108
 1725SOL    HW2 6075   4.013   5.530   2.160
 1726SOL     OW 6076   6.963   4.006   4.821
 1726SOL    HW1 6077   6.897   3.932   4.838
 1726SOL    HW2 6078   0.028   3.967   4.797
 1727SOL     OW 6079   2.754   3.621   5.542
 1727SOL    HW1 6080   2.714   3.601   5.453
 1727SOL    HW2 6081   2.795   3.712   5.540
 1728SOL     OW 6082   4.696   5.726   3.695
 1728SOL    HW1 6083   4.698   5.790   3.772
 1728SOL    HW2 6084   4.602   5.699   3.676
 1729SOL     OW 6085   0.476   3.448   2.530
 1729SOL    HW1 6086   0.444   3.446   2.624
 1729SOL    HW2 6087   0.483   3.355   2.495
 1730SOL     OW 6088   5.052   1.953   4.809
 1730SOL    HW1 6089   5.149   1.939   4.826
 1730SOL    HW2 6090   5.007   1.987   4.892
 1731SOL     OW 6091   0.881   6.715   0.221
 1731SOL    HW1 6092   0.969   6.761   0.207
 1731SOL    HW2 6093   0.858   6.660   0.141
 1732SOL     OW 6094   0.898   4.200   6.914
 1732SOL    HW1 6095   0.898   4.280   6.854
 1732SOL    HW2 6096   0.835   4.216   6.991
 1733SOL     OW 6097   1.251   4.741   6.769
 1733SOL    HW1 6098   1.236   4.791   6.683
 1733SOL    HW2 6099   1.318   4.668   6.753
 1734SOL     OW 6100   5.219   4.037   1.079
 1734SOL    HW1 6101   5.173   3.951   1.103
 1734SOL    HW2 6102   5.173   4.113   1.123
 1735SOL     OW 6103   4.856   5.666   0.053
 1735SOL    HW1 6104   4.871   5.581   0.003
 1735SOL    HW2 6105   4.830   5.738   7.012
 1736SOL     OW 6106   3.489   3.038   0.594
 1736SOL    HW1 6107   3.466   2.943   0.572
 1736SOL    HW2 6108   3.413   3.097   0.567
 1737SOL     OW 6109   1.014   5.612   3.081
 1737SOL    HW1 6110   1.019   5.618   3.180
 1737SOL    HW2 6111   1.044   5.698   3.040
 1738SOL     OW 6112   0.790   1.359   2.177
 1738SOL    HW1 6113   0.823   1.393   2.265
 1738SOL    HW2 6114   0.711   1.300   2.191
 1739SOL     OW 6115   4.095   1.759   6.059
 1739SOL    HW1 6116   4.194   1.752   6.051
 1739SOL    HW2 6117   4.056   1.667   6.067
 1740SOL     OW 6118   0.587   2.114   6.206
 1740SOL    HW1 6119   0.571   2.058   6.124
 1740SOL    HW2 6120   0.647   2.065   6.269
 1741SOL     OW 6121   1.250   1.070   2.380
 1741SOL    HW1 6122   1.226   1.091   2.474
 1741SOL    HW2 6123   1.230   0.974   2.361
 1742SOL     OW 6124   5.910   6.065   3.992
 1742SOL    HW1 6125   5.847   6.087   4.066
 1742SOL    HW2 6126   5.926   5.966   3.990
 1743SOL     OW 6127   4.422   1.185   0.658
 1743SOL    HW1 6128   4.510   1.193   0.705
 1743SOL    HW2 6129   4.368   1.112   0.700
 1744SOL     OW 6130   3.745   5.961   1.442
 1744SOL    HW1 6131   3.803   6.038   1.415
 1744SOL    HW2 6132   3.798   5.896   1.496
 1745SOL     OW 6133   6.799   2.713   5.173
 1745SOL    HW1 6134   6.778   2.619   5.202
 1745SOL    HW2 6135   6.715   2.759   5.146
 1746SOL     OW 6136   2.553   1.052   6.096
 1746SOL    HW1 6137   2.554   1.071   6.194
 1746SOL    HW2 6138   2.644   1.021   6.067
 1747SOL     OW 6139   4.634   6.736   5.539
 1747SOL    HW1 6140   4.631   6.795   5.620
 1747SOL    HW2 6141   4.580   6.777   5.466
 1748SOL     OW 6142   5.493   1.083   1.734
 1748SOL    HW1 6143   5.417   1.023   1.708
 1748SOL    HW2 6144   5.481   1.114   1.828
 1749SOL     OW 6145   4.718   0.211   6.548
 1749SOL    HW1 6146   4.692   0.280   6.616
 1749SOL    HW2 6147   4.767   0.136   6.593
 1750SOL     OW 6148   4.021   0.618   3.499
 1750SOL    HW1 6149   4.008   0.717   3.484
 1750SOL    HW2 6150   3.996   0.596   3.593
 1751SOL     OW 6151   1.791   5.915   4.129
 1751SOL    HW1 6152   1.841   5.879   4.208
 1751SOL    HW2 6153   1.696   5.932   4.155
 1752SOL     OW 6154   0.172   2.181   6.607
 1752SOL    HW1 6155   0.116   2.228   6.539
 1752SOL    HW2 6156   0.232   2.115   6.562
 1753SOL     OW 6157   2.012   6.315   2.567
 1753SOL    HW1 6158   1.924   6.326   2.613
 1753SOL    HW2 6159   2.085   6.315   2.635
 1754SOL     OW 6160   3.202   3.011   2.866
 1754SOL    HW1 6161   3.151   3.096   2.855
 1754SOL    HW2 6162   3.222   2.972   2.776
 1755SOL     OW 6163   6.480   4.247   0.318
 1755SOL    HW1 6164   6.464   4.263   0.415
 1755SOL    HW2 6165   6.489   4.149   0.301
 1756SOL     OW 6166   6.305   4.929   5.180
 1756SOL    HW1 6167   6.250   4.910   5.261
 1756SOL    HW2 6168   6.308   4.848   5.122
 1757SOL     OW 6169   4.050   0.262   5.728
 1757SOL    HW1 6170   4.034   0.304   5.640
 1757SOL    HW2 6171   3.964   0.254   5.778
 1758SOL     OW 6172   2.848   1.643   3.000
 1758SOL    HW1 6173   2.905   1.561   3.006
 1758SOL    HW2 6174   2.905   1.721   2.975
 1759SOL     OW 6175   6.950   6.080   6.240
 1759SOL    HW1 6176   6.859   6.121   6.240
 1759SOL    HW2 6177   6.945   5.991   6.287
 1760SOL     OW 6178   4.471   6.156   2.527
 1760SOL    HW1 6179   4.474   6.230   2.459
 1760SOL    HW2 6180   4.563   6.119   2.539
 1761SOL     OW 6181   5.408   3.394   1.457
 1761SOL    HW1 6182   5.466   3.456   1.510
 1761SOL    HW2 6183   5.392   3.310   1.509
 1762SOL     OW 6184   5.469   3.177   0.089
 1762SOL    HW1 6185   5.504   3.187   0.183
 1762SOL    HW2 6186   5.526   3.231   0.027
 1763SOL     OW 6187   2.295   2.932   4.382
 1763SOL    HW1 6188   2.384   2.977   4.390
 1763SOL    HW2 6189   2.245   2.940   4.469
 1764SOL     OW 6190   6.955   3.706   3.406
 1764SOL    HW1 6191   6.909   3.723   3.493
 1764SOL    HW2 6192   6.927   3.618   3.369
 1765SOL     OW 6193   1.880   3.576   5.683
 1765SOL    HW1 6194   1.871   3.482   5.716
 1765SOL    HW2 6195   1.792   3.607   5.647
 1766SOL     OW 6196   6.173   3.818   5.414
 1766SOL    HW1 6197   6.165   3.902   5.360
 1766SOL    HW2 6198   6.083   3.775   5.421
 1767SOL     OW 6199   6.508   4.648   1.399
 1767SOL    HW1 6200   6.458   4.709   1.338
 1767SOL    HW2 6201   6.458   4.562   1.409
 1768SOL     OW 6202   6.010   6.875   3.168
 1768SOL    HW1 6203   6.109   6.864   3.169
 1768SOL    HW2 6204   5.986   6.967   3.198
 1769SOL     OW 6205   4.857   1.099   3.674
 1769SOL    HW1 6206   4.765   1.119   3.708
 1769SOL    HW2 6207   4.872   1.000   3.671
 1770SOL     OW 6208   3.654   5.959   5.345
 1770SOL    HW1 6209   3.599   6.043   5.343
 1770SOL    HW2 6210   3.731   5.969   5.282
 1771SOL     OW 6211   4.445   6.228   6.802
 1771SOL    HW1 6212   4.402   6.291   6.867
 1771SOL    HW2 6213   4.401   6.138   6.809
 1772SOL     OW 6214   2.439   6.257   2.712
 1772SOL    HW1 6215   2.420   6.159   2.703
 1772SOL    HW2 6216   2.456   6.278   2.809
 1773SOL     OW 6217   1.268   0.321   0.553
 1773SOL    HW1 6218   1.246   0.324   0.650
 1773SOL    HW2 6219   1.359   0.360   0.538
 1774SOL     OW 6220   2.757   5.144   2.363
 1774SOL    HW1 6221   2.833   5.095   2.320
 1774SOL    HW2 6222   2.730   5.222   2.305
 1775SOL     OW 6223   1.160   4.962   0.568
 1775SOL    HW1 6224   1.192   4.949   0.663
 1775SOL    HW2 6225   1.234   5.002   0.514
 1776SOL     OW 6226   2.788   6.019   5.037
 1776SOL    HW1 6227   2.883   6.001   5.062
 1776SOL    HW2 6228   2.732   5.940   5.063
 1777SOL     OW 6229   3.263   6.077   0.455
 1777SOL    HW1 6230   3.210   6.059   0.539
 1777SOL    HW2 6231   3.309   6.165   0.464
 1778SOL     OW 6232   7.012   3.071   5.831
 1778SOL    HW1 6233   6.929   3.025   5.799
 1778SOL    HW2 6234   7.005   3.169   5.812
 1779SOL     OW 6235   3.744   0.081   5.696
 1779SOL    HW1 6236   3.796   7.021   5.716
 1779SOL    HW2 6237   3.768   0.152   5.762
 1780SOL     OW 6238   3.337   3.018   6.864
 1780SOL    HW1 6239   3.425   3.008   6.911
 1780SOL    HW2 6240   3.269   3.053   6.928
 1781SOL     OW 6241   2.582   5.886   3.314
 1781SOL    HW1 6242   2.539   5.855   3.399
 1781SOL    HW2 6243   2.616   5.807   3.263
 1782SOL     OW 6244   3.067   1.686   4.470
 1782SOL    HW1 6245   3.047   1.635   4.554
 1782SOL    HW2 6246   3.045   1.630   4.391
 1783SOL     OW 6247   2.014   6.040   0.370
 1783SOL    HW1 6248   2.033   5.947   0.402
 1783SOL    HW2 6249   2.093   6.099   0.388
 1784SOL     OW 6250   1.907   0.191   6.034
 1784SOL    HW1 6251   1.997   0.231   6.015
 1784SOL    HW2 6252   1.841   0.264   6.051
 1785SOL     OW 6253   6.797   5.591   2.285
 1785SOL    HW1 6254   6.785   5.497   2.316
 1785SOL    HW2 6255   6.813   5.592   2.186
 1786SOL     OW 6256   3.884   2.675   1.642
 1786SOL    HW1 6257   3.835   2.752   1.682
 1786SOL    HW2 6258   3.938   2.629   1.712
 1787SOL     OW 6259   3.276   0.781   5.496
 1787SOL    HW1 6260   3.336   0.843   5.546
 1787SOL    HW2 6261   3.181   0.810   5.506
 1788SOL     OW 6262   1.590   5.012   5.311
 1788SOL    HW1 6263   1.675   5.050   5.275
 1788SOL    HW2 6264   1.597   4.913   5.316
 1789SOL     OW 6265   5.700   6.456   6.909
 1789SOL    HW1 6266   5.688   6.363   6.943
 1789SOL    HW2 6267   5.783   6.495   6.948
 1790SOL     OW 6268   2.413   6.993   2.403
 1790SOL    HW1 6269   2.415   0.056   2.453
 1790SOL    HW2 6270   2.385   6.919   2.465
 1791SOL     OW 6271   0.438   6.689   3.065
 1791SOL    HW1 6272   0.442   6.670   3.163
 1791SOL    HW2 6273   0.530   6.705   3.030
 1792SOL     OW 6274   0.721   3.316   4.631
 1792SOL    HW1 6275   0.756   3.234   4.679
 1792SOL    HW2 6276   0.657   3.288   4.560
 1793SOL     OW 6277   0.170   0.641   3.865
 1793SOL    HW1 6278   0.203   0.703   3.936
 1793SOL    HW2 6279   0.081   0.672   3.832
 1794SOL     OW 6280   4.857   6.156   6.510
 1794SOL    HW1 6281   4.949   6.121   6.494
 1794SOL    HW2 6282   4.844   6.173   6.608
 1795SOL     OW 6283   1.078   3.745   6.828
 1795SOL    HW1 6284   1.135   3.753   6.909
 1795SOL    HW2 6285   1.064   3.835   6.788
 1796SOL     OW 6286   3.909   0.229   6.152
 1796SOL    HW1 6287   3.822   0.210   6.106
 1796SOL    HW2 6288   3.898   0.310   6.210
 1797SOL     OW 6289   0.183   1.617   1.782
 1797SOL    HW1 6290   0.227   1.527   1.776
 1797SOL    HW2 6291   0.193   1.653   1.874
 1798SOL     OW 6292   5.659   1.615   3.022
 1798SOL    HW1 6293   5.648   1.559   3.104
 1798SOL    HW2 6294   5.582   1.678   3.014
 1799SOL     OW 6295   2.400   0.759   0.123
 1799SOL    HW1 6296   2.321   0.819   0.130
 1799SOL    HW2 6297   2.483   0.813   0.115
 1800SOL     OW 6298   3.264   5.151   2.274
 1800SOL    HW1 6299   3.174   5.188   2.295
 1800SOL    HW2 6300   3.332   5.224   2.279
 1801SOL     OW 6301   5.548   6.903   0.631
 1801SOL    HW1 6302   5.583   6.851   0.554
 1801SOL    HW2 6303   5.620   6.916   0.699
 1802SOL     OW 6304   6.155   4.771   4.219
 1802SOL    HW1 6305   6.195   4.708   4.286
 1802SOL    HW2 6306   6.228   4.812   4.164
 1803SOL     OW 6307   6.169   4.968   0.747
 1803SOL    HW1 6308   6.096   4.968   0.815
 1803SOL    HW2 6309   6.163   4.886   0.691
 1804SOL     OW 6310   3.065   3.404   6.053
 1804SOL    HW1 6311   2.982   3.358   6.085
 1804SOL    HW2 6312   3.142   3.341   6.061
 1805SOL     OW 6313   6.130   2.896   0.053
 1805SOL    HW1 6314   6.064   2.914   7.004
 1805SOL    HW2 6315   6.149   2.798   0.057
 1806SOL     OW 6316   6.663   6.772   0.372
 1806SOL    HW1 6317   6.643   6.758   0.468
 1806SOL    HW2 6318   6.726   6.702   0.339
 1807SOL     OW 6319   6.793   2.141   5.721
 1807SOL    HW1 6320   6.893   2.143   5.728
 1807SOL    HW2 6321   6.763   2.051   5.690
 1808SOL     OW 6322   2.480   4.665   4.569
 1808SOL    HW1 6323   2.413   4.729   4.530
 1808SOL    HW2 6324   2.450   4.637   4.661
 1809SOL     OW 6325   3.588   0.185   6.424
 1809SOL    HW1 6326   3.613   0.169   6.519
 1809SOL    HW2 6327   3.582   0.283   6.407
 1810SOL     OW 6328   2.926   6.478   2.579
 1810SOL    HW1 6329   2.964   6.492   2.487
 1810SOL    HW2 6330   2.833   6.443   2.571
 1811SOL     OW 6331   5.703   5.794   3.326
 1811SOL    HW1 6332   5.793   5.803   3.282
 1811SOL    HW2 6333   5.650   5.877   3.309
 1812SOL     OW 6334   4.250   4.916   5.553
 1812SOL    HW1 6335   4.341   4.938   5.517
 1812SOL    HW2 6336   4.246   4.819   5.574
 1813SOL     OW 6337   6.702   5.961   5.530
 1813SOL    HW1 6338   6.720   5.928   5.623
 1813SOL    HW2 6339   6.788   5.964   5.479
 1814SOL     OW 6340   4.672   6.748   2.756
 1814SOL    HW1 6341   4.668   6.790   2.666
 1814SOL    HW2 6342   4.747   6.787   2.808
 1815SOL     OW 6343   0.300   1.393   2.851
 1815SOL    HW1 6344   0.260   1.482   2.830
 1815SOL    HW2 6345   0.236   1.321   2.828
 1816SOL     OW 6346   1.293   5.244   0.673
 1816SOL    HW1 6347   1.380   5.288   0.693
 1816SOL    HW2 6348   1.240   5.302   0.610
 1817SOL     OW 6349   1.642   5.218   1.931
 1817SOL    HW1 6350   1.704   5.296   1.940
 1817SOL    HW2 6351   1.630   5.175   2.021
 1818SOL     OW 6352   1.095   1.668   3.567
 1818SOL    HW1 6353   1.078   1.701   3.474
 1818SOL    HW2 6354   1.019   1.696   3.626
 1819SOL     OW 6355   0.958   3.948   2.734
 1819SOL    HW1 6356   0.900   3.867   2.724
 1819SOL    HW2 6357   1.054   3.921   2.732
 1820SOL     OW 6358   5.811   6.678   3.085
 1820SOL    HW1 6359   5.849   6.622   3.011
 1820SOL    HW2 6360   5.878   6.746   3.114
 1821SOL     OW 6361   1.968   1.774   3.324
 1821SOL    HW1 6362   1.972   1.799   3.227
 1821SOL    HW2 6363   1.885   1.813   3.365
 1822SOL     OW 6364   3.159   3.418   2.435
 1822SOL    HW1 6365   3.254   3.397   2.409
 1822SOL    HW2 6366   3.113   3.462   2.358
 1823SOL     OW 6367   4.298   0.059   2.409
 1823SOL    HW1 6368   4.310   0.093   2.316
 1823SOL    HW2 6369   4.382   0.074   2.461
 1824SOL     OW 6370   5.421   1.894   1.378
 1824SOL    HW1 6371   5.333   1.870   1.336
 1824SOL    HW2 6372   5.474   1.811   1.393
 1825SOL     OW 6373   0.349   0.176   1.727
 1825SOL    HW1 6374   0.412   0.250   1.704
 1825SOL    HW2 6375   0.306   0.142   1.643
 1826SOL     OW 6376   2.675   5.939   5.887
 1826SOL    HW1 6377   2.644   6.011   5.949
 1826SOL    HW2 6378   2.683   5.853   5.937
 1827SOL     OW 6379   5.804   6.911   0.758
 1827SOL    HW1 6380   5.904   6.913   0.756
 1827SOL    HW2 6381   5.771   6.981   0.821
 1828SOL     OW 6382   2.155   3.108   0.385
 1828SOL    HW1 6383   2.169   3.185   0.447
 1828SOL    HW2 6384   2.103   3.036   0.431
 1829SOL     OW 6385   5.642   5.575   2.762
 1829SOL    HW1 6386   5.677   5.665   2.786
 1829SOL    HW2 6387   5.557   5.585   2.710
 1830SOL     OW 6388   4.843   6.846   4.413
 1830SOL    HW1 6389   4.908   6.911   4.373
 1830SOL    HW2 6390   4.887   6.798   4.489
 1831SOL     OW 6391   5.189   0.809   3.093
 1831SOL    HW1 6392   5.225   0.804   3.186
 1831SOL    HW2 6393   5.213   0.897   3.052
 1832SOL     OW 6394   5.083   2.512   6.739
 1832SOL    HW1 6395   5.078   2.478   6.833
 1832SOL    HW2 6396   5.026   2.455   6.680
 1833SOL     OW 6397   5.519   1.793   5.712
 1833SOL    HW1 6398   5.538   1.763   5.806
 1833SOL    HW2 6399   5.603   1.790   5.659
 1834SOL     OW 6400   2.536   3.997   0.184
 1834SOL    HW1 6401   2.457   4.003   0.123
 1834SOL    HW2 6402   2.620   4.017   0.133
 1835SOL     OW 6403   1.841   4.483   6.867
 1835SOL    HW1 6404   1.916   4.549   6.861
 1835SOL    HW2 6405   1.795   4.491   6.956
 1836SOL     OW 6406   1.019   6.760   0.878
 1836SOL    HW1 6407   0.956   6.836   0.863
 1836SOL    HW2 6408   0.973   6.689   0.932
 1837SOL     OW 6409   0.352   2.673   4.661
 1837SOL    HW1 6410   0.310   2.756   4.625
 1837SOL    HW2 6411   0.442   2.694   4.699
 1838SOL     OW 6412   0.619   2.695   4.738
 1838SOL    HW1 6413   0.675   2.631   4.684
 1838SOL    HW2 6414   0.656   2.702   4.830
 1839SOL     OW 6415   1.133   1.669   6.733
 1839SOL    HW1 6416   1.090   1.671   6.643
 1839SOL    HW2 6417   1.171   1.759   6.754
 1840SOL     OW 6418   0.966   5.042   1.598
 1840SOL    HW1 6419   1.041   5.104   1.617
 1840SOL    HW2 6420   0.880   5.084   1.626
 1841SOL     OW 6421   1.143   2.973   3.775
 1841SOL    HW1 6422   1.171   2.891   3.725
 1841SOL    HW2 6423   1.100   3.037   3.712
 1842SOL     OW 6424   0.982   6.134   6.237
 1842SOL    HW1 6425   1.001   6.163   6.330
 1842SOL    HW2 6426   1.068   6.117   6.189
 1843SOL     OW 6427   4.649   2.193   5.119
 1843SOL    HW1 6428   4.564   2.231   5.081
 1843SOL    HW2 6429   4.727   2.223   5.064
 1844SOL     OW 6430   5.734   4.569   3.584
 1844SOL    HW1 6431   5.694   4.499   3.524
 1844SOL    HW2 6432   5.673   4.583   3.662
 1845SOL     OW 6433   4.721   6.379   0.861
 1845SOL    HW1 6434   4.661   6.450   0.898
 1845SOL    HW2 6435   4.790   6.422   0.802
 1846SOL     OW 6436   3.907   1.333   5.807
 1846SOL    HW1 6437   4.003   1.317   5.830
 1846SOL    HW2 6438   3.849   1.299   5.881
 1847SOL     OW 6439   1.436   6.534   6.234
 1847SOL    HW1 6440   1.410   6.498   6.145
 1847SOL    HW2 6441   1.518   6.486   6.267
 1848SOL     OW 6442   2.319   0.807   3.977
 1848SOL    HW1 6443   2.335   0.905   3.987
 1848SOL    HW2 6444   2.314   0.784   3.880
 1849SOL     OW 6445   2.684   0.681   6.608
 1849SOL    HW1 6446   2.622   0.675   6.530
 1849SOL    HW2 6447   2.658   0.613   6.677
 1850SOL     OW 6448   5.779   1.710   1.984
 1850SOL    HW1 6449   5.867   1.685   1.943
 1850SOL    HW2 6450   5.792   1.733   2.080
 1851SOL     OW 6451   6.465   4.309   2.795
 1851SOL    HW1 6452   6.520   4.349   2.868
 1851SOL    HW2 6453   6.408   4.236   2.832
 1852SOL     OW 6454   5.206   1.274   5.589
 1852SOL    HW1 6455   5.237   1.337   5.518
 1852SOL    HW2 6456   5.133   1.216   5.553
 1853SOL     OW 6457   0.947   4.950   0.866
 1853SOL    HW1 6458   0.931   4.992   0.777
 1853SOL    HW2 6459   0.977   4.855   0.853
 1854SOL     OW 6460   2.516   5.261   3.963
 1854SOL    HW1 6461   2.473   5.232   4.049
 1854SOL    HW2 6462   2.490   5.198   3.890
 1855SOL     OW 6463   6.173   4.688   1.856
 1855SOL    HW1 6464   6.169   4.610   1.918
 1855SOL    HW2 6465   6.083   4.731   1.851
 1856SOL     OW 6466   5.307   2.729   0.046
 1856SOL    HW1 6467   5.331   2.635   0.023
 1856SOL    HW2 6468   5.351   2.792   7.005
 1857SOL     OW 6469   5.162   1.330   3.145
 1857SOL    HW1 6470   5.078   1.382   3.157
 1857SOL    HW2 6471   5.226   1.382   3.088
 1858SOL     OW 6472   5.417   4.594   2.987
 1858SOL    HW1 6473   5.472   4.603   3.070
 1858SOL    HW2 6474   5.463   4.639   2.911
 1859SOL     OW 6475   6.006   1.551   3.213
 1859SOL    HW1 6476   6.017   1.453   3.234
 1859SOL    HW2 6477   6.033   1.568   3.119
 1860SOL     OW 6478   4.130   2.241   4.684
 1860SOL    HW1 6479   4.061   2.194   4.739
 1860SOL    HW2 6480   4.170   2.316   4.737
 1861SOL     OW 6481   4.963   5.752   2.474
 1861SOL    HW1 6482   5.005   5.716   2.391
 1861SOL    HW2 6483   5.035   5.778   2.539
 1862SOL     OW 6484   2.647   1.325   0.503
 1862SOL    HW1 6485   2.687   1.402   0.453
 1862SOL    HW2 6486   2.577   1.281   0.447
 1863SOL     OW 6487   1.983   1.830   1.225
 1863SOL    HW1 6488   2.019   1.829   1.318
 1863SOL    HW2 6489   2.041   1.774   1.166
 1864SOL     OW 6490   0.529   6.349   3.065
 1864SOL    HW1 6491   0.565   6.363   2.973
 1864SOL    HW2 6492   0.429   6.362   3.064
 1865SOL     OW 6493   4.798   2.827   6.412
 1865SOL    HW1 6494   4.789   2.916   6.368
 1865SOL    HW2 6495   4.728   2.817   6.483
 1866SOL     OW 6496   5.445   5.809   1.744
 1866SOL    HW1 6497   5.465   5.732   1.804
 1866SOL    HW2 6498   5.505   5.806   1.665
 1867SOL     OW 6499   1.107   4.343   6.320
 1867SOL    HW1 6500   1.013   4.327   6.350
 1867SOL    HW2 6501   1.169   4.328   6.396
 1868SOL     OW 6502   6.828   4.066   5.788
 1868SOL    HW1 6503   6.925   4.042   5.779
 1868SOL    HW2 6504   6.778   3.985   5.820
 1869SOL     OW 6505   5.955   1.536   4.572
 1869SOL    HW1 6506   6.035   1.508   4.625
 1869SOL    HW2 6507   5.972   1.519   4.475
 1870SOL     OW 6508   2.220   3.962   4.685
 1870SOL    HW1 6509   2.267   4.022   4.619
 1870SOL    HW2 6510   2.240   3.993   4.778
 1871SOL     OW 6511   1.620   0.676   0.840
 1871SOL    HW1 6512   1.615   0.585   0.799
 1871SOL    HW2 6513   1.636   0.744   0.768
 1872SOL     OW 6514   1.603   5.220   6.398
 1872SOL    HW1 6515   1.578   5.172   6.482
 1872SOL    HW2 6516   1.533   5.288   6.376
 1873SOL     OW 6517   4.968   6.942   6.959
 1873SOL    HW1 6518   4.967   6.912   0.030
 1873SOL    HW2 6519   4.958   0.018   6.955
 1874SOL     OW 6520   0.552   3.841   2.505
 1874SOL    HW1 6521   0.514   3.930   2.531
 1874SOL    HW2 6522   0.565   3.786   2.587
 1875SOL     OW 6523   0.662   6.756   2.100
 1875SOL    HW1 6524   0.694   6.685   2.037
 1875SOL    HW2 6525   0.575   6.793   2.066
 1876SOL     OW 6526   1.895   6.490   3.674
 1876SOL    HW1 6527   1.812   6.531   3.710
 1876SOL    HW2 6528   1.875   6.398   3.639
 1877SOL     OW 6529   0.293   6.818   4.224
 1877SOL    HW1 6530   0.307   6.723   4.195
 1877SOL    HW2 6531   0.236   6.819   4.307
 1878SOL     OW 6532   6.175   2.993   6.269
 1878SOL    HW1 6533   6.106   2.953   6.209
 1878SOL    HW2 6534   6.205   2.925   6.336
 1879SOL     OW 6535   2.030   5.235   5.954
 1879SOL    HW1 6536   1.996   5.180   6.030
 1879SOL    HW2 6537   1.984   5.324   5.955
 1880SOL     OW 6538   6.484   0.241   4.607
 1880SOL    HW1 6539   6.502   0.156   4.656
 1880SOL    HW2 6540   6.548   0.312   4.637
 1881SOL     OW 6541   6.953   2.275   6.987
 1881SOL    HW1 6542   0.017   2.297   6.944
 1881SOL    HW2 6543   6.938   2.337   0.041
 1882SOL     OW 6544   1.180   6.601   0.666
 1882SOL    HW1 6545   1.205   6.578   0.760
 1882SOL    HW2 6546   1.112   6.674   0.667
 1883SOL     OW 6547   0.228   2.144   3.682
 1883SOL    HW1 6548   0.223   2.116   3.586
 1883SOL    HW2 6549   0.140   2.128   3.727
 1884SOL     OW 6550   6.214   2.216   0.977
 1884SOL    HW1 6551   6.148   2.177   1.041
 1884SOL    HW2 6552   6.192   2.186   0.884
 1885SOL     OW 6553   2.907   1.496   4.321
 1885SOL    HW1 6554   2.945   1.406   4.299
 1885SOL    HW2 6555   2.846   1.487   4.400
 1886SOL     OW 6556   0.527   6.242   3.405
 1886SOL    HW1 6557   0.615   6.217   3.364
 1886SOL    HW2 6558   0.456   6.244   3.335
 1887SOL     OW 6559   2.544   5.732   6.502
 1887SOL    HW1 6560   2.496   5.790   6.437
 1887SOL    HW2 6561   2.630   5.701   6.462
 1888SOL     OW 6562   2.060   0.206   3.030
 1888SOL    HW1 6563   2.095   0.113   3.020
 1888SOL    HW2 6564   1.971   0.213   2.984
 1889SOL     OW 6565   0.114   3.543   2.984
 1889SOL    HW1 6566   0.101   3.623   2.925
 1889SOL    HW2 6567   0.200   3.553   3.034
 1890SOL     OW 6568   1.578   5.799   4.858
 1890SOL    HW1 6569   1.482   5.772   4.859
 1890SOL    HW2 6570   1.616   5.782   4.768
 1891SOL     OW 6571   3.884   3.123   3.832
 1891SOL    HW1 6572   3.948   3.099   3.758
 1891SOL    HW2 6573   3.802   3.066   3.826
 1892SOL     OW 6574   0.316   0.803   2.418
 1892SOL    HW1 6575   0.404   0.846   2.396
 1892SOL    HW2 6576   0.290   0.827   2.511
 1893SOL     OW 6577   3.834   3.051   4.289
 1893SOL    HW1 6578   3.762   3.016   4.229
 1893SOL    HW2 6579   3.835   2.997   4.374
 1894SOL     OW 6580   2.922   3.560   4.243
 1894SOL    HW1 6581   2.840   3.514   4.276
 1894SOL    HW2 6582   2.975   3.595   4.321
 1895SOL     OW 6583   1.061   5.972   1.431
 1895SOL    HW1 6584   1.084   5.876   1.446
 1895SOL    HW2 6585   1.059   6.021   1.518
 1896SOL     OW 6586   5.953   2.677   1.341
 1896SOL    HW1 6587   6.021   2.612   1.374
 1896SOL    HW2 6588   5.863   2.652   1.375
 1897SOL     OW 6589   1.503   4.514   3.615
 1897SOL    HW1 6590   1.599   4.493   3.632
 1897SOL    HW2 6591   1.447   4.468   3.684
 1898SOL     OW 6592   1.589   5.998   2.520
 1898SOL    HW1 6593   1.592   6.006   2.620
 1898SOL    HW2 6594   1.670   5.949   2.489
 1899SOL     OW 6595   7.014   1.312   2.240
 1899SOL    HW1 6596   0.049   1.266   2.174
 1899SOL    HW2 6597   6.998   1.253   2.318
 1900SOL     OW 6598   2.645   6.324   6.574
 1900SOL    HW1 6599   2.606   6.246   6.525
 1900SOL    HW2 6600   2.735   6.345   6.537
 1901SOL     OW 6601   3.085   3.135   2.547
 1901SOL    HW1 6602   2.993   3.174   2.537
 1901SOL    HW2 6603   3.148   3.186   2.489
 1902SOL     OW 6604   1.311   6.548   5.103
 1902SOL    HW1 6605   1.318   6.620   5.171
 1902SOL    HW2 6606   1.345   6.462   5.141
 1903SOL     OW 6607   1.324   1.794   3.894
 1903SOL    HW1 6608   1.407   1.844   3.920
 1903SOL    HW2 6609   1.351   1.712   3.842
 1904SOL     OW 6610   5.852   5.708   1.372
 1904SOL    HW1 6611   5.896   5.782   1.321
 1904SOL    HW2 6612   5.920   5.639   1.397
 1905SOL     OW 6613   0.674   2.490   4.038
 1905SOL    HW1 6614   0.683   2.470   3.940
 1905SOL    HW2 6615   0.638   2.583   4.049
 1906SOL     OW 6616   0.353   6.292   3.907
 1906SOL    HW1 6617   0.295   6.240   3.844
 1906SOL    HW2 6618   0.314   6.288   3.999
 1907SOL     OW 6619   5.999   3.245   0.653
 1907SOL    HW1 6620   6.062   3.178   0.693
 1907SOL    HW2 6621   5.980   3.318   0.719
 1908SOL     OW 6622   3.684   0.794   1.536
 1908SOL    HW1 6623   3.654   0.796   1.631
 1908SOL    HW2 6624   3.763   0.855   1.525
 1909SOL     OW 6625   6.157   5.463   5.185
 1909SOL    HW1 6626   6.137   5.561   5.182
 1909SOL    HW2 6627   6.076   5.411   5.157
 1910SOL     OW 6628   0.520   5.984   5.523
 1910SOL    HW1 6629   0.518   5.906   5.585
 1910SOL    HW2 6630   0.493   6.067   5.571
 1911SOL     OW 6631   5.717   6.153   4.166
 1911SOL    HW1 6632   5.712   6.242   4.120
 1911SOL    HW2 6633   5.676   6.160   4.257
 1912SOL     OW 6634   3.678   4.906   2.272
 1912SOL    HW1 6635   3.652   4.987   2.324
 1912SOL    HW2 6636   3.707   4.833   2.335
 1913SOL     OW 6637   3.186   4.347   6.292
 1913SOL    HW1 6638   3.116   4.391   6.235
 1913SOL    HW2 6639   3.254   4.416   6.319
 1914SOL     OW 6640   3.904   4.522   0.219
 1914SOL    HW1 6641   3.951   4.434   0.222
 1914SOL    HW2 6642   3.854   4.529   0.133
 1915SOL     OW 6643   3.591   2.845   6.968
 1915SOL    HW1 6644   3.647   2.791   6.905
 1915SOL    HW2 6645   3.543   2.785   0.008
 1916SOL     OW 6646   4.000   1.178   2.582
 1916SOL    HW1 6647   3.924   1.231   2.619
 1916SOL    HW2 6648   4.063   1.153   2.656
 1917SOL     OW 6649   2.340   3.620   1.398
 1917SOL    HW1 6650   2.433   3.596   1.370
 1917SOL    HW2 6651   2.334   3.615   1.498
 1918SOL     OW 6652   5.392   2.190   3.944
 1918SOL    HW1 6653   5.360   2.202   3.850
 1918SOL    HW2 6654   5.438   2.273   3.974
 1919SOL     OW 6655   6.143   2.103   6.301
 1919SOL    HW1 6656   6.168   2.120   6.396
 1919SOL    HW2 6657   6.195   2.026   6.266
 1920SOL     OW 6658   4.413   3.829   0.486
 1920SOL    HW1 6659   4.421   3.837   0.586
 1920SOL    HW2 6660   4.423   3.733   0.460
 1921SOL     OW 6661   2.807   2.501   6.788
 1921SOL    HW1 6662   2.900   2.480   6.820
 1921SOL    HW2 6663   2.804   2.495   6.688
 1922SOL     OW 6664   3.118   3.139   4.610
 1922SOL    HW1 6665   3.195   3.202   4.604
 1922SOL    HW2 6666   3.043   3.182   4.661
 1923SOL     OW 6667   3.490   0.768   3.816
 1923SOL    HW1 6668   3.515   0.865   3.812
 1923SOL    HW2 6669   3.568   0.714   3.847
 1924SOL     OW 6670   5.395   0.792   0.730
 1924SOL    HW1 6671   5.310   0.843   0.719
 1924SOL    HW2 6672   5.469   0.839   0.681
 1925SOL     OW 6673   1.071   4.337   0.919
 1925SOL    HW1 6674   1.139   4.272   0.953
 1925SOL    HW2 6675   1.035   4.304   0.832
 1926SOL     OW 6676   3.244   0.063   1.876
 1926SOL    HW1 6677   3.286   0.154   1.878
 1926SOL    HW2 6678   3.300   0.001   1.822
 1927SOL     OW 6679   2.469   5.470   0.778
 1927SOL    HW1 6680   2.381   5.507   0.748
 1927SOL    HW2 6681   2.454   5.404   0.851
 1928SOL     OW 6682   0.145   4.185   2.999
 1928SOL    HW1 6683   0.190   4.262   3.044
 1928SOL    HW2 6684   0.046   4.197   3.003
 1929SOL     OW 6685   3.859   0.429   3.375
 1929SOL    HW1 6686   3.925   0.495   3.412
 1929SOL    HW2 6687   3.854   0.349   3.435
 1930SOL     OW 6688   3.640   3.551   0.101
 1930SOL    HW1 6689   3.647   3.452   0.116
 1930SOL    HW2 6690   3.599   3.568   0.011
 1931SOL     OW 6691   6.526   3.476   3.626
 1931SOL    HW1 6692   6.521   3.392   3.571
 1931SOL    HW2 6693   6.621   3.496   3.648
 1932SOL     OW 6694   4.976   0.606   1.809
 1932SOL    HW1 6695   4.968   0.598   1.908
 1932SOL    HW2 6696   4.886   0.627   1.770
 1933SOL     OW 6697   1.741   1.402   1.093
 1933SOL    HW1 6698   1.825   1.348   1.100
 1933SOL    HW2 6699   1.753   1.473   1.024
 1934SOL     OW 6700   6.672   1.028   6.930
 1934SOL    HW1 6701   6.711   1.120   6.935
 1934SOL    HW2 6702   6.745   0.961   6.917
 1935SOL     OW 6703   5.927   4.917   4.042
 1935SOL    HW1 6704   5.946   4.981   4.116
 1935SOL    HW2 6705   6.009   4.865   4.021
 1936SOL     OW 6706   5.078   2.861   6.594
 1936SOL    HW1 6707   5.073   2.941   6.654
 1936SOL    HW2 6708   5.092   2.891   6.500
 1937SOL     OW 6709   0.410   4.639   6.831
 1937SOL    HW1 6710   0.442   4.647   6.925
 1937SOL    HW2 6711   0.460   4.566   6.785
 1938SOL     OW 6712   6.708   2.281   6.840
 1938SOL    HW1 6713   6.639   2.318   6.902
 1938SOL    HW2 6714   6.795   2.275   6.887
 1939SOL     OW 6715   0.125   0.248   4.307
 1939SOL    HW1 6716   0.042   0.304   4.318
 1939SOL    HW2 6717   0.197   0.303   4.264
 1940SOL     OW 6718   1.180   5.225   1.616
 1940SOL    HW1 6719   1.194   5.205   1.713
 1940SOL    HW2 6720   1.247   5.293   1.586
 1941SOL     OW 6721   6.053   0.784   4.365
 1941SOL    HW1 6722   5.993   0.705   4.373
 1941SOL    HW2 6723   6.100   0.799   4.452
 1942SOL     OW 6724   0.674   5.308   1.786
 1942SOL    HW1 6725   0.618   5.298   1.869
 1942SOL    HW2 6726   0.663   5.227   1.729
 1943SOL     OW 6727   1.069   3.337   4.121
 1943SOL    HW1 6728   0.971   3.318   4.123
 1943SOL    HW2 6729   1.097   3.376   4.209
 1944SOL     OW 6730   0.497   3.151   4.044
 1944SOL    HW1 6731   0.519   3.056   4.023
 1944SOL    HW2 6732   0.422   3.154   4.110
 1945SOL     OW 6733   5.278   1.687   2.144
 1945SOL    HW1 6734   5.237   1.612   2.195
 1945SOL    HW2 6735   5.205   1.744   2.105
 1946SOL     OW 6736   5.784   5.787   0.154
 1946SOL    HW1 6737   5.706   5.828   0.202
 1946SOL    HW2 6738   5.800   5.695   0.189
 1947SOL     OW 6739   5.957   5.761   2.702
 1947SOL    HW1 6740   6.009   5.806   2.775
 1947SOL    HW2 6741   5.859   5.766   2.724
 1948SOL     OW 6742   5.489   3.544   3.337
 1948SOL    HW1 6743   5.439   3.628   3.316
 1948SOL    HW2 6744   5.425   3.478   3.377
 1949SOL     OW 6745   3.570   4.182   6.089
 1949SOL    HW1 6746   3.569   4.236   6.173
 1949SOL    HW2 6747   3.478   4.181   6.050
 1950SOL     OW 6748   4.139   3.550   3.494
 1950SOL    HW1 6749   4.177   3.458   3.498
 1950SOL    HW2 6750   4.054   3.549   3.441
 1951SOL     OW 6751   6.712   5.622   6.255
 1951SOL    HW1 6752   6.770   5.660   6.327
 1951SOL    HW2 6753   6.616   5.627   6.284
 1952SOL     OW 6754   5.926   3.896   6.920
 1952SOL    HW1 6755   5.916   3.979   6.975
 1952SOL    HW2 6756   6.009   3.847   6.949
 1953SOL     OW 6757   0.179   0.788   0.063
 1953SOL    HW1 6758   0.156   0.690   0.067
 1953SOL    HW2 6759   0.271   0.798   0.024
 1954SOL     OW 6760   3.652   6.774   2.438
 1954SOL    HW1 6761   3.662   6.682   2.476
 1954SOL    HW2 6762   3.713   6.836   2.486
 1955SOL     OW 6763   6.533   3.323   4.322
 1955SOL    HW1 6764   6.463   3.267   4.367
 1955SOL    HW2 6765   6.619   3.315   4.372
 1956SOL     OW 6766   4.664   1.460   1.449
 1956SOL    HW1 6767   4.656   1.379   1.391
 1956SOL    HW2 6768   4.668   1.542   1.392
 1957SOL     OW 6769   6.633   3.084   4.664
 1957SOL    HW1 6770   6.561   3.066   4.596
 1957SOL    HW2 6771   6.591   3.119   4.748
 1958SOL     OW 6772   4.641   2.484   6.762
 1958SOL    HW1 6773   4.601   2.570   6.797
 1958SOL    HW2 6774   4.594   2.407   6.805
 1959SOL     OW 6775   1.578   1.627   6.198
 1959SOL    HW1 6776   1.626   1.674   6.124
 1959SOL    HW2 6777   1.638   1.558   6.238
 1960SOL     OW 6778   4.886   4.509   2.390
 1960SOL    HW1 6779   4.865   4.607   2.396
 1960SOL    HW2 6780   4.815   4.463   2.336
 1961SOL     OW 6781   0.427   3.889   4.481
 1961SOL    HW1 6782   0.382   3.800   4.473
 1961SOL    HW2 6783   0.465   3.899   4.573
 1962SOL     OW 6784   0.519   7.007   2.206
 1962SOL    HW1 6785   0.561   6.998   2.116
 1962SOL    HW2 6786   0.422   0.005   2.195
 1963SOL     OW 6787   1.017   2.106   6.935
 1963SOL    HW1 6788   1.066   2.022   6.956
 1963SOL    HW2 6789   1.082   2.182   6.931
 1964SOL     OW 6790   5.517   3.139   0.368
 1964SOL    HW1 6791   5.596   3.186   0.406
 1964SOL    HW2 6792   5.433   3.176   0.408
 1965SOL     OW 6793   5.791   4.675   4.783
 1965SOL    HW1 6794   5.719   4.640   4.723
 1965SOL    HW2 6795   5.850   4.599   4.810
 1966SOL     OW 6796   1.203   5.584   6.306
 1966SOL    HW1 6797   1.164   5.671   6.276
 1966SOL    HW2 6798   1.140   5.539   6.370
 1967SOL     OW 6799   6.712   2.531   4.813
 1967SOL    HW1 6800   6.800   2.567   4.845
 1967SOL    HW2 6801   6.651   2.608   4.793
 1968SOL     OW 6802   2.654   1.402   6.071
 1968SOL    HW1 6803   2.687   1.381   6.163
 1968SOL    HW2 6804   2.561   1.368   6.061
 1969SOL     OW 6805   0.244   5.979   1.849
 1969SOL    HW1 6806   0.279   6.000   1.758
 1969SOL    HW2 6807   0.321   5.971   1.913
 1970SOL     OW 6808   5.419   4.314   3.008
 1970SOL    HW1 6809   5.504   4.269   3.036
 1970SOL    HW2 6810   5.437   4.409   2.983
 1971SOL     OW 6811   1.750   5.284   4.372
 1971SOL    HW1 6812   1.691   5.209   4.344
 1971SOL    HW2 6813   1.790   5.263   4.461
 1972SOL     OW 6814   5.280   1.921   2.998
 1972SOL    HW1 6815   5.196   1.972   3.013
 1972SOL    HW2 6816   5.334   1.918   3.083
 1973SOL     OW 6817   4.048   2.477   0.582
 1973SOL    HW1 6818   4.129   2.437   0.625
 1973SOL    HW2 6819   3.985   2.508   0.653
 1974SOL     OW 6820   2.337   6.663   4.511
 1974SOL    HW1 6821   2.308   6.682   4.604
 1974SOL    HW2 6822   2.299   6.576   4.480
 1975SOL     OW 6823   2.410   2.438   2.211
 1975SOL    HW1 6824   2.439   2.485   2.295
 1975SOL    HW2 6825   2.479   2.452   2.140
 1976SOL     OW 6826   1.559   1.158   4.899
 1976SOL    HW1 6827   1.633   1.188   4.959
 1976SOL    HW2 6828   1.556   1.058   4.898
 1977SOL     OW 6829   0.735   3.859   6.796
 1977SOL    HW1 6830   0.679   3.938   6.819
 1977SOL    HW2 6831   0.827   3.889   6.771
 1978SOL     OW 6832   2.748   0.228   2.455
 1978SOL    HW1 6833   2.727   0.322   2.481
 1978SOL    HW2 6834   2.791   0.228   2.364
 1979SOL     OW 6835   5.281   3.682   6.488
 1979SOL    HW1 6836   5.229   3.602   6.520
 1979SOL    HW2 6837   5.352   3.705   6.553
 1980SOL     OW 6838   4.136   0.516   1.526
 1980SOL    HW1 6839   4.131   0.486   1.431
 1980SOL    HW2 6840   4.076   0.595   1.540
 1981SOL     OW 6841   4.320   2.325   1.758
 1981SOL    HW1 6842   4.281   2.281   1.839
 1981SOL    HW2 6843   4.340   2.256   1.689
 1982SOL     OW 6844   2.166   2.838   6.813
 1982SOL    HW1 6845   2.154   2.772   6.887
 1982SOL    HW2 6846   2.102   2.818   6.739
 1983SOL     OW 6847   0.199   2.132   1.558
 1983SOL    HW1 6848   0.288   2.110   1.519
 1983SOL    HW2 6849   0.165   2.054   1.610
 1984SOL     OW 6850   4.775   3.445   5.804
 1984SOL    HW1 6851   4.706   3.439   5.732
 1984SOL    HW2 6852   4.853   3.498   5.770
 1985SOL     OW 6853   5.540   4.937   4.479
 1985SOL    HW1 6854   5.610   4.866   4.480
 1985SOL    HW2 6855   5.499   4.945   4.570
 1986SOL     OW 6856   3.038   3.244   2.828
 1986SOL    HW1 6857   3.020   3.224   2.731
 1986SOL    HW2 6858   2.997   3.331   2.853
 1987SOL     OW 6859   2.071   1.594   2.147
 1987SOL    HW1 6860   2.085   1.671   2.209
 1987SOL    HW2 6861   2.149   1.588   2.084
 1988SOL     OW 6862   1.071   2.002   3.186
 1988SOL    HW1 6863   1.010   2.046   3.121
 1988SOL    HW2 6864   1.165   2.010   3.155
 1989SOL     OW 6865   3.247   5.434   3.987
 1989SOL    HW1 6866   3.319   5.443   3.918
 1989SOL    HW2 6867   3.285   5.397   4.071
 1990SOL     OW 6868   4.328   6.860   0.530
 1990SOL    HW1 6869   4.395   6.927   0.562
 1990SOL    HW2 6870   4.281   6.819   0.609
 1991SOL     OW 6871   3.007   6.037   1.711
 1991SOL    HW1 6872   3.013   6.032   1.810
 1991SOL    HW2 6873   3.097   6.021   1.671
 1992SOL     OW 6874   1.184   6.947   3.425
 1992SOL    HW1 6875   1.199   6.934   3.327
 1992SOL    HW2 6876   1.088   6.971   3.441
 1993SOL     OW 6877   1.996   1.283   2.191
 1993SOL    HW1 6878   2.037   1.368   2.158
 1993SOL    HW2 6879   1.907   1.303   2.232
 1994SOL     OW 6880   2.644   3.227   1.723
 1994SOL    HW1 6881   2.553   3.187   1.736
 1994SOL    HW2 6882   2.644   3.322   1.757
 1995SOL     OW 6883   6.121   1.057   4.263
 1995SOL    HW1 6884   6.112   0.960   4.284
 1995SOL    HW2 6885   6.084   1.075   4.172
 1996SOL     OW 6886   5.004   7.021   1.480
 1996SOL    HW1 6887   5.067   0.030   1.551
 1996SOL    HW2 6888   5.055   6.969   1.412
 1997SOL     OW 6889   3.433   1.494   2.916
 1997SOL    HW1 6890   3.474   1.405   2.934
 1997SOL    HW2 6891   3.505   1.563   2.911
 1998SOL     OW 6892   2.354   3.328   1.213
 1998SOL    HW1 6893   2.437   3.287   1.251
 1998SOL    HW2 6894   2.274   3.295   1.264
 1999SOL     OW 6895   1.024   6.876   5.746
 1999SOL    HW1 6896   0.967   6.913   5.819
 1999SOL    HW2 6897   0.990   6.785   5.721
 2000SOL     OW 6898   4.207   4.368   6.479
 2000SOL    HW1 6899   4.153   4.291   6.513
 2000SOL    HW2 6900   4.302   4.358   6.509
 2001SOL     OW 6901   1.380   2.194   0.691
 2001SOL    HW1 6902   1.464   2.228   0.648
 2001SOL    HW2 6903   1.316   2.270   0.705
 2002SOL     OW 6904   6.460   5.028   0.164
 2002SOL    HW1 6905   6.363   5.025   0.141
 2002SOL    HW2 6906   6.506   4.946   0.130
 2003SOL     OW 6907   6.270   5.365   1.275
 2003SOL    HW1 6908   6.172   5.366   1.254
 2003SOL    HW2 6909   6.285   5.404   1.366
 2004SOL     OW 6910   3.872   0.492   2.777
 2004SOL    HW1 6911   3.895   0.545   2.859
 2004SOL    HW2 6912   3.773   0.478   2.774
 2005SOL     OW 6913   1.472   6.267   0.432
 2005SOL    HW1 6914   1.486   6.354   0.480
 2005SOL    HW2 6915   1.506   6.275   0.338
 2006SOL     OW 6916   6.056   6.886   1.730
 2006SOL    HW1 6917   5.959   6.883   1.705
 2006SOL    HW2 6918   6.089   6.792   1.742
 2007SOL     OW 6919   5.566   5.225   5.751
 2007SOL    HW1 6920   5.530   5.183   5.668
 2007SOL    HW2 6921   5.566   5.158   5.825
 2008SOL     OW 6922   1.884   3.231   2.845
 2008SOL    HW1 6923   1.824   3.281   2.907
 2008SOL    HW2 6924   1.974   3.220   2.888
 2009SOL     OW 6925   5.739   0.302   3.226
 2009SOL    HW1 6926   5.776   0.209   3.234
 2009SOL    HW2 6927   5.645   0.303   3.259
 2010SOL     OW 6928   0.356   1.439   1.416
 2010SOL    HW1 6929   0.382   1.387   1.335
 2010SOL    HW2 6930   0.421   1.513   1.432
 2011SOL     OW 6931   0.784   0.163   4.820
 2011SOL    HW1 6932   0.814   0.120   4.905
 2011SOL    HW2 6933   0.722   0.102   4.771
 2012SOL     OW 6934   0.268   2.333   0.521
 2012SOL    HW1 6935   0.334   2.406   0.533
 2012SOL    HW2 6936   0.263   2.308   0.424
 2013SOL     OW 6937   0.709   2.883   2.285
 2013SOL    HW1 6938   0.724   2.817   2.211
 2013SOL    HW2 6939   0.611   2.900   2.295
 2014SOL     OW 6940   3.757   1.807   3.612
 2014SOL    HW1 6941   3.792   1.898   3.632
 2014SOL    HW2 6942   3.831   1.740   3.618
 2015SOL     OW 6943   3.914   6.209   1.371
 2015SOL    HW1 6944   3.948   6.217   1.465
 2015SOL    HW2 6945   3.913   6.299   1.329
 2016SOL     OW 6946   1.527   0.872   4.973
 2016SOL    HW1 6947   1.463   0.803   4.941
 2016SOL    HW2 6948   1.511   0.890   5.071
 2017SOL     OW 6949   2.210   6.982   4.661
 2017SOL    HW1 6950   2.250   6.971   4.571
 2017SOL    HW2 6951   2.110   6.987   4.653
 2018SOL     OW 6952   0.575   0.687   4.576
 2018SOL    HW1 6953   0.540   0.650   4.662
 2018SOL    HW2 6954   0.673   0.703   4.585
 2019SOL     OW 6955   0.339   5.022   6.971
 2019SOL    HW1 6956   0.339   4.956   0.022
 2019SOL    HW2 6957   0.246   5.055   6.956
 2020SOL     OW 6958   1.618   6.751   1.445
 2020SOL    HW1 6959   1.566   6.817   1.499
 2020SOL    HW2 6960   1.712   6.747   1.477
 2021SOL     OW 6961   6.887   5.487   4.038
 2021SOL    HW1 6962   6.848   5.452   4.124
 2021SOL    HW2 6963   6.829   5.561   4.003
 2022SOL     OW 6964   2.238   3.065   4.004
 2022SOL    HW1 6965   2.147   3.096   3.979
 2022SOL    HW2 6966   2.265   3.107   4.091
 2023SOL     OW 6967   0.746   5.485   0.047
 2023SOL    HW1 6968   0.671   5.427   0.079
 2023SOL    HW2 6969   0.801   5.514   0.126
 2024SOL     OW 6970   6.539   6.163   3.678
 2024SOL    HW1 6971   6.528   6.102   3.599
 2024SOL    HW2 6972   6.624   6.216   3.667
 2025SOL     OW 6973   1.722   0.200   4.223
 2025SOL    HW1 6974   1.804   0.144   4.209
 2025SOL    HW2 6975   1.739   0.267   4.296
 2026SOL     OW 6976   1.613   0.051   5.471
 2026SOL    HW1 6977   1.638   0.141   5.436
 2026SOL    HW2 6978   1.675   7.006   5.433
 2027SOL     OW 6979   6.194   6.595   2.975
 2027SOL    HW1 6980   6.101   6.562   2.957
 2027SOL    HW2 6981   6.251   6.520   3.008
 2028SOL     OW 6982   2.274   5.948   4.552
 2028SOL    HW1 6983   2.219   5.945   4.469
 2028SOL    HW2 6984   2.299   6.043   4.573
 2029SOL     OW 6985   6.487   2.114   6.737
 2029SOL    HW1 6986   6.440   2.097   6.824
 2029SOL    HW2 6987   6.551   2.190   6.748
 2030SOL     OW 6988   1.821   6.300   2.732
 2030SOL    HW1 6989   1.757   6.377   2.741
 2030SOL    HW2 6990   1.782   6.219   2.776
 2031SOL     OW 6991   0.150   6.849   5.515
 2031SOL    HW1 6992   0.231   6.791   5.523
 2031SOL    HW2 6993   0.146   6.888   5.423
 2032SOL     OW 6994   2.700   2.919   6.497
 2032SOL    HW1 6995   2.648   2.952   6.418
 2032SOL    HW2 6996   2.798   2.929   6.479
 2033SOL     OW 6997   2.450   0.297   1.375
 2033SOL    HW1 6998   2.419   0.339   1.290
 2033SOL    HW2 6999   2.429   0.357   1.452
 2034SOL     OW 7000   0.504   4.026   5.051
 2034SOL    HW1 7001   0.485   4.027   4.953
 2034SOL    HW2 7002   0.556   4.108   5.076
 2035SOL     OW 7003   5.291   5.956   3.071
 2035SOL    HW1 7004   5.321   5.898   3.146
 2035SOL    HW2 7005   5.243   5.901   3.003
 2036SOL     OW 7006   0.135   3.363   6.039
 2036SOL    HW1 7007   0.157   3.457   6.066
 2036SOL    HW2 7008   0.138   3.355   5.939
 2037SOL     OW 7009   1.189   2.303   6.950
 2037SOL    HW1 7010   1.160   2.335   0.017
 2037SOL    HW2 7011   1.261   2.362   6.916
 2038SOL     OW 7012   1.514   0.871   5.772
 2038SOL    HW1 7013   1.531   0.778   5.741
 2038SOL    HW2 7014   1.597   0.926   5.762
 2039SOL     OW 7015   5.137   5.999   4.273
 2039SOL    HW1 7016   5.039   5.981   4.260
 2039SOL    HW2 7017   5.181   6.010   4.184
 2040SOL     OW 7018   2.763   1.221   0.837
 2040SOL    HW1 7019   2.824   1.168   0.897
 2040SOL    HW2 7020   2.794   1.315   0.832
 2041SOL     OW 7021   3.511   6.789   0.260
 2041SOL    HW1 7022   3.498   6.880   0.223
 2041SOL    HW2 7023   3.554   6.730   0.191
 2042SOL     OW 7024   0.230   0.424   5.123
 2042SOL    HW1 7025   0.274   0.510   5.148
 2042SOL    HW2 7026   0.231   0.362   5.201
 2043SOL     OW 7027   0.710   3.717   0.396
 2043SOL    HW1 7028   0.629   3.774   0.410
 2043SOL    HW2 7029   0.750   3.737   0.307
 2044SOL     OW 7030   3.728   0.928   2.121
 2044SOL    HW1 7031   3.723   0.972   2.211
 2044SOL    HW2 7032   3.789   0.981   2.062
 2045SOL     OW 7033   2.013   5.550   3.317
 2045SOL    HW1 7034   2.105   5.579   3.293
 2045SOL    HW2 7035   1.966   5.515   3.235
 2046SOL     OW 7036   0.891   2.663   5.892
 2046SOL    HW1 7037   0.930   2.754   5.876
 2046SOL    HW2 7038   0.845   2.663   5.981
 2047SOL     OW 7039   0.030   6.993   1.908
 2047SOL    HW1 7040   0.124   6.963   1.892
 2047SOL    HW2 7041   7.009   7.012   1.820
 2048SOL     OW 7042   1.712   0.870   3.557
 2048SOL    HW1 7043   1.676   0.846   3.467
 2048SOL    HW2 7044   1.639   0.858   3.625
 2049SOL     OW 7045   4.491   2.057   5.339
 2049SOL    HW1 7046   4.397   2.033   5.314
 2049SOL    HW2 7047   4.515   2.144   5.295
 2050SOL     OW 7048   0.575   1.143   2.533
 2050SOL    HW1 7049   0.494   1.085   2.547
 2050SOL    HW2 7050   0.657   1.086   2.530
 2051SOL     OW 7051   3.032   6.992   6.942
 2051SOL    HW1 7052   3.055   6.898   6.915
 2051SOL    HW2 7053   3.115   0.015   6.974
 2052SOL     OW 7054   6.910   4.472   0.833
 2052SOL    HW1 7055   6.955   4.493   0.919
 2052SOL    HW2 7056   6.824   4.524   0.827
 2053SOL     OW 7057   4.788   5.104   1.868
 2053SOL    HW1 7058   4.803   5.203   1.869
 2053SOL    HW2 7059   4.690   5.086   1.868
 2054SOL     OW 7060   3.172   4.068   3.597
 2054SOL    HW1 7061   3.269   4.049   3.607
 2054SOL    HW2 7062   3.137   4.106   3.683
 2055SOL     OW 7063   3.646   2.562   5.747
 2055SOL    HW1 7064   3.558   2.533   5.783
 2055SOL    HW2 7065   3.663   2.657   5.773
 2056SOL     OW 7066   2.710   5.370   2.206
 2056SOL    HW1 7067   2.663   5.333   2.126
 2056SOL    HW2 7068   2.806   5.388   2.184
 2057SOL     OW 7069   6.333   3.100   3.956
 2057SOL    HW1 7070   6.307   3.039   3.880
 2057SOL    HW2 7071   6.251   3.129   4.005
 2058SOL     OW 7072   5.295   0.118   3.929
 2058SOL    HW1 7073   5.271   0.053   3.858
 2058SOL    HW2 7074   5.213   0.168   3.957
 2059SOL     OW 7075   2.339   1.265   5.718
 2059SOL    HW1 7076   2.367   1.350   5.762
 2059SOL    HW2 7077   2.242   1.249   5.736
 2060SOL     OW 7078   1.102   2.679   6.634
 2060SOL    HW1 7079   1.107   2.683   6.734
 2060SOL    HW2 7080   1.080   2.586   6.605
 2061SOL     OW 7081   1.942   2.611   4.192
 2061SOL    HW1 7082   1.874   2.544   4.162
 2061SOL    HW2 7083   2.029   2.595   4.145
 2062SOL     OW 7084   5.097   5.422   3.739
 2062SOL    HW1 7085   5.072   5.339   3.789
 2062SOL    HW2 7086   5.035   5.496   3.763
 2063SOL     OW 7087   0.742   1.779   4.500
 2063SOL    HW1 7088   0.754   1.844   4.425
 2063SOL    HW2 7089   0.796   1.808   4.579
 2064SOL     OW 7090   0.484   3.927   4.757
 2064SOL    HW1 7091   0.575   3.950   4.723
 2064SOL    HW2 7092   0.490   3.847   4.817
 2065SOL     OW 7093   3.717   3.715   5.983
 2065SOL    HW1 7094   3.712   3.677   5.890
 2065SOL    HW2 7095   3.626   3.715   6.024
 2066SOL     OW 7096   2.262   2.638   4.298
 2066SOL    HW1 7097   2.256   2.584   4.382
 2066SOL    HW2 7098   2.296   2.730   4.319
 2067SOL     OW 7099   6.492   4.920   2.312
 2067SOL    HW1 7100   6.405   4.954   2.277
 2067SOL    HW2 7101   6.541   4.872   2.240
 2068SOL     OW 7102   3.279   6.682   4.114
 2068SOL    HW1 7103   3.271   6.725   4.204
 2068SOL    HW2 7104   3.364   6.629   4.110
 2069SOL     OW 7105   6.214   1.704   3.336
 2069SOL    HW1 7106   6.288   1.642   3.307
 2069SOL    HW2 7107   6.126   1.660   3.321
 2070SOL     OW 7108   0.259   5.097   1.856
 2070SOL    HW1 7109   0.162   5.122   1.861
 2070SOL    HW2 7110   0.275   5.040   1.776
 2071SOL     OW 7111   6.461   2.446   3.983
 2071SOL    HW1 7112   6.437   2.350   3.967
 2071SOL    HW2 7113   6.465   2.494   3.895
 2072SOL     OW 7114   5.149   2.883   5.205
 2072SOL    HW1 7115   5.062   2.931   5.208
 2072SOL    HW2 7116   5.214   2.926   5.268
 2073SOL     OW 7117   3.448   5.236   6.914
 2073SOL    HW1 7118   3.373   5.262   6.853
 2073SOL    HW2 7119   3.420   5.250   7.009
 2074SOL     OW 7120   3.722   4.516   5.461
 2074SOL    HW1 7121   3.748   4.419   5.459
 2074SOL    HW2 7122   3.729   4.551   5.555
 2075SOL     OW 7123   5.148   1.217   0.751
 2075SOL    HW1 7124   5.090   1.280   0.698
 2075SOL    HW2 7125   5.100   1.192   0.835
 2076SOL     OW 7126   6.875   0.134   3.874
 2076SOL    HW1 7127   6.939   0.111   3.948
 2076SOL    HW2 7128   6.788   0.165   3.914
 2077SOL     OW 7129   0.787   4.246   1.082
 2077SOL    HW1 7130   0.743   4.327   1.041
 2077SOL    HW2 7131   0.886   4.260   1.085
 2078SOL     OW 7132   0.918   2.581   0.250
 2078SOL    HW1 7133   0.869   2.507   0.203
 2078SOL    HW2 7134   0.885   2.589   0.344
 2079SOL     OW 7135   5.562   1.867   3.510
 2079SOL    HW1 7136   5.660   1.854   3.526
 2079SOL    HW2 7137   5.515   1.877   3.597
 2080SOL     OW 7138   1.992   2.987   5.722
 2080SOL    HW1 7139   1.988   2.984   5.622
 2080SOL    HW2 7140   2.061   3.054   5.750
 2081SOL     OW 7141   0.418   6.055   2.779
 2081SOL    HW1 7142   0.395   6.150   2.757
 2081SOL    HW2 7143   0.502   6.029   2.732
 2082SOL     OW 7144   6.514   6.725   3.582
 2082SOL    HW1 7145   6.543   6.811   3.540
 2082SOL    HW2 7146   6.592   6.682   3.628
 2083SOL     OW 7147   0.822   5.429   3.103
 2083SOL    HW1 7148   0.892   5.499   3.107
 2083SOL    HW2 7149   0.819   5.379   3.190
 2084SOL     OW 7150   6.131   2.127   1.369
 2084SOL    HW1 7151   6.044   2.110   1.322
 2084SOL    HW2 7152   6.132   2.076   1.455
 2085SOL     OW 7153   6.313   5.827   0.266
 2085SOL    HW1 7154   6.247   5.754   0.283
 2085SOL    HW2 7155   6.392   5.789   0.216
 2086SOL     OW 7156   5.962   0.218   5.570
 2086SOL    HW1 7157   6.001   0.127   5.561
 2086SOL    HW2 7158   5.879   0.213   5.625
 2087SOL     OW 7159   5.410   1.099   6.426
 2087SOL    HW1 7160   5.337   1.139   6.372
 2087SOL    HW2 7161   5.435   1.010   6.389
 2088SOL     OW 7162   0.497   3.154   5.634
 2088SOL    HW1 7163   0.515   3.058   5.657
 2088SOL    HW2 7164   0.399   3.172   5.645
 2089SOL     OW 7165   3.030   5.206   4.604
 2089SOL    HW1 7166   3.052   5.215   4.506
 2089SOL    HW2 7167   2.932   5.217   4.617
 2090SOL     OW 7168   5.221   2.077   6.382
 2090SOL    HW1 7169   5.316   2.057   6.405
 2090SOL    HW2 7170   5.181   2.135   6.453
 2091SOL     OW 7171   5.456   6.452   0.733
 2091SOL    HW1 7172   5.524   6.521   0.758
 2091SOL    HW2 7173   5.439   6.457   0.634
 2092SOL     OW 7174   3.404   2.875   3.003
 2092SOL    HW1 7175   3.457   2.844   2.924
 2092SOL    HW2 7176   3.322   2.923   2.972
 2093SOL     OW 7177   4.819   6.943   0.555
 2093SOL    HW1 7178   4.866   0.002   0.584
 2093SOL    HW2 7179   4.798   6.887   0.635
 2094SOL     OW 7180   4.835   3.045   0.906
 2094SOL    HW1 7181   4.764   2.980   0.882
 2094SOL    HW2 7182   4.909   3.040   0.839
 2095SOL     OW 7183   4.681   5.569   3.332
 2095SOL    HW1 7184   4.651   5.653   3.378
 2095SOL    HW2 7185   4.743   5.593   3.257
 2096SOL     OW 7186   3.694   6.743   2.942
 2096SOL    HW1 7187   3.718   6.737   3.039
 2096SOL    HW2 7188   3.628   6.671   2.919
 2097SOL     OW 7189   2.306   5.963   5.234
 2097SOL    HW1 7190   2.392   6.004   5.265
 2097SOL    HW2 7191   2.262   5.915   5.310
 2098SOL     OW 7192   1.621   6.944   3.730
 2098SOL    HW1 7193   1.717   6.933   3.754
 2098SOL    HW2 7194   1.566   6.949   3.813
 2099SOL     OW 7195   4.530   1.666   6.800
 2099SOL    HW1 7196   4.445   1.630   6.838
 2099SOL    HW2 7197   4.510   1.747   6.745
 2100SOL     OW 7198   4.290   0.134   0.863
 2100SOL    HW1 7199   4.268   0.231   0.875
 2100SOL    HW2 7200   4.385   0.125   0.833
 2101SOL     OW 7201   1.630   0.515   2.490
 2101SOL    HW1 7202   1.625   0.458   2.408
 2101SOL    HW2 7203   1.677   0.600   2.469
 2102SOL     OW 7204   3.555   2.910   2.417
 2102SOL    HW1 7205   3.654   2.897   2.412
 2102SOL    HW2 7206   3.534   2.977   2.488
 2103SOL     OW 7207   1.728   0.058   1.486
 2103SOL    HW1 7208   1.760   7.003   1.433
 2103SOL    HW2 7209   1.629   0.067   1.475
 2104SOL     OW 7210   1.237   4.200   2.500
 2104SOL    HW1 7211   1.169   4.129   2.482
 2104SOL    HW2 7212   1.196   4.290   2.489
 2105SOL     OW 7213   5.350   6.494   5.434
 2105SOL    HW1 7214   5.443   6.458   5.426
 2105SOL    HW2 7215   5.318   6.484   5.528
 2106SOL     OW 7216   3.305   2.667   1.155
 2106SOL    HW1 7217   3.380   2.734   1.161
 2106SOL    HW2 7218   3.341   2.580   1.122
 2107SOL     OW 7219   6.153   4.400   5.071
 2107SOL    HW1 7220   6.243   4.443   5.057
 2107SOL    HW2 7221   6.164   4.300   5.069
 2108SOL     OW 7222   4.603   6.514   5.335
 2108SOL    HW1 7223   4.621   6.597   5.387
 2108SOL    HW2 7224   4.681   6.452   5.344
 2109SOL     OW 7225   2.726   5.747   2.144
 2109SOL    HW1 7226   2.671   5.786   2.070
 2109SOL    HW2 7227   2.679   5.758   2.231
 2110SOL     OW 7228   3.828   5.701   6.644
 2110SOL    HW1 7229   3.821   5.605   6.669
 2110SOL    HW2 7230   3.909   5.716   6.587
 2111SOL     OW 7231   0.535   2.602   0.487
 2111SOL    HW1 7232   0.551   2.671   0.417
 2111SOL    HW2 7233   0.522   2.513   0.444
 2112SOL     OW 7234   0.866   0.479   6.673
 2112SOL    HW1 7235   0.810   0.403   6.639
 2112SOL    HW2 7236   0.853   0.489   6.772
 2113SOL     OW 7237   6.871   1.747   4.594
 2113SOL    HW1 7238   6.789   1.691   4.601
 2113SOL    HW2 7239   6.951   1.693   4.620
 2114SOL     OW 7240   3.170   1.079   5.395
 2114SOL    HW1 7241   3.170   1.095   5.494
 2114SOL    HW2 7242   3.091   1.125   5.354
 2115SOL     OW 7243   6.649   6.937   3.809
 2115SOL    HW1 7244   6.553   6.914   3.818
 2115SOL    HW2 7245   6.658   0.005   3.769
 2116SOL     OW 7246   1.919   0.832   5.649
 2116SOL    HW1 7247   1.991   0.806   5.713
 2116SOL    HW2 7248   1.834   0.849   5.700
 2117SOL     OW 7249   5.771   3.447   1.346
 2117SOL    HW1 7250   5.759   3.385   1.269
 2117SOL    HW2 7251   5.708   3.524   1.337
 2118SOL     OW 7252   6.966   3.291   2.767
 2118SOL    HW1 7253   0.002   3.352   2.820
 2118SOL    HW2 7254   6.871   3.308   2.792
 2119SOL     OW 7255   2.395   2.288   0.003
 2119SOL    HW1 7256   2.372   2.273   0.099
 2119SOL    HW2 7257   2.485   2.331   7.020
 2120SOL     OW 7258   5.698   1.685   0.630
 2120SOL    HW1 7259   5.742   1.690   0.541
 2120SOL    HW2 7260   5.615   1.629   0.623
 2121SOL     OW 7261   3.191   5.788   1.247
 2121SOL    HW1 7262   3.290   5.779   1.247
 2121SOL    HW2 7263   3.155   5.766   1.337
 2122SOL     OW 7264   0.433   0.565   5.284
 2122SOL    HW1 7265   0.486   0.510   5.349
 2122SOL    HW2 7266   0.495   0.611   5.220
 2123SOL     OW 7267   1.071   4.879   3.534
 2123SOL    HW1 7268   1.081   4.792   3.485
 2123SOL    HW2 7269   0.974   4.903   3.540
 2124SOL     OW 7270   4.752   3.069   6.273
 2124SOL    HW1 7271   4.785   3.091   6.181
 2124SOL    HW2 7272   4.660   3.106   6.285
 2125SOL     OW 7273   2.270   5.679   6.187
 2125SOL    HW1 7274   2.278   5.584   6.157
 2125SOL    HW2 7275   2.265   5.739   6.107
 2126SOL     OW 7276   2.854   5.126   1.837
 2126SOL    HW1 7277   2.787   5.171   1.777
 2126SOL    HW2 7278   2.816   5.040   1.871
 2127SOL     OW 7279   1.456   3.858   4.047
 2127SOL    HW1 7280   1.517   3.912   4.105
 2127SOL    HW2 7281   1.470   3.761   4.066
 2128SOL     OW 7282   5.479   2.735   0.791
 2128SOL    HW1 7283   5.439   2.704   0.878
 2128SOL    HW2 7284   5.447   2.827   0.771
 2129SOL     OW 7285   6.185   4.168   3.917
 2129SOL    HW1 7286   6.127   4.091   3.893
 2129SOL    HW2 7287   6.230   4.150   4.004
 2130SOL     OW 7288   1.906   0.248   2.593
 2130SOL    HW1 7289   1.815   0.248   2.551
 2130SOL    HW2 7290   1.930   0.340   2.623
 2131SOL     OW 7291   5.788   0.417   6.988
 2131SOL    HW1 7292   5.724   0.487   7.021
 2131SOL    HW2 7293   5.879   0.434   0.004
 2132SOL     OW 7294   3.170   1.918   6.908
 2132SOL    HW1 7295   3.167   1.830   6.954
 2132SOL    HW2 7296   3.105   1.918   6.831
 2133SOL     OW 7297   4.287   2.709   1.696
 2133SOL    HW1 7298   4.219   2.636   1.708
 2133SOL    HW2 7299   4.379   2.672   1.716
 2134SOL     OW 7300   2.440   0.447   5.219
 2134SOL    HW1 7301   2.477   0.355   5.206
 2134SOL    HW2 7302   2.349   0.452   5.177
 2135SOL     OW 7303   0.226   6.210   4.302
 2135SOL    HW1 7304   0.158   6.172   4.365
 2135SOL    HW2 7305   0.262   6.295   4.340
 2136SOL     OW 7306   0.482   5.143   3.667
 2136SOL    HW1 7307   0.466   5.044   3.668
 2136SOL    HW2 7308   0.397   5.190   3.646
 2137SOL     OW 7309   0.144   0.451   4.557
 2137SOL    HW1 7310   0.114   0.516   4.488
 2137SOL    HW2 7311   0.079   0.375   4.562
 2138SOL     OW 7312   1.207   2.196   6.664
 2138SOL    HW1 7313   1.287   2.148   6.627
 2138SOL    HW2 7314   1.232   2.242   6.749
 2139SOL     OW 7315   3.536   5.980   4.338
 2139SOL    HW1 7316   3.446   6.019   4.321
 2139SOL    HW2 7317   3.553   5.905   4.274
 2140SOL     OW 7318   1.487   5.664   3.472
 2140SOL    HW1 7319   1.475   5.573   3.512
 2140SOL    HW2 7320   1.581   5.675   3.440
 2141SOL     OW 7321   6.582   0.699   6.713
 2141SOL    HW1 7322   6.670   0.737   6.738
 2141SOL    HW2 7323   6.593   0.603   6.686
 2142SOL     OW 7324   4.184   1.167   3.011
 2142SOL    HW1 7325   4.113   1.097   3.022
 2142SOL    HW2 7326   4.253   1.156   3.082
 2143SOL     OW 7327   3.733   5.805   0.496
 2143SOL    HW1 7328   3.702   5.865   0.421
 2143SOL    HW2 7329   3.817   5.759   0.469
 2144SOL     OW 7330   0.708   1.248   1.930
 2144SOL    HW1 7331   0.661   1.336   1.933
 2144SOL    HW2 7332   0.796   1.256   1.977
 2145SOL     OW 7333   2.566   5.817   3.988
 2145SOL    HW1 7334   2.470   5.823   4.016
 2145SOL    HW2 7335   2.606   5.733   4.025
 2146SOL     OW 7336   3.157   2.379   1.284
 2146SOL    HW1 7337   3.171   2.282   1.302
 2146SOL    HW2 7338   3.147   2.428   1.370
 2147SOL     OW 7339   6.768   0.046   4.650
 2147SOL    HW1 7340   6.845   0.021   4.708
 2147SOL    HW2 7341   6.770   0.145   4.634
 2148SOL     OW 7342   6.844   4.022   3.946
 2148SOL    HW1 7343   6.828   3.948   3.880
 2148SOL    HW2 7344   6.801   4.106   3.913
 2149SOL     OW 7345   2.737   1.336   2.483
 2149SOL    HW1 7346   2.789   1.311   2.564
 2149SOL    HW2 7347   2.657   1.390   2.510
 2150SOL     OW 7348   4.991   0.509   2.914
 2150SOL    HW1 7349   5.058   0.476   2.980
 2150SOL    HW2 7350   4.960   0.601   2.941
 2151SOL     OW 7351   4.306   4.204   5.719
 2151SOL    HW1 7352   4.319   4.179   5.623
 2151SOL    HW2 7353   4.279   4.300   5.725
 2152SOL     OW 7354   0.254   6.343   3.026
 2152SOL    HW1 7355   0.196   6.420   3.051
 2152SOL    HW2 7356   0.275   6.347   2.929
 2153SOL     OW 7357   4.517   1.482   3.880
 2153SOL    HW1 7358   4.520   1.438   3.791
 2153SOL    HW2 7359   4.610   1.495   3.914
 2154SOL     OW 7360   3.933   0.004   4.396
 2154SOL    HW1 7361   3.885   0.075   4.345
 2154SOL    HW2 7362   4.026   0.034   4.415
 2155SOL     OW 7363   5.807   3.702   0.660
 2155SOL    HW1 7364   5.803   3.636   0.585
 2155SOL    HW2 7365   5.733   3.683   0.725
 2156SOL     OW 7366   6.067   6.020   2.376
 2156SOL    HW1 7367   6.052   6.061   2.287
 2156SOL    HW2 7368   6.021   6.075   2.446
 2157SOL     OW 7369   5.428   1.620   3.648
 2157SOL    HW1 7370   5.349   1.668   3.687
 2157SOL    HW2 7371   5.510   1.643   3.701
 2158SOL     OW 7372   4.214   0.427   3.472
 2158SOL    HW1 7373   4.242   0.384   3.387
 2158SOL    HW2 7374   4.151   0.502   3.453
 2159SOL     OW 7375   2.613   1.323   5.244
 2159SOL    HW1 7376   2.608   1.327   5.344
 2159SOL    HW2 7377   2.657   1.406   5.210
 2160SOL     OW 7378   2.553   3.954   0.729
 2160SOL    HW1 7379   2.517   3.861   0.739
 2160SOL    HW2 7380   2.650   3.950   0.707
 2161SOL     OW 7381   4.546   2.549   3.199
 2161SOL    HW1 7382   4.474   2.502   3.148
 2161SOL    HW2 7383   4.566   2.499   3.283
 2162SOL     OW 7384   2.600   1.513   2.124
 2162SOL    HW1 7385   2.527   1.452   2.156
 2162SOL    HW2 7386   2.580   1.607   2.153
 2163SOL     OW 7387   3.840   2.201   1.039
 2163SOL    HW1 7388   3.899   2.136   1.087
 2163SOL    HW2 7389   3.803   2.158   0.956
 2164SOL     OW 7390   6.342   0.610   1.352
 2164SOL    HW1 7391   6.274   0.667   1.306
 2164SOL    HW2 7392   6.433   0.650   1.340
 2165SOL     OW 7393   2.287   0.887   2.176
 2165SOL    HW1 7394   2.295   0.908   2.079
 2165SOL    HW2 7395   2.357   0.820   2.202
 2166SOL     OW 7396   5.401   2.733   4.954
 2166SOL    HW1 7397   5.423   2.650   4.902
 2166SOL    HW2 7398   5.314   2.771   4.921
 2167SOL     OW 7399   3.183   1.590   1.355
 2167SOL    HW1 7400   3.089   1.558   1.368
 2167SOL    HW2 7401   3.239   1.559   1.432
 2168SOL     OW 7402   5.363   6.612   4.643
 2168SOL    HW1 7403   5.349   6.666   4.559
 2168SOL    HW2 7404   5.334   6.518   4.627
 2169SOL     OW 7405   5.278   1.719   5.832
 2169SOL    HW1 7406   5.334   1.740   5.751
 2169SOL    HW2 7407   5.322   1.648   5.885
 2170SOL     OW 7408   4.977   5.345   4.374
 2170SOL    HW1 7409   4.883   5.321   4.398
 2170SOL    HW2 7410   5.020   5.394   4.450
 2171SOL     OW 7411   0.423   3.685   0.051
 2171SOL    HW1 7412   0.332   3.680   0.009
 2171SOL    HW2 7413   0.423   3.630   0.135
 2172SOL     OW 7414   1.819   0.207   2.869
 2172SOL    HW1 7415   1.800   0.293   2.917
 2172SOL    HW2 7416   1.848   0.227   2.776
 2173SOL     OW 7417   4.466   2.133   4.777
 2173SOL    HW1 7418   4.553   2.106   4.737
 2173SOL    HW2 7419   4.392   2.086   4.729
 2174SOL     OW 7420   0.996   5.509   4.961
 2174SOL    HW1 7421   0.916   5.557   4.926
 2174SOL    HW2 7422   1.067   5.575   4.986
 2175SOL     OW 7423   1.122   6.984   6.958
 2175SOL    HW1 7424   1.151   0.032   6.894
 2175SOL    HW2 7425   1.062   7.023   0.004
 2176SOL     OW 7426   1.963   2.802   2.316
 2176SOL    HW1 7427   1.958   2.739   2.238
 2176SOL    HW2 7428   2.052   2.848   2.316
 2177SOL     OW 7429   0.962   1.714   1.662
 2177SOL    HW1 7430   0.917   1.802   1.646
 2177SOL    HW2 7431   0.914   1.664   1.734
 2178SOL     OW 7432   6.800   5.688   0.287
 2178SOL    HW1 7433   6.741   5.719   0.212
 2178SOL    HW2 7434   6.815   5.765   0.350
 2179SOL     OW 7435   2.148   3.711   4.074
 2179SOL    HW1 7436   2.155   3.619   4.111
 2179SOL    HW2 7437   2.130   3.706   3.975
 2180SOL     OW 7438   2.942   3.230   2.205
 2180SOL    HW1 7439   3.003   3.266   2.276
 2180SOL    HW2 7440   2.963   3.133   2.188
 2181SOL     OW 7441   3.692   6.755   0.940
 2181SOL    HW1 7442   3.617   6.811   0.976
 2181SOL    HW2 7443   3.660   6.705   0.859
 2182SOL     OW 7444   4.171   3.392   0.540
 2182SOL    HW1 7445   4.100   3.422   0.475
 2182SOL    HW2 7446   4.197   3.298   0.518
 2183SOL     OW 7447   4.527   3.106   1.232
 2183SOL    HW1 7448   4.563   3.057   1.152
 2183SOL    HW2 7449   4.497   3.041   1.301
 2184SOL     OW 7450   4.742   2.781   5.946
 2184SOL    HW1 7451   4.805   2.854   5.973
 2184SOL    HW2 7452   4.665   2.779   6.009
 2185SOL     OW 7453   6.408   6.486   2.199
 2185SOL    HW1 7454   6.486   6.497   2.261
 2185SOL    HW2 7455   6.361   6.574   2.189
 2186SOL     OW 7456   0.012   4.425   3.199
 2186SOL    HW1 7457   6.976   4.367   3.143
 2186SOL    HW2 7458   7.016   4.521   3.181
 2187SOL     OW 7459   6.478   0.821   0.008
 2187SOL    HW1 7460   6.416   0.852   6.960
 2187SOL    HW2 7461   6.572   0.838   7.003
 2188SOL     OW 7462   4.571   1.908   3.342
 2188SOL    HW1 7463   4.501   1.969   3.306
 2188SOL    HW2 7464   4.531   1.850   3.413
 2189SOL     OW 7465   3.658   6.386   6.948
 2189SOL    HW1 7466   3.714   6.331   6.886
 2189SOL    HW2 7467   3.708   6.401   0.010
 2190SOL     OW 7468   5.589   3.350   0.811
 2190SOL    HW1 7469   5.517   3.406   0.769
 2190SOL    HW2 7470   5.552   3.304   0.891
 2191SOL     OW 7471   3.573   1.022   6.872
 2191SOL    HW1 7472   3.519   1.050   6.793
 2191SOL    HW2 7473   3.544   0.931   6.901
 2192SOL     OW 7474   4.314   6.077   1.934
 2192SOL    HW1 7475   4.301   6.143   2.008
 2192SOL    HW2 7476   4.408   6.045   1.934
 2193SOL     OW 7477   6.933   6.067   4.882
 2193SOL    HW1 7478   6.904   6.132   4.952
 2193SOL    HW2 7479   6.945   5.977   4.924
 2194SOL     OW 7480   2.621   6.992   1.962
 2194SOL    HW1 7481   2.706   7.015   2.009
 2194SOL    HW2 7482   2.545   6.993   2.027
 2195SOL     OW 7483   0.191   5.091   2.419
 2195SOL    HW1 7484   0.284   5.117   2.445
 2195SOL    HW2 7485   0.151   5.162   2.363
 2196SOL     OW 7486   4.280   3.789   0.257
 2196SOL    HW1 7487   4.202   3.852   0.253
 2196SOL    HW2 7488   4.335   3.811   0.338
 2197SOL     OW 7489   4.836   3.194   6.772
 2197SOL    HW1 7490   4.826   3.200   6.673
 2197SOL    HW2 7491   4.783   3.267   6.815
 2198SOL     OW 7492   0.381   4.284   6.894
 2198SOL    HW1 7493   0.302   4.345   6.897
 2198SOL    HW2 7494   0.455   4.329   6.844
 2199SOL     OW 7495   4.018   1.491   3.278
 2199SOL    HW1 7496   4.075   1.572   3.288
 2199SOL    HW2 7497   3.927   1.517   3.247
 2200SOL     OW 7498   3.709   0.185   4.270
 2200SOL    HW1 7499   3.715   0.265   4.330
 2200SOL    HW2 7500   3.644   0.204   4.196
 2201SOL     OW 7501   5.229   4.580   4.359
 2201SOL    HW1 7502   5.253   4.617   4.449
 2201SOL    HW2 7503   5.312   4.562   4.307
 2202SOL     OW 7504   4.431   6.232   4.269
 2202SOL    HW1 7505   4.423   6.136   4.241
 2202SOL    HW2 7506   4.503   6.241   4.337
 2203SOL     OW 7507   2.148   1.301   2.568
 2203SOL    HW1 7508   2.055   1.331   2.545
 2203SOL    HW2 7509   2.213   1.346   2.507
 2204SOL     OW 7510   3.788   2.471   1.090
 2204SOL    HW1 7511   3.832   2.387   1.060
 2204SOL    HW2 7512   3.816   2.491   1.184
 2205SOL     OW 7513   3.258   0.630   2.130
 2205SOL    HW1 7514   3.348   0.588   2.126
 2205SOL    HW2 7515   3.267   0.729   2.138
 2206SOL     OW 7516   1.269   3.964   0.414
 2206SOL    HW1 7517   1.272   4.026   0.492
 2206SOL    HW2 7518   1.230   4.012   0.335
 2207SOL     OW 7519   6.786   4.916   5.201
 2207SOL    HW1 7520   6.716   4.847   5.220
 2207SOL    HW2 7521   6.876   4.877   5.216
 2208SOL     OW 7522   6.732   5.328   2.174
 2208SOL    HW1 7523   6.687   5.366   2.093
 2208SOL    HW2 7524   6.818   5.285   2.148
 2209SOL     OW 7525   6.485   6.656   1.756
 2209SOL    HW1 7526   6.537   6.629   1.837
 2209SOL    HW2 7527   6.492   6.755   1.742
 2210SOL     OW 7528   2.466   4.810   3.924
 2210SOL    HW1 7529   2.379   4.772   3.954
 2210SOL    HW2 7530   2.466   4.819   3.824
 2211SOL     OW 7531   6.358   0.871   6.089
 2211SOL    HW1 7532   6.423   0.862   6.014
 2211SOL    HW2 7533   6.273   0.911   6.056
 2212SOL     OW 7534   2.510   6.783   6.247
 2212SOL    HW1 7535   2.417   6.818   6.258
 2212SOL    HW2 7536   2.529   6.717   6.320
 2213SOL     OW 7537   4.761   0.816   3.398
 2213SOL    HW1 7538   4.723   0.805   3.490
 2213SOL    HW2 7539   4.823   0.741   3.378
 2214SOL     OW 7540   3.718   0.346   4.521
 2214SOL    HW1 7541   3.783   0.287   4.567
 2214SOL    HW2 7542   3.625   0.311   4.534
 2215SOL     OW 7543   5.979   2.013   5.711
 2215SOL    HW1 7544   5.926   1.944   5.662
 2215SOL    HW2 7545   5.921   2.093   5.730
 2216SOL     OW 7546   2.944   1.721   2.207
 2216SOL    HW1 7547   2.864   1.661   2.214
 2216SOL    HW2 7548   3.026   1.666   2.190
 2217SOL     OW 7549   2.895   6.811   1.187
 2217SOL    HW1 7550   2.983   6.769   1.166
 2217SOL    HW2 7551   2.821   6.748   1.164
 2218SOL     OW 7552   6.772   0.876   2.322
 2218SOL    HW1 7553   6.727   0.865   2.233
 2218SOL    HW2 7554   6.863   0.835   2.318
 2219SOL     OW 7555   2.588   1.856   2.732
 2219SOL    HW1 7556   2.500   1.893   2.703
 2219SOL    HW2 7557   2.660   1.925   2.718
 2220SOL     OW 7558   1.560   6.838   3.023
 2220SOL    HW1 7559   1.541   6.929   2.985
 2220SOL    HW2 7560   1.644   6.841   3.077
 2221SOL     OW 7561   0.362   6.363   5.112
 2221SOL    HW1 7562   0.390   6.307   5.190
 2221SOL    HW2 7563   0.262   6.363   5.106
 2222SOL     OW 7564   5.994   5.156   4.244
 2222SOL    HW1 7565   6.067   5.220   4.222
 2222SOL    HW2 7566   6.009   5.119   4.336
 2223SOL     OW 7567   0.006   6.491   2.400
 2223SOL    HW1 7568   6.956   6.545   2.440
 2223SOL    HW2 7569   0.021   6.520   2.305
 2224SOL     OW 7570   1.190   5.698   1.143
 2224SOL    HW1 7571   1.188   5.794   1.168
 2224SOL    HW2 7572   1.236   5.687   1.055
 2225SOL     OW 7573   0.611   4.196   0.035
 2225SOL    HW1 7574   0.549   4.261   7.014
 2225SOL    HW2 7575   0.558   4.127   0.083
 2226SOL     OW 7576   3.761   3.728   2.837
 2226SOL    HW1 7577   3.715   3.816   2.839
 2226SOL    HW2 7578   3.816   3.721   2.753
 2227SOL     OW 7579   1.245   1.592   5.086
 2227SOL    HW1 7580   1.241   1.551   4.995
 2227SOL    HW2 7581   1.338   1.622   5.105
 2228SOL     OW 7582   2.082   4.471   4.426
 2228SOL    HW1 7583   2.007   4.414   4.392
 2228SOL    HW2 7584   2.164   4.415   4.437
 2229SOL     OW 7585   5.735   5.808   2.880
 2229SOL    HW1 7586   5.783   5.893   2.905
 2229SOL    HW2 7587   5.719   5.754   2.963
 2230SOL     OW 7588   1.907   5.617   2.931
 2230SOL    HW1 7589   1.901   5.524   2.967
 2230SOL    HW2 7590   1.963   5.617   2.848
 2231SOL     OW 7591   2.015   5.958   1.140
 2231SOL    HW1 7592   2.080   6.032   1.155
 2231SOL    HW2 7593   1.924   5.996   1.126
 2232SOL     OW 7594   5.965   1.966   3.896
 2232SOL    HW1 7595   5.945   1.982   3.993
 2232SOL    HW2 7596   5.984   1.869   3.881
 2233SOL     OW 7597   3.855   1.233   0.479
 2233SOL    HW1 7598   3.918   1.188   0.542
 2233SOL    HW2 7599   3.860   1.332   0.491
 2234SOL     OW 7600   4.761   2.310   1.036
 2234SOL    HW1 7601   4.704   2.258   1.100
 2234SOL    HW2 7602   4.732   2.290   0.943
 2235SOL     OW 7603   2.050   2.372   2.325
 2235SOL    HW1 7604   2.115   2.400   2.395
 2235SOL    HW2 7605   1.957   2.375   2.362
 2236SOL     OW 7606   0.620   3.819   5.407
 2236SOL    HW1 7607   0.693   3.776   5.461
 2236SOL    HW2 7608   0.596   3.906   5.448
 2237SOL     OW 7609   6.341   3.045   3.442
 2237SOL    HW1 7610   6.273   3.084   3.504
 2237SOL    HW2 7611   6.298   2.975   3.385
 2238SOL     OW 7612   5.509   6.011   6.564
 2238SOL    HW1 7613   5.465   5.944   6.625
 2238SOL    HW2 7614   5.480   6.103   6.589
 2239SOL     OW 7615   0.537   5.480   1.398
 2239SOL    HW1 7616   0.622   5.443   1.434
 2239SOL    HW2 7617   0.474   5.499   1.473
 2240SOL     OW 7618   6.438   3.683   1.260
 2240SOL    HW1 7619   6.490   3.769   1.254
 2240SOL    HW2 7620   6.340   3.704   1.255
 2241SOL     OW 7621   0.713   0.112   3.877
 2241SOL    HW1 7622   0.779   0.092   3.950
 2241SOL    HW2 7623   0.646   0.038   3.873
 2242SOL     OW 7624   2.129   1.627   3.037
 2242SOL    HW1 7625   2.201   1.596   3.099
 2242SOL    HW2 7626   2.129   1.727   3.032
 2243SOL     OW 7627   1.593   0.026   4.564
 2243SOL    HW1 7628   1.613   6.963   4.518
 2243SOL    HW2 7629   1.527   0.011   4.637
 2244SOL     OW 7630   3.630   0.513   5.171
 2244SOL    HW1 7631   3.531   0.508   5.182
 2244SOL    HW2 7632   3.672   0.545   5.256
 2245SOL     OW 7633   0.822   2.594   2.462
 2245SOL    HW1 7634   0.882   2.661   2.418
 2245SOL    HW2 7635   0.805   2.519   2.398
 2246SOL     OW 7636   0.738   4.145   5.120
 2246SOL    HW1 7637   0.796   4.070   5.151
 2246SOL    HW2 7638   0.786   4.198   5.050
 2247SOL     OW 7639   2.047   1.861   4.380
 2247SOL    HW1 7640   2.135   1.881   4.424
 2247SOL    HW2 7641   2.014   1.942   4.332
 2248SOL     OW 7642   5.450   3.729   5.928
 2248SOL    HW1 7643   5.444   3.808   5.867
 2248SOL    HW2 7644   5.360   3.686   5.937
 2249SOL     OW 7645   5.638   5.529   4.913
 2249SOL    HW1 7646   5.584   5.523   4.997
 2249SOL    HW2 7647   5.713   5.463   4.916
 2250SOL     OW 7648   4.499   4.505   1.798
 2250SOL    HW1 7649   4.524   4.409   1.813
 2250SOL    HW2 7650   4.423   4.530   1.858
 2251SOL     OW 7651   0.643   1.037   5.299
 2251SOL    HW1 7652   0.687   0.976   5.365
 2251SOL    HW2 7653   0.698   1.120   5.288
 2252SOL     OW 7654   3.467   0.973   6.449
 2252SOL    HW1 7655   3.401   1.015   6.387
 2252SOL    HW2 7656   3.430   0.886   6.484
 2253SOL     OW 7657   0.496   3.861   0.430
 2253SOL    HW1 7658   0.397   3.848   0.425
 2253SOL    HW2 7659   0.515   3.946   0.479
 2254SOL     OW 7660   1.314   4.254   6.505
 2254SOL    HW1 7661   1.282   4.221   6.594
 2254SOL    HW2 7662   1.408   4.285   6.512
 2255SOL     OW 7663   6.466   3.424   6.586
 2255SOL    HW1 7664   6.462   3.486   6.507
 2255SOL    HW2 7665   6.521   3.466   6.658
 2256SOL     OW 7666   3.217   5.440   2.373
 2256SOL    HW1 7667   3.311   5.461   2.402
 2256SOL    HW2 7668   3.192   5.500   2.297
 2257SOL     OW 7669   1.418   4.618   5.419
 2257SOL    HW1 7670   1.320   4.622   5.440
 2257SOL    HW2 7671   1.449   4.523   5.426
 2258SOL     OW 7672   2.093   6.434   6.135
 2258SOL    HW1 7673   2.146   6.356   6.103
 2258SOL    HW2 7674   2.104   6.511   6.073
 2259SOL     OW 7675   6.000   1.594   6.197
 2259SOL    HW1 7676   5.904   1.597   6.169
 2259SOL    HW2 7677   6.011   1.526   6.269
 2260SOL     OW 7678   4.118   3.348   0.802
 2260SOL    HW1 7679   4.157   3.385   0.718
 2260SOL    HW2 7680   4.179   3.278   0.839
 2261SOL     OW 7681   2.657   6.774   4.869
 2261SOL    HW1 7682   2.672   6.868   4.840
 2261SOL    HW2 7683   2.716   6.712   4.817
 2262SOL     OW 7684   2.760   1.741   3.333
 2262SOL    HW1 7685   2.814   1.813   3.377
 2262SOL    HW2 7686   2.742   1.766   3.238
 2263SOL     OW 7687   0.933   4.421   5.598
 2263SOL    HW1 7688   1.012   4.391   5.544
 2263SOL    HW2 7689   0.884   4.493   5.550
 2264SOL     OW 7690   3.545   3.572   3.728
 2264SOL    HW1 7691   3.634   3.606   3.756
 2264SOL    HW2 7692   3.480   3.648   3.723
 2265SOL     OW 7693   0.884   5.810   4.315
 2265SOL    HW1 7694   0.906   5.891   4.369
 2265SOL    HW2 7695   0.786   5.806   4.299
 2266SOL     OW 7696   6.785   0.708   5.439
 2266SOL    HW1 7697   6.830   0.783   5.389
 2266SOL    HW2 7698   6.692   0.697   5.405
 2267SOL     OW 7699   6.091   1.879   5.219
 2267SOL    HW1 7700   6.020   1.810   5.228
 2267SOL    HW2 7701   6.139   1.868   5.131
 2268SOL     OW 7702   0.370   6.325   0.375
 2268SOL    HW1 7703   0.411   6.415   0.391
 2268SOL    HW2 7704   0.395   6.292   0.284
 2269SOL     OW 7705   6.663   6.511   2.650
 2269SOL    HW1 7706   6.584   6.465   2.609
 2269SOL    HW2 7707   6.633   6.563   2.730
 2270SOL     OW 7708   3.147   3.029   3.443
 2270SOL    HW1 7709   3.148   3.038   3.344
 2270SOL    HW2 7710   3.240   3.012   3.476
 2271SOL     OW 7711   2.006   4.393   2.912
 2271SOL    HW1 7712   2.056   4.366   2.995
 2271SOL    HW2 7713   1.940   4.322   2.888
 2272SOL     OW 7714   5.015   0.595   5.676
 2272SOL    HW1 7715   5.059   0.530   5.737
 2272SOL    HW2 7716   4.986   0.676   5.728
 2273SOL     OW 7717   0.463   1.398   2.094
 2273SOL    HW1 7718   0.545   1.449   2.068
 2273SOL    HW2 7719   0.489   1.319   2.149
 2274SOL     OW 7720   0.288   4.686   3.375
 2274SOL    HW1 7721   0.338   4.750   3.317
 2274SOL    HW2 7722   0.195   4.675   3.339
 2275SOL     OW 7723   4.595   6.749   3.412
 2275SOL    HW1 7724   4.695   6.748   3.402
 2275SOL    HW2 7725   4.566   6.669   3.464
 2276SOL     OW 7726   3.522   6.294   2.673
 2276SOL    HW1 7727   3.485   6.372   2.622
 2276SOL    HW2 7728   3.602   6.323   2.725
 2277SOL     OW 7729   3.288   3.150   2.364
 2277SOL    HW1 7730   3.335   3.231   2.329
 2277SOL    HW2 7731   3.231   3.111   2.292
 2278SOL     OW 7732   4.069   4.895   1.321
 2278SOL    HW1 7733   4.041   4.881   1.226
 2278SOL    HW2 7734   4.120   4.981   1.329
 2279SOL     OW 7735   5.667   3.663   5.323
 2279SOL    HW1 7736   5.696   3.649   5.417
 2279SOL    HW2 7737   5.732   3.724   5.277
 2280SOL     OW 7738   5.878   0.497   5.620
 2280SOL    HW1 7739   5.943   0.534   5.686
 2280SOL    HW2 7740   5.829   0.420   5.661
 2281SOL     OW 7741   2.396   0.548   0.808
 2281SOL    HW1 7742   2.330   0.480   0.838
 2281SOL    HW2 7743   2.390   0.558   0.708
 2282SOL     OW 7744   3.593   0.069   2.669
 2282SOL    HW1 7745   3.495   0.071   2.688
 2282SOL    HW2 7746   3.609   0.083   2.571
 2283SOL     OW 7747   0.470   3.140   1.454
 2283SOL    HW1 7748   0.396   3.097   1.507
 2283SOL    HW2 7749   0.431   3.189   1.376
 2284SOL     OW 7750   2.305   3.221   0.929
 2284SOL    HW1 7751   2.342   3.165   0.855
 2284SOL    HW2 7752   2.339   3.186   1.017
 2285SOL     OW 7753   2.056   2.583   6.950
 2285SOL    HW1 7754   2.014   2.497   6.979
 2285SOL    HW2 7755   2.150   2.565   6.920
 2286SOL     OW 7756   6.363   6.326   3.769
 2286SOL    HW1 7757   6.297   6.278   3.827
 2286SOL    HW2 7758   6.428   6.260   3.732
 2287SOL     OW 7759   2.780   1.665   0.562
 2287SOL    HW1 7760   2.696   1.637   0.609
 2287SOL    HW2 7761   2.810   1.593   0.501
 2288SOL     OW 7762   2.631   5.888   4.343
 2288SOL    HW1 7763   2.594   5.814   4.399
 2288SOL    HW2 7764   2.690   5.946   4.399
 2289SOL     OW 7765   3.582   6.691   6.325
 2289SOL    HW1 7766   3.673   6.650   6.325
 2289SOL    HW2 7767   3.591   6.791   6.324
 2290SOL     OW 7768   2.759   3.516   5.243
 2290SOL    HW1 7769   2.677   3.574   5.237
 2290SOL    HW2 7770   2.834   3.559   5.194
 2291SOL     OW 7771   3.393   2.015   0.451
 2291SOL    HW1 7772   3.456   1.946   0.486
 2291SOL    HW2 7773   3.301   1.975   0.442
 2292SOL     OW 7774   5.406   2.309   2.816
 2292SOL    HW1 7775   5.362   2.223   2.790
 2292SOL    HW2 7776   5.457   2.345   2.737
 2293SOL     OW 7777   0.543   0.787   0.317
 2293SOL    HW1 7778   0.641   0.805   0.304
 2293SOL    HW2 7779   0.530   0.694   0.350
 2294SOL     OW 7780   6.443   2.829   5.463
 2294SOL    HW1 7781   6.459   2.741   5.418
 2294SOL    HW2 7782   6.447   2.816   5.562
 2295SOL     OW 7783   5.573   5.598   0.439
 2295SOL    HW1 7784   5.589   5.579   0.536
 2295SOL    HW2 7785   5.612   5.524   0.385
 2296SOL     OW 7786   3.844   5.685   3.994
 2296SOL    HW1 7787   3.887   5.748   4.059
 2296SOL    HW2 7788   3.914   5.646   3.934
 2297SOL     OW 7789   6.593   2.858   6.776
 2297SOL    HW1 7790   6.587   2.792   6.851
 2297SOL    HW2 7791   6.596   2.809   6.689
 2298SOL     OW 7792   2.449   3.984   5.397
 2298SOL    HW1 7793   2.396   4.048   5.343
 2298SOL    HW2 7794   2.391   3.908   5.427
 2299SOL     OW 7795   5.950   3.841   4.722
 2299SOL    HW1 7796   5.884   3.914   4.737
 2299SOL    HW2 7797   5.909   3.753   4.747
 2300SOL     OW 7798   4.188   0.307   3.226
 2300SOL    HW1 7799   4.276   0.320   3.180
 2300SOL    HW2 7800   4.114   0.312   3.159
 2301SOL     OW 7801   4.258   3.122   5.533
 2301SOL    HW1 7802   4.313   3.149   5.454
 2301SOL    HW2 7803   4.200   3.198   5.561
 2302SOL     OW 7804   0.182   3.101   5.253
 2302SOL    HW1 7805   0.104   3.061   5.206
 2302SOL    HW2 7806   0.201   3.048   5.336
 2303SOL     OW 7807   2.878   1.714   6.300
 2303SOL    HW1 7808   2.970   1.700   6.337
 2303SOL    HW2 7809   2.811   1.665   6.356
 2304SOL     OW 7810   4.405   6.441   2.797
 2304SOL    HW1 7811   4.400   6.342   2.810
 2304SOL    HW2 7812   4.317   6.482   2.821
 2305SOL     OW 7813   2.736   6.113   4.780
 2305SOL    HW1 7814   2.800   6.187   4.759
 2305SOL    HW2 7815   2.760   6.073   4.868
 2306SOL     OW 7816   1.172   4.601   5.459
 2306SOL    HW1 7817   1.134   4.692   5.473
 2306SOL    HW2 7818   1.117   4.551   5.394
 2307SOL     OW 7819   5.880   4.038   5.046
 2307SOL    HW1 7820   5.804   4.068   5.104
 2307SOL    HW2 7821   5.852   4.045   4.950
 2308SOL     OW 7822   1.051   6.220   2.376
 2308SOL    HW1 7823   1.123   6.251   2.437
 2308SOL    HW2 7824   1.065   6.258   2.285
 2309SOL     OW 7825   1.863   1.065   4.597
 2309SOL    HW1 7826   1.883   1.163   4.586
 2309SOL    HW2 7827   1.848   1.045   4.694
 2310SOL     OW 7828   5.393   6.102   0.319
 2310SOL    HW1 7829   5.450   6.068   0.393
 2310SOL    HW2 7830   5.412   6.199   0.304
 2311SOL     OW 7831   2.588   6.041   0.584
 2311SOL    HW1 7832   2.569   5.960   0.638
 2311SOL    HW2 7833   2.644   6.105   0.637
 2312SOL     OW 7834   2.579   4.778   2.713
 2312SOL    HW1 7835   2.600   4.699   2.655
 2312SOL    HW2 7836   2.634   4.856   2.684
 2313SOL     OW 7837   4.765   5.027   1.247
 2313SOL    HW1 7838   4.783   4.935   1.213
 2313SOL    HW2 7839   4.690   5.024   1.313
 2314SOL     OW 7840   2.478   4.634   2.937
 2314SOL    HW1 7841   2.456   4.537   2.945
 2314SOL    HW2 7842   2.489   4.658   2.841
 2315SOL     OW 7843   4.182   1.740   6.528
 2315SOL    HW1 7844   4.144   1.787   6.449
 2315SOL    HW2 7845   4.136   1.771   6.611
 2316SOL     OW 7846   5.172   3.820   1.403
 2316SOL    HW1 7847   5.096   3.836   1.339
 2316SOL    HW2 7848   5.166   3.727   1.438
 2317SOL     OW 7849   0.402   6.676   3.381
 2317SOL    HW1 7850   0.414   6.738   3.459
 2317SOL    HW2 7851   0.307   6.645   3.377
 2318SOL     OW 7852   6.905   1.477   3.455
 2318SOL    HW1 7853   6.962   1.466   3.536
 2318SOL    HW2 7854   6.879   1.387   3.420
 2319SOL     OW 7855   1.361   5.186   2.664
 2319SOL    HW1 7856   1.268   5.184   2.698
 2319SOL    HW2 7857   1.400   5.277   2.679
 2320SOL     OW 7858   6.622   4.771   3.731
 2320SOL    HW1 7859   6.535   4.739   3.694
 2320SOL    HW2 7860   6.692   4.700   3.717
 2321SOL     OW 7861   3.322   4.930   3.811
 2321SOL    HW1 7862   3.337   4.919   3.909
 2321SOL    HW2 7863   3.232   4.895   3.786
 2322SOL     OW 7864   2.323   1.439   4.683
 2322SOL    HW1 7865   2.407   1.405   4.726
 2322SOL    HW2 7866   2.340   1.528   4.642
 2323SOL     OW 7867   5.210   3.349   1.696
 2323SOL    HW1 7868   5.122   3.394   1.715
 2323SOL    HW2 7869   5.193   3.254   1.668
 2324SOL     OW 7870   6.830   5.271   4.399
 2324SOL    HW1 7871   6.910   5.219   4.428
 2324SOL    HW2 7872   6.799   5.329   4.475
 2325SOL     OW 7873   6.117   1.822   0.731
 2325SOL    HW1 7874   6.099   1.781   0.820
 2325SOL    HW2 7875   6.084   1.762   0.659
 2326SOL     OW 7876   0.807   5.340   0.452
 2326SOL    HW1 7877   0.821   5.404   0.527
 2326SOL    HW2 7878   0.775   5.253   0.488
 2327SOL     OW 7879   4.607   1.447   3.412
 2327SOL    HW1 7880   4.655   1.529   3.383
 2327SOL    HW2 7881   4.674   1.378   3.441
 2328SOL     OW 7882   6.332   4.898   4.046
 2328SOL    HW1 7883   6.419   4.898   3.997
 2328SOL    HW2 7884   6.257   4.911   3.982
 2329SOL     OW 7885   1.253   6.308   3.276
 2329SOL    HW1 7886   1.286   6.293   3.183
 2329SOL    HW2 7887   1.322   6.278   3.342
 2330SOL     OW 7888   1.231   4.427   0.374
 2330SOL    HW1 7889   1.257   4.460   0.465
 2330SOL    HW2 7890   1.184   4.340   0.382
 2331SOL     OW 7891   1.890   4.984   4.741
 2331SOL    HW1 7892   1.870   5.028   4.828
 2331SOL    HW2 7893   1.920   5.053   4.675
 2332SOL     OW 7894   6.813   3.376   5.959
 2332SOL    HW1 7895   6.800   3.327   6.045
 2332SOL    HW2 7896   6.729   3.372   5.905
 2333SOL     OW 7897   2.654   4.587   4.172
 2333SOL    HW1 7898   2.703   4.517   4.225
 2333SOL    HW2 7899   2.561   4.556   4.155
 2334SOL     OW 7900   2.758   6.988   5.568
 2334SOL    HW1 7901   2.742   6.893   5.597
 2334SOL    HW2 7902   2.671   0.007   5.546
 2335SOL     OW 7903   4.632   4.731   4.418
 2335SOL    HW1 7904   4.721   4.709   4.457
 2335SOL    HW2 7905   4.578   4.782   4.485
 2336SOL     OW 7906   4.692   1.332   5.733
 2336SOL    HW1 7907   4.736   1.407   5.781
 2336SOL    HW2 7908   4.595   1.353   5.718
 2337SOL     OW 7909   5.314   0.615   5.170
 2337SOL    HW1 7910   5.260   0.664   5.238
 2337SOL    HW2 7911   5.335   0.523   5.204
 2338SOL     OW 7912   1.450   0.009   6.942
 2338SOL    HW1 7913   1.405   0.087   6.899
 2338SOL    HW2 7914   1.448   0.019   0.017
 2339SOL     OW 7915   3.642   4.712   6.554
 2339SOL    HW1 7916   3.588   4.727   6.471
 2339SOL    HW2 7917   3.733   4.678   6.528
 2340SOL     OW 7918   4.362   5.204   3.954
 2340SOL    HW1 7919   4.419   5.146   3.896
 2340SOL    HW2 7920   4.271   5.163   3.962
 2341SOL     OW 7921   0.389   4.317   6.247
 2341SOL    HW1 7922   0.387   4.237   6.308
 2341SOL    HW2 7923   0.299   4.361   6.246
 2342SOL     OW 7924   6.181   1.067   5.868
 2342SOL    HW1 7925   6.224   1.157   5.874
 2342SOL    HW2 7926   6.084   1.074   5.894
 2343SOL     OW 7927   1.561   5.657   1.538
 2343SOL    HW1 7928   1.526   5.572   1.499
 2343SOL    HW2 7929   1.654   5.642   1.571
 2344SOL     OW 7930   2.244   0.761   2.529
 2344SOL    HW1 7931   2.278   0.854   2.513
 2344SOL    HW2 7932   2.182   0.735   2.455
 2345SOL     OW 7933   1.110   2.349   2.272
 2345SOL    HW1 7934   1.123   2.307   2.362
 2345SOL    HW2 7935   1.172   2.427   2.262
 2346SOL     OW 7936   4.923   3.216   4.679
 2346SOL    HW1 7937   4.950   3.275   4.603
 2346SOL    HW2 7938   4.903   3.272   4.760
 2347SOL     OW 7939   1.280   4.092   0.660
 2347SOL    HW1 7940   1.371   4.129   0.683
 2347SOL    HW2 7941   1.248   4.034   0.735
 2348SOL     OW 7942   2.670   0.427   1.266
 2348SOL    HW1 7943   2.739   0.357   1.248
 2348SOL    HW2 7944   2.634   0.416   1.359
 2349SOL     OW 7945   5.351   3.041   6.710
 2349SOL    HW1 7946   5.406   3.012   6.789
 2349SOL    HW2 7947   5.255   3.047   6.737
 2350SOL     OW 7948   1.999   6.124   5.523
 2350SOL    HW1 7949   2.015   6.025   5.518
 2350SOL    HW2 7950   1.942   6.153   5.446
 2351SOL     OW 7951   1.755   4.998   3.342
 2351SOL    HW1 7952   1.734   5.055   3.421
 2351SOL    HW2 7953   1.693   5.020   3.267
 2352SOL     OW 7954   6.030   6.110   6.605
 2352SOL    HW1 7955   5.951   6.137   6.551
 2352SOL    HW2 7956   6.096   6.063   6.546
 2353SOL     OW 7957   3.216   2.461   5.850
 2353SOL    HW1 7958   3.186   2.462   5.755
 2353SOL    HW2 7959   3.150   2.511   5.906
 2354SOL     OW 7960   3.623   1.609   2.456
 2354SOL    HW1 7961   3.553   1.539   2.468
 2354SOL    HW2 7962   3.612   1.651   2.366
 2355SOL     OW 7963   0.061   1.574   2.261
 2355SOL    HW1 7964   0.072   1.475   2.265
 2355SOL    HW2 7965   0.009   1.599   2.179
 2356SOL     OW 7966   3.960   5.169   4.425
 2356SOL    HW1 7967   3.977   5.093   4.487
 2356SOL    HW2 7968   4.016   5.158   4.343
 2357SOL     OW 7969   1.413   5.330   1.559
 2357SOL    HW1 7970   1.408   5.397   1.485
 2357SOL    HW2 7971   1.442   5.375   1.643
 2358SOL     OW 7972   2.190   0.435   5.385
 2358SOL    HW1 7973   2.256   0.361   5.397
 2358SOL    HW2 7974   2.193   0.468   5.291
 2359SOL     OW 7975   2.720   2.500   5.891
 2359SOL    HW1 7976   2.647   2.548   5.842
 2359SOL    HW2 7977   2.806   2.513   5.842
 2360SOL     OW 7978   3.380   4.894   0.899
 2360SOL    HW1 7979   3.287   4.924   0.881
 2360SOL    HW2 7980   3.441   4.932   0.829
 2361SOL     OW 7981   3.719   4.960   1.295
 2361SOL    HW1 7982   3.780   4.883   1.278
 2361SOL    HW2 7983   3.625   4.935   1.271
 2362SOL     OW 7984   2.878   4.815   4.631
 2362SOL    HW1 7985   2.845   4.749   4.699
 2362SOL    HW2 7986   2.818   4.812   4.550
 2363SOL     OW 7987   2.235   4.029   1.193
 2363SOL    HW1 7988   2.307   3.976   1.239
 2363SOL    HW2 7989   2.165   3.967   1.158
 2364SOL     OW 7990   5.099   1.140   2.319
 2364SOL    HW1 7991   5.145   1.207   2.260
 2364SOL    HW2 7992   5.045   1.187   2.388
 2365SOL     OW 7993   5.566   4.555   3.226
 2365SOL    HW1 7994   5.543   4.518   3.316
 2365SOL    HW2 7995   5.651   4.607   3.232
 2366SOL     OW 7996   3.367   4.877   5.006
 2366SOL    HW1 7997   3.431   4.824   5.062
 2366SOL    HW2 7998   3.283   4.826   4.993
 2367SOL     OW 7999   6.305   4.891   5.487
 2367SOL    HW1 8000   6.377   4.899   5.555
 2367SOL    HW2 8001   6.304   4.798   5.450
 2368SOL     OW 8002   4.961   0.088   5.101
 2368SOL    HW1 8003   5.003   0.105   5.012
 2368SOL    HW2 8004   4.907   0.167   5.127
 2369SOL     OW 8005   4.346   1.774   4.267
 2369SOL    HW1 8006   4.325   1.865   4.233
 2369SOL    HW2 8007   4.354   1.710   4.190
 2370SOL     OW 8008   3.876   2.307   1.323
 2370SOL    HW1 8009   3.785   2.325   1.361
 2370SOL    HW2 8010   3.871   2.303   1.224
 2371SOL     OW 8011   2.402   6.751   2.530
 2371SOL    HW1 8012   2.322   6.691   2.527
 2371SOL    HW2 8013   2.468   6.714   2.595
 2372SOL     OW 8014   6.542   6.800   5.701
 2372SOL    HW1 8015   6.471   6.799   5.772
 2372SOL    HW2 8016   6.515   6.738   5.627
 2373SOL     OW 8017   6.226   4.100   6.014
 2373SOL    HW1 8018   6.298   4.089   6.083
 2373SOL    HW2 8019   6.247   4.043   5.935
 2374SOL     OW 8020   6.738   6.022   2.497
 2374SOL    HW1 8021   6.763   5.984   2.408
 2374SOL    HW2 8022   6.742   6.122   2.494
 2375SOL     OW 8023   1.714   0.248   4.624
 2375SOL    HW1 8024   1.773   0.279   4.549
 2375SOL    HW2 8025   1.667   0.164   4.597
 2376SOL     OW 8026   5.597   3.176   4.070
 2376SOL    HW1 8027   5.630   3.150   3.979
 2376SOL    HW2 8028   5.587   3.275   4.075
 2377SOL     OW 8029   3.358   4.215   5.698
 2377SOL    HW1 8030   3.265   4.250   5.710
 2377SOL    HW2 8031   3.365   4.124   5.740
 2378SOL     OW 8032   1.153   1.177   0.889
 2378SOL    HW1 8033   1.114   1.157   0.979
 2378SOL    HW2 8034   1.159   1.276   0.876
 2379SOL     OW 8035   0.806   4.810   2.529
 2379SOL    HW1 8036   0.834   4.776   2.439
 2379SOL    HW2 8037   0.887   4.840   2.580
 2380SOL     OW 8038   4.574   5.419   6.773
 2380SOL    HW1 8039   4.514   5.446   6.848
 2380SOL    HW2 8040   4.530   5.441   6.686
 2381SOL     OW 8041   2.017   4.053   3.542
 2381SOL    HW1 8042   2.071   4.059   3.626
 2381SOL    HW2 8043   1.970   3.964   3.538
 2382SOL     OW 8044   6.215   6.524   2.587
 2382SOL    HW1 8045   6.145   6.505   2.519
 2382SOL    HW2 8046   6.217   6.622   2.607
 2383SOL     OW 8047   5.219   4.380   6.107
 2383SOL    HW1 8048   5.155   4.405   6.180
 2383SOL    HW2 8049   5.176   4.311   6.048
 2384SOL     OW 8050   0.725   2.202   3.230
 2384SOL    HW1 8051   0.726   2.241   3.138
 2384SOL    HW2 8052   0.816   2.166   3.252
 2385SOL     OW 8053   0.598   1.210   0.848
 2385SOL    HW1 8054   0.574   1.250   0.759
 2385SOL    HW2 8055   0.610   1.283   0.915
 2386SOL     OW 8056   6.802   4.989   5.834
 2386SOL    HW1 8057   6.740   5.067   5.836
 2386SOL    HW2 8058   6.844   4.977   5.924
 2387SOL     OW 8059   0.100   0.626   3.435
 2387SOL    HW1 8060   0.112   0.580   3.347
 2387SOL    HW2 8061   0.182   0.612   3.491
 2388SOL     OW 8062   1.600   3.604   4.534
 2388SOL    HW1 8063   1.676   3.633   4.476
 2388SOL    HW2 8064   1.592   3.665   4.613
 2389SOL     OW 8065   3.416   6.887   2.886
 2389SOL    HW1 8066   3.465   6.827   2.823
 2389SOL    HW2 8067   3.389   6.836   2.967
 2390SOL     OW 8068   5.156   2.901   5.614
 2390SOL    HW1 8069   5.183   2.807   5.633
 2390SOL    HW2 8070   5.057   2.904   5.597
 2391SOL     OW 8071   2.837   3.959   6.172
 2391SOL    HW1 8072   2.779   4.039   6.159
 2391SOL    HW2 8073   2.894   3.972   6.254
 2392SOL     OW 8074   4.276   5.140   5.710
 2392SOL    HW1 8075   4.255   5.063   5.650
 2392SOL    HW2 8076   4.374   5.161   5.704
 2393SOL     OW 8077   4.370   4.092   0.416
 2393SOL    HW1 8078   4.439   4.116   0.483
 2393SOL    HW2 8079   4.357   3.993   0.414
 2394SOL     OW 8080   6.908   2.760   3.322
 2394SOL    HW1 8081   6.985   2.709   3.361
 2394SOL    HW2 8082   6.836   2.696   3.295
 2395SOL     OW 8083   1.460   2.480   3.787
 2395SOL    HW1 8084   1.412   2.411   3.841
 2395SOL    HW2 8085   1.404   2.506   3.709
 2396SOL     OW 8086   0.381   0.467   6.179
 2396SOL    HW1 8087   0.401   0.391   6.241
 2396SOL    HW2 8088   0.349   0.545   6.232
 2397SOL     OW 8089   2.271   4.873   6.041
 2397SOL    HW1 8090   2.295   4.964   6.074
 2397SOL    HW2 8091   2.321   4.854   5.957
 2398SOL     OW 8092   3.803   6.206   4.721
 2398SOL    HW1 8093   3.798   6.285   4.659
 2398SOL    HW2 8094   3.721   6.150   4.711
 2399SOL     OW 8095   3.149   1.530   2.209
 2399SOL    HW1 8096   3.110   1.441   2.185
 2399SOL    HW2 8097   3.237   1.540   2.163
 2400SOL     OW 8098   1.132   2.387   0.195
 2400SOL    HW1 8099   1.086   2.320   0.254
 2400SOL    HW2 8100   1.099   2.479   0.216
 2401SOL     OW 8101   1.541   6.303   0.942
 2401SOL    HW1 8102   1.541   6.403   0.942
 2401SOL    HW2 8103   1.629   6.269   0.909
 2402SOL     OW 8104   0.759   3.449   2.380
 2402SOL    HW1 8105   0.735   3.521   2.445
 2402SOL    HW2 8106   0.678   3.395   2.358
 2403SOL     OW 8107   3.082   4.337   5.332
 2403SOL    HW1 8108   3.033   4.407   5.280
 2403SOL    HW2 8109   3.072   4.248   5.288
 2404SOL     OW 8110   6.199   2.223   1.856
 2404SOL    HW1 8111   6.231   2.150   1.795
 2404SOL    HW2 8112   6.175   2.184   1.945
 2405SOL     OW 8113   1.863   2.799   0.244
 2405SOL    HW1 8114   1.910   2.741   0.311
 2405SOL    HW2 8115   1.818   2.875   0.290
 2406SOL     OW 8116   4.319   6.061   4.887
 2406SOL    HW1 8117   4.241   6.100   4.936
 2406SOL    HW2 8118   4.356   5.984   4.939
 2407SOL     OW 8119   2.177   1.793   3.617
 2407SOL    HW1 8120   2.093   1.836   3.584
 2407SOL    HW2 8121   2.169   1.694   3.607
 2408SOL     OW 8122   4.548   0.168   5.335
 2408SOL    HW1 8123   4.538   0.145   5.238
 2408SOL    HW2 8124   4.519   0.262   5.350
 2409SOL     OW 8125   0.999   2.938   6.661
 2409SOL    HW1 8126   1.029   2.848   6.629
 2409SOL    HW2 8127   1.023   3.007   6.594
 2410SOL     OW 8128   6.882   3.805   4.462
 2410SOL    HW1 8129   6.947   3.729   4.464
 2410SOL    HW2 8130   6.879   3.844   4.370
 2411SOL     OW 8131   3.288   1.304   0.182
 2411SOL    HW1 8132   3.385   1.328   0.193
 2411SOL    HW2 8133   3.248   1.288   0.272
 2412SOL     OW 8134   3.238   2.480   6.689
 2412SOL    HW1 8135   3.170   2.553   6.698
 2412SOL    HW2 8136   3.324   2.509   6.731
 2413SOL     OW 8137   6.685   3.991   6.471
 2413SOL    HW1 8138   6.784   3.984   6.463
 2413SOL    HW2 8139   6.654   4.078   6.435
 2414SOL     OW 8140   6.676   1.519   4.839
 2414SOL    HW1 8141   6.682   1.592   4.907
 2414SOL    HW2 8142   6.641   1.557   4.753
 2415SOL     OW 8143   2.804   4.045   5.663
 2415SOL    HW1 8144   2.780   4.008   5.753
 2415SOL    HW2 8145   2.776   4.141   5.658
 2416SOL     OW 8146   6.759   3.681   4.087
 2416SOL    HW1 8147   6.692   3.755   4.081
 2416SOL    HW2 8148   6.839   3.713   4.137
 2417SOL     OW 8149   3.498   2.565   1.743
 2417SOL    HW1 8150   3.523   2.646   1.798
 2417SOL    HW2 8151   3.566   2.493   1.758
 2418SOL     OW 8152   5.954   3.561   6.425
 2418SOL    HW1 8153   5.988   3.631   6.488
 2418SOL    HW2 8154   5.858   3.543   6.444
 2419SOL     OW 8155   3.420   1.016   2.789
 2419SOL    HW1 8156   3.332   1.004   2.744
 2419SOL    HW2 8157   3.487   1.051   2.724
 2420SOL     OW 8158   1.048   3.401   1.732
 2420SOL    HW1 8159   1.079   3.454   1.811
 2420SOL    HW2 8160   1.123   3.341   1.701
 2421SOL     OW 8161   2.527   0.300   2.797
 2421SOL    HW1 8162   2.510   0.380   2.855
 2421SOL    HW2 8163   2.621   0.301   2.765
 2422SOL     OW 8164   3.888   6.620   0.323
 2422SOL    HW1 8165   3.975   6.575   0.341
 2422SOL    HW2 8166   3.813   6.561   0.355
 2423SOL     OW 8167   3.859   4.980   4.814
 2423SOL    HW1 8168   3.898   4.979   4.906
 2423SOL    HW2 8169   3.760   4.987   4.819
 2424SOL     OW 8170   5.457   0.295   6.312
 2424SOL    HW1 8171   5.470   0.349   6.395
 2424SOL    HW2 8172   5.433   0.201   6.337
 2425SOL     OW 8173   4.145   5.594   5.219
 2425SOL    HW1 8174   4.168   5.643   5.303
 2425SOL    HW2 8175   4.166   5.497   5.231
 2426SOL     OW 8176   2.956   2.446   5.318
 2426SOL    HW1 8177   2.938   2.541   5.340
 2426SOL    HW2 8178   3.041   2.439   5.266
 2427SOL     OW 8179   4.261   2.162   6.965
 2427SOL    HW1 8180   4.286   2.099   0.015
 2427SOL    HW2 8181   4.184   2.218   6.994
 2428SOL     OW 8182   1.807   1.936   2.298
 2428SOL    HW1 8183   1.887   1.953   2.356
 2428SOL    HW2 8184   1.776   2.023   2.260
 2429SOL     OW 8185   5.120   6.025   1.325
 2429SOL    HW1 8186   5.068   5.970   1.390
 2429SOL    HW2 8187   5.064   6.103   1.296
 2430SOL     OW 8188   7.013   0.165   6.958
 2430SOL    HW1 8189   6.935   0.190   6.901
 2430SOL    HW2 8190   6.997   0.193   0.029
 2431SOL     OW 8191   1.728   2.854   1.524
 2431SOL    HW1 8192   1.752   2.791   1.451
 2431SOL    HW2 8193   1.712   2.803   1.609
 2432SOL     OW 8194   3.079   6.034   1.975
 2432SOL    HW1 8195   3.038   6.038   2.067
 2432SOL    HW2 8196   3.149   5.963   1.973
 2433SOL     OW 8197   0.228   4.548   4.330
 2433SOL    HW1 8198   0.254   4.580   4.421
 2433SOL    HW2 8199   0.227   4.448   4.328
 2434SOL     OW 8200   4.077   1.875   2.620
 2434SOL    HW1 8201   4.172   1.902   2.637
 2434SOL    HW2 8202   4.017   1.954   2.630
 2435SOL     OW 8203   5.803   6.931   6.813
 2435SOL    HW1 8204   5.781   7.008   6.872
 2435SOL    HW2 8205   5.902   6.915   6.813
 2436SOL     OW 8206   6.883   2.521   0.747
 2436SOL    HW1 8207   6.905   2.442   0.804
 2436SOL    HW2 8208   6.953   2.530   0.676
 2437SOL     OW 8209   1.026   4.412   1.579
 2437SOL    HW1 8210   0.932   4.380   1.563
 2437SOL    HW2 8211   1.088   4.365   1.516
 2438SOL     OW 8212   3.680   1.703   4.203
 2438SOL    HW1 8213   3.758   1.668   4.151
 2438SOL    HW2 8214   3.686   1.672   4.297
 2439SOL     OW 8215   0.172   5.680   0.232
 2439SOL    HW1 8216   0.158   5.589   0.194
 2439SOL    HW2 8217   0.186   5.745   0.158
 2440SOL     OW 8218   6.256   2.525   5.412
 2440SOL    HW1 8219   6.189   2.593   5.383
 2440SOL    HW2 8220   6.209   2.439   5.434
 2441SOL     OW 8221   6.452   0.629   0.204
 2441SOL    HW1 8222   6.547   0.597   0.211
 2441SOL    HW2 8223   6.448   0.707   0.142
 2442SOL     OW 8224   5.535   3.025   2.772
 2442SOL    HW1 8225   5.522   3.067   2.862
 2442SOL    HW2 8226   5.580   3.092   2.711
 2443SOL     OW 8227   7.015   2.734   1.427
 2443SOL    HW1 8228   6.987   2.640   1.445
 2443SOL    HW2 8229   0.089   2.737   1.407
 2444SOL     OW 8230   3.689   4.872   2.835
 2444SOL    HW1 8231   3.601   4.915   2.852
 2444SOL    HW2 8232   3.676   4.789   2.781
 2445SOL     OW 8233   0.723   2.020   1.129
 2445SOL    HW1 8234   0.717   1.970   1.215
 2445SOL    HW2 8235   0.817   2.016   1.094
 2446SOL     OW 8236   6.659   5.525   1.158
 2446SOL    HW1 8237   6.671   5.572   1.071
 2446SOL    HW2 8238   6.721   5.447   1.163
 2447SOL     OW 8239   1.718   6.567   0.348
 2447SOL    HW1 8240   1.621   6.544   0.347
 2447SOL    HW2 8241   1.739   6.623   0.268
 2448SOL     OW 8242   5.951   1.113   3.967
 2448SOL    HW1 8243   5.910   1.024   3.948
 2448SOL    HW2 8244   5.903   1.156   4.044
 2449SOL     OW 8245   2.189   4.277   1.324
 2449SOL    HW1 8246   2.278   4.321   1.321
 2449SOL    HW2 8247   2.200   4.178   1.314
 2450SOL     OW 8248   0.049   6.578   5.132
 2450SOL    HW1 8249   0.058   6.673   5.102
 2450SOL    HW2 8250   0.056   6.517   5.053
 2451SOL     OW 8251   1.469   6.989   0.208
 2451SOL    HW1 8252   1.478   6.894   0.180
 2451SOL    HW2 8253   1.480   6.995   0.307
 2452SOL     OW 8254   2.465   2.051   3.468
 2452SOL    HW1 8255   2.389   1.991   3.441
 2452SOL    HW2 8256   2.449   2.084   3.561
 2453SOL     OW 8257   1.619   1.890   6.477
 2453SOL    HW1 8258   1.666   1.956   6.536
 2453SOL    HW2 8259   1.639   1.911   6.381
 2454SOL     OW 8260   3.150   6.769   0.117
 2454SOL    HW1 8261   3.059   6.791   0.084
 2454SOL    HW2 8262   3.217   6.790   0.046
 2455SOL     OW 8263   4.569   2.324   7.000
 2455SOL    HW1 8264   4.580   2.397   0.043
 2455SOL    HW2 8265   4.526   2.245   0.020
 2456SOL     OW 8266   0.434   3.198   6.059
 2456SOL    HW1 8267   0.417   3.173   6.155
 2456SOL    HW2 8268   0.389   3.132   5.999
 2457SOL     OW 8269   5.035   1.217   6.069
 2457SOL    HW1 8270   5.072   1.286   6.007
 2457SOL    HW2 8271   4.968   1.160   6.020
 2458SOL     OW 8272   0.919   0.350   2.313
 2458SOL    HW1 8273   0.956   0.417   2.248
 2458SOL    HW2 8274   0.843   0.391   2.363
 2459SOL     OW 8275   1.813   6.576   1.633
 2459SOL    HW1 8276   1.880   6.571   1.707
 2459SOL    HW2 8277   1.771   6.486   1.621
 2460SOL     OW 8278   0.080   0.130   4.066
 2460SOL    HW1 8279   0.119   0.209   4.019
 2460SOL    HW2 8280   0.076   0.148   4.164
 2461SOL     OW 8281   2.667   1.230   3.261
 2461SOL    HW1 8282   2.638   1.138   3.234
 2461SOL    HW2 8283   2.627   1.252   3.350
 2462SOL     OW 8284   0.135   6.427   0.901
 2462SOL    HW1 8285   0.217   6.435   0.845
 2462SOL    HW2 8286   0.156   6.449   0.996
 2463SOL     OW 8287   0.142   6.835   0.958
 2463SOL    HW1 8288   0.051   6.801   0.931
 2463SOL    HW2 8289   0.135   6.932   0.981
 2464SOL     OW 8290   0.889   2.421   4.834
 2464SOL    HW1 8291   0.835   2.367   4.898
 2464SOL    HW2 8292   0.848   2.417   4.743
 2465SOL     OW 8293   6.606   1.466   6.964
 2465SOL    HW1 8294   6.615   1.521   0.023
 2465SOL    HW2 8295   6.565   1.521   6.891
 2466SOL     OW 8296   1.022   2.306   1.175
 2466SOL    HW1 8297   1.082   2.270   1.104
 2466SOL    HW2 8298   0.987   2.396   1.147
 2467SOL     OW 8299   5.140   2.289   5.385
 2467SOL    HW1 8300   5.109   2.208   5.436
 2467SOL    HW2 8301   5.062   2.350   5.369
 2468SOL     OW 8302   3.369   0.463   5.239
 2468SOL    HW1 8303   3.300   0.479   5.167
 2468SOL    HW2 8304   3.327   0.477   5.328
 2469SOL     OW 8305   2.885   2.152   6.092
 2469SOL    HW1 8306   2.981   2.159   6.063
 2469SOL    HW2 8307   2.857   2.056   6.089
 2470SOL     OW 8308   2.012   5.344   6.401
 2470SOL    HW1 8309   2.046   5.398   6.323
 2470SOL    HW2 8310   1.991   5.251   6.370
 2471SOL     OW 8311   3.409   5.664   3.104
 2471SOL    HW1 8312   3.355   5.685   3.022
 2471SOL    HW2 8313   3.365   5.589   3.154
 2472SOL     OW 8314   4.837   1.772   2.669
 2472SOL    HW1 8315   4.906   1.774   2.597
 2472SOL    HW2 8316   4.793   1.861   2.675
 2473SOL     OW 8317   0.534   4.331   4.562
 2473SOL    HW1 8318   0.556   4.263   4.492
 2473SOL    HW2 8319   0.460   4.297   4.619
 2474SOL     OW 8320   1.767   6.052   1.056
 2474SOL    HW1 8321   1.776   6.123   0.987
 2474SOL    HW2 8322   1.694   6.077   1.120
 2475SOL     OW 8323   5.846   2.315   1.073
 2475SOL    HW1 8324   5.767   2.316   1.012
 2475SOL    HW2 8325   5.928   2.337   1.021
 2476SOL     OW 8326   4.658   0.158   0.106
 2476SOL    HW1 8327   4.679   0.250   0.141
 2476SOL    HW2 8328   4.714   0.091   0.155
 2477SOL     OW 8329   3.959   1.177   3.425
 2477SOL    HW1 8330   4.050   1.199   3.391
 2477SOL    HW2 8331   3.947   1.215   3.517
 2478SOL     OW 8332   3.578   0.585   4.420
 2478SOL    HW1 8333   3.620   0.507   4.466
 2478SOL    HW2 8334   3.488   0.558   4.385
 2479SOL     OW 8335   5.365   4.024   1.415
 2479SOL    HW1 8336   5.309   3.944   1.392
 2479SOL    HW2 8337   5.307   4.097   1.449
 2480SOL     OW 8338   3.093   2.519   1.505
 2480SOL    HW1 8339   3.150   2.481   1.578
 2480SOL    HW2 8340   2.997   2.496   1.522
 2481SOL     OW 8341   2.889   0.238   1.886
 2481SOL    HW1 8342   2.946   0.218   1.807
 2481SOL    HW2 8343   2.910   0.174   1.960
 2482SOL     OW 8344   0.140   2.913   0.216
 2482SOL    HW1 8345   0.198   2.836   0.190
 2482SOL    HW2 8346   0.178   2.958   0.297
 2483SOL     OW 8347   2.701   1.946   1.421
 2483SOL    HW1 8348   2.637   2.007   1.468
 2483SOL    HW2 8349   2.653   1.895   1.350
 2484SOL     OW 8350   4.067   0.277   6.770
 2484SOL    HW1 8351   4.090   0.235   6.682
 2484SOL    HW2 8352   3.968   0.285   6.778
 2485SOL     OW 8353   0.381   1.563   6.196
 2485SOL    HW1 8354   0.335   1.530   6.278
 2485SOL    HW2 8355   0.450   1.631   6.222
 2486SOL     OW 8356   6.661   6.010   3.164
 2486SOL    HW1 8357   6.726   6.023   3.239
 2486SOL    HW2 8358   6.702   5.954   3.093
 2487SOL     OW 8359   4.850   6.181   0.155
 2487SOL    HW1 8360   4.780   6.121   0.194
 2487SOL    HW2 8361   4.880   6.246   0.225
 2488SOL     OW 8362   0.055   4.085   1.110
 2488SOL    HW1 8363   6.985   4.094   1.076
 2488SOL    HW2 8364   0.074   3.989   1.130
 2489SOL     OW 8365   6.065   5.038   4.486
 2489SOL    HW1 8366   6.076   5.112   4.553
 2489SOL    HW2 8367   6.152   4.991   4.474
 2490SOL     OW 8368   2.871   5.546   2.003
 2490SOL    HW1 8369   2.819   5.561   1.919
 2490SOL    HW2 8370   2.820   5.586   2.080
 2491SOL     OW 8371   3.833   4.608   1.702
 2491SOL    HW1 8372   3.874   4.522   1.732
 2491SOL    HW2 8373   3.875   4.636   1.615
 2492SOL     OW 8374   0.025   5.588   1.289
 2492SOL    HW1 8375   7.002   5.514   1.240
 2492SOL    HW2 8376   7.023   5.676   1.248
 2493SOL     OW 8377   5.798   6.326   0.363
 2493SOL    HW1 8378   5.768   6.396   0.298
 2493SOL    HW2 8379   5.760   6.346   0.453
 2494SOL     OW 8380   6.832   4.179   0.984
 2494SOL    HW1 8381   6.810   4.273   1.009
 2494SOL    HW2 8382   6.908   4.178   0.918
 2495SOL     OW 8383   0.142   3.215   2.032
 2495SOL    HW1 8384   0.054   3.251   2.062
 2495SOL    HW2 8385   0.135   3.115   2.021
 2496SOL     OW 8386   5.701   4.367   6.419
 2496SOL    HW1 8387   5.603   4.390   6.412
 2496SOL    HW2 8388   5.754   4.452   6.422
 2497SOL     OW 8389   0.439   6.951   2.933
 2497SOL    HW1 8390   0.495   6.931   2.853
 2497SOL    HW2 8391   0.427   6.868   2.988
 2498SOL     OW 8392   1.884   3.373   4.515
 2498SOL    HW1 8393   1.887   3.450   4.578
 2498SOL    HW2 8394   1.800   3.320   4.531
 2499SOL     OW 8395   5.990   3.688   2.314
 2499SOL    HW1 8396   6.037   3.686   2.226
 2499SOL    HW2 8397   5.906   3.634   2.307
 2500SOL     OW 8398   3.408   3.353   2.226
 2500SOL    HW1 8399   3.463   3.312   2.154
 2500SOL    HW2 8400   3.314   3.364   2.194
 2501SOL     OW 8401   5.980   5.726   5.595
 2501SOL    HW1 8402   6.075   5.707   5.620
 2501SOL    HW2 8403   5.957   5.676   5.512
 2502SOL     OW 8404   2.397   5.549   4.131
 2502SOL    HW1 8405   2.495   5.546   4.112
 2502SOL    HW2 8406   2.368   5.644   4.144
 2503SOL     OW 8407   2.348   0.011   5.144
 2503SOL    HW1 8408   2.444   7.013   5.125
 2503SOL    HW2 8409   2.311   0.067   5.070
 2504SOL     OW 8410   3.667   0.223   3.157
 2504SOL    HW1 8411   3.743   0.288   3.171
 2504SOL    HW2 8412   3.593   0.245   3.221
 2505SOL     OW 8413   5.984   4.341   3.841
 2505SOL    HW1 8414   5.900   4.383   3.875
 2505SOL    HW2 8415   6.019   4.276   3.909
 2506SOL     OW 8416   6.242   5.214   6.470
 2506SOL    HW1 8417   6.143   5.223   6.467
 2506SOL    HW2 8418   6.280   5.285   6.530
 2507SOL     OW 8419   6.390   3.256   3.193
 2507SOL    HW1 8420   6.395   3.159   3.217
 2507SOL    HW2 8421   6.354   3.266   3.100
 2508SOL     OW 8422   6.194   0.723   3.833
 2508SOL    HW1 8423   6.208   0.820   3.812
 2508SOL    HW2 8424   6.196   0.709   3.932
 2509SOL     OW 8425   6.903   2.957   6.302
 2509SOL    HW1 8426   6.889   2.893   6.226
 2509SOL    HW2 8427   6.961   3.033   6.272
 2510SOL     OW 8428   3.687   3.697   2.405
 2510SOL    HW1 8429   3.691   3.797   2.416
 2510SOL    HW2 8430   3.709   3.674   2.310
 2511SOL     OW 8431   1.776   0.895   4.402
 2511SOL    HW1 8432   1.803   0.957   4.329
 2511SOL    HW2 8433   1.807   0.930   4.490
 2512SOL     OW 8434   3.924   4.956   3.999
 2512SOL    HW1 8435   3.827   4.958   4.024
 2512SOL    HW2 8436   3.975   5.014   4.063
 2513SOL     OW 8437   1.817   5.905   6.718
 2513SOL    HW1 8438   1.849   6.000   6.719
 2513SOL    HW2 8439   1.790   5.880   6.625
 2514SOL     OW 8440   1.750   1.756   2.711
 2514SOL    HW1 8441   1.839   1.797   2.731
 2514SOL    HW2 8442   1.725   1.694   2.785
 2515SOL     OW 8443   0.121   1.963   1.023
 2515SOL    HW1 8444   0.129   1.897   1.099
 2515SOL    HW2 8445   0.131   2.056   1.059
 2516SOL     OW 8446   6.153   2.430   5.106
 2516SOL    HW1 8447   6.147   2.351   5.045
 2516SOL    HW2 8448   6.146   2.514   5.053
 2517SOL     OW 8449   0.704   1.351   3.976
 2517SOL    HW1 8450   0.652   1.272   3.944
 2517SOL    HW2 8451   0.673   1.433   3.928
 2518SOL     OW 8452   2.551   3.811   1.055
 2518SOL    HW1 8453   2.515   3.830   1.146
 2518SOL    HW2 8454   2.592   3.895   1.018
 2519SOL     OW 8455   0.861   1.391   0.991
 2519SOL    HW1 8456   0.914   1.375   1.074
 2519SOL    HW2 8457   0.857   1.489   0.972
 2520SOL     OW 8458   2.634   2.693   1.044
 2520SOL    HW1 8459   2.560   2.644   1.091
 2520SOL    HW2 8460   2.596   2.754   0.976
 2521SOL     OW 8461   4.812   0.513   4.864
 2521SOL    HW1 8462   4.832   0.608   4.886
 2521SOL    HW2 8463   4.721   0.489   4.899
 2522SOL     OW 8464   1.213   1.924   6.786
 2522SOL    HW1 8465   1.275   1.911   6.864
 2522SOL    HW2 8466   1.182   2.019   6.783
 2523SOL     OW 8467   1.089   5.797   6.213
 2523SOL    HW1 8468   0.993   5.818   6.231
 2523SOL    HW2 8469   1.102   5.780   6.116
 2524SOL     OW 8470   1.042   1.773   4.673
 2524SOL    HW1 8471   1.013   1.786   4.768
 2524SOL    HW2 8472   1.045   1.675   4.652
 2525SOL     OW 8473   5.970   2.842   6.167
 2525SOL    HW1 8474   5.910   2.911   6.209
 2525SOL    HW2 8475   5.936   2.819   6.076
 2526SOL     OW 8476   1.502   0.670   0.551
 2526SOL    HW1 8477   1.436   0.697   0.620
 2526SOL    HW2 8478   1.572   0.741   0.542
 2527SOL     OW 8479   3.724   4.854   6.766
 2527SOL    HW1 8480   3.653   4.888   6.828
 2527SOL    HW2 8481   3.682   4.817   6.683
 2528SOL     OW 8482   4.438   5.559   6.552
 2528SOL    HW1 8483   4.516   5.538   6.493
 2528SOL    HW2 8484   4.395   5.645   6.522
 2529SOL     OW 8485   0.370   6.189   5.646
 2529SOL    HW1 8486   0.402   6.197   5.740
 2529SOL    HW2 8487   0.393   6.273   5.596
 2530SOL     OW 8488   2.443   6.044   6.800
 2530SOL    HW1 8489   2.365   6.019   6.857
 2530SOL    HW2 8490   2.527   6.006   6.840
 2531SOL     OW 8491   0.122   4.985   6.390
 2531SOL    HW1 8492   0.214   5.024   6.395
 2531SOL    HW2 8493   0.123   4.909   6.325
 2532SOL     OW 8494   5.521   5.640   1.972
 2532SOL    HW1 8495   5.423   5.635   1.951
 2532SOL    HW2 8496   5.533   5.662   2.069
 2533SOL     OW 8497   4.607   1.100   3.745
 2533SOL    HW1 8498   4.595   1.002   3.733
 2533SOL    HW2 8499   4.531   1.148   3.701
 2534SOL     OW 8500   4.081   1.606   2.588
 2534SOL    HW1 8501   4.055   1.701   2.606
 2534SOL    HW2 8502   4.083   1.590   2.490
 2535SOL     OW 8503   3.928   2.946   6.156
 2535SOL    HW1 8504   3.900   2.876   6.221
 2535SOL    HW2 8505   3.862   3.021   6.157
 2536SOL     OW 8506   1.377   0.194   1.020
 2536SOL    HW1 8507   1.347   0.203   1.115
 2536SOL    HW2 8508   1.338   0.111   0.981
 2537SOL     OW 8509   3.950   6.910   5.634
 2537SOL    HW1 8510   3.874   6.871   5.583
 2537SOL    HW2 8511   4.014   6.954   5.570
 2538SOL     OW 8512   6.189   3.710   3.786
 2538SOL    HW1 8513   6.205   3.712   3.688
 2538SOL    HW2 8514   6.257   3.651   3.829
 2539SOL     OW 8515   4.801   2.523   5.058
 2539SOL    HW1 8516   4.706   2.554   5.064
 2539SOL    HW2 8517   4.806   2.441   5.001
 2540SOL     OW 8518   2.992   2.092   1.568
 2540SOL    HW1 8519   2.949   2.002   1.571
 2540SOL    HW2 8520   3.039   2.104   1.481
 2541SOL     OW 8521   3.065   6.862   3.806
 2541SOL    HW1 8522   3.120   6.782   3.832
 2541SOL    HW2 8523   3.039   6.912   3.889
 2542SOL     OW 8524   1.801   5.799   6.163
 2542SOL    HW1 8525   1.765   5.739   6.234
 2542SOL    HW2 8526   1.779   5.761   6.073
 2543SOL     OW 8527   0.258   0.913   3.960
 2543SOL    HW1 8528   0.338   0.875   4.005
 2543SOL    HW2 8529   0.259   1.013   3.967
 2544SOL     OW 8530   0.697   5.430   6.284
 2544SOL    HW1 8531   0.753   5.459   6.362
 2544SOL    HW2 8532   0.752   5.431   6.201
 2545SOL     OW 8533   2.508   6.045   3.587
 2545SOL    HW1 8534   2.415   6.081   3.594
 2545SOL    HW2 8535   2.504   5.945   3.581
 2546SOL     OW 8536   6.945   0.946   1.657
 2546SOL    HW1 8537   6.859   0.913   1.619
 2546SOL    HW2 8538   6.986   1.014   1.595
 2547SOL     OW 8539   0.541   3.303   5.287
 2547SOL    HW1 8540   0.560   3.318   5.384
 2547SOL    HW2 8541   0.627   3.286   5.238
 2548SOL     OW 8542   0.999   0.283   6.164
 2548SOL    HW1 8543   0.962   0.354   6.105
 2548SOL    HW2 8544   0.991   0.311   6.260
 2549SOL     OW 8545   6.027   2.948   2.208
 2549SOL    HW1 8546   5.975   2.937   2.293
 2549SOL    HW2 8547   5.986   2.889   2.137
 2550SOL     OW 8548   5.698   5.312   6.986
 2550SOL    HW1 8549   5.660   5.329   6.895
 2550SOL    HW2 8550   5.662   5.380   0.026
 2551SOL     OW 8551   0.939   5.093   0.288
 2551SOL    HW1 8552   0.907   5.186   0.306
 2551SOL    HW2 8553   0.936   5.075   0.190
 2552SOL     OW 8554   1.694   5.832   3.411
 2552SOL    HW1 8555   1.772   5.883   3.375
 2552SOL    HW2 8556   1.637   5.892   3.467
 2553SOL     OW 8557   3.962   3.642   6.892
 2553SOL    HW1 8558   4.061   3.641   6.873
 2553SOL    HW2 8559   3.912   3.612   6.811
 2554SOL     OW 8560   1.175   2.043   0.545
 2554SOL    HW1 8561   1.226   2.088   0.618
 2554SOL    HW2 8562   1.110   1.978   0.586
 2555SOL     OW 8563   0.151   0.157   6.479
 2555SOL    HW1 8564   0.116   0.153   6.385
 2555SOL    HW2 8565   0.121   0.242   6.522
 2556SOL     OW 8566   4.231   4.650   0.333
 2556SOL    HW1 8567   4.253   4.685   0.242
 2556SOL    HW2 8568   4.312   4.655   0.391
 2557SOL     OW 8569   1.639   4.766   6.710
 2557SOL    HW1 8570   1.609   4.688   6.765
 2557SOL    HW2 8571   1.623   4.851   6.761
 2558SOL     OW 8572   4.140   0.573   5.308
 2558SOL    HW1 8573   4.151   0.479   5.339
 2558SOL    HW2 8574   4.049   0.607   5.335
 2559SOL     OW 8575   0.706   4.778   5.164
 2559SOL    HW1 8576   0.687   4.809   5.258
 2559SOL    HW2 8577   0.706   4.678   5.162
 2560SOL     OW 8578   6.006   0.770   6.987
 2560SOL    HW1 8579   5.971   0.849   0.013
 2560SOL    HW2 8580   6.070   0.800   6.916
 2561SOL     OW 8581   3.218   5.759   3.728
 2561SOL    HW1 8582   3.164   5.843   3.741
 2561SOL    HW2 8583   3.163   5.680   3.755
 2562SOL     OW 8584   2.356   3.712   0.017
 2562SOL    HW1 8585   2.354   3.637   6.974
 2562SOL    HW2 8586   2.296   3.690   0.094
 2563SOL     OW 8587   1.472   0.746   1.604
 2563SOL    HW1 8588   1.503   0.653   1.586
 2563SOL    HW2 8589   1.401   0.746   1.674
 2564SOL     OW 8590   1.787   6.657   2.420
 2564SOL    HW1 8591   1.872   6.700   2.390
 2564SOL    HW2 8592   1.739   6.717   2.483
 2565SOL     OW 8593   0.316   0.995   1.817
 2565SOL    HW1 8594   0.368   0.941   1.884
 2565SOL    HW2 8595   0.277   1.075   1.862
 2566SOL     OW 8596   1.902   0.104   5.203
 2566SOL    HW1 8597   1.870   0.087   5.109
 2566SOL    HW2 8598   1.935   0.018   5.242
 2567SOL     OW 8599   0.836   0.795   0.579
 2567SOL    HW1 8600   0.927   0.756   0.569
 2567SOL    HW2 8601   0.843   0.895   0.580
 2568SOL     OW 8602   5.191   3.783   0.002
 2568SOL    HW1 8603   5.211   3.727   0.083
 2568SOL    HW2 8604   5.239   3.745   6.947
 2569SOL     OW 8605   2.496   0.495   2.446
 2569SOL    HW1 8606   2.566   0.423   2.442
 2569SOL    HW2 8607   2.531   0.572   2.498
 2570SOL     OW 8608   5.237   2.128   5.867
 2570SOL    HW1 8609   5.145   2.095   5.887
 2570SOL    HW2 8610   5.301   2.092   5.935
 2571SOL     OW 8611   0.716   4.006   4.658
 2571SOL    HW1 8612   0.740   4.065   4.736
 2571SOL    HW2 8613   0.799   3.963   4.622
 2572SOL     OW 8614   1.545   4.757   3.499
 2572SOL    HW1 8615   1.516   4.778   3.405
 2572SOL    HW2 8616   1.510   4.667   3.525
 2573SOL     OW 8617   1.351   0.081   0.478
 2573SOL    HW1 8618   1.449   0.101   0.484
 2573SOL    HW2 8619   1.299   0.161   0.508
 2574SOL     OW 8620   6.481   3.481   0.316
 2574SOL    HW1 8621   6.529   3.510   0.399
 2574SOL    HW2 8622   6.547   3.462   0.244
 2575SOL     OW 8623   0.608   6.368   6.295
 2575SOL    HW1 8624   0.516   6.405   6.311
 2575SOL    HW2 8625   0.667   6.440   6.260
 2576SOL     OW 8626   4.229   6.513   5.021
 2576SOL    HW1 8627   4.186   6.546   4.937
 2576SOL    HW2 8628   4.328   6.510   5.010
 2577SOL     OW 8629   1.369   3.617   2.582
 2577SOL    HW1 8630   1.333   3.661   2.664
 2577SOL    HW2 8631   1.462   3.648   2.564
 2578SOL     OW 8632   4.263   1.902   2.307
 2578SOL    HW1 8633   4.294   1.871   2.397
 2578SOL    HW2 8634   4.324   1.868   2.236
 2579SOL     OW 8635   0.339   6.388   2.776
 2579SOL    HW1 8636   0.299   6.444   2.703
 2579SOL    HW2 8637   0.438   6.385   2.765
 2580SOL     OW 8638   2.459   1.484   5.837
 2580SOL    HW1 8639   2.528   1.513   5.904
 2580SOL    HW2 8640   2.427   1.564   5.786
 2581SOL     OW 8641   3.204   0.185   5.812
 2581SOL    HW1 8642   3.157   0.098   5.801
 2581SOL    HW2 8643   3.137   0.260   5.811
 2582SOL     OW 8644   6.848   3.465   1.174
 2582SOL    HW1 8645   6.830   3.414   1.089
 2582SOL    HW2 8646   6.908   3.410   1.233
 2583SOL     OW 8647   5.532   0.427   1.057
 2583SOL    HW1 8648   5.468   0.419   0.980
 2583SOL    HW2 8649   5.600   0.354   1.052
 2584SOL     OW 8650   3.559   4.088   6.371
 2584SOL    HW1 8651   3.565   4.134   6.460
 2584SOL    HW2 8652   3.636   4.025   6.361
 2585SOL     OW 8653   2.793   5.164   0.322
 2585SOL    HW1 8654   2.761   5.258   0.317
 2585SOL    HW2 8655   2.718   5.104   0.352
 2586SOL     OW 8656   2.634   1.059   4.101
 2586SOL    HW1 8657   2.716   1.055   4.045
 2586SOL    HW2 8658   2.627   0.974   4.155
 2587SOL     OW 8659   5.916   0.898   4.916
 2587SOL    HW1 8660   6.014   0.905   4.896
 2587SOL    HW2 8661   5.902   0.833   4.991
 2588SOL     OW 8662   4.662   0.609   0.051
 2588SOL    HW1 8663   4.686   0.644   6.984
 2588SOL    HW2 8664   4.667   0.684   0.118
 2589SOL     OW 8665   1.831   6.137   0.530
 2589SOL    HW1 8666   1.825   6.237   0.528
 2589SOL    HW2 8667   1.886   6.106   0.452
 2590SOL     OW 8668   2.703   5.478   0.328
 2590SOL    HW1 8669   2.663   5.528   0.405
 2590SOL    HW2 8670   2.720   5.540   0.252
 2591SOL     OW 8671   4.996   6.148   2.643
 2591SOL    HW1 8672   5.021   6.177   2.735
 2591SOL    HW2 8673   4.971   6.228   2.589
 2592SOL     OW 8674   3.065   3.380   1.053
 2592SOL    HW1 8675   3.151   3.378   1.103
 2592SOL    HW2 8676   2.990   3.351   1.112
 2593SOL     OW 8677   3.563   4.668   0.058
 2593SOL    HW1 8678   3.547   4.765   0.041
 2593SOL    HW2 8679   3.478   4.617   0.043
 2594SOL     OW 8680   2.170   3.402   3.576
 2594SOL    HW1 8681   2.236   3.386   3.650
 2594SOL    HW2 8682   2.152   3.317   3.528
 2595SOL     OW 8683   2.016   1.185   2.981
 2595SOL    HW1 8684   2.099   1.227   2.944
 2595SOL    HW2 8685   1.936   1.227   2.938
 2596SOL     OW 8686   6.976   2.042   0.347
 2596SOL    HW1 8687   7.020   2.084   0.426
 2596SOL    HW2 8688   6.965   1.943   0.364
 2597SOL     OW 8689   6.622   6.301   0.538
 2597SOL    HW1 8690   6.537   6.289   0.486
 2597SOL    HW2 8691   6.699   6.270   0.484
 2598SOL     OW 8692   4.769   2.700   2.156
 2598SOL    HW1 8693   4.715   2.686   2.073
 2598SOL    HW2 8694   4.772   2.797   2.178
 2599SOL     OW 8695   2.547   5.966   2.668
 2599SOL    HW1 8696   2.607   6.001   2.740
 2599SOL    HW2 8697   2.575   5.874   2.642
 2600SOL     OW 8698   5.806   4.084   4.334
 2600SOL    HW1 8699   5.875   4.149   4.363
 2600SOL    HW2 8700   5.837   4.035   4.252
 2601SOL     OW 8701   6.972   1.345   4.487
 2601SOL    HW1 8702   6.902   1.275   4.477
 2601SOL    HW2 8703   0.038   1.301   4.497
 2602SOL     OW 8704   1.142   4.680   2.644
 2602SOL    HW1 8705   1.218   4.662   2.706
 2602SOL    HW2 8706   1.081   4.749   2.684
 2603SOL     OW 8707   1.998   5.770   2.073
 2603SOL    HW1 8708   1.920   5.772   2.135
 2603SOL    HW2 8709   1.969   5.735   1.984
 2604SOL     OW 8710   4.768   3.008   3.329
 2604SOL    HW1 8711   4.745   3.010   3.426
 2604SOL    HW2 8712   4.720   2.932   3.285
 2605SOL     OW 8713   1.426   2.948   1.185
 2605SOL    HW1 8714   1.420   2.877   1.115
 2605SOL    HW2 8715   1.413   2.907   1.275
 2606SOL     OW 8716   4.976   3.683   0.929
 2606SOL    HW1 8717   5.005   3.718   0.840
 2606SOL    HW2 8718   5.005   3.746   1.001
 2607SOL     OW 8719   2.469   3.087   1.553
 2607SOL    HW1 8720   2.488   3.113   1.458
 2607SOL    HW2 8721   2.400   3.149   1.591
 2608SOL     OW 8722   3.026   5.466   4.711
 2608SOL    HW1 8723   3.000   5.434   4.802
 2608SOL    HW2 8724   3.063   5.390   4.657
 2609SOL     OW 8725   0.745   1.888   1.366
 2609SOL    HW1 8726   0.787   1.800   1.342
 2609SOL    HW2 8727   0.767   1.909   1.461
 2610SOL     OW 8728   1.231   4.332   4.618
 2610SOL    HW1 8729   1.140   4.343   4.579
 2610SOL    HW2 8730   1.224   4.317   4.717
 2611SOL     OW 8731   5.750   0.455   5.386
 2611SOL    HW1 8732   5.807   0.466   5.468
 2611SOL    HW2 8733   5.671   0.398   5.408
 2612SOL     OW 8734   6.928   6.356   0.482
 2612SOL    HW1 8735   6.955   6.376   0.577
 2612SOL    HW2 8736   6.872   6.431   0.447
 2613SOL     OW 8737   1.404   6.554   0.531
 2613SOL    HW1 8738   1.314   6.563   0.574
 2613SOL    HW2 8739   1.472   6.606   0.583
 2614SOL     OW 8740   5.642   2.131   0.787
 2614SOL    HW1 8741   5.638   2.225   0.821
 2614SOL    HW2 8742   5.579   2.120   0.710
 2615SOL     OW 8743   0.755   3.370   6.836
 2615SOL    HW1 8744   0.700   3.428   6.777
 2615SOL    HW2 8745   0.729   3.275   6.825
 2616SOL     OW 8746   1.091   0.791   4.359
 2616SOL    HW1 8747   1.009   0.774   4.304
 2616SOL    HW2 8748   1.070   0.858   4.430
 2617SOL     OW 8749   5.277   0.278   0.966
 2617SOL    HW1 8750   5.294   0.294   1.064
 2617SOL    HW2 8751   5.283   0.180   0.947
 2618SOL     OW 8752   1.358   0.342   0.029
 2618SOL    HW1 8753   1.331   0.438   0.036
 2618SOL    HW2 8754   1.287   0.290   7.005
 2619SOL     OW 8755   4.956   1.307   2.900
 2619SOL    HW1 8756   4.925   1.333   2.991
 2619SOL    HW2 8757   4.887   1.335   2.832
 2620SOL     OW 8758   5.948   2.377   2.305
 2620SOL    HW1 8759   5.991   2.424   2.228
 2620SOL    HW2 8760   5.849   2.395   2.304
 2621SOL     OW 8761   2.741   6.325   1.297
 2621SOL    HW1 8762   2.670   6.276   1.349
 2621SOL    HW2 8763   2.734   6.423   1.316
 2622SOL     OW 8764   2.619   3.755   6.663
 2622SOL    HW1 8765   2.620   3.780   6.760
 2622SOL    HW2 8766   2.712   3.734   6.633
 2623SOL     OW 8767   6.866   1.094   3.827
 2623SOL    HW1 8768   6.829   1.131   3.742
 2623SOL    HW2 8769   6.872   0.995   3.821
 2624SOL     OW 8770   1.178   1.683   5.686
 2624SOL    HW1 8771   1.082   1.710   5.690
 2624SOL    HW2 8772   1.212   1.692   5.593
 2625SOL     OW 8773   2.578   5.320   5.842
 2625SOL    HW1 8774   2.641   5.369   5.782
 2625SOL    HW2 8775   2.601   5.223   5.843
 2626SOL     OW 8776   0.054   6.877   0.357
 2626SOL    HW1 8777   7.000   6.933   0.328
 2626SOL    HW2 8778   0.139   6.925   0.334
 2627SOL     OW 8779   2.297   0.486   5.742
 2627SOL    HW1 8780   2.198   0.478   5.731
 2627SOL    HW2 8781   2.319   0.568   5.794
 2628SOL     OW 8782   0.261   5.460   1.266
 2628SOL    HW1 8783   0.173   5.507   1.267
 2628SOL    HW2 8784   0.325   5.507   1.327
 2629SOL     OW 8785   3.287   4.104   3.329
 2629SOL    HW1 8786   3.232   4.068   3.254
 2629SOL    HW2 8787   3.236   4.097   3.415
 2630SOL     OW 8788   3.414   0.479   4.771
 2630SOL    HW1 8789   3.339   0.502   4.708
 2630SOL    HW2 8790   3.393   0.393   4.818
 2631SOL     OW 8791   4.670   6.010   0.307
 2631SOL    HW1 8792   4.606   5.993   0.382
 2631SOL    HW2 8793   4.736   5.935   0.302
 2632SOL     OW 8794   5.422   5.228   1.769
 2632SOL    HW1 8795   5.440   5.130   1.768
 2632SOL    HW2 8796   5.468   5.270   1.847
 2633SOL     OW 8797   0.220   3.152   5.680
 2633SOL    HW1 8798   0.151   3.087   5.710
 2633SOL    HW2 8799   0.186   3.245   5.696
 2634SOL     OW 8800   1.710   1.972   6.232
 2634SOL    HW1 8801   1.665   1.938   6.149
 2634SOL    HW2 8802   1.698   2.071   6.237
 2635SOL     OW 8803   3.854   5.093   2.810
 2635SOL    HW1 8804   3.791   5.169   2.795
 2635SOL    HW2 8805   3.820   5.036   2.885
 2636SOL     OW 8806   3.357   6.414   6.094
 2636SOL    HW1 8807   3.353   6.341   6.162
 2636SOL    HW2 8808   3.334   6.376   6.004
 2637SOL     OW 8809   0.392   1.756   3.173
 2637SOL    HW1 8810   0.375   1.741   3.270
 2637SOL    HW2 8811   0.393   1.668   3.125
 2638SOL     OW 8812   0.614   6.002   4.851
 2638SOL    HW1 8813   0.572   6.093   4.849
 2638SOL    HW2 8814   0.576   5.946   4.777
 2639SOL     OW 8815   5.049   5.312   4.916
 2639SOL    HW1 8816   4.973   5.248   4.921
 2639SOL    HW2 8817   5.025   5.388   4.855
 2640SOL     OW 8818   2.017   0.854   3.233
 2640SOL    HW1 8819   1.951   0.893   3.168
 2640SOL    HW2 8820   2.103   0.904   3.227
 2641SOL     OW 8821   5.312   2.249   6.930
 2641SOL    HW1 8822   5.278   2.332   6.974
 2641SOL    HW2 8823   5.323   2.177   6.998
 2642SOL     OW 8824   0.434   0.284   2.363
 2642SOL    HW1 8825   0.399   0.199   2.323
 2642SOL    HW2 8826   0.411   0.360   2.302
 2643SOL     OW 8827   1.926   4.671   4.081
 2643SOL    HW1 8828   2.018   4.631   4.083
 2643SOL    HW2 8829   1.927   4.757   4.030
 2644SOL     OW 8830   5.726   5.354   3.858
 2644SOL    HW1 8831   5.637   5.379   3.896
 2644SOL    HW2 8832   5.783   5.316   3.931
 2645SOL     OW 8833   4.538   5.664   2.357
 2645SOL    HW1 8834   4.489   5.747   2.382
 2645SOL    HW2 8835   4.487   5.584   2.390
 2646SOL     OW 8836   1.354   2.082   6.278
 2646SOL    HW1 8837   1.272   2.135   6.303
 2646SOL    HW2 8838   1.326   2.003   6.223
 2647SOL     OW 8839   4.012   0.094   2.855
 2647SOL    HW1 8840   3.934   0.044   2.894
 2647SOL    HW2 8841   4.043   0.046   2.773
 2648SOL     OW 8842   1.600   0.632   5.663
 2648SOL    HW1 8843   1.578   0.623   5.565
 2648SOL    HW2 8844   1.680   0.576   5.684
 2649SOL     OW 8845   6.497   2.161   3.869
 2649SOL    HW1 8846   6.511   2.143   3.772
 2649SOL    HW2 8847   6.436   2.091   3.908
 2650SOL     OW 8848   1.919   0.026   4.217
 2650SOL    HW1 8849   2.001   0.001   4.165
 2650SOL    HW2 8850   1.858   6.971   4.222
 2651SOL     OW 8851   3.595   1.684   3.159
 2651SOL    HW1 8852   3.648   1.713   3.239
 2651SOL    HW2 8853   3.500   1.669   3.186
 2652SOL     OW 8854   5.031   3.731   5.402
 2652SOL    HW1 8855   5.021   3.688   5.491
 2652SOL    HW2 8856   5.078   3.819   5.412
 2653SOL     OW 8857   1.955   5.990   0.105
 2653SOL    HW1 8858   1.990   6.025   0.191
 2653SOL    HW2 8859   2.021   6.011   0.032
 2654SOL     OW 8860   0.099   0.866   1.013
 2654SOL    HW1 8861   0.112   0.770   1.038
 2654SOL    HW2 8862   0.163   0.890   0.940
 2655SOL     OW 8863   5.150   6.875   3.024
 2655SOL    HW1 8864   5.163   6.948   3.091
 2655SOL    HW2 8865   5.225   6.809   3.031
 2656SOL     OW 8866   4.607   6.807   4.289
 2656SOL    HW1 8867   4.691   6.831   4.339
 2656SOL    HW2 8868   4.547   6.755   4.349
 2657SOL     OW 8869   1.496   3.127   6.660
 2657SOL    HW1 8870   1.502   3.227   6.668
 2657SOL    HW2 8871   1.434   3.104   6.585
 2658SOL     OW 8872   3.492   4.374   7.017
 2658SOL    HW1 8873   3.573   4.320   6.993
 2658SOL    HW2 8874   3.453   4.340   0.078
 2659SOL     OW 8875   0.019   2.294   5.413
 2659SOL    HW1 8876   0.054   2.230   5.481
 2659SOL    HW2 8877   0.028   2.255   5.322
 2660SOL     OW 8878   1.094   1.443   0.766
 2660SOL    HW1 8879   1.118   1.461   0.862
 2660SOL    HW2 8880   1.111   1.526   0.712
 2661SOL     OW 8881   1.961   0.706   1.103
 2661SOL    HW1 8882   1.901   0.640   1.057
 2661SOL    HW2 8883   1.927   0.722   1.196
 2662SOL     OW 8884   2.925   1.720   1.859
 2662SOL    HW1 8885   2.968   1.656   1.794
 2662SOL    HW2 8886   2.987   1.796   1.877
 2663SOL     OW 8887   3.829   0.965   0.754
 2663SOL    HW1 8888   3.901   1.026   0.720
 2663SOL    HW2 8889   3.758   1.018   0.800
 2664SOL     OW 8890   4.994   3.004   5.948
 2664SOL    HW1 8891   4.971   3.079   5.886
 2664SOL    HW2 8892   5.061   3.036   6.015
 2665SOL     OW 8893   1.024   3.301   4.555
 2665SOL    HW1 8894   0.976   3.234   4.499
 2665SOL    HW2 8895   1.041   3.383   4.500
 2666SOL     OW 8896   1.896   3.925   1.834
 2666SOL    HW1 8897   1.836   3.987   1.884
 2666SOL    HW2 8898   1.850   3.836   1.824
 2667SOL     OW 8899   5.793   2.721   4.824
 2667SOL    HW1 8900   5.771   2.655   4.895
 2667SOL    HW2 8901   5.713   2.735   4.765
 2668SOL     OW 8902   5.830   0.947   4.326
 2668SOL    HW1 8903   5.915   0.905   4.360
 2668SOL    HW2 8904   5.762   0.875   4.311
 2669SOL     OW 8905   2.606   0.965   1.717
 2669SOL    HW1 8906   2.688   0.908   1.718
 2669SOL    HW2 8907   2.590   1.003   1.808
 2670SOL     OW 8908   0.825   0.479   0.983
 2670SOL    HW1 8909   0.906   0.528   1.015
 2670SOL    HW2 8910   0.849   0.385   0.958
 2671SOL     OW 8911   5.591   4.199   6.053
 2671SOL    HW1 8912   5.553   4.129   6.113
 2671SOL    HW2 8913   5.668   4.161   6.002
 2672SOL     OW 8914   2.223   2.000   2.455
 2672SOL    HW1 8915   2.263   2.064   2.389
 2672SOL    HW2 8916   2.182   1.923   2.406
 2673SOL     OW 8917   3.162   6.851   2.761
 2673SOL    HW1 8918   3.210   6.902   2.833
 2673SOL    HW2 8919   3.218   6.850   2.678
 2674SOL     OW 8920   6.165   5.734   3.246
 2674SOL    HW1 8921   6.189   5.736   3.343
 2674SOL    HW2 8922   6.234   5.784   3.194
 2675SOL     OW 8923   4.907   0.988   4.439
 2675SOL    HW1 8924   4.987   0.931   4.456
 2675SOL    HW2 8925   4.855   0.950   4.362
 2676SOL     OW 8926   4.064   3.326   4.921
 2676SOL    HW1 8927   4.109   3.367   4.842
 2676SOL    HW2 8928   3.968   3.307   4.899
 2677SOL     OW 8929   1.524   5.373   0.740
 2677SOL    HW1 8930   1.519   5.465   0.778
 2677SOL    HW2 8931   1.589   5.318   0.794
 2678SOL     OW 8932   3.608   1.945   2.032
 2678SOL    HW1 8933   3.611   1.932   1.933
 2678SOL    HW2 8934   3.667   2.021   2.058
 2679SOL     OW 8935   2.141   3.666   2.407
 2679SOL    HW1 8936   2.142   3.570   2.438
 2679SOL    HW2 8937   2.142   3.668   2.307
 2680SOL     OW 8938   5.553   2.449   6.500
 2680SOL    HW1 8939   5.627   2.419   6.440
 2680SOL    HW2 8940   5.520   2.372   6.554
 2681SOL     OW 8941   2.370   2.588   3.239
 2681SOL    HW1 8942   2.381   2.663   3.304
 2681SOL    HW2 8943   2.460   2.547   3.219
 2682SOL     OW 8944   3.704   4.053   2.396
 2682SOL    HW1 8945   3.663   4.107   2.322
 2682SOL    HW2 8946   3.675   4.089   2.484
 2683SOL     OW 8947   1.635   3.531   1.331
 2683SOL    HW1 8948   1.595   3.618   1.359
 2683SOL    HW2 8949   1.671   3.539   1.238
 2684SOL     OW 8950   5.435   0.620   4.030
 2684SOL    HW1 8951   5.435   0.585   4.124
 2684SOL    HW2 8952   5.355   0.678   4.016
 2685SOL     OW 8953   1.443   6.988   5.848
 2685SOL    HW1 8954   1.535   6.976   5.811
 2685SOL    HW2 8955   1.375   6.978   5.775
 2686SOL     OW 8956   1.981   1.791   6.286
 2686SOL    HW1 8957   2.032   1.866   6.244
 2686SOL    HW2 8958   1.885   1.795   6.256
 2687SOL     OW 8959   4.119   2.500   1.702
 2687SOL    HW1 8960   4.207   2.453   1.714
 2687SOL    HW2 8961   4.045   2.436   1.721
 2688SOL     OW 8962   3.781   2.688   6.842
 2688SOL    HW1 8963   3.844   2.748   6.793
 2688SOL    HW2 8964   3.799   2.593   6.817
 2689SOL     OW 8965   6.690   3.671   2.596
 2689SOL    HW1 8966   6.699   3.694   2.693
 2689SOL    HW2 8967   6.635   3.740   2.550
 2690SOL     OW 8968   5.295   1.182   4.690
 2690SOL    HW1 8969   5.313   1.280   4.680
 2690SOL    HW2 8970   5.342   1.147   4.771
 2691SOL     OW 8971   6.747   3.279   4.519
 2691SOL    HW1 8972   6.709   3.195   4.560
 2691SOL    HW2 8973   6.834   3.258   4.475
 2692SOL     OW 8974   1.804   5.258   1.703
 2692SOL    HW1 8975   1.777   5.194   1.776
 2692SOL    HW2 8976   1.806   5.209   1.616
 2693SOL     OW 8977   0.576   5.190   2.938
 2693SOL    HW1 8978   0.478   5.171   2.935
 2693SOL    HW2 8979   0.593   5.281   2.900
 2694SOL     OW 8980   2.276   0.240   2.276
 2694SOL    HW1 8981   2.220   0.268   2.198
 2694SOL    HW2 8982   2.317   0.151   2.256
 2695SOL     OW 8983   6.564   5.790   3.692
 2695SOL    HW1 8984   6.475   5.817   3.729
 2695SOL    HW2 8985   6.558   5.699   3.652
 2696SOL     OW 8986   3.853   4.328   6.129
 2696SOL    HW1 8987   3.775   4.390   6.123
 2696SOL    HW2 8988   3.887   4.327   6.223
 2697SOL     OW 8989   3.976   2.672   0.122
 2697SOL    HW1 8990   4.053   2.688   0.060
 2697SOL    HW2 8991   3.923   2.756   0.131
 2698SOL     OW 8992   1.560   5.683   6.960
 2698SOL    HW1 8993   1.612   5.604   6.927
 2698SOL    HW2 8994   1.623   5.758   6.980
 2699SOL     OW 8995   2.528   6.658   2.308
 2699SOL    HW1 8996   2.566   6.736   2.257
 2699SOL    HW2 8997   2.456   6.691   2.370
 2700SOL     OW 8998   4.662   2.065   1.489
 2700SOL    HW1 8999   4.746   2.050   1.541
 2700SOL    HW2 9000   4.584   2.026   1.539
 2701SOL     OW 9001   5.143   3.310   5.172
 2701SOL    HW1 9002   5.207   3.289   5.099
 2701SOL    HW2 9003   5.135   3.409   5.183
 2702SOL     OW 9004   2.056   1.533   4.643
 2702SOL    HW1 9005   2.028   1.628   4.655
 2702SOL    HW2 9006   2.156   1.526   4.647
 2703SOL     OW 9007   2.203   6.089   1.994
 2703SOL    HW1 9008   2.108   6.059   1.994
 2703SOL    HW2 9009   2.225   6.130   2.083
 2704SOL     OW 9010   4.228   1.030   3.625
 2704SOL    HW1 9011   4.204   0.956   3.687
 2704SOL    HW2 9012   4.314   1.008   3.579
 2705SOL     OW 9013   1.085   6.644   5.349
 2705SOL    HW1 9014   1.136   6.654   5.435
 2705SOL    HW2 9015   1.006   6.585   5.364
 2706SOL     OW 9016   6.960   4.585   4.330
 2706SOL    HW1 9017   6.924   4.678   4.329
 2706SOL    HW2 9018   0.035   4.588   4.314
 2707SOL     OW 9019   4.702   1.293   3.080
 2707SOL    HW1 9020   4.612   1.311   3.119
 2707SOL    HW2 9021   4.693   1.242   2.995
 2708SOL     OW 9022   5.077   3.317   5.901
 2708SOL    HW1 9023   5.104   3.255   5.827
 2708SOL    HW2 9024   5.148   3.318   5.971
 2709SOL     OW 9025   5.299   0.993   5.843
 2709SOL    HW1 9026   5.317   0.946   5.756
 2709SOL    HW2 9027   5.260   1.083   5.824
 2710SOL     OW 9028   0.997   2.738   4.282
 2710SOL    HW1 9029   1.089   2.757   4.250
 2710SOL    HW2 9030   0.962   2.655   4.237
 2711SOL     OW 9031   4.516   0.896   1.734
 2711SOL    HW1 9032   4.481   0.911   1.642
 2711SOL    HW2 9033   4.523   0.798   1.752
 2712SOL     OW 9034   4.966   6.168   1.607
 2712SOL    HW1 9035   5.044   6.230   1.607
 2712SOL    HW2 9036   4.894   6.205   1.547
 2713SOL     OW 9037   3.729   5.047   5.654
 2713SOL    HW1 9038   3.740   5.090   5.743
 2713SOL    HW2 9039   3.634   5.056   5.624
 2714SOL     OW 9040   3.014   4.015   5.972
 2714SOL    HW1 9041   3.093   3.958   5.993
 2714SOL    HW2 9042   2.936   3.984   6.027
 2715SOL     OW 9043   4.577   6.298   0.277
 2715SOL    HW1 9044   4.611   6.207   0.298
 2715SOL    HW2 9045   4.597   6.320   0.181
 2716SOL     OW 9046   4.224   1.233   2.423
 2716SOL    HW1 9047   4.129   1.203   2.410
 2716SOL    HW2 9048   4.252   1.289   2.345
 2717SOL     OW 9049   1.113   2.171   2.680
 2717SOL    HW1 9050   1.144   2.191   2.773
 2717SOL    HW2 9051   1.183   2.200   2.614
 2718SOL     OW 9052   6.651   1.545   6.061
 2718SOL    HW1 9053   6.671   1.636   6.024
 2718SOL    HW2 9054   6.717   1.522   6.131
 2719SOL     OW 9055   0.811   4.970   3.370
 2719SOL    HW1 9056   0.721   4.930   3.356
 2719SOL    HW2 9057   0.811   5.022   3.455
 2720SOL     OW 9058   1.864   4.922   6.212
 2720SOL    HW1 9059   1.934   4.987   6.242
 2720SOL    HW2 9060   1.774   4.963   6.224
 2721SOL     OW 9061   2.174   6.361   3.525
 2721SOL    HW1 9062   2.099   6.426   3.508
 2721SOL    HW2 9063   2.257   6.411   3.548
 2722SOL     OW 9064   3.518   4.258   6.611
 2722SOL    HW1 9065   3.473   4.330   6.557
 2722SOL    HW2 9066   3.452   4.215   6.672
 2723SOL     OW 9067   3.961   5.590   6.927
 2723SOL    HW1 9068   4.005   5.617   6.842
 2723SOL    HW2 9069   4.011   5.514   6.968
 2724SOL     OW 9070   6.692   5.686   0.932
 2724SOL    HW1 9071   6.625   5.757   0.910
 2724SOL    HW2 9072   6.774   5.700   0.876
 2725SOL     OW 9073   6.200   5.035   3.296
 2725SOL    HW1 9074   6.136   5.092   3.243
 2725SOL    HW2 9075   6.159   4.946   3.312
 2726SOL     OW 9076   6.309   2.253   3.046
 2726SOL    HW1 9077   6.212   2.274   3.030
 2726SOL    HW2 9078   6.353   2.230   2.960
 2727SOL     OW 9079   1.641   4.917   4.031
 2727SOL    HW1 9080   1.639   4.853   3.953
 2727SOL    HW2 9081   1.693   4.999   4.005
 2728SOL     OW 9082   5.147   5.407   5.754
 2728SOL    HW1 9083   5.123   5.341   5.683
 2728SOL    HW2 9084   5.082   5.400   5.829
 2729SOL     OW 9085   0.264   0.082   0.204
 2729SOL    HW1 9086   0.285   0.066   0.108
 2729SOL    HW2 9087   0.253   0.180   0.220
 2730SOL     OW 9088   1.262   5.507   3.144
 2730SOL    HW1 9089   1.352   5.519   3.101
 2730SOL    HW2 9090   1.193   5.558   3.093
 2731SOL     OW 9091   3.885   3.773   5.096
 2731SOL    HW1 9092   3.792   3.796   5.127
 2731SOL    HW2 9093   3.947   3.778   5.174
 2732SOL     OW 9094   4.475   0.556   1.780
 2732SOL    HW1 9095   4.425   0.487   1.729
 2732SOL    HW2 9096   4.564   0.572   1.737
 2733SOL     OW 9097   0.992   0.278   0.730
 2733SOL    HW1 9098   1.065   0.306   0.793
 2733SOL    HW2 9099   0.971   0.354   0.668
 2734SOL     OW 9100   3.186   0.391   1.943
 2734SOL    HW1 9101   3.255   0.354   1.881
 2734SOL    HW2 9102   3.108   0.424   1.890
 2735SOL     OW 9103   1.572   2.460   2.856
 2735SOL    HW1 9104   1.538   2.543   2.812
 2735SOL    HW2 9105   1.660   2.479   2.900
 2736SOL     OW 9106   5.534   4.810   2.841
 2736SOL    HW1 9107   5.608   4.855   2.890
 2736SOL    HW2 9108   5.450   4.864   2.849
 2737SOL     OW 9109   2.871   0.343   6.164
 2737SOL    HW1 9110   2.958   0.345   6.213
 2737SOL    HW2 9111   2.845   0.248   6.146
 2738SOL     OW 9112   5.223   6.162   0.991
 2738SOL    HW1 9113   5.145   6.167   1.054
 2738SOL    HW2 9114   5.250   6.067   0.979
 2739SOL     OW 9115   0.677   5.036   1.653
 2739SOL    HW1 9116   0.631   4.981   1.722
 2739SOL    HW2 9117   0.609   5.074   1.590
 2740SOL     OW 9118   6.778   5.398   4.640
 2740SOL    HW1 9119   6.793   5.491   4.672
 2740SOL    HW2 9120   6.792   5.334   4.716
 2741SOL     OW 9121   0.890   7.001   6.620
 2741SOL    HW1 9122   0.886   6.929   6.550
 2741SOL    HW2 9123   0.948   0.051   6.588
 2742SOL     OW 9124   2.762   4.937   2.547
 2742SOL    HW1 9125   2.772   4.874   2.470
 2742SOL    HW2 9126   2.779   5.031   2.516
 2743SOL     OW 9127   5.865   1.919   2.664
 2743SOL    HW1 9128   5.872   1.831   2.710
 2743SOL    HW2 9129   5.845   1.904   2.567
 2744SOL     OW 9130   3.172   3.840   2.455
 2744SOL    HW1 9131   3.245   3.772   2.467
 2744SOL    HW2 9132   3.115   3.814   2.377
 2745SOL     OW 9133   0.356   6.243   0.105
 2745SOL    HW1 9134   0.359   6.143   0.107
 2745SOL    HW2 9135   0.280   6.273   0.047
 2746SOL     OW 9136   1.360   0.817   4.603
 2746SOL    HW1 9137   1.271   0.782   4.573
 2746SOL    HW2 9138   1.402   0.751   4.666
 2747SOL     OW 9139   4.620   4.561   0.645
 2747SOL    HW1 9140   4.645   4.619   0.722
 2747SOL    HW2 9141   4.696   4.560   0.579
 2748SOL     OW 9142   4.061   0.502   0.729
 2748SOL    HW1 9143   4.012   0.440   0.668
 2748SOL    HW2 9144   4.089   0.583   0.677
 2749SOL     OW 9145   3.608   1.145   0.386
 2749SOL    HW1 9146   3.542   1.116   0.456
 2749SOL    HW2 9147   3.694   1.171   0.430
 2750SOL     OW 9148   2.304   5.826   2.553
 2750SOL    HW1 9149   2.377   5.863   2.610
 2750SOL    HW2 9150   2.339   5.807   2.461
 2751SOL     OW 9151   6.375   4.833   1.246
 2751SOL    HW1 9152   6.324   4.919   1.245
 2751SOL    HW2 9153   6.423   4.822   1.159
 2752SOL     OW 9154   4.081   5.143   6.162
 2752SOL    HW1 9155   4.133   5.058   6.158
 2752SOL    HW2 9156   4.120   5.204   6.231
 2753SOL     OW 9157   5.311   4.759   5.666
 2753SOL    HW1 9158   5.276   4.849   5.639
 2753SOL    HW2 9159   5.239   4.708   5.713
 2754SOL     OW 9160   1.423   0.647   4.853
 2754SOL    HW1 9161   1.455   0.562   4.811
 2754SOL    HW2 9162   1.367   0.626   4.933
 2755SOL     OW 9163   3.102   0.147   2.083
 2755SOL    HW1 9164   3.106   0.240   2.046
 2755SOL    HW2 9165   3.148   0.084   2.020
 2756SOL     OW 9166   4.624   5.745   6.844
 2756SOL    HW1 9167   4.542   5.719   6.894
 2756SOL    HW2 9168   4.623   5.702   6.754
 2757SOL     OW 9169   0.735   4.802   0.637
 2757SOL    HW1 9170   0.731   4.706   0.662
 2757SOL    HW2 9171   0.815   4.819   0.580
 2758SOL     OW 9172   4.287   0.427   5.729
 2758SOL    HW1 9173   4.202   0.376   5.744
 2758SOL    HW2 9174   4.304   0.486   5.809
 2759SOL     OW 9175   4.802   5.162   4.087
 2759SOL    HW1 9176   4.865   5.102   4.136
 2759SOL    HW2 9177   4.736   5.107   4.036
 2760SOL     OW 9178   0.943   6.080   3.190
 2760SOL    HW1 9179   0.942   6.116   3.097
 2760SOL    HW2 9180   0.886   6.137   3.249
 2761SOL     OW 9181   2.255   5.144   4.440
 2761SOL    HW1 9182   2.303   5.190   4.515
 2761SOL    HW2 9183   2.166   5.187   4.426
 2762SOL     OW 9184   1.745   1.375   5.720
 2762SOL    HW1 9185   1.830   1.404   5.675
 2762SOL    HW2 9186   1.667   1.399   5.663
 2763SOL     OW 9187   5.552   0.620   2.291
 2763SOL    HW1 9188   5.484   0.684   2.256
 2763SOL    HW2 9189   5.604   0.582   2.215
 2764SOL     OW 9190   6.409   0.867   2.195
 2764SOL    HW1 9191   6.498   0.840   2.161
 2764SOL    HW2 9192   6.368   0.791   2.245
 2765SOL     OW 9193   5.432   2.006   2.743
 2765SOL    HW1 9194   5.383   1.925   2.709
 2765SOL    HW2 9195   5.402   2.026   2.836
 2766SOL     OW 9196   5.384   6.854   2.582
 2766SOL    HW1 9197   5.350   6.919   2.649
 2766SOL    HW2 9198   5.311   6.791   2.556
 2767SOL     OW 9199   6.746   4.175   5.559
 2767SOL    HW1 9200   6.783   4.144   5.646
 2767SOL    HW2 9201   6.666   4.119   5.535
 2768SOL     OW 9202   5.823   1.052   6.472
 2768SOL    HW1 9203   5.916   1.052   6.510
 2768SOL    HW2 9204   5.760   1.012   6.538
 2769SOL     OW 9205   0.668   4.089   0.894
 2769SOL    HW1 9206   0.593   4.047   0.945
 2769SOL    HW2 9207   0.724   4.145   0.955
 2770SOL     OW 9208   4.711   5.850   2.455
 2770SOL    HW1 9209   4.806   5.824   2.475
 2770SOL    HW2 9210   4.661   5.770   2.422
 2771SOL     OW 9211   4.499   0.273   1.247
 2771SOL    HW1 9212   4.495   0.361   1.199
 2771SOL    HW2 9213   4.522   0.288   1.343
 2772SOL     OW 9214   3.357   1.382   6.662
 2772SOL    HW1 9215   3.308   1.399   6.577
 2772SOL    HW2 9216   3.395   1.289   6.661
 2773SOL     OW 9217   2.998   4.338   1.420
 2773SOL    HW1 9218   2.929   4.352   1.490
 2773SOL    HW2 9219   3.063   4.268   1.450
 2774SOL     OW 9220   4.984   3.115   1.983
 2774SOL    HW1 9221   4.935   3.198   2.010
 2774SOL    HW2 9222   4.920   3.038   1.979
 2775SOL     OW 9223   0.116   0.473   2.533
 2775SOL    HW1 9224   0.156   0.472   2.441
 2775SOL    HW2 9225   0.042   0.406   2.537
 2776SOL     OW 9226   2.656   6.504   0.321
 2776SOL    HW1 9227   2.625   6.497   0.226
 2776SOL    HW2 9228   2.731   6.570   0.327
 2777SOL     OW 9229   1.771   2.283   4.518
 2777SOL    HW1 9230   1.730   2.359   4.467
 2777SOL    HW2 9231   1.773   2.307   4.616
 2778SOL     OW 9232   2.719   2.430   5.070
 2778SOL    HW1 9233   2.795   2.444   5.134
 2778SOL    HW2 9234   2.745   2.364   5.000
 2779SOL     OW 9235   6.205   1.286   1.090
 2779SOL    HW1 9236   6.285   1.232   1.064
 2779SOL    HW2 9237   6.218   1.381   1.063
 2780SOL     OW 9238   3.586   6.059   0.071
 2780SOL    HW1 9239   3.581   6.054   0.171
 2780SOL    HW2 9240   3.537   5.982   0.031
 2781SOL     OW 9241   5.057   3.840   6.295
 2781SOL    HW1 9242   4.957   3.835   6.284
 2781SOL    HW2 9243   5.082   3.931   6.328
 2782SOL     OW 9244   3.622   1.238   5.824
 2782SOL    HW1 9245   3.582   1.329   5.826
 2782SOL    HW2 9246   3.559   1.173   5.866
 2783SOL     OW 9247   0.487   3.776   5.777
 2783SOL    HW1 9248   0.568   3.725   5.807
 2783SOL    HW2 9249   0.445   3.729   5.699
 2784SOL     OW 9250   2.495   2.120   1.520
 2784SOL    HW1 9251   2.548   2.177   1.583
 2784SOL    HW2 9252   2.483   2.170   1.434
 2785SOL     OW 9253   6.187   2.063   2.086
 2785SOL    HW1 9254   6.224   1.970   2.087
 2785SOL    HW2 9255   6.091   2.061   2.114
 2786SOL     OW 9256   3.775   0.523   0.377
 2786SOL    HW1 9257   3.679   0.496   0.385
 2786SOL    HW2 9258   3.815   0.481   0.295
 2787SOL     OW 9259   2.107   3.892   5.941
 2787SOL    HW1 9260   2.056   3.970   5.976
 2787SOL    HW2 9261   2.043   3.819   5.915
 2788SOL     OW 9262   0.791   3.391   0.323
 2788SOL    HW1 9263   0.763   3.429   0.235
 2788SOL    HW2 9264   0.813   3.465   0.387
 2789SOL     OW 9265   0.597   2.892   4.051
 2789SOL    HW1 9266   0.644   2.848   3.975
 2789SOL    HW2 9267   0.571   2.823   4.119
 2790SOL     OW 9268   3.722   6.183   4.074
 2790SOL    HW1 9269   3.802   6.186   4.014
 2790SOL    HW2 9270   3.641   6.159   4.019
 2791SOL     OW 9271   1.624   3.722   2.503
 2791SOL    HW1 9272   1.722   3.742   2.506
 2791SOL    HW2 9273   1.576   3.795   2.455
 2792SOL     OW 9274   0.759   1.929   5.405
 2792SOL    HW1 9275   0.857   1.948   5.418
 2792SOL    HW2 9276   0.747   1.832   5.384
 2793SOL     OW 9277   4.746   0.925   4.225
 2793SOL    HW1 9278   4.771   0.874   4.143
 2793SOL    HW2 9279   4.652   0.958   4.217
 2794SOL     OW 9280   0.689   1.529   1.997
 2794SOL    HW1 9281   0.717   1.618   1.963
 2794SOL    HW2 9282   0.761   1.490   2.054
 2795SOL     OW 9283   0.743   3.757   1.301
 2795SOL    HW1 9284   0.837   3.758   1.268
 2795SOL    HW2 9285   0.696   3.839   1.268
 2796SOL     OW 9286   4.759   4.741   2.459
 2796SOL    HW1 9287   4.737   4.704   2.549
 2796SOL    HW2 9288   4.701   4.820   2.441
 2797SOL     OW 9289   4.714   4.076   5.333
 2797SOL    HW1 9290   4.672   4.007   5.392
 2797SOL    HW2 9291   4.763   4.142   5.389
 2798SOL     OW 9292   1.599   4.010   3.394
 2798SOL    HW1 9293   1.578   4.105   3.371
 2798SOL    HW2 9294   1.541   3.981   3.470
 2799SOL     OW 9295   6.953   6.065   5.946
 2799SOL    HW1 9296   6.982   6.081   6.040
 2799SOL    HW2 9297   6.952   5.966   5.928
 2800SOL     OW 9298   2.649   0.939   6.394
 2800SOL    HW1 9299   2.687   0.912   6.483
 2800SOL    HW2 9300   2.658   0.864   6.330
 2801SOL     OW 9301   4.031   5.081   2.057
 2801SOL    HW1 9302   3.979   5.141   2.119
 2801SOL    HW2 9303   3.993   4.989   2.061
 2802SOL     OW 9304   6.618   0.571   6.150
 2802SOL    HW1 9305   6.660   0.481   6.147
 2802SOL    HW2 9306   6.606   0.606   6.057
 2803SOL     OW 9307   3.070   6.095   5.071
 2803SOL    HW1 9308   3.005   6.167   5.094
 2803SOL    HW2 9309   3.082   6.091   4.972
 2804SOL     OW 9310   0.523   4.860   2.321
 2804SOL    HW1 9311   0.516   4.897   2.229
 2804SOL    HW2 9312   0.530   4.760   2.317
 2805SOL     OW 9313   6.294   4.203   6.743
 2805SOL    HW1 9314   6.381   4.163   6.714
 2805SOL    HW2 9315   6.219   4.147   6.708
 2806SOL     OW 9316   6.445   5.676   2.343
 2806SOL    HW1 9317   6.472   5.691   2.248
 2806SOL    HW2 9318   6.526   5.681   2.402
 2807SOL     OW 9319   4.135   5.045   3.835
 2807SOL    HW1 9320   4.066   4.994   3.887
 2807SOL    HW2 9321   4.098   5.135   3.810
 2808SOL     OW 9322   4.633   6.251   4.443
 2808SOL    HW1 9323   4.729   6.279   4.438
 2808SOL    HW2 9324   4.588   6.300   4.518
 2809SOL     OW 9325   5.571   2.279   0.142
 2809SOL    HW1 9326   5.631   2.286   0.221
 2809SOL    HW2 9327   5.586   2.192   0.095
 2810SOL     OW 9328   1.662   1.069   6.432
 2810SOL    HW1 9329   1.634   0.978   6.402
 2810SOL    HW2 9330   1.583   1.131   6.430
 2811SOL     OW 9331   0.362   0.428   3.762
 2811SOL    HW1 9332   0.344   0.526   3.764
 2811SOL    HW2 9333   0.295   0.383   3.703
 2812SOL     OW 9334   4.978   4.616   2.793
 2812SOL    HW1 9335   4.989   4.521   2.820
 2812SOL    HW2 9336   5.025   4.631   2.706
 2813SOL     OW 9337   6.427   1.677   6.158
 2813SOL    HW1 9338   6.378   1.629   6.231
 2813SOL    HW2 9339   6.514   1.630   6.142
 2814SOL     OW 9340   5.623   4.379   4.947
 2814SOL    HW1 9341   5.606   4.374   5.045
 2814SOL    HW2 9342   5.563   4.314   4.899
 2815SOL     OW 9343   0.843   1.279   4.662
 2815SOL    HW1 9344   0.832   1.378   4.659
 2815SOL    HW2 9345   0.753   1.235   4.655
 2816SOL     OW 9346   4.935   6.522   3.137
 2816SOL    HW1 9347   4.840   6.514   3.106
 2816SOL    HW2 9348   4.937   6.517   3.237
 2817SOL     OW 9349   1.503   1.446   1.232
 2817SOL    HW1 9350   1.595   1.416   1.206
 2817SOL    HW2 9351   1.437   1.373   1.213
 2818SOL     OW 9352   1.455   2.666   0.135
 2818SOL    HW1 9353   1.500   2.722   0.065
 2818SOL    HW2 9354   1.390   2.604   0.092
 2819SOL     OW 9355   6.487   2.687   1.440
 2819SOL    HW1 9356   6.538   2.727   1.364
 2819SOL    HW2 9357   6.533   2.708   1.527
 2820SOL     OW 9358   5.100   2.467   3.920
 2820SOL    HW1 9359   5.032   2.393   3.920
 2820SOL    HW2 9360   5.124   2.490   3.826
 2821SOL     OW 9361   1.494   3.189   3.154
 2821SOL    HW1 9362   1.489   3.090   3.145
 2821SOL    HW2 9363   1.496   3.231   3.063
 2822SOL     OW 9364   3.020   1.799   0.628
 2822SOL    HW1 9365   3.066   1.767   0.710
 2822SOL    HW2 9366   2.940   1.740   0.610
 2823SOL     OW 9367   1.526   0.035   4.171
 2823SOL    HW1 9368   1.448   0.089   4.140
 2823SOL    HW2 9369   1.606   0.094   4.181
 2824SOL     OW 9370   3.131   1.902   5.291
 2824SOL    HW1 9371   3.053   1.860   5.337
 2824SOL    HW2 9372   3.108   1.995   5.263
 2825SOL     OW 9373   6.307   6.123   0.824
 2825SOL    HW1 9374   6.377   6.076   0.769
 2825SOL    HW2 9375   6.251   6.055   0.871
 2826SOL     OW 9376   4.884   3.653   4.014
 2826SOL    HW1 9377   4.918   3.645   4.107
 2826SOL    HW2 9378   4.922   3.579   3.958
 2827SOL     OW 9379   6.986   0.180   6.245
 2827SOL    HW1 9380   6.943   0.092   6.225
 2827SOL    HW2 9381   6.995   0.233   6.160
 2828SOL     OW 9382   3.784   1.973   6.387
 2828SOL    HW1 9383   3.788   2.058   6.438
 2828SOL    HW2 9384   3.721   1.982   6.311
 2829SOL     OW 9385   2.889   0.524   6.779
 2829SOL    HW1 9386   2.885   0.427   6.755
 2829SOL    HW2 9387   2.887   0.579   6.695
 2830SOL     OW 9388   3.148   3.656   6.704
 2830SOL    HW1 9389   3.154   3.755   6.693
 2830SOL    HW2 9390   3.053   3.631   6.724
 2831SOL     OW 9391   6.561   6.672   4.005
 2831SOL    HW1 9392   6.646   6.723   3.994
 2831SOL    HW2 9393   6.498   6.696   3.931
 2832SOL     OW 9394   0.246   0.916   2.184
 2832SOL    HW1 9395   0.250   0.875   2.275
 2832SOL    HW2 9396   0.320   0.879   2.127
 2833SOL     OW 9397   6.501   3.335   2.211
 2833SOL    HW1 9398   6.417   3.297   2.250
 2833SOL    HW2 9399   6.554   3.380   2.282
 2834SOL     OW 9400   4.335   0.775   5.233
 2834SOL    HW1 9401   4.263   0.723   5.280
 2834SOL    HW2 9402   4.400   0.712   5.192
 2835SOL     OW 9403   6.371   6.625   3.766
 2835SOL    HW1 9404   6.354   6.528   3.749
 2835SOL    HW2 9405   6.416   6.665   3.686
 2836SOL     OW 9406   6.399   0.441   0.782
 2836SOL    HW1 9407   6.344   0.485   0.852
 2836SOL    HW2 9408   6.344   0.426   0.700
 2837SOL     OW 9409   5.984   3.008   3.378
 2837SOL    HW1 9410   5.937   3.026   3.292
 2837SOL    HW2 9411   5.997   2.909   3.389
 2838SOL     OW 9412   1.687   4.503   4.431
 2838SOL    HW1 9413   1.614   4.508   4.499
 2838SOL    HW2 9414   1.723   4.595   4.414
 2839SOL     OW 9415   4.840   3.104   0.437
 2839SOL    HW1 9416   4.904   3.154   0.380
 2839SOL    HW2 9417   4.819   3.158   0.519
 2840SOL     OW 9418   6.591   2.879   5.102
 2840SOL    HW1 9419   6.494   2.858   5.090
 2840SOL    HW2 9420   6.616   2.956   5.044
 2841SOL     OW 9421   0.371   5.974   0.456
 2841SOL    HW1 9422   0.292   5.939   0.506
 2841SOL    HW2 9423   0.401   6.061   0.496
 2842SOL     OW 9424   5.912   3.608   2.989
 2842SOL    HW1 9425   5.931   3.625   3.086
 2842SOL    HW2 9426   5.848   3.676   2.955
 2843SOL     OW 9427   4.022   1.078   3.987
 2843SOL    HW1 9428   4.079   1.141   3.935
 2843SOL    HW2 9429   3.926   1.091   3.961
 2844SOL     OW 9430   1.443   4.050   5.309
 2844SOL    HW1 9431   1.531   4.012   5.282
 2844SOL    HW2 9432   1.389   3.979   5.354
 2845SOL     OW 9433   0.142   3.846   5.983
 2845SOL    HW1 9434   0.209   3.774   6.001
 2845SOL    HW2 9435   0.083   3.818   5.907
 2846SOL     OW 9436   5.647   1.014   5.859
 2846SOL    HW1 9437   5.673   0.946   5.790
 2846SOL    HW2 9438   5.548   1.030   5.854
 2847SOL     OW 9439   4.333   5.063   4.279
 2847SOL    HW1 9440   4.431   5.063   4.259
 2847SOL    HW2 9441   4.289   4.989   4.228
 2848SOL     OW 9442   2.021   6.929   5.347
 2848SOL    HW1 9443   2.032   6.909   5.445
 2848SOL    HW2 9444   2.055   6.851   5.294
 2849SOL     OW 9445   2.063   3.098   1.842
 2849SOL    HW1 9446   2.049   3.077   1.938
 2849SOL    HW2 9447   2.037   3.019   1.786
 2850SOL     OW 9448   4.224   1.383   0.685
 2850SOL    HW1 9449   4.265   1.343   0.602
 2850SOL    HW2 9450   4.173   1.466   0.660
 2851SOL     OW 9451   2.751   5.504   5.746
 2851SOL    HW1 9452   2.787   5.573   5.808
 2851SOL    HW2 9453   2.706   5.548   5.668
 2852SOL     OW 9454   0.810   2.348   6.779
 2852SOL    HW1 9455   0.729   2.407   6.768
 2852SOL    HW2 9456   0.815   2.317   6.874
 2853SOL     OW 9457   3.479   2.361   1.441
 2853SOL    HW1 9458   3.474   2.385   1.344
 2853SOL    HW2 9459   3.478   2.445   1.496
 2854SOL     OW 9460   0.428   0.728   3.399
 2854SOL    HW1 9461   0.406   0.634   3.372
 2854SOL    HW2 9462   0.351   0.788   3.379
 2855SOL     OW 9463   3.396   1.491   4.412
 2855SOL    HW1 9464   3.452   1.448   4.483
 2855SOL    HW2 9465   3.300   1.483   4.436
 2856SOL     OW 9466   2.671   1.411   5.636
 2856SOL    HW1 9467   2.590   1.436   5.689
 2856SOL    HW2 9468   2.692   1.484   5.572
 2857SOL     OW 9469   2.979   3.237   3.545
 2857SOL    HW1 9470   3.074   3.248   3.573
 2857SOL    HW2 9471   2.958   3.140   3.536
 2858SOL     OW 9472   5.480   2.686   3.153
 2858SOL    HW1 9473   5.492   2.607   3.093
 2858SOL    HW2 9474   5.454   2.766   3.098
 2859SOL     OW 9475   5.415   5.921   0.009
 2859SOL    HW1 9476   5.499   5.961   0.044
 2859SOL    HW2 9477   5.399   5.832   0.051
 2860SOL     OW 9478   4.124   2.260   0.893
 2860SOL    HW1 9479   4.116   2.269   0.992
 2860SOL    HW2 9480   4.121   2.163   0.869
 2861SOL     OW 9481   4.194   4.904   6.137
 2861SOL    HW1 9482   4.275   4.941   6.183
 2861SOL    HW2 9483   4.163   4.822   6.186
 2862SOL     OW 9484   6.660   0.128   3.664
 2862SOL    HW1 9485   6.580   0.182   3.690
 2862SOL    HW2 9486   6.730   0.187   3.624
 2863SOL     OW 9487   6.540   0.303   6.785
 2863SOL    HW1 9488   6.578   0.341   6.701
 2863SOL    HW2 9489   6.441   0.310   6.783
 2864SOL     OW 9490   3.744   2.064   0.786
 2864SOL    HW1 9491   3.753   2.156   0.746
 2864SOL    HW2 9492   3.738   1.997   0.712
 2865SOL     OW 9493   4.932   5.031   5.110
 2865SOL    HW1 9494   5.029   5.036   5.086
 2865SOL    HW2 9495   4.877   5.069   5.035
 2866SOL     OW 9496   0.606   6.836   6.291
 2866SOL    HW1 9497   0.528   6.889   6.322
 2866SOL    HW2 9498   0.689   6.870   6.335
 2867SOL     OW 9499   6.880   4.484   4.080
 2867SOL    HW1 9500   6.898   4.533   4.166
 2867SOL    HW2 9501   6.794   4.517   4.041
 2868SOL     OW 9502   1.798   4.587   4.787
 2868SOL    HW1 9503   1.792   4.653   4.712
 2868SOL    HW2 9504   1.707   4.574   4.827
 2869SOL     OW 9505   6.078   1.502   2.040
 2869SOL    HW1 9506   6.123   1.414   2.030
 2869SOL    HW2 9507   6.115   1.549   2.120
 2870SOL     OW 9508   4.201   2.169   2.370
 2870SOL    HW1 9509   4.212   2.075   2.337
 2870SOL    HW2 9510   4.104   2.191   2.377
 2871SOL     OW 9511   1.235   1.518   5.981
 2871SOL    HW1 9512   1.240   1.615   5.957
 2871SOL    HW2 9513   1.253   1.463   5.899
 2872SOL     OW 9514   1.962   0.605   3.839
 2872SOL    HW1 9515   1.879   0.560   3.805
 2872SOL    HW2 9516   2.039   0.543   3.828
 2873SOL     OW 9517   6.243   5.730   1.841
 2873SOL    HW1 9518   6.234   5.645   1.894
 2873SOL    HW2 9519   6.241   5.708   1.743
 2874SOL     OW 9520   5.584   2.404   2.014
 2874SOL    HW1 9521   5.678   2.423   1.987
 2874SOL    HW2 9522   5.521   2.439   1.945
 2875SOL     OW 9523   3.092   4.903   0.814
 2875SOL    HW1 9524   3.015   4.900   0.877
 2875SOL    HW2 9525   3.108   4.811   0.777
 2876SOL     OW 9526   6.075   2.437   2.047
 2876SOL    HW1 9527   6.138   2.485   2.107
 2876SOL    HW2 9528   6.126   2.387   1.977
 2877SOL     OW 9529   1.840   3.465   5.235
 2877SOL    HW1 9530   1.756   3.423   5.270
 2877SOL    HW2 9531   1.912   3.457   5.304
 2878SOL     OW 9532   4.021   4.964   0.403
 2878SOL    HW1 9533   3.939   4.945   0.456
 2878SOL    HW2 9534   4.043   4.886   0.344
 2879SOL     OW 9535   4.859   4.195   6.409
 2879SOL    HW1 9536   4.775   4.240   6.380
 2879SOL    HW2 9537   4.914   4.258   6.462
 2880SOL     OW 9538   1.735   6.560   3.275
 2880SOL    HW1 9539   1.647   6.552   3.322
 2880SOL    HW2 9540   1.740   6.492   3.202
 2881SOL     OW 9541   0.191   0.326   6.856
 2881SOL    HW1 9542   0.260   0.262   6.824
 2881SOL    HW2 9543   0.120   0.276   6.906
 2882SOL     OW 9544   6.855   3.459   3.330
 2882SOL    HW1 9545   6.893   3.416   3.248
 2882SOL    HW2 9546   6.757   3.439   3.336
 2883SOL     OW 9547   4.034   6.001   2.086
 2883SOL    HW1 9548   4.092   5.980   2.165
 2883SOL    HW2 9549   4.084   6.061   2.023
 2884SOL     OW 9550   1.863   5.382   3.116
 2884SOL    HW1 9551   1.891   5.289   3.141
 2884SOL    HW2 9552   1.778   5.405   3.163
 2885SOL     OW 9553   0.809   2.140   4.469
 2885SOL    HW1 9554   0.875   2.107   4.537
 2885SOL    HW2 9555   0.752   2.211   4.511
 2886SOL     OW 9556   2.884   3.018   6.289
 2886SOL    HW1 9557   2.913   3.048   6.198
 2886SOL    HW2 9558   2.940   2.941   6.318
 2887SOL     OW 9559   2.725   1.517   5.071
 2887SOL    HW1 9560   2.806   1.521   5.011
 2887SOL    HW2 9561   2.653   1.575   5.034
 2888SOL     OW 9562   0.088   5.122   6.917
 2888SOL    HW1 9563   0.071   5.151   6.822
 2888SOL    HW2 9564   0.003   5.089   6.957
 2889SOL     OW 9565   1.340   0.568   0.947
 2889SOL    HW1 9566   1.366   0.633   0.876
 2889SOL    HW2 9567   1.423   0.526   0.986
 2890SOL     OW 9568   2.673   0.554   0.787
 2890SOL    HW1 9569   2.581   0.576   0.818
 2890SOL    HW2 9570   2.680   0.455   0.771
 2891SOL     OW 9571   3.082   4.840   4.981
 2891SOL    HW1 9572   3.042   4.903   4.913
 2891SOL    HW2 9573   3.022   4.762   4.993
 2892SOL     OW 9574   4.130   4.215   5.297
 2892SOL    HW1 9575   4.154   4.296   5.243
 2892SOL    HW2 9576   4.031   4.200   5.291
 2893SOL     OW 9577   3.199   0.637   5.912
 2893SOL    HW1 9578   3.187   0.734   5.936
 2893SOL    HW2 9579   3.276   0.629   5.848
 2894SOL     OW 9580   4.202   3.012   1.532
 2894SOL    HW1 9581   4.271   3.034   1.601
 2894SOL    HW2 9582   4.179   2.914   1.538
 2895SOL     OW 9583   3.696   3.298   0.209
 2895SOL    HW1 9584   3.672   3.202   0.220
 2895SOL    HW2 9585   3.660   3.351   0.286
 2896SOL     OW 9586   1.598   4.777   0.163
 2896SOL    HW1 9587   1.559   4.861   0.124
 2896SOL    HW2 9588   1.575   4.772   0.260
 2897SOL     OW 9589   1.152   6.896   3.744
 2897SOL    HW1 9590   1.202   6.866   3.664
 2897SOL    HW2 9591   1.076   6.833   3.762
 2898SOL     OW 9592   2.028   5.183   2.760
 2898SOL    HW1 9593   1.939   5.228   2.771
 2898SOL    HW2 9594   2.044   5.120   2.836
 2899SOL     OW 9595   5.872   0.655   0.714
 2899SOL    HW1 9596   5.884   0.679   0.810
 2899SOL    HW2 9597   5.913   0.726   0.657
 2900SOL     OW 9598   3.314   5.282   6.441
 2900SOL    HW1 9599   3.356   5.373   6.433
 2900SOL    HW2 9600   3.215   5.291   6.437
 2901SOL     OW 9601   2.420   6.761   1.200
 2901SOL    HW1 9602   2.357   6.744   1.124
 2901SOL    HW2 9603   2.368   6.764   1.286
 2902SOL     OW 9604   4.776   5.179   0.705
 2902SOL    HW1 9605   4.781   5.272   0.667
 2902SOL    HW2 9606   4.744   5.184   0.800
 2903SOL     OW 9607   2.836   2.633   1.676
 2903SOL    HW1 9608   2.926   2.600   1.704
 2903SOL    HW2 9609   2.765   2.571   1.711
 2904SOL     OW 9610   2.504   2.492   4.640
 2904SOL    HW1 9611   2.597   2.467   4.613
 2904SOL    HW2 9612   2.472   2.429   4.710
 2905SOL     OW 9613   1.193   1.597   2.268
 2905SOL    HW1 9614   1.176   1.639   2.356
 2905SOL    HW2 9615   1.209   1.499   2.280
 2906SOL     OW 9616   5.162   5.251   2.371
 2906SOL    HW1 9617   5.213   5.167   2.389
 2906SOL    HW2 9618   5.178   5.279   2.276
 2907SOL     OW 9619   6.068   0.470   4.635
 2907SOL    HW1 9620   6.080   0.524   4.718
 2907SOL    HW2 9621   6.096   0.375   4.652
 2908SOL     OW 9622   3.459   5.874   4.993
 2908SOL    HW1 9623   3.484   5.804   5.061
 2908SOL    HW2 9624   3.541   5.924   4.965
 2909SOL     OW 9625   2.227   6.220   6.049
 2909SOL    HW1 9626   2.240   6.181   6.140
 2909SOL    HW2 9627   2.294   6.180   5.986
 2910SOL     OW 9628   4.513   5.868   5.616
 2910SOL    HW1 9629   4.459   5.952   5.616
 2910SOL    HW2 9630   4.528   5.838   5.522
 2911SOL     OW 9631   2.491   4.601   3.561
 2911SOL    HW1 9632   2.549   4.605   3.479
 2911SOL    HW2 9633   2.395   4.598   3.534
 2912SOL     OW 9634   2.815   5.331   1.340
 2912SOL    HW1 9635   2.810   5.319   1.439
 2912SOL    HW2 9636   2.908   5.313   1.309
 2913SOL     OW 9637   0.947   3.083   2.238
 2913SOL    HW1 9638   1.018   3.072   2.168
 2913SOL    HW2 9639   0.884   3.006   2.234
 2914SOL     OW 9640   5.336   4.441   5.794
 2914SOL    HW1 9641   5.296   4.507   5.858
 2914SOL    HW2 9642   5.416   4.482   5.750
 2915SOL     OW 9643   4.408   1.744   3.517
 2915SOL    HW1 9644   4.323   1.790   3.542
 2915SOL    HW2 9645   4.392   1.646   3.506
 2916SOL     OW 9646   4.703   6.935   4.703
 2916SOL    HW1 9647   4.776   6.972   4.646
 2916SOL    HW2 9648   4.741   6.866   4.765
 2917SOL     OW 9649   3.925   0.673   2.331
 2917SOL    HW1 9650   3.872   0.720   2.402
 2917SOL    HW2 9651   3.976   0.598   2.371
 2918SOL     OW 9652   1.205   2.704   4.726
 2918SOL    HW1 9653   1.160   2.768   4.664
 2918SOL    HW2 9654   1.154   2.618   4.729
 2919SOL     OW 9655   6.326   5.689   0.625
 2919SOL    HW1 9656   6.248   5.628   0.611
 2919SOL    HW2 9657   6.411   5.638   0.608
 2920SOL     OW 9658   4.412   1.862   2.542
 2920SOL    HW1 9659   4.434   1.773   2.502
 2920SOL    HW2 9660   4.384   1.849   2.637
 2921SOL     OW 9661   0.004   1.289   1.094
 2921SOL    HW1 9662   6.949   1.252   1.046
 2921SOL    HW2 9663   0.016   1.385   1.069
 2922SOL     OW 9664   3.921   6.796   4.933
 2922SOL    HW1 9665   3.966   6.735   4.867
 2922SOL    HW2 9666   3.989   6.859   4.971
 2923SOL     OW 9667   6.807   4.516   6.548
 2923SOL    HW1 9668   6.906   4.510   6.535
 2923SOL    HW2 9669   6.769   4.424   6.560
 2924SOL     OW 9670   6.678   6.900   5.979
 2924SOL    HW1 9671   6.591   6.877   5.935
 2924SOL    HW2 9672   6.666   6.904   6.078
 2925SOL     OW 9673   5.670   3.957   0.781
 2925SOL    HW1 9674   5.762   3.918   0.773
 2925SOL    HW2 9675   5.622   3.916   0.858
 2926SOL     OW 9676   0.291   1.240   3.731
 2926SOL    HW1 9677   0.243   1.205   3.811
 2926SOL    HW2 9678   0.389   1.231   3.744
 2927SOL     OW 9679   0.421   3.410   2.817
 2927SOL    HW1 9680   0.363   3.492   2.819
 2927SOL    HW2 9681   0.501   3.425   2.874
 2928SOL     OW 9682   5.550   5.823   0.304
 2928SOL    HW1 9683   5.553   5.739   0.357
 2928SOL    HW2 9684   5.559   5.902   0.365
 2929SOL     OW 9685   0.934   0.039   5.551
 2929SOL    HW1 9686   0.955   6.990   5.617
 2929SOL    HW2 9687   0.941   0.128   5.595
 2930SOL     OW 9688   2.853   6.986   4.300
 2930SOL    HW1 9689   2.771   6.991   4.357
 2930SOL    HW2 9690   2.850   6.903   4.244
 2931SOL     OW 9691   4.239   5.073   6.454
 2931SOL    HW1 9692   4.322   5.035   6.413
 2931SOL    HW2 9693   4.255   5.167   6.482
 2932SOL     OW 9694   1.607   4.571   1.645
 2932SOL    HW1 9695   1.634   4.586   1.740
 2932SOL    HW2 9696   1.514   4.605   1.631
 2933SOL     OW 9697   5.052   2.300   3.521
 2933SOL    HW1 9698   5.085   2.393   3.501
 2933SOL    HW2 9699   5.043   2.249   3.435
 2934SOL     OW 9700   2.186   1.257   0.738
 2934SOL    HW1 9701   2.095   1.299   0.732
 2934SOL    HW2 9702   2.209   1.240   0.834
 2935SOL     OW 9703   0.052   1.622   1.005
 2935SOL    HW1 9704   6.991   1.655   0.963
 2935SOL    HW2 9705   0.042   1.620   1.104
 2936SOL     OW 9706   3.192   5.489   0.398
 2936SOL    HW1 9707   3.195   5.552   0.321
 2936SOL    HW2 9708   3.282   5.486   0.443
 2937SOL     OW 9709   2.728   4.178   6.841
 2937SOL    HW1 9710   2.817   4.218   6.821
 2937SOL    HW2 9711   2.735   4.115   6.919
 2938SOL     OW 9712   4.783   4.369   5.965
 2938SOL    HW1 9713   4.797   4.382   5.866
 2938SOL    HW2 9714   4.784   4.272   5.986
 2939SOL     OW 9715   0.454   6.564   5.893
 2939SOL    HW1 9716   0.498   6.616   5.820
 2939SOL    HW2 9717   0.358   6.589   5.899
 2940SOL     OW 9718   3.665   0.265   5.492
 2940SOL    HW1 9719   3.688   0.348   5.543
 2940SOL    HW2 9720   3.673   0.186   5.552
 2941SOL     OW 9721   3.613   1.724   4.787
 2941SOL    HW1 9722   3.521   1.718   4.825
 2941SOL    HW2 9723   3.664   1.642   4.811
 2942SOL     OW 9724   3.859   6.387   4.517
 2942SOL    HW1 9725   3.790   6.372   4.445
 2942SOL    HW2 9726   3.950   6.372   4.479
 2943SOL     OW 9727   5.745   4.900   3.018
 2943SOL    HW1 9728   5.827   4.930   2.968
 2943SOL    HW2 9729   5.772   4.850   3.100
 2944SOL     OW 9730   4.600   6.037   6.951
 2944SOL    HW1 9731   4.541   6.006   0.002
 2944SOL    HW2 9732   4.576   5.988   6.867
 2945SOL     OW 9733   3.071   4.034   4.557
 2945SOL    HW1 9734   2.975   4.061   4.543
 2945SOL    HW2 9735   3.077   3.973   4.636
 2946SOL     OW 9736   0.835   6.057   6.020
 2946SOL    HW1 9737   0.882   6.065   6.108
 2946SOL    HW2 9738   0.798   6.146   5.993
 2947SOL     OW 9739   0.172   5.408   0.235
 2947SOL    HW1 9740   0.074   5.415   0.221
 2947SOL    HW2 9741   0.202   5.314   0.218
 2948SOL     OW 9742   5.765   3.629   5.557
 2948SOL    HW1 9743   5.842   3.565   5.564
 2948SOL    HW2 9744   5.695   3.604   5.623
 2949SOL     OW 9745   0.636   6.221   0.773
 2949SOL    HW1 9746   0.658   6.219   0.675
 2949SOL    HW2 9747   0.590   6.307   0.795
 2950SOL     OW 9748   5.037   3.377   4.484
 2950SOL    HW1 9749   5.116   3.352   4.428
 2950SOL    HW2 9750   5.067   3.436   4.560
 2951SOL     OW 9751   5.773   0.229   0.614
 2951SOL    HW1 9752   5.855   0.180   0.644
 2951SOL    HW2 9753   5.800   0.303   0.552
 2952SOL     OW 9754   0.795   3.449   1.813
 2952SOL    HW1 9755   0.883   3.409   1.789
 2952SOL    HW2 9756   0.728   3.377   1.825
 2953SOL     OW 9757   5.905   2.122   2.163
 2953SOL    HW1 9758   5.821   2.099   2.211
 2953SOL    HW2 9759   5.949   2.200   2.208
 2954SOL     OW 9760   5.116   5.787   1.500
 2954SOL    HW1 9761   5.072   5.697   1.505
 2954SOL    HW2 9762   5.195   5.782   1.439
 2955SOL     OW 9763   6.101   2.451   1.043
 2955SOL    HW1 9764   6.157   2.371   1.021
 2955SOL    HW2 9765   6.112   2.474   1.140
 2956SOL     OW 9766   6.278   5.949   3.463
 2956SOL    HW1 9767   6.200   5.983   3.411
 2956SOL    HW2 9768   6.361   5.996   3.433
 2957SOL     OW 9769   1.629   4.655   1.179
 2957SOL    HW1 9770   1.565   4.700   1.241
 2957SOL    HW2 9771   1.709   4.623   1.231
 2958SOL     OW 9772   2.788   5.412   6.221
 2958SOL    HW1 9773   2.706   5.380   6.269
 2958SOL    HW2 9774   2.861   5.344   6.230
 2959SOL     OW 9775   3.721   5.433   6.976
 2959SOL    HW1 9776   3.800   5.485   6.945
 2959SOL    HW2 9777   3.751   5.346   7.015
 2960SOL     OW 9778   3.133   1.683   6.698
 2960SOL    HW1 9779   3.142   1.652   6.792
 2960SOL    HW2 9780   3.216   1.734   6.672
 2961SOL     OW 9781   5.971   1.588   4.113
 2961SOL    HW1 9782   5.885   1.568   4.068
 2961SOL    HW2 9783   5.959   1.664   4.177
 2962SOL     OW 9784   4.199   0.367   2.852
 2962SOL    HW1 9785   4.184   0.317   2.767
 2962SOL    HW2 9786   4.294   0.395   2.859
 2963SOL     OW 9787   1.930   3.524   4.769
 2963SOL    HW1 9788   1.952   3.621   4.770
 2963SOL    HW2 9789   1.869   3.503   4.845
 2964SOL     OW 9790   2.926   6.158   0.545
 2964SOL    HW1 9791   2.845   6.174   0.601
 2964SOL    HW2 9792   2.991   6.100   0.595
 2965SOL     OW 9793   0.647   2.555   6.093
 2965SOL    HW1 9794   0.567   2.577   6.149
 2965SOL    HW2 9795   0.694   2.476   6.133
 2966SOL     OW 9796   5.123   4.792   3.636
 2966SOL    HW1 9797   5.155   4.860   3.570
 2966SOL    HW2 9798   5.174   4.707   3.624
 2967SOL     OW 9799   5.439   2.511   3.845
 2967SOL    HW1 9800   5.536   2.508   3.822
 2967SOL    HW2 9801   5.426   2.488   3.941
 2968SOL     OW 9802   6.420   3.740   3.306
 2968SOL    HW1 9803   6.478   3.729   3.387
 2968SOL    HW2 9804   6.460   3.688   3.230
 2969SOL     OW 9805   3.697   1.633   4.475
 2969SOL    HW1 9806   3.629   1.588   4.533
 2969SOL    HW2 9807   3.729   1.716   4.521
 2970SOL     OW 9808   1.267   4.157   6.172
 2970SOL    HW1 9809   1.334   4.231   6.166
 2970SOL    HW2 9810   1.175   4.196   6.177
 2971SOL     OW 9811   5.407   3.689   2.587
 2971SOL    HW1 9812   5.373   3.728   2.673
 2971SOL    HW2 9813   5.329   3.655   2.534
 2972SOL     OW 9814   0.992   4.503   4.985
 2972SOL    HW1 9815   0.902   4.511   4.942
 2972SOL    HW2 9816   1.046   4.435   4.935
 2973SOL     OW 9817   5.833   0.119   3.990
 2973SOL    HW1 9818   5.857   0.105   3.894
 2973SOL    HW2 9819   5.772   0.198   3.999
 2974SOL     OW 9820   6.791   4.499   1.590
 2974SOL    HW1 9821   6.876   4.459   1.624
 2974SOL    HW2 9822   6.797   4.599   1.595
 2975SOL     OW 9823   6.571   1.531   4.068
 2975SOL    HW1 9824   6.527   1.449   4.031
 2975SOL    HW2 9825   6.664   1.538   4.032
 2976SOL     OW 9826   2.395   5.960   1.283
 2976SOL    HW1 9827   2.463   5.948   1.211
 2976SOL    HW2 9828   2.422   6.037   1.341
 2977SOL     OW 9829   3.136   6.591   3.867
 2977SOL    HW1 9830   3.146   6.578   3.965
 2977SOL    HW2 9831   3.083   6.515   3.828
 2978SOL     OW 9832   2.875   0.082   6.449
 2978SOL    HW1 9833   2.796   0.114   6.396
 2978SOL    HW2 9834   2.877   7.006   6.448
 2979SOL     OW 9835   3.163   1.230   2.931
 2979SOL    HW1 9836   3.099   1.197   2.861
 2979SOL    HW2 9837   3.229   1.292   2.889
 2980SOL     OW 9838   6.166   6.904   3.536
 2980SOL    HW1 9839   6.128   6.834   3.597
 2980SOL    HW2 9840   6.253   6.936   3.572
 2981SOL     OW 9841   2.139   1.560   6.300
 2981SOL    HW1 9842   2.228   1.605   6.310
 2981SOL    HW2 9843   2.068   1.629   6.291
 2982SOL     OW 9844   4.892   5.732   1.827
 2982SOL    HW1 9845   4.847   5.750   1.914
 2982SOL    HW2 9846   4.983   5.772   1.827
 2983SOL     OW 9847   6.751   0.982   2.731
 2983SOL    HW1 9848   6.686   0.906   2.731
 2983SOL    HW2 9849   6.826   0.962   2.668
 2984SOL     OW 9850   5.928   4.837   1.847
 2984SOL    HW1 9851   5.865   4.822   1.771
 2984SOL    HW2 9852   5.877   4.840   1.933
 2985SOL     OW 9853   6.699   2.646   3.105
 2985SOL    HW1 9854   6.658   2.663   3.195
 2985SOL    HW2 9855   6.696   2.547   3.086
 2986SOL     OW 9856   2.182   3.562   5.093
 2986SOL    HW1 9857   2.260   3.599   5.042
 2986SOL    HW2 9858   2.103   3.622   5.081
 2987SOL     OW 9859   5.098   1.668   5.000
 2987SOL    HW1 9860   5.154   1.665   5.084
 2987SOL    HW2 9861   5.153   1.704   4.925
 2988SOL     OW 9862   1.031   0.063   2.210
 2988SOL    HW1 9863   1.003   0.159   2.212
 2988SOL    HW2 9864   1.117   0.054   2.160
 2989SOL     OW 9865   6.495   5.272   0.775
 2989SOL    HW1 9866   6.460   5.183   0.745
 2989SOL    HW2 9867   6.593   5.263   0.797
 2990SOL     OW 9868   3.006   1.275   1.584
 2990SOL    HW1 9869   3.076   1.346   1.576
 2990SOL    HW2 9870   2.916   1.316   1.567
 2991SOL     OW 9871   6.646   4.701   0.250
 2991SOL    HW1 9872   6.743   4.724   0.262
 2991SOL    HW2 9873   6.615   4.733   0.161
 2992SOL     OW 9874   4.410   4.315   6.721
 2992SOL    HW1 9875   4.412   4.320   6.821
 2992SOL    HW2 9876   4.467   4.238   6.691
 2993SOL     OW 9877   1.482   4.349   0.029
 2993SOL    HW1 9878   1.542   4.337   0.109
 2993SOL    HW2 9879   1.464   4.259   7.012
 2994SOL     OW 9880   4.309   6.164   0.087
 2994SOL    HW1 9881   4.272   6.244   0.039
 2994SOL    HW2 9882   4.404   6.182   0.114
 2995SOL     OW 9883   2.469   0.361   5.553
 2995SOL    HW1 9884   2.428   0.282   5.508
 2995SOL    HW2 9885   2.415   0.387   5.633
 2996SOL     OW 9886   4.381   6.395   5.967
 2996SOL    HW1 9887   4.359   6.308   6.012
 2996SOL    HW2 9888   4.300   6.454   5.968
 2997SOL     OW 9889   4.256   5.800   0.254
 2997SOL    HW1 9890   4.319   5.722   0.254
 2997SOL    HW2 9891   4.165   5.769   0.223
 2998SOL     OW 9892   6.677   4.777   5.389
 2998SOL    HW1 9893   6.754   4.724   5.424
 2998SOL    HW2 9894   6.603   4.714   5.365
 2999SOL     OW 9895   2.393   1.360   1.793
 2999SOL    HW1 9896   2.364   1.282   1.738
 2999SOL    HW2 9897   2.490   1.350   1.816
 3000SOL     OW 9898   1.274   1.891   4.533
 3000SOL    HW1 9899   1.282   1.990   4.540
 3000SOL    HW2 9900   1.233   1.855   4.617
 3001SOL     OW 9901   4.834   6.579   5.762
 3001SOL    HW1 9902   4.881   6.560   5.676
 3001SOL    HW2 9903   4.758   6.516   5.774
 3002SOL     OW 9904   2.998   0.686   5.575
 3002SOL    HW1 9905   2.899   0.689   5.590
 3002SOL    HW2 9906   3.017   0.671   5.478
 3003SOL     OW 9907   1.491   6.804   5.522
 3003SOL    HW1 9908   1.409   6.844   5.562
 3003SOL    HW2 9909   1.559   6.876   5.506
 3004SOL     OW 9910   6.726   2.831   5.877
 3004SOL    HW1 9911   6.726   2.733   5.860
 3004SOL    HW2 9912   6.725   2.847   5.976
 3005SOL     OW 9913   4.762   2.771   0.979
 3005SOL    HW1 9914   4.704   2.731   0.908
 3005SOL    HW2 9915   4.714   2.771   1.066
 3006SOL     OW 9916   4.459   6.965   1.709
 3006SOL    HW1 9917   4.504   6.880   1.737
 3006SOL    HW2 9918   4.525   7.024   1.662
 3007SOL     OW 9919   5.549   5.382   1.960
 3007SOL    HW1 9920   5.621   5.334   2.010
 3007SOL    HW2 9921   5.553   5.480   1.981
 3008SOL     OW 9922   4.474   5.483   5.588
 3008SOL    HW1 9923   4.534   5.493   5.509
 3008SOL    HW2 9924   4.494   5.554   5.655
 3009SOL     OW 9925   1.198   0.592   2.366
 3009SOL    HW1 9926   1.170   0.496   2.378
 3009SOL    HW2 9927   1.129   0.652   2.406
 3010SOL     OW 9928   2.799   6.862   3.141
 3010SOL    HW1 9929   2.870   6.805   3.099
 3010SOL    HW2 9930   2.785   6.944   3.085
 3011SOL     OW 9931   5.541   0.085   0.466
 3011SOL    HW1 9932   5.625   0.126   0.500
 3011SOL    HW2 9933   5.515   0.008   0.525
 3012SOL     OW 9934   0.083   5.011   1.190
 3012SOL    HW1 9935   0.071   4.956   1.107
 3012SOL    HW2 9936   0.023   4.976   1.262
 3013SOL     OW 9937   5.859   4.190   2.138
 3013SOL    HW1 9938   5.865   4.160   2.233
 3013SOL    HW2 9939   5.836   4.288   2.136
 3014SOL     OW 9940   5.122   6.894   5.765
 3014SOL    HW1 9941   5.119   6.924   5.861
 3014SOL    HW2 9942   5.216   6.898   5.732
 3015SOL     OW 9943   2.759   0.986   0.323
 3015SOL    HW1 9944   2.801   0.908   0.275
 3015SOL    HW2 9945   2.805   1.070   0.295
 3016SOL     OW 9946   3.687   6.360   3.626
 3016SOL    HW1 9947   3.757   6.292   3.604
 3016SOL    HW2 9948   3.605   6.342   3.573
 3017SOL     OW 9949   0.369   5.577   1.625
 3017SOL    HW1 9950   0.351   5.494   1.678
 3017SOL    HW2 9951   0.293   5.595   1.563
 3018SOL     OW 9952   4.196   6.787   6.129
 3018SOL    HW1 9953   4.104   6.746   6.127
 3018SOL    HW2 9954   4.230   6.797   6.036
 3019SOL     OW 9955   4.977   0.162   1.895
 3019SOL    HW1 9956   5.034   0.139   1.817
 3019SOL    HW2 9957   4.925   0.081   1.923
 3020SOL     OW 9958   1.842   0.809   2.076
 3020SOL    HW1 9959   1.846   0.883   2.143
 3020SOL    HW2 9960   1.757   0.818   2.023
 3021SOL     OW 9961   4.080   0.780   6.483
 3021SOL    HW1 9962   4.049   0.818   6.570
 3021SOL    HW2 9963   4.109   0.854   6.422
 3022SOL     OW 9964   6.764   0.392   2.907
 3022SOL    HW1 9965   6.824   0.314   2.927
 3022SOL    HW2 9966   6.718   0.378   2.820
 3023SOL     OW 9967   6.150   0.211   1.485
 3023SOL    HW1 9968   6.138   0.278   1.558
 3023SOL    HW2 9969   6.230   0.235   1.431
 3024SOL     OW 9970   2.597   0.130   6.347
 3024SOL    HW1 9971   2.545   0.048   6.372
 3024SOL    HW2 9972   2.587   0.198   6.420
 3025SOL     OW 9973   1.654   2.436   1.630
 3025SOL    HW1 9974   1.715   2.449   1.552
 3025SOL    HW2 9975   1.701   2.383   1.701
 3026SOL     OW 9976   2.381   5.725   0.376
 3026SOL    HW1 9977   2.435   5.806   0.353
 3026SOL    HW2 9978   2.439   5.657   0.420
 3027SOL     OW 9979   1.429   2.016   3.426
 3027SOL    HW1 9980   1.484   2.096   3.403
 3027SOL    HW2 9981   1.364   2.039   3.499
 3028SOL     OW 9982   1.141   0.439   4.939
 3028SOL    HW1 9983   1.106   0.529   4.962
 3028SOL    HW2 9984   1.115   0.415   4.845
 3029SOL     OW 9985   6.159   5.138   5.867
 3029SOL    HW1 9986   6.190   5.225   5.829
 3029SOL    HW2 9987   6.059   5.140   5.878
 3030SOL     OW 9988   1.222   0.561   5.384
 3030SOL    HW1 9989   1.150   0.609   5.332
 3030SOL    HW2 9990   1.232   0.468   5.348
 3031SOL     OW 9991   0.475   5.597   6.104
 3031SOL    HW1 9992   0.491   5.596   6.203
 3031SOL    HW2 9993   0.529   5.670   6.062
 3032SOL     OW 9994   4.097   6.484   5.985
 3032SOL    HW1 9995   4.035   6.549   6.030
 3032SOL    HW2 9996   4.103   6.400   6.038
 3033SOL     OW 9997   5.538   4.611   5.734
 3033SOL    HW1 9998   5.489   4.695   5.707
 3033SOL    HW2 9999   5.599   4.632   5.810
 3034SOL     OW10000   2.613   6.685   4.478
 3034SOL    HW110001   2.610   6.664   4.380
 3034SOL    HW210002   2.519   6.688   4.513
 3035SOL     OW10003   6.303   0.031   6.987
 3035SOL    HW110004   6.302   0.129   7.005
 3035SOL    HW210005   6.320   7.005   0.049
 3036SOL     OW10006   1.246   4.802   5.247
 3036SOL    HW110007   1.292   4.723   5.288
 3036SOL    HW210008   1.208   4.859   5.319
 3037SOL     OW10009   5.388   6.925   5.802
 3037SOL    HW110010   5.414   6.878   5.887
 3037SOL    HW210011   5.397   0.000   5.815
 3038SOL     OW10012   6.059   6.226   6.044
 3038SOL    HW110013   6.110   6.311   6.051
 3038SOL    HW210014   6.099   6.170   5.971
 3039SOL     OW10015   0.722   5.084   0.537
 3039SOL    HW110016   0.754   4.998   0.577
 3039SOL    HW210017   0.678   5.066   0.449
 3040SOL     OW10018   2.973   1.469   6.909
 3040SOL    HW110019   2.988   1.407   6.832
 3040SOL    HW210020   3.061   1.510   6.936
 3041SOL     OW10021   1.953   2.185   6.495
 3041SOL    HW110022   1.958   2.279   6.529
 3041SOL    HW210023   1.910   2.185   6.405
 3042SOL     OW10024   6.248   6.932   1.266
 3042SOL    HW110025   6.230   6.877   1.347
 3042SOL    HW210026   6.175   6.918   1.199
 3043SOL     OW10027   6.741   5.218   6.594
 3043SOL    HW110028   6.696   5.148   6.539
 3043SOL    HW210029   6.729   5.197   6.691
 3044SOL     OW10030   2.410   3.363   6.431
 3044SOL    HW110031   2.421   3.302   6.353
 3044SOL    HW210032   2.475   3.438   6.425
 3045SOL     OW10033   4.826   2.332   3.695
 3045SOL    HW110034   4.908   2.332   3.638
 3045SOL    HW210035   4.756   2.275   3.653
 3046SOL     OW10036   1.849   2.280   5.795
 3046SOL    HW110037   1.839   2.377   5.772
 3046SOL    HW210038   1.808   2.225   5.722
 3047SOL     OW10039   0.261   5.206   1.137
 3047SOL    HW110040   0.202   5.129   1.161
 3047SOL    HW210041   0.253   5.277   1.207
 3048SOL     OW10042   3.214   2.771   1.720
 3048SOL    HW110043   3.134   2.802   1.669
 3048SOL    HW210044   3.281   2.731   1.658
 3049SOL     OW10045   0.730   0.584   1.462
 3049SOL    HW110046   0.630   0.581   1.464
 3049SOL    HW210047   0.766   0.530   1.539
 3050SOL     OW10048   1.891   0.824   4.003
 3050SOL    HW110049   1.938   0.757   3.946
 3050SOL    HW210050   1.793   0.801   4.007
 3051SOL     OW10051   2.893   4.410   6.328
 3051SOL    HW110052   2.907   4.442   6.235
 3051SOL    HW210053   2.801   4.435   6.359
 3052SOL     OW10054   4.972   6.999   2.549
 3052SOL    HW110055   5.026   6.964   2.625
 3052SOL    HW210056   4.885   6.949   2.544
 3053SOL     OW10057   3.962   0.018   1.794
 3053SOL    HW110058   4.051   7.000   1.815
 3053SOL    HW210059   3.897   7.021   1.867
 3054SOL     OW10060   2.094   4.507   5.160
 3054SOL    HW110061   2.169   4.442   5.144
 3054SOL    HW210062   2.130   4.600   5.159
 3055SOL     OW10063   6.407   6.930   3.012
 3055SOL    HW110064   6.365   6.911   2.924
 3055SOL    HW210065   6.362   6.877   3.083
 3056SOL     OW10066   5.294   0.755   1.892
 3056SOL    HW110067   5.355   0.682   1.861
 3056SOL    HW210068   5.251   0.798   1.813
 3057SOL     OW10069   6.236   5.525   2.381
 3057SOL    HW110070   6.159   5.583   2.410
 3057SOL    HW210071   6.321   5.575   2.393
 3058SOL     OW10072   6.065   5.567   1.523
 3058SOL    HW110073   6.162   5.543   1.520
 3058SOL    HW210074   6.010   5.483   1.524
 3059SOL     OW10075   2.248   2.863   5.939
 3059SOL    HW110076   2.305   2.932   5.894
 3059SOL    HW210077   2.176   2.833   5.877
 3060SOL     OW10078   0.566   6.480   0.177
 3060SOL    HW110079   0.483   6.426   0.162
 3060SOL    HW210080   0.585   6.535   0.096
 3061SOL     OW10081   0.610   0.709   5.950
 3061SOL    HW110082   0.521   0.670   5.969
 3061SOL    HW210083   0.650   0.663   5.871
 3062SOL     OW10084   3.017   5.202   6.172
 3062SOL    HW110085   3.011   5.145   6.253
 3062SOL    HW210086   2.993   5.149   6.091
 3063SOL     OW10087   2.752   6.201   0.755
 3063SOL    HW110088   2.847   6.222   0.780
 3063SOL    HW210089   2.691   6.235   0.826
 3064SOL     OW10090   0.014   4.969   3.539
 3064SOL    HW110091   0.072   5.019   3.604
 3064SOL    HW210092   0.040   4.873   3.539
 3065SOL     OW10093   3.324   1.247   1.164
 3065SOL    HW110094   3.244   1.226   1.221
 3065SOL    HW210095   3.373   1.163   1.142
 3066SOL     OW10096   5.416   5.262   0.190
 3066SOL    HW110097   5.476   5.190   0.155
 3066SOL    HW210098   5.410   5.254   0.290
 3067SOL     OW10099   4.284   6.884   3.072
 3067SOL    HW110100   4.306   6.839   3.158
 3067SOL    HW210101   4.199   6.936   3.082
 3068SOL     OW10102   6.244   4.673   0.037
 3068SOL    HW110103   6.175   4.675   0.109
 3068SOL    HW210104   6.313   4.604   0.058
 3069SOL     OW10105   0.910   4.858   3.918
 3069SOL    HW110106   0.964   4.926   3.968
 3069SOL    HW210107   0.828   4.902   3.881
 3070SOL     OW10108   4.276   2.012   4.184
 3070SOL    HW110109   4.236   2.100   4.209
 3070SOL    HW210110   4.239   1.983   4.096
 3071SOL     OW10111   5.443   0.554   3.743
 3071SOL    HW110112   5.442   0.578   3.840
 3071SOL    HW210113   5.424   0.456   3.732
 3072SOL     OW10114   0.203   0.519   1.764
 3072SOL    HW110115   0.243   0.499   1.853
 3072SOL    HW210116   0.185   0.617   1.757
 3073SOL     OW10117   1.912   2.435   5.268
 3073SOL    HW110118   1.944   2.350   5.225
 3073SOL    HW210119   1.812   2.440   5.261
 3074SOL     OW10120   5.221   3.566   5.791
 3074SOL    HW110121   5.167   3.493   5.833
 3074SOL    HW210122   5.278   3.527   5.718
 3075SOL     OW10123   0.114   5.598   0.834
 3075SOL    HW110124   0.043   5.663   0.809
 3075SOL    HW210125   0.169   5.635   0.908
 3076SOL     OW10126   0.441   1.141   5.151
 3076SOL    HW110127   0.517   1.136   5.215
 3076SOL    HW210128   0.469   1.100   5.063
 3077SOL     OW10129   5.283   4.237   3.286
 3077SOL    HW110130   5.380   4.221   3.267
 3077SOL    HW210131   5.242   4.287   3.209
 3078SOL     OW10132   1.771   2.450   0.333
 3078SOL    HW110133   1.750   2.542   0.364
 3078SOL    HW210134   1.720   2.431   0.249
 3079SOL     OW10135   5.481   2.891   6.308
 3079SOL    HW110136   5.468   2.989   6.323
 3079SOL    HW210137   5.551   2.877   6.238
 3080SOL     OW10138   6.236   6.453   1.342
 3080SOL    HW110139   6.241   6.479   1.246
 3080SOL    HW210140   6.191   6.364   1.350
 3081SOL     OW10141   1.020   4.531   5.848
 3081SOL    HW110142   0.967   4.475   5.784
 3081SOL    HW210143   0.990   4.512   5.941
 3082SOL     OW10144   3.212   0.147   2.367
 3082SOL    HW110145   3.175   0.213   2.302
 3082SOL    HW210146   3.172   0.057   2.351
 3083SOL     OW10147   3.509   0.481   2.159
 3083SOL    HW110148   3.526   0.443   2.068
 3083SOL    HW210149   3.514   0.407   2.226
 3084SOL     OW10150   4.207   6.429   4.040
 3084SOL    HW110151   4.293   6.458   4.082
 3084SOL    HW210152   4.194   6.331   4.055
 3085SOL     OW10153   1.126   4.835   2.025
 3085SOL    HW110154   1.057   4.879   1.967
 3085SOL    HW210155   1.136   4.887   2.110
 3086SOL     OW10156   6.540   1.602   4.329
 3086SOL    HW110157   6.548   1.572   4.234
 3086SOL    HW210158   6.446   1.586   4.361
 3087SOL     OW10159   6.020   3.915   1.708
 3087SOL    HW110160   6.008   3.982   1.634
 3087SOL    HW210161   6.008   3.961   1.796
 3088SOL     OW10162   2.997   4.065   6.407
 3088SOL    HW110163   2.975   4.158   6.378
 3088SOL    HW210164   3.097   4.056   6.414
 3089SOL     OW10165   3.414   1.802   1.518
 3089SOL    HW110166   3.317   1.797   1.542
 3089SOL    HW210167   3.438   1.896   1.493
 3090SOL     OW10168   6.697   1.925   0.707
 3090SOL    HW110169   6.685   2.024   0.703
 3090SOL    HW210170   6.608   1.882   0.724
 3091SOL     OW10171   2.106   6.482   0.389
 3091SOL    HW110172   2.194   6.518   0.419
 3091SOL    HW210173   2.101   6.484   0.289
 3092SOL     OW10174   3.562   5.471   0.209
 3092SOL    HW110175   3.474   5.439   0.174
 3092SOL    HW210176   3.620   5.501   0.134
 3093SOL     OW10177   4.726   0.014   3.207
 3093SOL    HW110178   4.771   0.092   3.163
 3093SOL    HW210179   4.631   0.037   3.227
 3094SOL     OW10180   3.232   5.620   5.292
 3094SOL    HW110181   3.221   5.713   5.257
 3094SOL    HW210182   3.298   5.571   5.236
 3095SOL     OW10183   1.827   5.124   5.273
 3095SOL    HW110184   1.872   5.203   5.232
 3095SOL    HW210185   1.861   5.040   5.230
 3096SOL     OW10186   0.352   1.258   5.622
 3096SOL    HW110187   0.351   1.270   5.721
 3096SOL    HW210188   0.406   1.177   5.599
 3097SOL     OW10189   2.059   1.386   0.174
 3097SOL    HW110190   1.998   1.307   0.170
 3097SOL    HW210191   2.124   1.382   0.098
 3098SOL     OW10192   4.431   2.709   0.626
 3098SOL    HW110193   4.456   2.614   0.641
 3098SOL    HW210194   4.340   2.714   0.586
 3099SOL     OW10195   1.687   5.952   5.452
 3099SOL    HW110196   1.733   6.025   5.402
 3099SOL    HW210197   1.592   5.977   5.469
 3100SOL     OW10198   6.491   6.646   6.071
 3100SOL    HW110199   6.589   6.624   6.074
 3100SOL    HW210200   6.474   6.730   6.121
 3101SOL     OW10201   3.641   0.149   1.155
 3101SOL    HW110202   3.602   0.074   1.101
 3101SOL    HW210203   3.660   0.118   1.248
 3102SOL     OW10204   0.741   6.015   0.312
 3102SOL    HW110205   0.664   5.957   0.340
 3102SOL    HW210206   0.733   6.104   0.358
 3103SOL     OW10207   4.243   4.347   1.719
 3103SOL    HW110208   4.324   4.313   1.766
 3103SOL    HW210209   4.172   4.277   1.720
 3104SOL     OW10210   5.813   5.587   3.773
 3104SOL    HW110211   5.788   5.502   3.818
 3104SOL    HW210212   5.730   5.636   3.746
 3105SOL     OW10213   6.065   5.604   3.681
 3105SOL    HW110214   5.987   5.591   3.743
 3105SOL    HW210215   6.031   5.631   3.590
 3106SOL     OW10216   6.331   2.824   5.069
 3106SOL    HW110217   6.249   2.773   5.095
 3106SOL    HW210218   6.325   2.850   4.972
 3107SOL     OW10219   2.435   0.022   4.066
 3107SOL    HW110220   2.497   0.100   4.078
 3107SOL    HW210221   2.475   6.980   4.004
 3108SOL     OW10222   2.256   0.622   2.751
 3108SOL    HW110223   2.238   0.524   2.754
 3108SOL    HW210224   2.271   0.650   2.656
 3109SOL     OW10225   4.804   5.873   3.482
 3109SOL    HW110226   4.903   5.879   3.471
 3109SOL    HW210227   4.783   5.817   3.563
 3110SOL     OW10228   1.420   2.912   1.687
 3110SOL    HW110229   1.509   2.949   1.713
 3110SOL    HW210230   1.353   2.986   1.683
 3111SOL     OW10231   0.308   4.771   2.528
 3111SOL    HW110232   0.330   4.833   2.453
 3111SOL    HW210233   0.390   4.753   2.582
 3112SOL     OW10234   2.699   3.902   5.894
 3112SOL    HW110235   2.703   3.980   5.956
 3112SOL    HW210236   2.758   3.829   5.927
 3113SOL     OW10237   4.015   6.621   3.996
 3113SOL    HW110238   4.084   6.549   3.990
 3113SOL    HW210239   4.002   6.647   4.091
 3114SOL     OW10240   5.351   5.544   0.605
 3114SOL    HW110241   5.399   5.461   0.576
 3114SOL    HW210242   5.289   5.574   0.533
 3115SOL     OW10243   2.850   3.424   1.964
 3115SOL    HW110244   2.753   3.447   1.962
 3115SOL    HW210245   2.864   3.343   2.021
 3116SOL     OW10246   0.459   1.111   6.935
 3116SOL    HW110247   0.390   1.084   6.867
 3116SOL    HW210248   0.496   1.029   6.979
 3117SOL     OW10249   3.646   4.245   5.759
 3117SOL    HW110250   3.648   4.183   5.837
 3117SOL    HW210251   3.551   4.255   5.727
 3118SOL     OW10252   6.149   5.368   0.106
 3118SOL    HW110253   6.110   5.278   0.083
 3118SOL    HW210254   6.171   5.417   0.022
 3119SOL     OW10255   2.222   4.163   6.906
 3119SOL    HW110256   2.136   4.132   6.864
 3119SOL    HW210257   2.204   4.245   6.960
 3120SOL     OW10258   2.569   5.326   6.360
 3120SOL    HW110259   2.478   5.365   6.354
 3120SOL    HW210260   2.573   5.262   6.437
 3121SOL     OW10261   0.389   6.025   3.462
 3121SOL    HW110262   0.440   6.108   3.443
 3121SOL    HW210263   0.421   5.984   3.547
 3122SOL     OW10264   3.615   5.468   1.175
 3122SOL    HW110265   3.622   5.469   1.075
 3122SOL    HW210266   3.620   5.562   1.210
 3123SOL     OW10267   3.706   6.727   4.154
 3123SOL    HW110268   3.649   6.800   4.193
 3123SOL    HW210269   3.799   6.733   4.191
 3124SOL     OW10270   3.515   6.964   6.290
 3124SOL    HW110271   3.515   0.023   6.346
 3124SOL    HW210272   3.496   6.987   6.195
 3125SOL     OW10273   0.213   2.437   5.573
 3125SOL    HW110274   0.148   2.367   5.542
 3125SOL    HW210275   0.265   2.402   5.651
 3126SOL     OW10276   3.808   6.137   6.447
 3126SOL    HW110277   3.860   6.221   6.438
 3126SOL    HW210278   3.744   6.145   6.523
 3127SOL     OW10279   1.248   1.631   4.080
 3127SOL    HW110280   1.260   1.688   3.999
 3127SOL    HW210281   1.221   1.689   4.157
 3128SOL     OW10282   1.756   0.553   1.455
 3128SOL    HW110283   1.661   0.531   1.432
 3128SOL    HW210284   1.814   0.474   1.434
 3129SOL     OW10285   1.146   3.178   3.271
 3129SOL    HW110286   1.127   3.256   3.212
 3129SOL    HW210287   1.239   3.145   3.253
 3130SOL     OW10288   2.621   5.430   3.433
 3130SOL    HW110289   2.640   5.364   3.361
 3130SOL    HW210290   2.524   5.430   3.454
 3131SOL     OW10291   1.024   2.905   4.625
 3131SOL    HW110292   0.928   2.888   4.603
 3131SOL    HW210293   1.062   2.970   4.560
 3132SOL     OW10294   5.132   4.425   5.592
 3132SOL    HW110295   5.210   4.429   5.655
 3132SOL    HW210296   5.056   4.478   5.631
 3133SOL     OW10297   2.256   1.835   3.341
 3133SOL    HW110298   2.300   1.755   3.381
 3133SOL    HW210299   2.156   1.822   3.343
 3134SOL     OW10300   5.483   2.963   1.437
 3134SOL    HW110301   5.523   3.037   1.491
 3134SOL    HW210302   5.398   2.994   1.394
 3135SOL     OW10303   1.830   2.159   3.299
 3135SOL    HW110304   1.792   2.067   3.300
 3135SOL    HW210305   1.904   2.166   3.366
 3136SOL     OW10306   6.151   7.020   5.003
 3136SOL    HW110307   6.166   6.949   4.934
 3136SOL    HW210308   6.233   0.054   5.009
 3137SOL     OW10309   0.446   2.127   4.320
 3137SOL    HW110310   0.493   2.167   4.242
 3137SOL    HW210311   0.367   2.074   4.288
 3138SOL     OW10312   5.815   2.169   4.336
 3138SOL    HW110313   5.795   2.242   4.402
 3138SOL    HW210314   5.783   2.082   4.371
 3139SOL     OW10315   4.632   5.508   5.331
 3139SOL    HW110316   4.686   5.580   5.375
 3139SOL    HW210317   4.693   5.433   5.303
 3140SOL     OW10318   5.659   6.339   6.022
 3140SOL    HW110319   5.726   6.324   5.950
 3140SOL    HW210320   5.600   6.416   5.997
 3141SOL     OW10321   1.103   5.734   2.176
 3141SOL    HW110322   1.024   5.727   2.236
 3141SOL    HW210323   1.138   5.642   2.156
 3142SOL     OW10324   3.898   0.056   0.221
 3142SOL    HW110325   3.899   6.993   0.272
 3142SOL    HW210326   3.837   0.047   0.142
 3143SOL     OW10327   0.420   1.843   0.848
 3143SOL    HW110328   0.489   1.851   0.776
 3143SOL    HW210329   0.336   1.888   0.819
 3144SOL     OW10330   1.977   3.005   6.980
 3144SOL    HW110331   1.888   2.960   6.972
 3144SOL    HW210332   2.048   2.947   6.939
 3145SOL     OW10333   3.121   5.142   3.332
 3145SOL    HW110334   3.182   5.067   3.306
 3145SOL    HW210335   3.134   5.164   3.428
 3146SOL     OW10336   2.386   6.977   3.771
 3146SOL    HW110337   2.355   0.011   3.847
 3146SOL    HW210338   2.408   6.885   3.806
 3147SOL     OW10339   3.614   4.500   0.573
 3147SOL    HW110340   3.683   4.485   0.644
 3147SOL    HW210341   3.533   4.542   0.614
 3148SOL     OW10342   3.034   6.092   4.802
 3148SOL    HW110343   3.110   6.027   4.796
 3148SOL    HW210344   3.006   6.120   4.710
 3149SOL     OW10345   2.386   6.775   5.979
 3149SOL    HW110346   2.428   6.789   5.889
 3149SOL    HW210347   2.457   6.779   6.049
 3150SOL     OW10348   6.883   6.774   4.266
 3150SOL    HW110349   6.924   6.790   4.357
 3150SOL    HW210350   6.940   6.818   4.196
 3151SOL     OW10351   3.881   6.794   1.660
 3151SOL    HW110352   3.806   6.752   1.711
 3151SOL    HW210353   3.928   6.861   1.719
 3152SOL     OW10354   1.501   4.554   6.396
 3152SOL    HW110355   1.571   4.623   6.415
 3152SOL    HW210356   1.514   4.476   6.457
 3153SOL     OW10357   6.714   4.612   3.168
 3153SOL    HW110358   6.685   4.705   3.192
 3153SOL    HW210359   6.767   4.615   3.083
 3154SOL     OW10360   5.766   2.464   6.267
 3154SOL    HW110361   5.697   2.503   6.206
 3154SOL    HW210362   5.821   2.538   6.307
 3155SOL     OW10363   4.483   6.047   0.508
 3155SOL    HW110364   4.400   6.066   0.457
 3155SOL    HW210365   4.496   6.118   0.578
 3156SOL     OW10366   3.778   3.302   3.467
 3156SOL    HW110367   3.856   3.266   3.415
 3156SOL    HW210368   3.811   3.355   3.545
 3157SOL     OW10369   2.291   2.448   5.043
 3157SOL    HW110370   2.284   2.369   4.983
 3157SOL    HW210371   2.381   2.491   5.033
 3158SOL     OW10372   4.539   6.814   1.469
 3158SOL    HW110373   4.562   6.774   1.380
 3158SOL    HW210374   4.461   6.874   1.459
 3159SOL     OW10375   5.017   4.648   0.371
 3159SOL    HW110376   4.965   4.638   0.287
 3159SOL    HW210377   5.055   4.741   0.376
 3160SOL     OW10378   6.100   4.723   0.649
 3160SOL    HW110379   6.069   4.649   0.709
 3160SOL    HW210380   6.134   4.685   0.563
 3161SOL     OW10381   1.171   1.313   3.756
 3161SOL    HW110382   1.137   1.392   3.808
 3161SOL    HW210383   1.097   1.247   3.743
 3162SOL     OW10384   0.031   0.022   5.692
 3162SOL    HW110385   0.066   6.983   5.622
 3162SOL    HW210386   7.008   6.993   5.763
 3163SOL     OW10387   1.875   4.667   5.252
 3163SOL    HW110388   1.930   4.591   5.216
 3163SOL    HW210389   1.870   4.659   5.352
 3164SOL     OW10390   6.287   5.334   5.750
 3164SOL    HW110391   6.224   5.411   5.741
 3164SOL    HW210392   6.379   5.364   5.727
 3165SOL     OW10393   0.648   2.853   1.792
 3165SOL    HW110394   0.658   2.924   1.723
 3165SOL    HW210395   0.587   2.885   1.864
 3166SOL     OW10396   4.279   3.097   6.364
 3166SOL    HW110397   4.268   3.073   6.268
 3166SOL    HW210398   4.367   3.063   6.398
 3167SOL     OW10399   0.173   4.793   2.256
 3167SOL    HW110400   0.141   4.782   2.350
 3167SOL    HW210401   0.199   4.705   2.219
 3168SOL     OW10402   6.131   2.820   0.996
 3168SOL    HW110403   6.157   2.873   1.077
 3168SOL    HW210404   6.198   2.747   0.981
 3169SOL     OW10405   2.357   1.924   5.605
 3169SOL    HW110406   2.319   1.935   5.697
 3169SOL    HW210407   2.309   1.985   5.542
 3170SOL     OW10408   3.789   6.741   5.448
 3170SOL    HW110409   3.691   6.741   5.469
 3170SOL    HW210410   3.827   6.651   5.465
 3171SOL     OW10411   5.820   6.083   2.976
 3171SOL    HW110412   5.789   6.092   3.070
 3171SOL    HW210413   5.742   6.093   2.914
 3172SOL     OW10414   6.084   6.825   5.809
 3172SOL    HW110415   6.048   6.855   5.898
 3172SOL    HW210416   6.048   6.734   5.787
 3173SOL     OW10417   2.244   1.015   1.922
 3173SOL    HW110418   2.263   1.060   1.836
 3173SOL    HW210419   2.276   0.920   1.918
 3174SOL     OW10420   2.302   3.241   6.854
 3174SOL    HW110421   2.284   3.295   6.937
 3174SOL    HW210422   2.258   3.284   6.776
 3175SOL     OW10423   0.222   6.640   0.221
 3175SOL    HW110424   0.250   6.726   0.264
 3175SOL    HW210425   0.168   6.587   0.286
 3176SOL     OW10426   1.052   5.329   0.004
 3176SOL    HW110427   0.965   5.378   0.017
 3176SOL    HW210428   1.033   5.233   7.007
 3177SOL     OW10429   0.647   6.620   4.375
 3177SOL    HW110430   0.636   6.623   4.275
 3177SOL    HW210431   0.736   6.580   4.397
 3178SOL     OW10432   3.449   3.265   7.016
 3178SOL    HW110433   3.385   3.306   6.952
 3178SOL    HW210434   3.407   3.257   0.082
 3179SOL     OW10435   1.474   2.298   4.012
 3179SOL    HW110436   1.466   2.249   4.099
 3179SOL    HW210437   1.571   2.315   3.992
 3180SOL     OW10438   6.462   1.404   6.537
 3180SOL    HW110439   6.401   1.433   6.463
 3180SOL    HW210440   6.496   1.312   6.517
 3181SOL     OW10441   1.081   1.882   2.802
 3181SOL    HW110442   1.024   1.825   2.742
 3181SOL    HW210443   1.071   1.977   2.775
 3182SOL     OW10444   1.721   4.597   5.900
 3182SOL    HW110445   1.698   4.667   5.832
 3182SOL    HW210446   1.761   4.642   5.980
 3183SOL     OW10447   4.312   3.543   1.204
 3183SOL    HW110448   4.312   3.444   1.184
 3183SOL    HW210449   4.361   3.560   1.289
 3184SOL     OW10450   0.634   2.043   3.438
 3184SOL    HW110451   0.675   2.075   3.353
 3184SOL    HW210452   0.654   2.108   3.511
 3185SOL     OW10453   0.520   6.428   6.803
 3185SOL    HW110454   0.495   6.331   6.808
 3185SOL    HW210455   0.510   6.460   6.708
 3186SOL     OW10456   3.150   0.237   1.491
 3186SOL    HW110457   3.137   0.257   1.394
 3186SOL    HW210458   3.247   0.232   1.511
 3187SOL     OW10459   3.001   4.368   0.217
 3187SOL    HW110460   2.953   4.436   0.271
 3187SOL    HW210461   3.038   4.411   0.134
 3188SOL     OW10462   3.785   6.745   3.218
 3188SOL    HW110463   3.885   6.743   3.222
 3188SOL    HW210464   3.747   6.712   3.305
 3189SOL     OW10465   5.986   6.610   2.396
 3189SOL    HW110466   5.955   6.515   2.389
 3189SOL    HW210467   5.960   6.659   2.313
 3190SOL     OW10468   1.259   0.016   2.014
 3190SOL    HW110469   1.318   0.033   1.936
 3190SOL    HW210470   1.315   7.019   2.094
 3191SOL     OW10471   3.925   1.434   0.191
 3191SOL    HW110472   3.846   1.495   0.183
 3191SOL    HW210473   3.893   1.342   0.216
 3192SOL     OW10474   5.465   2.417   4.122
 3192SOL    HW110475   5.381   2.396   4.173
 3192SOL    HW210476   5.530   2.462   4.182
 3193SOL     OW10477   5.240   4.252   1.519
 3193SOL    HW110478   5.325   4.305   1.523
 3193SOL    HW210479   5.163   4.309   1.549
 3194SOL     OW10480   2.683   5.696   4.786
 3194SOL    HW110481   2.719   5.607   4.812
 3194SOL    HW210482   2.652   5.745   4.868
 3195SOL     OW10483   0.002   4.682   3.700
 3195SOL    HW110484   0.065   4.623   3.649
 3195SOL    HW210485   0.043   4.704   3.789
 3196SOL     OW10486   0.140   6.235   6.292
 3196SOL    HW110487   0.078   6.156   6.287
 3196SOL    HW210488   0.135   6.287   6.207
 3197SOL     OW10489   1.005   4.495   5.268
 3197SOL    HW110490   0.997   4.493   5.168
 3197SOL    HW210491   1.068   4.424   5.297
 3198SOL     OW10492   6.022   0.112   0.652
 3198SOL    HW110493   6.026   0.079   0.558
 3198SOL    HW210494   6.058   0.043   0.714
 3199SOL     OW10495   3.079   1.348   3.204
 3199SOL    HW110496   2.984   1.354   3.173
 3199SOL    HW210497   3.138   1.396   3.140
 3200SOL     OW10498   6.248   1.951   0.447
 3200SOL    HW110499   6.151   1.970   0.465
 3200SOL    HW210500   6.259   1.857   0.415
 3201SOL     OW10501   4.188   4.744   2.961
 3201SOL    HW110502   4.089   4.756   2.967
 3201SOL    HW210503   4.230   4.776   3.047
 3202SOL     OW10504   1.472   5.067   1.710
 3202SOL    HW110505   1.437   5.150   1.667
 3202SOL    HW210506   1.534   5.092   1.785
 3203SOL     OW10507   4.634   0.144   0.472
 3203SOL    HW110508   4.618   0.114   0.566
 3203SOL    HW210509   4.707   0.088   0.432
 3204SOL     OW10510   6.126   6.397   1.715
 3204SOL    HW110511   6.211   6.352   1.691
 3204SOL    HW210512   6.059   6.383   1.642
 3205SOL     OW10513   0.967   3.874   4.596
 3205SOL    HW110514   0.962   3.808   4.671
 3205SOL    HW210515   0.972   3.825   4.509
 3206SOL     OW10516   1.894   6.726   0.151
 3206SOL    HW110517   1.954   6.672   0.092
 3206SOL    HW210518   1.873   6.813   0.106
 3207SOL     OW10519   1.584   1.594   2.875
 3207SOL    HW110520   1.503   1.635   2.832
 3207SOL    HW210521   1.561   1.505   2.913
 3208SOL     OW10522   6.453   6.642   5.481
 3208SOL    HW110523   6.412   6.559   5.444
 3208SOL    HW210524   6.405   6.722   5.444
 3209SOL     OW10525   0.931   6.722   3.758
 3209SOL    HW110526   0.977   6.636   3.782
 3209SOL    HW210527   0.905   6.719   3.661
 3210SOL     OW10528   0.701   5.594   2.324
 3210SOL    HW110529   0.775   5.658   2.347
 3210SOL    HW210530   0.643   5.635   2.254
 3211SOL     OW10531   0.179   4.510   3.546
 3211SOL    HW110532   0.217   4.576   3.482
 3211SOL    HW210533   0.251   4.478   3.608
 3212SOL     OW10534   4.591   2.735   4.894
 3212SOL    HW110535   4.582   2.718   4.795
 3212SOL    HW210536   4.560   2.655   4.944
 3213SOL     OW10537   5.585   0.010   1.373
 3213SOL    HW110538   5.645   7.001   1.300
 3213SOL    HW210539   5.633   0.079   1.428
 3214SOL     OW10540   4.640   3.978   0.016
 3214SOL    HW110541   4.651   3.915   0.093
 3214SOL    HW210542   4.567   3.946   6.980
 3215SOL     OW10543   6.253   1.492   6.921
 3215SOL    HW110544   6.185   1.476   6.850
 3215SOL    HW210545   6.338   1.525   6.878
 3216SOL     OW10546   5.104   6.418   4.962
 3216SOL    HW110547   5.195   6.415   5.004
 3216SOL    HW210548   5.069   6.325   4.951
 3217SOL     OW10549   6.646   4.312   6.482
 3217SOL    HW110550   6.649   4.263   6.568
 3217SOL    HW210551   6.550   4.329   6.456
 3218SOL     OW10552   4.018   2.236   1.545
 3218SOL    HW110553   3.945   2.242   1.478
 3218SOL    HW210554   3.986   2.273   1.632
 3219SOL     OW10555   0.413   1.516   3.052
 3219SOL    HW110556   0.512   1.511   3.038
 3219SOL    HW210557   0.367   1.465   2.979
 3220SOL     OW10558   6.377   3.168   6.503
 3220SOL    HW110559   6.395   3.254   6.550
 3220SOL    HW210560   6.372   3.094   6.571
 3221SOL     OW10561   3.526   0.758   1.784
 3221SOL    HW110562   3.579   0.753   1.868
 3221SOL    HW210563   3.428   0.764   1.807
 3222SOL     OW10564   6.599   4.152   2.594
 3222SOL    HW110565   6.574   4.189   2.505
 3222SOL    HW210566   6.587   4.222   2.664
 3223SOL     OW10567   1.711   4.108   4.530
 3223SOL    HW110568   1.667   4.140   4.614
 3223SOL    HW210569   1.808   4.091   4.549
 3224SOL     OW10570   3.438   6.202   1.039
 3224SOL    HW110571   3.338   6.203   1.036
 3224SOL    HW210572   3.470   6.114   1.075
 3225SOL     OW10573   1.575   2.813   0.874
 3225SOL    HW110574   1.537   2.905   0.876
 3225SOL    HW210575   1.520   2.755   0.814
 3226SOL     OW10576   6.547   1.029   3.870
 3226SOL    HW110577   6.510   0.951   3.920
 3226SOL    HW210578   6.646   1.019   3.860
 3227SOL     OW10579   2.341   1.520   5.422
 3227SOL    HW110580   2.389   1.572   5.351
 3227SOL    HW210581   2.378   1.545   5.512
 3228SOL     OW10582   4.937   3.336   4.910
 3228SOL    HW110583   5.016   3.335   4.972
 3228SOL    HW210584   4.893   3.425   4.914
 3229SOL     OW10585   4.669   1.880   5.173
 3229SOL    HW110586   4.597   1.902   5.107
 3229SOL    HW210587   4.661   1.941   5.252
 3230SOL     OW10588   1.348   0.256   3.882
 3230SOL    HW110589   1.349   0.308   3.967
 3230SOL    HW210590   1.392   0.310   3.810
 3231SOL     OW10591   4.377   4.394   0.600
 3231SOL    HW110592   4.429   4.472   0.566
 3231SOL    HW210593   4.436   4.314   0.603
 3232SOL     OW10594   0.960   3.806   3.324
 3232SOL    HW110595   0.898   3.849   3.390
 3232SOL    HW210596   1.054   3.829   3.346
 3233SOL     OW10597   2.361   4.258   0.998
 3233SOL    HW110598   2.312   4.209   0.926
 3233SOL    HW210599   2.337   4.219   1.087
 3234SOL     OW10600   0.128   1.731   4.740
 3234SOL    HW110601   0.081   1.658   4.790
 3234SOL    HW210602   0.112   1.818   4.787
 3235SOL     OW10603   6.027   0.743   2.579
 3235SOL    HW110604   5.966   0.821   2.561
 3235SOL    HW210605   6.079   0.760   2.663
 3236SOL     OW10606   0.438   2.042   1.440
 3236SOL    HW110607   0.509   1.986   1.396
 3236SOL    HW210608   0.403   2.109   1.374
 3237SOL     OW10609   2.960   6.216   4.520
 3237SOL    HW110610   2.946   6.309   4.554
 3237SOL    HW210611   3.057   6.202   4.503
 3238SOL     OW10612   6.687   6.842   6.909
 3238SOL    HW110613   6.742   6.858   6.827
 3238SOL    HW210614   6.739   6.870   6.990
 3239SOL     OW10615   1.839   6.284   6.079
 3239SOL    HW110616   1.826   6.285   5.980
 3239SOL    HW210617   1.925   6.329   6.102
 3240SOL     OW10618   1.214   2.200   4.794
 3240SOL    HW110619   1.291   2.183   4.856
 3240SOL    HW210620   1.128   2.195   4.845
 3241SOL     OW10621   3.657   6.564   5.087
 3241SOL    HW110622   3.602   6.638   5.048
 3241SOL    HW210623   3.737   6.549   5.029
 3242SOL     OW10624   3.170   0.354   0.738
 3242SOL    HW110625   3.125   0.339   0.826
 3242SOL    HW210626   3.104   0.390   0.672
 3243SOL     OW10627   4.236   5.295   2.034
 3243SOL    HW110628   4.199   5.206   2.060
 3243SOL    HW210629   4.309   5.283   1.967
 3244SOL     OW10630   0.907   0.069   5.035
 3244SOL    HW110631   0.989   0.012   5.030
 3244SOL    HW210632   0.930   0.158   5.073
 3245SOL     OW10633   3.400   1.662   5.688
 3245SOL    HW110634   3.427   1.742   5.742
 3245SOL    HW210635   3.380   1.691   5.594
 3246SOL     OW10636   5.577   6.537   2.855
 3246SOL    HW110637   5.486   6.527   2.814
 3246SOL    HW210638   5.614   6.627   2.834
 3247SOL     OW10639   5.943   3.096   5.664
 3247SOL    HW110640   6.012   3.168   5.657
 3247SOL    HW210641   5.986   3.007   5.650
 3248SOL     OW10642   4.978   4.116   3.258
 3248SOL    HW110643   5.054   4.150   3.313
 3248SOL    HW210644   4.899   4.099   3.317
 3249SOL     OW10645   3.221   5.375   5.564
 3249SOL    HW110646   3.211   5.290   5.616
 3249SOL    HW210647   3.162   5.373   5.484
 3250SOL     OW10648   4.185   4.440   1.064
 3250SOL    HW110649   4.169   4.538   1.073
 3250SOL    HW210650   4.213   4.419   0.971
 3251SOL     OW10651   2.953   1.226   3.417
 3251SOL    HW110652   2.862   1.267   3.412
 3251SOL    HW210653   3.020   1.285   3.373
 3252SOL     OW10654   3.157   2.164   2.969
 3252SOL    HW110655   3.082   2.124   3.021
 3252SOL    HW210656   3.128   2.183   2.876
 3253SOL     OW10657   5.096   4.265   1.815
 3253SOL    HW110658   5.192   4.290   1.827
 3253SOL    HW210659   5.088   4.198   1.741
 3254SOL     OW10660   6.611   4.644   2.489
 3254SOL    HW110661   6.598   4.615   2.395
 3254SOL    HW210662   6.554   4.725   2.508
 3255SOL     OW10663   3.553   4.977   0.715
 3255SOL    HW110664   3.486   4.988   0.641
 3255SOL    HW210665   3.576   5.066   0.753
 3256SOL     OW10666   6.543   0.288   5.191
 3256SOL    HW110667   6.537   0.256   5.285
 3256SOL    HW210668   6.496   0.376   5.182
 3257SOL     OW10669   2.811   1.175   1.366
 3257SOL    HW110670   2.810   1.092   1.422
 3257SOL    HW210671   2.768   1.250   1.417
 3258SOL     OW10672   4.972   6.468   1.815
 3258SOL    HW110673   5.002   6.451   1.909
 3258SOL    HW210674   5.031   6.416   1.752
 3259SOL     OW10675   5.433   5.732   3.228
 3259SOL    HW110676   5.515   5.726   3.285
 3259SOL    HW210677   5.428   5.652   3.168
 3260SOL     OW10678   2.592   1.526   1.099
 3260SOL    HW110679   2.675   1.489   1.143
 3260SOL    HW210680   2.552   1.456   1.040
 3261SOL     OW10681   4.775   6.606   3.764
 3261SOL    HW110682   4.701   6.654   3.811
 3261SOL    HW210683   4.737   6.550   3.691
 3262SOL     OW10684   4.802   1.977   3.462
 3262SOL    HW110685   4.713   1.974   3.416
 3262SOL    HW210686   4.795   1.927   3.549
 3263SOL     OW10687   3.203   4.920   2.947
 3263SOL    HW110688   3.206   4.901   3.045
 3263SOL    HW210689   3.115   4.890   2.910
 3264SOL     OW10690   5.431   4.498   6.351
 3264SOL    HW110691   5.377   4.418   6.378
 3264SOL    HW210692   5.471   4.482   6.261
 3265SOL     OW10693   5.500   6.843   5.549
 3265SOL    HW110694   5.437   6.807   5.480
 3265SOL    HW210695   5.448   6.875   5.628
 3266SOL     OW10696   1.213   2.688   6.915
 3266SOL    HW110697   1.135   2.701   6.975
 3266SOL    HW210698   1.231   2.772   6.864
 3267SOL     OW10699   5.284   3.937   1.955
 3267SOL    HW110700   5.350   3.994   2.004
 3267SOL    HW210701   5.307   3.936   1.858
 3268SOL     OW10702   1.850   5.342   0.485
 3268SOL    HW110703   1.765   5.392   0.468
 3268SOL    HW210704   1.840   5.285   0.566
 3269SOL     OW10705   4.382   3.614   0.924
 3269SOL    HW110706   4.479   3.628   0.907
 3269SOL    HW210707   4.367   3.593   1.020
 3270SOL     OW10708   6.816   5.894   3.709
 3270SOL    HW110709   6.875   5.827   3.662
 3270SOL    HW210710   6.722   5.879   3.680
 3271SOL     OW10711   4.810   6.836   1.294
 3271SOL    HW110712   4.840   6.742   1.308
 3271SOL    HW210713   4.890   6.894   1.278
 3272SOL     OW10714   4.680   5.581   6.185
 3272SOL    HW110715   4.655   5.490   6.151
 3272SOL    HW210716   4.601   5.641   6.178
 3273SOL     OW10717   0.362   0.345   3.050
 3273SOL    HW110718   0.298   0.403   3.000
 3273SOL    HW210719   0.363   0.253   3.010
 3274SOL     OW10720   2.911   0.929   0.621
 3274SOL    HW110721   2.834   0.944   0.683
 3274SOL    HW210722   2.937   1.016   0.579
 3275SOL     OW10723   4.137   0.118   6.979
 3275SOL    HW110724   4.226   0.144   7.016
 3275SOL    HW210725   4.115   0.176   6.901
 3276SOL     OW10726   1.493   5.878   1.370
 3276SOL    HW110727   1.444   5.859   1.284
 3276SOL    HW210728   1.484   5.800   1.431
 3277SOL     OW10729   0.159   6.302   6.960
 3277SOL    HW110730   0.073   6.322   7.006
 3277SOL    HW210731   0.146   6.305   6.861
 3278SOL     OW10732   1.195   0.090   0.211
 3278SOL    HW110733   1.156   0.136   0.291
 3278SOL    HW210734   1.293   0.077   0.224
 3279SOL     OW10735   2.305   6.790   1.471
 3279SOL    HW110736   2.314   6.889   1.483
 3279SOL    HW210737   2.293   6.746   1.560
 3280SOL     OW10738   2.762   6.064   3.699
 3280SOL    HW110739   2.672   6.101   3.678
 3280SOL    HW210740   2.760   5.964   3.693
 3281SOL     OW10741   1.176   5.948   1.190
 3281SOL    HW110742   1.129   5.974   1.274
 3281SOL    HW210743   1.207   6.030   1.142
 3282SOL     OW10744   1.886   4.863   2.849
 3282SOL    HW110745   1.800   4.909   2.874
 3282SOL    HW210746   1.868   4.765   2.834
 3283SOL     OW10747   1.660   0.564   3.815
 3283SOL    HW110748   1.661   0.529   3.909
 3283SOL    HW210749   1.582   0.526   3.766
 3284SOL     OW10750   1.755   5.811   5.694
 3284SOL    HW110751   1.699   5.880   5.647
 3284SOL    HW210752   1.699   5.764   5.762
 3285SOL     OW10753   0.540   2.621   4.433
 3285SOL    HW110754   0.480   2.595   4.509
 3285SOL    HW210755   0.572   2.715   4.447
 3286SOL     OW10756   4.847   4.766   6.222
 3286SOL    HW110757   4.854   4.669   6.241
 3286SOL    HW210758   4.778   4.807   6.281
 3287SOL     OW10759   0.366   2.790   1.670
 3287SOL    HW110760   0.286   2.758   1.722
 3287SOL    HW210761   0.428   2.840   1.731
 3288SOL     OW10762   0.728   0.220   0.653
 3288SOL    HW110763   0.821   0.231   0.689
 3288SOL    HW210764   0.725   0.253   0.558
 3289SOL     OW10765   1.606   0.423   4.078
 3289SOL    HW110766   1.509   0.410   4.094
 3289SOL    HW210767   1.656   0.339   4.101
 3290SOL     OW10768   0.157   4.829   3.881
 3290SOL    HW110769   0.170   4.877   3.968
 3290SOL    HW210770   0.198   4.882   3.807
 3291SOL     OW10771   1.225   1.996   1.697
 3291SOL    HW110772   1.142   2.048   1.716
 3291SOL    HW210773   1.232   1.920   1.761
 3292SOL     OW10774   0.726   6.114   4.542
 3292SOL    HW110775   0.680   6.030   4.570
 3292SOL    HW210776   0.803   6.092   4.482
 3293SOL     OW10777   6.073   0.531   2.895
 3293SOL    HW110778   6.150   0.584   2.860
 3293SOL    HW210779   6.017   0.588   2.955
 3294SOL     OW10780   6.566   0.181   0.735
 3294SOL    HW110781   6.521   0.270   0.738
 3294SOL    HW210782   6.514   0.115   0.789
 3295SOL     OW10783   2.822   3.048   5.817
 3295SOL    HW110784   2.758   2.985   5.861
 3295SOL    HW210785   2.772   3.127   5.781
 3296SOL     OW10786   1.118   6.712   1.894
 3296SOL    HW110787   1.174   6.789   1.926
 3296SOL    HW210788   1.078   6.666   1.973
 3297SOL     OW10789   3.385   0.981   5.627
 3297SOL    HW110790   3.462   1.036   5.593
 3297SOL    HW210791   3.303   1.038   5.631
 3298SOL     OW10792   0.576   4.932   3.019
 3298SOL    HW110793   0.614   5.021   2.992
 3298SOL    HW210794   0.629   4.859   2.976
 3299SOL     OW10795   1.389   1.568   4.433
 3299SOL    HW110796   1.326   1.608   4.366
 3299SOL    HW210797   1.340   1.500   4.488
 3300SOL     OW10798   6.996   6.622   4.858
 3300SOL    HW110799   6.897   6.612   4.851
 3300SOL    HW210800   7.018   6.701   4.915
 3301SOL     OW10801   6.299   4.177   2.148
 3301SOL    HW110802   6.253   4.240   2.212
 3301SOL    HW210803   6.247   4.092   2.142
 3302SOL     OW10804   1.426   6.023   5.505
 3302SOL    HW110805   1.394   5.930   5.524
 3302SOL    HW210806   1.411   6.044   5.408
 3303SOL     OW10807   3.311   3.380   4.864
 3303SOL    HW110808   3.336   3.372   4.767
 3303SOL    HW210809   3.299   3.476   4.888
 3304SOL     OW10810   1.641   1.057   3.883
 3304SOL    HW110811   1.663   1.040   3.979
 3304SOL    HW210812   1.724   1.083   3.834
 3305SOL     OW10813   0.817   2.629   0.499
 3305SOL    HW110814   0.844   2.673   0.585
 3305SOL    HW210815   0.729   2.583   0.512
 3306SOL     OW10816   1.815   1.653   0.947
 3306SOL    HW110817   1.900   1.687   0.988
 3306SOL    HW210818   1.738   1.682   1.003
 3307SOL     OW10819   0.585   0.039   6.711
 3307SOL    HW110820   0.574   6.975   6.758
 3307SOL    HW210821   0.681   0.054   6.690
 3308SOL     OW10822   5.417   5.938   0.907
 3308SOL    HW110823   5.437   6.025   0.861
 3308SOL    HW210824   5.320   5.917   0.898
 3309SOL     OW10825   1.194   4.278   1.755
 3309SOL    HW110826   1.175   4.184   1.785
 3309SOL    HW210827   1.134   4.300   1.678
 3310SOL     OW10828   1.929   6.017   1.990
 3310SOL    HW110829   1.974   5.928   2.002
 3310SOL    HW210830   1.830   6.005   1.987
 3311SOL     OW10831   3.988   5.356   0.805
 3311SOL    HW110832   4.042   5.285   0.850
 3311SOL    HW210833   3.980   5.436   0.864
 3312SOL     OW10834   1.861   2.502   6.429
 3312SOL    HW110835   1.890   2.574   6.366
 3312SOL    HW210836   1.814   2.430   6.378
 3313SOL     OW10837   5.549   6.422   4.997
 3313SOL    HW110838   5.623   6.411   5.064
 3313SOL    HW210839   5.466   6.454   5.043
 3314SOL     OW10840   0.650   4.274   6.197
 3314SOL    HW110841   0.672   4.270   6.099
 3314SOL    HW210842   0.557   4.308   6.208
 3315SOL     OW10843   5.848   3.215   2.896
 3315SOL    HW110844   5.874   3.128   2.855
 3315SOL    HW210845   5.853   3.287   2.827
 3316SOL     OW10846   3.574   0.219   6.744
 3316SOL    HW110847   3.585   0.132   6.792
 3316SOL    HW210848   3.479   0.250   6.752
 3317SOL     OW10849   5.005   2.732   1.150
 3317SOL    HW110850   4.920   2.775   1.120
 3317SOL    HW210851   5.048   2.686   1.072
 3318SOL     OW10852   2.319   4.865   6.546
 3318SOL    HW110853   2.403   4.869   6.492
 3318SOL    HW210854   2.310   4.773   6.586
 3319SOL     OW10855   0.737   6.085   6.434
 3319SOL    HW110856   0.662   6.150   6.444
 3319SOL    HW210857   0.786   6.104   6.349
 3320SOL     OW10858   1.079   0.947   1.309
 3320SOL    HW110859   1.154   0.965   1.373
 3320SOL    HW210860   1.025   0.869   1.342
 3321SOL     OW10861   3.677   3.624   4.217
 3321SOL    HW110862   3.658   3.718   4.247
 3321SOL    HW210863   3.597   3.589   4.168
 3322SOL     OW10864   5.015   3.503   2.785
 3322SOL    HW110865   4.996   3.508   2.687
 3322SOL    HW210866   5.009   3.594   2.826
 3323SOL     OW10867   1.437   4.547   0.554
 3323SOL    HW110868   1.472   4.628   0.600
 3323SOL    HW210869   1.409   4.479   0.621
 3324SOL     OW10870   6.463   3.410   1.608
 3324SOL    HW110871   6.374   3.450   1.586
 3324SOL    HW210872   6.478   3.329   1.551
 3325SOL     OW10873   1.027   4.873   4.818
 3325SOL    HW110874   0.930   4.851   4.831
 3325SOL    HW210875   1.082   4.819   4.882
 3326SOL     OW10876   5.051   0.029   2.257
 3326SOL    HW110877   4.998   0.020   2.342
 3326SOL    HW210878   5.080   0.124   2.246
 3327SOL     OW10879   4.581   6.382   1.271
 3327SOL    HW110880   4.534   6.437   1.202
 3327SOL    HW210881   4.569   6.424   1.361
 3328SOL     OW10882   6.028   6.594   3.816
 3328SOL    HW110883   6.039   6.589   3.717
 3328SOL    HW210884   6.063   6.510   3.858
 3329SOL     OW10885   5.709   0.338   6.199
 3329SOL    HW110886   5.618   0.323   6.236
 3329SOL    HW210887   5.765   0.385   6.268
 3330SOL     OW10888   6.134   0.279   2.858
 3330SOL    HW110889   6.222   0.265   2.903
 3330SOL    HW210890   6.103   0.373   2.874
 3331SOL     OW10891   1.010   3.327   2.371
 3331SOL    HW110892   0.913   3.353   2.370
 3331SOL    HW210893   1.018   3.230   2.348
 3332SOL     OW10894   4.164   5.082   0.832
 3332SOL    HW110895   4.089   5.018   0.842
 3332SOL    HW210896   4.174   5.108   0.736
 3333SOL     OW10897   2.548   4.222   0.788
 3333SOL    HW110898   2.574   4.126   0.779
 3333SOL    HW210899   2.483   4.233   0.862
 3334SOL     OW10900   1.947   2.766   2.620
 3334SOL    HW110901   1.916   2.851   2.663
 3334SOL    HW210902   1.967   2.782   2.524
 3335SOL     OW10903   4.605   4.192   6.067
 3335SOL    HW110904   4.551   4.129   6.121
 3335SOL    HW210905   4.630   4.272   6.122
 3336SOL     OW10906   3.552   5.645   5.896
 3336SOL    HW110907   3.577   5.566   5.951
 3336SOL    HW210908   3.535   5.617   5.802
 3337SOL     OW10909   3.024   3.928   4.271
 3337SOL    HW110910   3.016   3.833   4.301
 3337SOL    HW210911   3.096   3.973   4.324
 3338SOL     OW10912   3.292   3.032   1.599
 3338SOL    HW110913   3.200   2.995   1.589
 3338SOL    HW210914   3.355   2.981   1.539
 3339SOL     OW10915   1.073   6.721   6.190
 3339SOL    HW110916   1.158   6.715   6.138
 3339SOL    HW210917   0.995   6.724   6.127
 3340SOL     OW10918   4.974   1.143   6.492
 3340SOL    HW110919   4.934   1.054   6.470
 3340SOL    HW210920   4.902   1.213   6.490
 3341SOL     OW10921   1.320   4.390   1.256
 3341SOL    HW110922   1.374   4.329   1.197
 3341SOL    HW210923   1.358   4.389   1.348
 3342SOL     OW10924   5.593   0.356   1.995
 3342SOL    HW110925   5.493   0.347   1.990
 3342SOL    HW210926   5.632   0.274   2.035
 3343SOL     OW10927   3.479   4.610   0.860
 3343SOL    HW110928   3.412   4.555   0.909
 3343SOL    HW210929   3.437   4.696   0.830
 3344SOL     OW10930   1.386   3.392   1.443
 3344SOL    HW110931   1.380   3.486   1.477
 3344SOL    HW210932   1.482   3.372   1.420
 3345SOL     OW10933   5.011   4.922   0.988
 3345SOL    HW110934   4.979   4.856   1.056
 3345SOL    HW210935   5.050   4.872   0.910
 3346SOL     OW10936   1.355   1.077   6.572
 3346SOL    HW110937   1.334   1.162   6.621
 3346SOL    HW210938   1.271   1.033   6.543
 3347SOL     OW10939   1.008   3.531   5.457
 3347SOL    HW110940   1.038   3.569   5.544
 3347SOL    HW210941   0.948   3.452   5.473
 3348SOL     OW10942   3.630   3.978   5.908
 3348SOL    HW110943   3.634   3.878   5.917
 3348SOL    HW210944   3.631   4.019   6.000
 3349SOL     OW10945   2.030   5.319   1.869
 3349SOL    HW110946   1.963   5.291   1.800
 3349SOL    HW210947   2.084   5.396   1.834
 3350SOL     OW10948   3.163   5.647   4.193
 3350SOL    HW110949   3.164   5.596   4.279
 3350SOL    HW210950   3.185   5.586   4.117
 3351SOL     OW10951   5.660   6.683   1.566
 3351SOL    HW110952   5.565   6.677   1.599
 3351SOL    HW210953   5.687   6.595   1.527
 3352SOL     OW10954   5.931   1.059   0.059
 3352SOL    HW110955   6.018   1.102   0.037
 3352SOL    HW210956   5.863   1.085   7.015
 3353SOL     OW10957   4.011   0.573   6.086
 3353SOL    HW110958   3.952   0.568   6.167
 3353SOL    HW210959   4.057   0.661   6.084
 3354SOL     OW10960   2.839   1.896   0.164
 3354SOL    HW110961   2.842   1.894   0.264
 3354SOL    HW210962   2.885   1.978   0.130
 3355SOL     OW10963   1.120   1.820   5.210
 3355SOL    HW110964   1.170   1.907   5.212
 3355SOL    HW210965   1.167   1.756   5.149
 3356SOL     OW10966   3.106   0.443   5.757
 3356SOL    HW110967   3.119   0.514   5.826
 3356SOL    HW210968   3.024   0.465   5.703
 3357SOL     OW10969   3.284   4.117   4.424
 3357SOL    HW110970   3.356   4.114   4.493
 3357SOL    HW210971   3.197   4.090   4.465
 3358SOL     OW10972   0.157   1.922   1.719
 3358SOL    HW110973   0.158   1.827   1.690
 3358SOL    HW210974   0.074   1.939   1.773
 3359SOL     OW10975   1.334   7.000   3.906
 3359SOL    HW110976   1.252   6.968   3.859
 3359SOL    HW210977   1.348   0.073   3.887
 3360SOL     OW10978   1.054   5.353   4.752
 3360SOL    HW110979   1.150   5.363   4.725
 3360SOL    HW210980   1.035   5.410   4.831
 3361SOL     OW10981   0.257   6.866   4.506
 3361SOL    HW110982   0.344   6.825   4.532
 3361SOL    HW210983   0.265   6.966   4.509
 3362SOL     OW10984   2.878   0.828   5.204
 3362SOL    HW110985   2.959   0.787   5.246
 3362SOL    HW210986   2.866   0.792   5.112
 3363SOL     OW10987   4.842   3.761   0.518
 3363SOL    HW110988   4.787   3.796   0.594
 3363SOL    HW210989   4.931   3.806   0.518
 3364SOL     OW10990   1.644   3.098   1.178
 3364SOL    HW110991   1.560   3.042   1.178
 3364SOL    HW210992   1.674   3.113   1.084
 3365SOL     OW10993   0.760   2.609   2.958
 3365SOL    HW110994   0.670   2.651   2.953
 3365SOL    HW210995   0.802   2.608   2.867
 3366SOL     OW10996   5.768   3.735   3.703
 3366SOL    HW110997   5.672   3.713   3.723
 3366SOL    HW210998   5.826   3.661   3.737
 3367SOL     OW10999   3.129   3.988   4.023
 3367SOL    HW111000   3.081   3.949   3.945
 3367SOL    HW211001   3.076   3.972   4.106
 3368SOL     OW11002   1.707   1.155   3.577
 3368SOL    HW111003   1.713   1.058   3.601
 3368SOL    HW211004   1.798   1.192   3.563
 3369SOL     OW11005   5.744   2.917   0.431
 3369SOL    HW111006   5.676   2.858   0.386
 3369SOL    HW211007   5.730   2.913   0.530
 3370SOL     OW11008   0.524   5.891   3.282
 3370SOL    HW111009   0.512   5.882   3.183
 3370SOL    HW211010   0.458   5.957   3.318
 3371SOL     OW11011   2.432   2.868   1.169
 3371SOL    HW111012   2.499   2.856   1.241
 3371SOL    HW211013   2.478   2.897   1.085
 3372SOL     OW11014   4.888   3.087   3.086
 3372SOL    HW111015   4.877   3.159   3.017
 3372SOL    HW211016   4.816   3.097   3.156
 3373SOL     OW11017   0.266   4.961   0.642
 3373SOL    HW111018   0.294   5.040   0.587
 3373SOL    HW211019   0.280   4.980   0.739
 3374SOL     OW11020   1.249   5.617   4.071
 3374SOL    HW111021   1.151   5.616   4.091
 3374SOL    HW211022   1.271   5.543   4.007
 3375SOL     OW11023   6.910   6.760   5.499
 3375SOL    HW111024   6.914   6.666   5.534
 3375SOL    HW211025   7.000   6.802   5.505
 3376SOL     OW11026   3.634   3.819   4.641
 3376SOL    HW111027   3.639   3.843   4.738
 3376SOL    HW211028   3.697   3.877   4.590
 3377SOL     OW11029   0.339   5.692   4.169
 3377SOL    HW111030   0.333   5.612   4.228
 3377SOL    HW211031   0.397   5.671   4.090
 3378SOL     OW11032   1.123   5.862   0.318
 3378SOL    HW111033   1.067   5.812   0.384
 3378SOL    HW211034   1.196   5.802   0.284
 3379SOL     OW11035   6.141   4.569   3.789
 3379SOL    HW111036   6.091   4.492   3.828
 3379SOL    HW211037   6.232   4.574   3.830
 3380SOL     OW11038   1.613   4.614   1.912
 3380SOL    HW111039   1.682   4.630   1.983
 3380SOL    HW211040   1.542   4.552   1.946
 3381SOL     OW11041   2.979   4.262   6.792
 3381SOL    HW111042   2.999   4.318   6.872
 3381SOL    HW211043   2.991   4.316   6.709
 3382SOL     OW11044   0.394   4.093   6.428
 3382SOL    HW111045   0.365   4.001   6.401
 3382SOL    HW211046   0.318   4.141   6.472
 3383SOL     OW11047   3.597   6.003   0.351
 3383SOL    HW111048   3.508   6.028   0.389
 3383SOL    HW211049   3.670   6.046   0.405
 3384SOL     OW11050   3.451   2.358   5.841
 3384SOL    HW111051   3.357   2.391   5.842
 3384SOL    HW211052   3.492   2.370   5.931
 3385SOL     OW11053   5.712   2.346   4.576
 3385SOL    HW111054   5.737   2.332   4.671
 3385SOL    HW211055   5.612   2.340   4.566
 3386SOL     OW11056   0.404   4.814   5.441
 3386SOL    HW111057   0.475   4.878   5.412
 3386SOL    HW211058   0.381   4.831   5.537
 3387SOL     OW11059   5.709   0.516   2.820
 3387SOL    HW111060   5.743   0.608   2.804
 3387SOL    HW211061   5.619   0.506   2.777
 3388SOL     OW11062   0.922   3.943   0.635
 3388SOL    HW111063   0.992   3.877   0.607
 3388SOL    HW211064   0.839   3.895   0.662
 3389SOL     OW11065   6.144   5.396   6.073
 3389SOL    HW111066   6.155   5.299   6.097
 3389SOL    HW211067   6.079   5.404   5.997
 3390SOL     OW11068   2.892   4.945   1.026
 3390SOL    HW111069   2.824   4.881   1.062
 3390SOL    HW211070   2.945   4.983   1.102
 3391SOL     OW11071   5.333   3.897   5.380
 3391SOL    HW111072   5.270   3.965   5.418
 3391SOL    HW211073   5.409   3.882   5.444
 3392SOL     OW11074   4.744   5.936   5.747
 3392SOL    HW111075   4.813   5.867   5.727
 3392SOL    HW211076   4.671   5.932   5.678
 3393SOL     OW11077   3.453   0.442   0.693
 3393SOL    HW111078   3.373   0.384   0.683
 3393SOL    HW211079   3.487   0.469   0.603
 3394SOL     OW11080   2.710   5.859   1.503
 3394SOL    HW111081   2.680   5.879   1.596
 3394SOL    HW211082   2.765   5.934   1.468
 3395SOL     OW11083   1.689   6.040   3.161
 3395SOL    HW111084   1.764   5.974   3.165
 3395SOL    HW211085   1.602   5.994   3.175
 3396SOL     OW11086   3.887   0.637   4.202
 3396SOL    HW111087   3.928   0.549   4.178
 3396SOL    HW211088   3.891   0.651   4.301
 3397SOL     OW11089   2.928   6.221   1.477
 3397SOL    HW111090   2.866   6.248   1.403
 3397SOL    HW211091   2.987   6.299   1.501
 3398SOL     OW11092   7.017   0.303   0.221
 3398SOL    HW111093   6.970   0.277   0.305
 3398SOL    HW211094   0.064   0.372   0.241
 3399SOL     OW11095   6.392   6.104   2.041
 3399SOL    HW111096   6.309   6.146   2.004
 3399SOL    HW211097   6.432   6.044   1.972
 3400SOL     OW11098   3.668   3.145   5.446
 3400SOL    HW111099   3.593   3.121   5.508
 3400SOL    HW211100   3.755   3.127   5.490
 3401SOL     OW11101   6.579   3.941   4.199
 3401SOL    HW111102   6.575   3.994   4.114
 3401SOL    HW211103   6.658   3.970   4.253
 3402SOL     OW11104   6.143   3.691   0.211
 3402SOL    HW111105   6.057   3.717   0.256
 3402SOL    HW211106   6.139   3.594   0.186
 3403SOL     OW11107   5.617   6.933   3.985
 3403SOL    HW111108   5.568   7.016   4.012
 3403SOL    HW211109   5.710   6.956   3.960
 3404SOL     OW11110   5.406   5.243   3.160
 3404SOL    HW111111   5.353   5.184   3.100
 3404SOL    HW211112   5.495   5.201   3.180
 3405SOL     OW11113   4.422   6.851   1.014
 3405SOL    HW111114   4.508   6.898   0.993
 3405SOL    HW211115   4.371   6.904   1.082
 3406SOL     OW11116   4.481   5.166   0.888
 3406SOL    HW111117   4.479   5.069   0.908
 3406SOL    HW211118   4.400   5.191   0.834
 3407SOL     OW11119   1.932   1.368   0.734
 3407SOL    HW111120   1.936   1.324   0.645
 3407SOL    HW211121   1.843   1.411   0.747
 3408SOL     OW11122   3.601   0.100   3.815
 3408SOL    HW111123   3.526   0.033   3.817
 3408SOL    HW211124   3.575   0.177   3.756
 3409SOL     OW11125   4.361   2.326   6.750
 3409SOL    HW111126   4.317   2.286   6.670
 3409SOL    HW211127   4.336   2.273   6.832
 3410SOL     OW11128   6.616   1.227   2.718
 3410SOL    HW111129   6.626   1.130   2.696
 3410SOL    HW211130   6.519   1.248   2.734
 3411SOL     OW11131   5.446   3.219   6.509
 3411SOL    HW111132   5.398   3.147   6.559
 3411SOL    HW211133   5.385   3.257   6.439
 3412SOL     OW11134   5.016   3.205   3.650
 3412SOL    HW111135   4.953   3.192   3.727
 3412SOL    HW211136   4.964   3.206   3.564
 3413SOL     OW11137   1.148   2.506   0.908
 3413SOL    HW111138   1.227   2.566   0.894
 3413SOL    HW211139   1.092   2.542   0.983
 3414SOL     OW11140   3.762   2.963   2.106
 3414SOL    HW111141   3.675   3.012   2.116
 3414SOL    HW211142   3.830   3.024   2.066
 3415SOL     OW11143   2.459   0.318   6.618
 3415SOL    HW111144   2.454   0.385   6.692
 3415SOL    HW211145   2.551   0.319   6.579
 3416SOL     OW11146   5.351   6.593   6.064
 3416SOL    HW111147   5.411   6.672   6.048
 3416SOL    HW211148   5.269   6.603   6.007
 3417SOL     OW11149   6.259   1.110   2.230
 3417SOL    HW111150   6.301   1.042   2.171
 3417SOL    HW211151   6.162   1.087   2.244
 3418SOL     OW11152   4.539   4.801   1.352
 3418SOL    HW111153   4.521   4.731   1.421
 3418SOL    HW211154   4.636   4.823   1.350
 3419SOL     OW11155   3.086   4.726   5.257
 3419SOL    HW111156   3.031   4.646   5.235
 3419SOL    HW211157   3.112   4.773   5.173
 3420SOL     OW11158   4.752   1.090   1.608
 3420SOL    HW111159   4.715   0.999   1.630
 3420SOL    HW211160   4.825   1.113   1.671
 3421SOL     OW11161   0.422   1.552   4.161
 3421SOL    HW111162   0.467   1.483   4.218
 3421SOL    HW211163   0.353   1.600   4.215
 3422SOL     OW11164   3.321   4.995   1.361
 3422SOL    HW111165   3.371   5.077   1.387
 3422SOL    HW211166   3.285   4.950   1.442
 3423SOL     OW11167   1.763   4.667   6.166
 3423SOL    HW111168   1.743   4.639   6.260
 3423SOL    HW211169   1.833   4.739   6.167
 3424SOL     OW11170   5.414   6.418   2.401
 3424SOL    HW111171   5.430   6.319   2.404
 3424SOL    HW211172   5.491   6.465   2.446
 3425SOL     OW11173   5.371   2.621   6.343
 3425SOL    HW111174   5.437   2.696   6.343
 3425SOL    HW211175   5.411   2.542   6.390
 3426SOL     OW11176   6.432   5.667   6.332
 3426SOL    HW111177   6.416   5.766   6.334
 3426SOL    HW211178   6.363   5.621   6.387
 3427SOL     OW11179   1.767   1.450   6.866
 3427SOL    HW111180   1.738   1.544   6.851
 3427SOL    HW211181   1.845   1.429   6.807
 3428SOL     OW11182   4.502   1.062   4.197
 3428SOL    HW111183   4.446   1.126   4.144
 3428SOL    HW211184   4.451   1.032   4.277
 3429SOL     OW11185   5.088   5.447   0.367
 3429SOL    HW111186   5.070   5.528   0.422
 3429SOL    HW211187   5.092   5.366   0.425
 3430SOL     OW11188   2.799   3.964   0.051
 3430SOL    HW111189   2.887   3.932   0.016
 3430SOL    HW211190   2.725   3.917   0.005
 3431SOL     OW11191   1.662   4.089   1.919
 3431SOL    HW111192   1.613   4.064   1.835
 3431SOL    HW211193   1.597   4.129   1.984
 3432SOL     OW11194   0.445   5.277   6.283
 3432SOL    HW111195   0.362   5.322   6.315
 3432SOL    HW211196   0.519   5.344   6.274
 3433SOL     OW11197   0.625   1.445   0.101
 3433SOL    HW111198   0.705   1.410   0.053
 3433SOL    HW211199   0.595   1.377   0.169
 3434SOL     OW11200   4.243   2.204   1.981
 3434SOL    HW111201   4.297   2.123   1.958
 3434SOL    HW211202   4.150   2.175   2.005
 3435SOL     OW11203   3.114   2.698   0.972
 3435SOL    HW111204   3.088   2.630   0.903
 3435SOL    HW211205   3.175   2.656   1.039
 3436SOL     OW11206   4.244   5.614   5.488
 3436SOL    HW111207   4.342   5.605   5.470
 3436SOL    HW211208   4.205   5.524   5.505
 3437SOL     OW11209   2.298   6.144   0.736
 3437SOL    HW111210   2.340   6.071   0.682
 3437SOL    HW211211   2.234   6.105   0.802
 3438SOL     OW11212   2.581   4.246   0.317
 3438SOL    HW111213   2.562   4.155   0.280
 3438SOL    HW211214   2.666   4.243   0.370
 3439SOL     OW11215   3.096   5.984   0.930
 3439SOL    HW111216   3.130   5.891   0.912
 3439SOL    HW211217   3.156   6.028   0.997
 3440SOL     OW11218   4.128   4.456   5.752
 3440SOL    HW111219   4.133   4.555   5.741
 3440SOL    HW211220   4.120   4.433   5.849
 3441SOL     OW11221   0.196   5.277   5.432
 3441SOL    HW111222   0.243   5.206   5.485
 3441SOL    HW211223   0.227   5.272   5.336
 3442SOL     OW11224   1.437   2.030   0.413
 3442SOL    HW111225   1.364   2.093   0.388
 3442SOL    HW211226   1.437   2.016   0.512
 3443SOL     OW11227   6.833   5.888   2.246
 3443SOL    HW111228   6.822   5.789   2.253
 3443SOL    HW211229   6.759   5.926   2.191
 3444SOL     OW11230   1.232   3.896   6.011
 3444SOL    HW111231   1.134   3.918   6.014
 3444SOL    HW211232   1.284   3.968   6.056
 3445SOL     OW11233   5.965   5.143   4.878
 3445SOL    HW111234   5.927   5.077   4.813
 3445SOL    HW211235   6.063   5.124   4.891
 3446SOL     OW11236   5.038   1.638   0.400
 3446SOL    HW111237   5.129   1.605   0.425
 3446SOL    HW211238   5.045   1.734   0.373
 3447SOL     OW11239   5.103   1.782   6.048
 3447SOL    HW111240   5.167   1.775   5.972
 3447SOL    HW211241   5.153   1.773   6.134
 3448SOL     OW11242   0.812   5.661   4.564
 3448SOL    HW111243   0.868   5.725   4.512
 3448SOL    HW211244   0.843   5.659   4.659
 3449SOL     OW11245   1.443   4.012   4.694
 3449SOL    HW111246   1.352   4.030   4.657
 3449SOL    HW211247   1.486   4.098   4.720
 3450SOL     OW11248   1.982   6.754   3.067
 3450SOL    HW111249   1.913   6.802   3.121
 3450SOL    HW211250   1.980   6.656   3.088
 3451SOL     OW11251   2.467   1.901   0.969
 3451SOL    HW111252   2.444   1.814   0.926
 3451SOL    HW211253   2.385   1.941   1.011
 3452SOL     OW11254   4.385   1.039   5.362
 3452SOL    HW111255   4.468   1.067   5.314
 3452SOL    HW211256   4.366   0.943   5.344
 3453SOL     OW11257   4.272   6.258   5.431
 3453SOL    HW111258   4.286   6.346   5.477
 3453SOL    HW211259   4.304   6.264   5.337
 3454SOL     OW11260   1.367   3.063   3.905
 3454SOL    HW111261   1.359   3.096   3.999
 3454SOL    HW211262   1.275   3.046   3.868
 3455SOL     OW11263   1.491   4.019   6.274
 3455SOL    HW111264   1.448   4.002   6.363
 3455SOL    HW211265   1.441   4.091   6.226
 3456SOL     OW11266   4.303   5.651   2.575
 3456SOL    HW111267   4.272   5.666   2.480
 3456SOL    HW211268   4.326   5.739   2.616
 3457SOL     OW11269   3.447   3.797   0.215
 3457SOL    HW111270   3.490   3.707   0.202
 3457SOL    HW211271   3.376   3.791   0.285
 3458SOL     OW11272   3.640   1.872   0.937
 3458SOL    HW111273   3.672   1.876   1.032
 3458SOL    HW211274   3.669   1.954   0.889
 3459SOL     OW11275   6.536   0.458   3.031
 3459SOL    HW111276   6.469   0.385   3.040
 3459SOL    HW211277   6.618   0.423   2.987
 3460SOL     OW11278   4.974   1.355   5.263
 3460SOL    HW111279   4.928   1.328   5.178
 3460SOL    HW211280   4.916   1.417   5.315
 3461SOL     OW11281   4.356   4.686   3.726
 3461SOL    HW111282   4.453   4.706   3.715
 3461SOL    HW211283   4.337   4.595   3.688
 3462SOL     OW11284   1.398   4.453   6.736
 3462SOL    HW111285   1.325   4.385   6.743
 3462SOL    HW211286   1.483   4.415   6.771
 3463SOL     OW11287   6.259   4.113   6.987
 3463SOL    HW111288   6.354   4.131   7.009
 3463SOL    HW211289   6.247   4.115   6.888
 3464SOL     OW11290   6.649   5.011   4.607
 3464SOL    HW111291   6.647   5.046   4.513
 3464SOL    HW211292   6.572   5.048   4.658
 3465SOL     OW11293   0.933   2.597   1.951
 3465SOL    HW111294   0.950   2.641   1.863
 3465SOL    HW211295   0.853   2.639   1.994
 3466SOL     OW11296   5.725   3.692   3.445
 3466SOL    HW111297   5.748   3.717   3.539
 3466SOL    HW211298   5.640   3.640   3.444
 3467SOL     OW11299   2.098   1.458   5.940
 3467SOL    HW111300   2.128   1.371   5.978
 3467SOL    HW211301   1.998   1.463   5.941
 3468SOL     OW11302   5.575   4.988   1.823
 3468SOL    HW111303   5.548   4.991   1.919
 3468SOL    HW211304   5.646   5.056   1.807
 3469SOL     OW11305   5.896   3.731   0.327
 3469SOL    HW111306   5.859   3.677   0.403
 3469SOL    HW211307   5.851   3.820   0.325
 3470SOL     OW11308   6.633   6.075   0.059
 3470SOL    HW111309   6.622   6.093   6.985
 3470SOL    HW211310   6.550   6.032   0.095
 3471SOL     OW11311   4.066   6.831   4.595
 3471SOL    HW111312   3.967   6.843   4.597
 3471SOL    HW211313   4.110   6.917   4.572
 3472SOL     OW11314   3.521   1.160   4.575
 3472SOL    HW111315   3.448   1.096   4.548
 3472SOL    HW211316   3.610   1.118   4.559
 3473SOL     OW11317   4.730   0.302   4.181
 3473SOL    HW111318   4.664   0.230   4.203
 3473SOL    HW211319   4.820   0.277   4.217
 3474SOL     OW11320   4.897   4.932   0.688
 3474SOL    HW111321   4.986   4.944   0.644
 3474SOL    HW211322   4.860   5.021   0.715
 3475SOL     OW11323   1.903   5.767   5.167
 3475SOL    HW111324   1.887   5.766   5.266
 3475SOL    HW211325   1.830   5.716   5.121
 3476SOL     OW11326   3.363   1.844   3.499
 3476SOL    HW111327   3.335   1.851   3.403
 3476SOL    HW211328   3.284   1.819   3.555
 3477SOL     OW11329   4.589   5.518   2.972
 3477SOL    HW111330   4.595   5.516   2.872
 3477SOL    HW211331   4.667   5.569   3.009
 3478SOL     OW11332   3.793   4.528   6.984
 3478SOL    HW111333   3.765   4.432   6.980
 3478SOL    HW211334   3.714   4.584   7.008
 3479SOL     OW11335   1.738   0.353   0.413
 3479SOL    HW111336   1.679   0.392   0.342
 3479SOL    HW211337   1.833   0.357   0.383
 3480SOL     OW11338   1.180   6.176   4.197
 3480SOL    HW111339   1.233   6.154   4.279
 3480SOL    HW211340   1.201   6.270   4.168
 3481SOL     OW11341   2.421   4.541   0.211
 3481SOL    HW111342   2.334   4.589   0.211
 3481SOL    HW211343   2.487   4.592   0.267
 3482SOL     OW11344   0.255   2.176   2.188
 3482SOL    HW111345   0.354   2.187   2.177
 3482SOL    HW211346   0.236   2.088   2.230
 3483SOL     OW11347   4.055   1.391   1.431
 3483SOL    HW111348   3.973   1.437   1.398
 3483SOL    HW211349   4.103   1.349   1.354
 3484SOL     OW11350   3.432   4.051   3.699
 3484SOL    HW111351   3.377   4.083   3.777
 3484SOL    HW211352   3.528   4.073   3.715
 3485SOL     OW11353   6.152   2.517   4.307
 3485SOL    HW111354   6.219   2.447   4.282
 3485SOL    HW211355   6.162   2.539   4.404
 3486SOL     OW11356   6.340   1.306   2.715
 3486SOL    HW111357   6.379   1.376   2.654
 3486SOL    HW211358   6.266   1.258   2.667
 3487SOL     OW11359   1.854   6.841   1.064
 3487SOL    HW111360   1.810   6.777   1.127
 3487SOL    HW211361   1.814   6.932   1.074
 3488SOL     OW11362   6.311   3.612   5.483
 3488SOL    HW111363   6.239   3.682   5.486
 3488SOL    HW211364   6.314   3.572   5.391
 3489SOL     OW11365   3.007   5.563   6.834
 3489SOL    HW111366   2.954   5.494   6.784
 3489SOL    HW211367   2.974   5.569   6.928
 3490SOL     OW11368   5.362   3.418   7.010
 3490SOL    HW111369   5.348   3.320   0.002
 3490SOL    HW211370   5.442   3.448   0.039
 3491SOL     OW11371   6.023   2.695   5.371
 3491SOL    HW111372   5.984   2.775   5.325
 3491SOL    HW211373   5.983   2.685   5.462
 3492SOL     OW11374   0.251   4.711   6.623
 3492SOL    HW111375   0.287   4.723   6.530
 3492SOL    HW211376   0.327   4.706   6.688
 3493SOL     OW11377   6.654   4.758   1.071
 3493SOL    HW111378   6.711   4.746   1.152
 3493SOL    HW211379   6.596   4.677   1.059
 3494SOL     OW11380   3.383   0.167   0.884
 3494SOL    HW111381   3.292   0.161   0.844
 3494SOL    HW211382   3.417   0.261   0.876
 3495SOL     OW11383   6.086   4.536   6.032
 3495SOL    HW111384   6.027   4.540   5.950
 3495SOL    HW211385   6.074   4.448   6.077
 3496SOL     OW11386   0.542   5.789   1.686
 3496SOL    HW111387   0.462   5.733   1.665
 3496SOL    HW211388   0.553   5.795   1.785
 3497SOL     OW11389   2.747   0.296   5.256
 3497SOL    HW111390   2.760   0.284   5.157
 3497SOL    HW211391   2.750   0.207   5.301
 3498SOL     OW11392   0.768   1.881   0.488
 3498SOL    HW111393   0.690   1.854   0.545
 3498SOL    HW211394   0.750   1.855   0.393
 3499SOL     OW11395   6.373   4.098   2.962
 3499SOL    HW111396   6.401   4.104   3.058
 3499SOL    HW211397   6.279   4.067   2.956
 3500SOL     OW11398   6.376   2.656   1.095
 3500SOL    HW111399   6.378   2.571   1.042
 3500SOL    HW211400   6.404   2.732   1.037
 3501SOL     OW11401   0.098   5.417   3.315
 3501SOL    HW111402   0.010   5.377   3.341
 3501SOL    HW211403   0.130   5.375   3.230
 3502SOL     OW11404   0.839   6.540   1.447
 3502SOL    HW111405   0.880   6.623   1.409
 3502SOL    HW211406   0.819   6.476   1.373
 3503SOL     OW11407   3.160   0.522   3.703
 3503SOL    HW111408   3.181   0.514   3.606
 3503SOL    HW211409   3.187   0.613   3.736
 3504SOL     OW11410   2.174   3.104   2.490
 3504SOL    HW111411   2.082   3.080   2.519
 3504SOL    HW211412   2.172   3.190   2.439
 3505SOL     OW11413   4.196   6.596   4.499
 3505SOL    HW111414   4.133   6.635   4.565
 3505SOL    HW211415   4.150   6.523   4.448
 3506SOL     OW11416   6.604   3.908   2.917
 3506SOL    HW111417   6.660   3.991   2.916
 3506SOL    HW211418   6.514   3.929   2.956
 3507SOL     OW11419   6.770   0.457   5.331
 3507SOL    HW111420   6.742   0.530   5.393
 3507SOL    HW211421   6.763   0.490   5.237
 3508SOL     OW11422   0.185   4.461   6.923
 3508SOL    HW111423   0.206   4.556   6.898
 3508SOL    HW211424   0.145   4.459   7.015
 3509SOL     OW11425   4.538   6.949   6.542
 3509SOL    HW111426   4.623   7.002   6.537
 3509SOL    HW211427   4.463   7.004   6.506
 3510SOL     OW11428   1.957   1.095   2.612
 3510SOL    HW111429   2.042   1.147   2.606
 3510SOL    HW211430   1.884   1.144   2.564
 3511SOL     OW11431   0.882   0.702   4.194
 3511SOL    HW111432   0.907   0.710   4.098
 3511SOL    HW211433   0.796   0.750   4.210
 3512SOL     OW11434   3.273   3.458   1.848
 3512SOL    HW111435   3.246   3.378   1.795
 3512SOL    HW211436   3.238   3.540   1.804
 3513SOL     OW11437   6.527   4.507   1.058
 3513SOL    HW111438   6.554   4.452   1.137
 3513SOL    HW211439   6.505   4.447   0.981
 3514SOL     OW11440   3.395   5.892   3.277
 3514SOL    HW111441   3.356   5.850   3.359
 3514SOL    HW211442   3.360   5.846   3.196
 3515SOL     OW11443   4.427   5.670   3.586
 3515SOL    HW111444   4.361   5.630   3.649
 3515SOL    HW211445   4.381   5.690   3.499
 3516SOL     OW11446   0.872   1.270   0.106
 3516SOL    HW111447   0.911   1.338   0.167
 3516SOL    HW211448   0.833   1.195   0.160
 3517SOL     OW11449   0.349   0.462   0.042
 3517SOL    HW111450   0.260   0.433   0.008
 3517SOL    HW211451   0.412   0.384   0.041
 3518SOL     OW11452   4.141   3.668   6.290
 3518SOL    HW111453   4.225   3.713   6.263
 3518SOL    HW211454   4.128   3.678   6.389
 3519SOL     OW11455   4.392   0.214   0.054
 3519SOL    HW111456   4.391   0.313   0.068
 3519SOL    HW211457   4.483   0.178   0.077
 3520SOL     OW11458   3.955   4.694   1.472
 3520SOL    HW111459   3.986   4.780   1.431
 3520SOL    HW211460   3.875   4.660   1.423
 3521SOL     OW11461   0.302   2.184   5.404
 3521SOL    HW111462   0.315   2.281   5.425
 3521SOL    HW211463   0.390   2.137   5.407
 3522SOL     OW11464   2.436   0.151   0.797
 3522SOL    HW111465   2.510   0.215   0.817
 3522SOL    HW211466   2.439   0.076   0.863
 3523SOL     OW11467   2.053   4.150   5.054
 3523SOL    HW111468   2.106   4.094   4.990
 3523SOL    HW211469   2.115   4.196   5.118
 3524SOL     OW11470   2.675   1.934   3.639
 3524SOL    HW111471   2.606   1.938   3.567
 3524SOL    HW211472   2.733   1.854   3.626
 3525SOL     OW11473   1.679   2.965   3.635
 3525SOL    HW111474   1.749   2.945   3.567
 3525SOL    HW211475   1.607   3.020   3.594
 3526SOL     OW11476   3.668   5.776   3.533
 3526SOL    HW111477   3.727   5.708   3.577
 3526SOL    HW211478   3.676   5.769   3.434
 3527SOL     OW11479   6.894   4.286   6.329
 3527SOL    HW111480   6.830   4.280   6.406
 3527SOL    HW211481   6.843   4.282   6.243
 3528SOL     OW11482   0.858   6.429   4.186
 3528SOL    HW111483   0.784   6.473   4.136
 3528SOL    HW211484   0.825   6.401   4.277
 3529SOL     OW11485   3.263   5.786   0.566
 3529SOL    HW111486   3.259   5.872   0.515
 3529SOL    HW211487   3.336   5.729   0.528
 3530SOL     OW11488   2.178   5.637   2.810
 3530SOL    HW111489   2.140   5.728   2.795
 3530SOL    HW211490   2.218   5.631   2.901
 3531SOL     OW11491   5.051   4.476   6.312
 3531SOL    HW111492   5.044   4.415   6.391
 3531SOL    HW211493   5.091   4.563   6.340
 3532SOL     OW11494   2.330   6.692   0.265
 3532SOL    HW111495   2.334   6.657   0.358
 3532SOL    HW211496   2.286   6.781   0.264
 3533SOL     OW11497   1.132   1.057   3.513
 3533SOL    HW111498   1.158   1.134   3.456
 3533SOL    HW211499   1.038   1.069   3.545
 3534SOL     OW11500   5.062   6.965   4.284
 3534SOL    HW111501   5.026   6.956   4.191
 3534SOL    HW211502   5.152   6.921   4.289
 3535SOL     OW11503   4.337   4.872   0.003
 3535SOL    HW111504   4.416   4.924   0.035
 3535SOL    HW211505   4.340   4.779   0.041
 3536SOL     OW11506   2.091   3.323   2.383
 3536SOL    HW111507   2.074   3.328   2.284
 3536SOL    HW211508   2.021   3.377   2.431
 3537SOL     OW11509   3.228   4.855   2.137
 3537SOL    HW111510   3.242   4.913   2.216
 3537SOL    HW211511   3.297   4.783   2.136
 3538SOL     OW11512   3.226   0.271   3.250
 3538SOL    HW111513   3.309   0.293   3.300
 3538SOL    HW211514   3.159   0.232   3.313
 3539SOL     OW11515   5.348   5.482   5.587
 3539SOL    HW111516   5.430   5.514   5.634
 3539SOL    HW211517   5.277   5.460   5.654
 3540SOL     OW11518   4.562   4.090   6.659
 3540SOL    HW111519   4.616   4.008   6.673
 3540SOL    HW211520   4.622   4.168   6.641
 3541SOL     OW11521   0.723   2.893   2.586
 3541SOL    HW111522   0.738   2.982   2.629
 3541SOL    HW211523   0.729   2.903   2.487
 3542SOL     OW11524   5.719   1.087   6.862
 3542SOL    HW111525   5.633   1.129   6.892
 3542SOL    HW211526   5.700   1.012   6.798
 3543SOL     OW11527   6.836   2.919   4.881
 3543SOL    HW111528   6.814   2.958   4.792
 3543SOL    HW211529   6.884   2.986   4.937
 3544SOL     OW11530   3.620   4.730   5.815
 3544SOL    HW111531   3.681   4.653   5.798
 3544SOL    HW211532   3.658   4.813   5.774
 3545SOL     OW11533   2.693   6.630   1.159
 3545SOL    HW111534   2.699   6.604   1.063
 3545SOL    HW211535   2.598   6.652   1.182
 3546SOL     OW11536   0.262   4.738   1.016
 3546SOL    HW111537   0.214   4.817   0.976
 3546SOL    HW211538   0.267   4.664   0.948
 3547SOL     OW11539   1.771   3.654   4.305
 3547SOL    HW111540   1.860   3.669   4.348
 3547SOL    HW211541   1.747   3.732   4.247
 3548SOL     OW11542   6.395   0.183   5.652
 3548SOL    HW111543   6.368   0.102   5.705
 3548SOL    HW211544   6.455   0.155   5.577
 3549SOL     OW11545   1.842   6.876   6.781
 3549SOL    HW111546   1.905   6.953   6.765
 3549SOL    HW211547   1.819   6.833   6.694
 3550SOL     OW11548   6.653   2.301   4.923
 3550SOL    HW111549   6.661   2.396   4.892
 3550SOL    HW211550   6.592   2.298   5.003
 3551SOL     OW11551   6.333   1.082   4.981
 3551SOL    HW111552   6.429   1.101   5.001
 3551SOL    HW211553   6.277   1.156   5.018
 3552SOL     OW11554   6.244   1.004   3.774
 3552SOL    HW111555   6.342   1.021   3.781
 3552SOL    HW211556   6.194   1.087   3.797
 3553SOL     OW11557   5.507   6.490   6.289
 3553SOL    HW111558   5.444   6.504   6.213
 3553SOL    HW211559   5.513   6.392   6.310
 3554SOL     OW11560   5.639   3.733   6.391
 3554SOL    HW111561   5.700   3.812   6.392
 3554SOL    HW211562   5.614   3.711   6.297
 3555SOL     OW11563   3.572   1.364   5.292
 3555SOL    HW111564   3.576   1.443   5.354
 3555SOL    HW211565   3.481   1.324   5.295
 3556SOL     OW11566   5.573   1.023   0.902
 3556SOL    HW111567   5.485   1.070   0.894
 3556SOL    HW211568   5.572   0.964   0.982
 3557SOL     OW11569   4.769   6.952   1.596
 3557SOL    HW111570   4.862   6.972   1.567
 3557SOL    HW211571   4.722   6.899   1.526
 3558SOL     OW11572   3.869   5.703   2.936
 3558SOL    HW111573   3.914   5.633   2.880
 3558SOL    HW211574   3.938   5.758   2.983
 3559SOL     OW11575   4.045   6.007   6.453
 3559SOL    HW111576   4.085   6.056   6.530
 3559SOL    HW211577   3.947   6.027   6.448
 3560SOL     OW11578   2.181   6.058   4.297
 3560SOL    HW111579   2.111   6.114   4.340
 3560SOL    HW211580   2.143   6.013   4.216
 3561SOL     OW11581   3.986   2.547   5.977
 3561SOL    HW111582   4.084   2.534   5.985
 3561SOL    HW211583   3.947   2.475   5.919
 3562SOL     OW11584   2.930   0.805   0.182
 3562SOL    HW111585   2.950   0.747   0.103
 3562SOL    HW211586   3.007   0.867   0.198
 3563SOL     OW11587   7.001   2.308   6.449
 3563SOL    HW111588   6.936   2.295   6.374
 3563SOL    HW211589   0.005   2.404   6.453
 3564SOL     OW11590   5.848   2.956   3.126
 3564SOL    HW111591   5.941   2.956   3.089
 3564SOL    HW211592   5.790   3.014   3.069
 3565SOL     OW11593   4.801   6.684   4.792
 3565SOL    HW111594   4.868   6.690   4.718
 3565SOL    HW211595   4.748   6.600   4.782
 3566SOL     OW11596   0.532   0.986   4.936
 3566SOL    HW111597   0.456   1.004   4.874
 3566SOL    HW211598   0.617   0.979   4.884
 3567SOL     OW11599   0.793   4.637   6.412
 3567SOL    HW111600   0.713   4.634   6.352
 3567SOL    HW211601   0.875   4.656   6.359
 3568SOL     OW11602   2.709   4.400   5.969
 3568SOL    HW111603   2.680   4.383   5.875
 3568SOL    HW211604   2.644   4.460   6.015
 3569SOL     OW11605   0.852   0.461   3.113
 3569SOL    HW111606   0.936   0.476   3.060
 3569SOL    HW211607   0.824   0.546   3.156
 3570SOL     OW11608   0.272   2.201   4.830
 3570SOL    HW111609   0.259   2.296   4.859
 3570SOL    HW211610   0.255   2.193   4.732
 3571SOL     OW11611   6.611   5.566   4.897
 3571SOL    HW111612   6.547   5.566   4.974
 3571SOL    HW211613   6.650   5.474   4.887
 3572SOL     OW11614   5.577   6.273   5.359
 3572SOL    HW111615   5.622   6.340   5.301
 3572SOL    HW211616   5.617   6.183   5.343
 3573SOL     OW11617   0.706   2.664   2.133
 3573SOL    HW111618   0.758   2.589   2.176
 3573SOL    HW211619   0.641   2.626   2.068
 3574SOL     OW11620   6.925   3.813   0.187
 3574SOL    HW111621   6.893   3.742   0.124
 3574SOL    HW211622   6.928   3.901   0.139
 3575SOL     OW11623   6.534   0.262   2.810
 3575SOL    HW111624   6.515   0.272   2.713
 3575SOL    HW211625   6.455   0.294   2.863
 3576SOL     OW11626   0.486   1.274   0.613
 3576SOL    HW111627   0.503   1.336   0.536
 3576SOL    HW211628   0.390   1.282   0.642
 3577SOL     OW11629   2.129   4.641   0.325
 3577SOL    HW111630   2.117   4.601   0.415
 3577SOL    HW211631   2.152   4.738   0.334
 3578SOL     OW11632   3.264   4.638   1.666
 3578SOL    HW111633   3.334   4.639   1.737
 3578SOL    HW211634   3.178   4.673   1.703
 3579SOL     OW11635   2.391   3.087   6.515
 3579SOL    HW111636   2.383   3.183   6.542
 3579SOL    HW211637   2.469   3.076   6.454
 3580SOL     OW11638   5.606   1.462   1.778
 3580SOL    HW111639   5.569   1.546   1.737
 3580SOL    HW211640   5.626   1.396   1.705
 3581SOL     OW11641   0.134   1.201   2.735
 3581SOL    HW111642   0.067   1.257   2.784
 3581SOL    HW211643   0.143   1.113   2.781
 3582SOL     OW11644   0.740   0.549   5.757
 3582SOL    HW111645   0.784   0.587   5.675
 3582SOL    HW211646   0.719   0.452   5.741
 3583SOL     OW11647   1.445   6.916   1.585
 3583SOL    HW111648   1.376   6.846   1.567
 3583SOL    HW211649   1.418   6.970   1.664
 3584SOL     OW11650   5.302   0.790   4.748
 3584SOL    HW111651   5.292   0.691   4.753
 3584SOL    HW211652   5.329   0.825   4.837
 3585SOL     OW11653   2.504   4.527   3.863
 3585SOL    HW111654   2.526   4.527   3.765
 3585SOL    HW211655   2.489   4.621   3.893
 3586SOL     OW11656   1.359   0.917   6.907
 3586SOL    HW111657   1.274   0.960   6.876
 3586SOL    HW211658   1.377   0.944   7.001
 3587SOL     OW11659   3.483   6.702   6.029
 3587SOL    HW111660   3.533   6.626   5.987
 3587SOL    HW211661   3.509   6.709   6.126
 3588SOL     OW11662   2.645   2.701   5.509
 3588SOL    HW111663   2.658   2.775   5.443
 3588SOL    HW211664   2.580   2.635   5.473
 3589SOL     OW11665   3.062   6.480   4.425
 3589SOL    HW111666   3.126   6.435   4.488
 3589SOL    HW211667   2.971   6.479   4.465
 3590SOL     OW11668   0.902   5.727   6.791
 3590SOL    HW111669   0.918   5.641   6.741
 3590SOL    HW211670   0.898   5.802   6.726
 3591SOL     OW11671   5.264   1.317   5.325
 3591SOL    HW111672   5.178   1.356   5.293
 3591SOL    HW211673   5.274   1.224   5.288
 3592SOL     OW11674   5.578   1.357   2.088
 3592SOL    HW111675   5.559   1.439   2.034
 3592SOL    HW211676   5.672   1.327   2.070
 3593SOL     OW11677   0.922   5.321   4.119
 3593SOL    HW111678   0.854   5.347   4.188
 3593SOL    HW211679   1.009   5.366   4.140
 3594SOL     OW11680   4.259   1.601   3.989
 3594SOL    HW111681   4.190   1.538   4.025
 3594SOL    HW211682   4.320   1.552   3.927
 3595SOL     OW11683   2.442   6.169   6.298
 3595SOL    HW111684   2.480   6.143   6.387
 3595SOL    HW211685   2.345   6.145   6.294
 3596SOL     OW11686   6.471   3.445   2.743
 3596SOL    HW111687   6.454   3.543   2.753
 3596SOL    HW211688   6.415   3.409   2.668
 3597SOL     OW11689   4.044   0.395   4.261
 3597SOL    HW111690   4.013   0.354   4.175
 3597SOL    HW211691   4.126   0.450   4.243
 3598SOL     OW11692   2.475   0.127   0.200
 3598SOL    HW111693   2.487   0.083   0.111
 3598SOL    HW211694   2.380   0.155   0.212
 3599SOL     OW11695   0.161   2.252   4.023
 3599SOL    HW111696   0.193   2.337   4.065
 3599SOL    HW211697   0.211   2.175   4.061
 3600SOL     OW11698   6.160   6.712   1.442
 3600SOL    HW111699   6.203   6.629   1.407
 3600SOL    HW211700   6.161   6.710   1.542
 3601SOL     OW11701   7.023   3.365   5.772
 3601SOL    HW111702   6.977   3.400   5.690
 3601SOL    HW211703   6.957   3.358   5.847
 3602SOL     OW11704   3.295   2.694   1.414
 3602SOL    HW111705   3.234   2.623   1.450
 3602SOL    HW211706   3.295   2.690   1.314
 3603SOL     OW11707   4.065   5.432   4.600
 3603SOL    HW111708   4.068   5.489   4.518
 3603SOL    HW211709   4.014   5.349   4.580
 3604SOL     OW11710   6.247   4.487   2.942
 3604SOL    HW111711   6.195   4.411   2.982
 3604SOL    HW211712   6.343   4.459   2.931
 3605SOL     OW11713   5.615   1.342   6.233
 3605SOL    HW111714   5.671   1.367   6.312
 3605SOL    HW211715   5.603   1.243   6.231
 3606SOL     OW11716   1.771   4.280   2.856
 3606SOL    HW111717   1.796   4.186   2.881
 3606SOL    HW211718   1.695   4.277   2.791
 3607SOL     OW11719   4.137   0.005   5.503
 3607SOL    HW111720   4.131   0.038   5.409
 3607SOL    HW211721   4.208   0.056   5.552
 3608SOL     OW11722   6.912   3.011   3.169
 3608SOL    HW111723   6.896   2.916   3.198
 3608SOL    HW211724   6.984   3.012   3.099
 3609SOL     OW11725   6.925   0.724   3.773
 3609SOL    HW111726   6.971   0.799   3.725
 3609SOL    HW211727   6.870   0.672   3.708
 3610SOL     OW11728   1.856   5.047   5.537
 3610SOL    HW111729   1.787   4.992   5.585
 3610SOL    HW211730   1.816   5.083   5.453
 3611SOL     OW11731   4.972   4.586   5.749
 3611SOL    HW111732   5.029   4.582   5.831
 3611SOL    HW211733   4.914   4.667   5.753
 3612SOL     OW11734   2.233   6.141   1.145
 3612SOL    HW111735   2.225   6.089   1.060
 3612SOL    HW211736   2.293   6.093   1.209
 3613SOL     OW11737   5.529   4.744   6.167
 3613SOL    HW111738   5.505   4.655   6.129
 3613SOL    HW211739   5.616   4.774   6.130
 3614SOL     OW11740   3.680   3.039   4.836
 3614SOL    HW111741   3.599   2.986   4.860
 3614SOL    HW211742   3.762   2.989   4.865
 3615SOL     OW11743   5.708   6.698   6.327
 3615SOL    HW111744   5.792   6.682   6.275
 3615SOL    HW211745   5.647   6.619   6.317
 3616SOL     OW11746   6.486   1.306   4.563
 3616SOL    HW111747   6.483   1.370   4.639
 3616SOL    HW211748   6.405   1.319   4.505
 3617SOL     OW11749   0.232   0.570   0.843
 3617SOL    HW111750   0.310   0.512   0.866
 3617SOL    HW211751   0.158   0.553   0.909
 3618SOL     OW11752   3.893   5.508   6.356
 3618SOL    HW111753   3.842   5.425   6.336
 3618SOL    HW211754   3.830   5.586   6.357
 3619SOL     OW11755   4.956   3.450   3.839
 3619SOL    HW111756   4.887   3.379   3.853
 3619SOL    HW211757   5.037   3.429   3.894
 3620SOL     OW11758   6.176   1.885   4.923
 3620SOL    HW111759   6.226   1.798   4.914
 3620SOL    HW211760   6.241   1.958   4.942
 3621SOL     OW11761   1.550   2.572   6.340
 3621SOL    HW111762   1.590   2.659   6.370
 3621SOL    HW211763   1.553   2.506   6.416
 3622SOL     OW11764   1.125   3.945   0.813
 3622SOL    HW111765   1.042   3.979   0.769
 3622SOL    HW211766   1.131   3.846   0.799
 3623SOL     OW11767   6.249   4.737   4.961
 3623SOL    HW111768   6.225   4.685   4.879
 3623SOL    HW211769   6.185   4.814   4.971
 3624SOL     OW11770   1.501   0.539   1.948
 3624SOL    HW111771   1.556   0.535   1.864
 3624SOL    HW211772   1.438   0.460   1.950
 3625SOL     OW11773   1.315   2.472   5.042
 3625SOL    HW111774   1.300   2.521   5.128
 3625SOL    HW211775   1.300   2.534   4.965
 3626SOL     OW11776   2.062   3.446   5.414
 3626SOL    HW111777   2.081   3.446   5.512
 3626SOL    HW211778   2.141   3.482   5.365
 3627SOL     OW11779   3.610   3.198   4.606
 3627SOL    HW111780   3.620   3.136   4.684
 3627SOL    HW211781   3.695   3.203   4.555
 3628SOL     OW11782   2.675   5.602   4.075
 3628SOL    HW111783   2.742   5.640   4.139
 3628SOL    HW211784   2.715   5.523   4.028
 3629SOL     OW11785   5.454   3.396   4.677
 3629SOL    HW111786   5.510   3.478   4.690
 3629SOL    HW211787   5.506   3.328   4.625
 3630SOL     OW11788   6.327   2.092   4.982
 3630SOL    HW111789   6.249   2.151   4.961
 3630SOL    HW211790   6.382   2.135   5.054
 3631SOL     OW11791   1.826   1.066   4.130
 3631SOL    HW111792   1.874   0.979   4.114
 3631SOL    HW211793   1.893   1.139   4.141
 3632SOL     OW11794   4.800   6.731   5.969
 3632SOL    HW111795   4.705   6.702   5.979
 3632SOL    HW211796   4.840   6.688   5.888
 3633SOL     OW11797   0.872   2.560   5.563
 3633SOL    HW111798   0.815   2.523   5.489
 3633SOL    HW211799   0.814   2.581   5.642
 3634SOL     OW11800   2.967   4.795   6.208
 3634SOL    HW111801   3.036   4.805   6.280
 3634SOL    HW211802   3.003   4.739   6.134
 3635SOL     OW11803   2.304   1.890   4.374
 3635SOL    HW111804   2.262   1.838   4.300
 3635SOL    HW211805   2.320   1.984   4.343
 3636SOL     OW11806   0.886   6.802   1.733
 3636SOL    HW111807   0.926   6.788   1.642
 3636SOL    HW211808   0.959   6.807   1.801
 3637SOL     OW11809   5.038   1.373   2.490
 3637SOL    HW111810   4.942   1.399   2.498
 3637SOL    HW211811   5.082   1.376   2.580
 3638SOL     OW11812   6.885   5.240   3.560
 3638SOL    HW111813   6.950   5.164   3.559
 3638SOL    HW211814   6.792   5.205   3.545
 3639SOL     OW11815   2.759   6.340   0.060
 3639SOL    HW111816   2.690   6.311   7.017
 3639SOL    HW211817   2.761   6.276   0.136
 3640SOL     OW11818   2.194   6.721   1.964
 3640SOL    HW111819   2.237   6.695   2.051
 3640SOL    HW211820   2.154   6.812   1.972
 3641SOL     OW11821   1.857   1.406   5.192
 3641SOL    HW111822   1.835   1.444   5.282
 3641SOL    HW211823   1.955   1.392   5.184
 3642SOL     OW11824   6.294   6.970   2.405
 3642SOL    HW111825   6.231   0.010   2.451
 3642SOL    HW211826   6.353   6.926   2.473
 3643SOL     OW11827   3.567   6.955   4.282
 3643SOL    HW111828   3.484   7.006   4.259
 3643SOL    HW211829   3.647   7.014   4.272
 3644SOL     OW11830   5.969   7.021   1.949
 3644SOL    HW111831   5.987   6.980   1.859
 3644SOL    HW211832   6.047   7.005   2.009
 3645SOL     OW11833   4.514   6.110   3.810
 3645SOL    HW111834   4.445   6.135   3.742
 3645SOL    HW211835   4.470   6.103   3.900
 3646SOL     OW11836   0.687   5.166   4.993
 3646SOL    HW111837   0.711   5.241   5.055
 3646SOL    HW211838   0.601   5.186   4.947
 3647SOL     OW11839   3.046   2.946   0.647
 3647SOL    HW111840   3.014   2.992   0.565
 3647SOL    HW211841   3.101   2.866   0.621
 3648SOL     OW11842   2.725   6.492   3.323
 3648SOL    HW111843   2.641   6.544   3.312
 3648SOL    HW211844   2.748   6.485   3.420
 3649SOL     OW11845   3.257   2.945   2.602
 3649SOL    HW111846   3.301   2.911   2.519
 3649SOL    HW211847   3.186   3.011   2.577
 3650SOL     OW11848   5.861   6.292   1.180
 3650SOL    HW111849   5.791   6.358   1.152
 3650SOL    HW211850   5.824   6.200   1.172
 3651SOL     OW11851   1.921   5.668   1.814
 3651SOL    HW111852   2.001   5.667   1.755
 3651SOL    HW211853   1.839   5.648   1.760
 3652SOL     OW11854   4.201   6.407   3.725
 3652SOL    HW111855   4.216   6.387   3.822
 3652SOL    HW211856   4.104   6.425   3.709
 3653SOL     OW11857   7.006   3.110   3.808
 3653SOL    HW111858   0.036   3.186   3.770
 3653SOL    HW211859   0.002   3.027   3.757
 3654SOL     OW11860   2.171   6.992   2.039
 3654SOL    HW111861   2.160   0.029   1.960
 3654SOL    HW211862   2.121   0.005   2.117
 3655SOL     OW11863   6.518   1.297   3.875
 3655SOL    HW111864   6.535   1.198   3.881
 3655SOL    HW211865   6.552   1.331   3.788
 3656SOL     OW11866   2.337   1.950   2.703
 3656SOL    HW111867   2.273   1.930   2.777
 3656SOL    HW211868   2.286   1.974   2.620
 3657SOL     OW11869   5.079   5.458   1.786
 3657SOL    HW111870   5.059   5.491   1.694
 3657SOL    HW211871   5.167   5.410   1.784
 3658SOL     OW11872   2.799   4.691   5.660
 3658SOL    HW111873   2.702   4.675   5.639
 3658SOL    HW211874   2.845   4.729   5.580
 3659SOL     OW11875   1.584   4.070   6.743
 3659SOL    HW111876   1.600   4.135   6.669
 3659SOL    HW211877   1.581   3.977   6.706
 3660SOL     OW11878   4.409   3.917   0.779
 3660SOL    HW111879   4.398   4.004   0.828
 3660SOL    HW211880   4.320   3.870   0.775
 3661SOL     OW11881   5.620   1.260   1.561
 3661SOL    HW111882   5.566   1.205   1.625
 3661SOL    HW211883   5.695   1.205   1.525
 3662SOL     OW11884   1.018   6.600   4.315
 3662SOL    HW111885   0.973   6.539   4.250
 3662SOL    HW211886   1.065   6.545   4.385
 3663SOL     OW11887   2.232   2.753   6.182
 3663SOL    HW111888   2.299   2.804   6.236
 3663SOL    HW211889   2.219   2.799   6.094
 3664SOL     OW11890   3.340   0.526   2.476
 3664SOL    HW111891   3.264   0.474   2.515
 3664SOL    HW211892   3.411   0.463   2.446
 3665SOL     OW11893   2.085   1.271   5.124
 3665SOL    HW111894   2.147   1.312   5.057
 3665SOL    HW211895   2.051   1.183   5.089
 3666SOL     OW11896   0.643   4.653   3.393
 3666SOL    HW111897   0.653   4.649   3.493
 3666SOL    HW211898   0.577   4.724   3.369
 3667SOL     OW11899   0.265   1.209   0.103
 3667SOL    HW111900   0.217   1.133   0.147
 3667SOL    HW211901   0.337   1.173   0.043
 3668SOL     OW11902   2.017   6.554   1.821
 3668SOL    HW111903   2.074   6.611   1.881
 3668SOL    HW211904   2.060   6.464   1.811
 3669SOL     OW11905   5.533   1.568   4.103
 3669SOL    HW111906   5.482   1.654   4.095
 3669SOL    HW211907   5.482   1.505   4.162
 3670SOL     OW11908   2.901   5.010   5.997
 3670SOL    HW111909   2.909   5.004   5.897
 3670SOL    HW211910   2.913   4.918   6.036
 3671SOL     OW11911   1.976   1.228   3.249
 3671SOL    HW111912   2.018   1.221   3.158
 3671SOL    HW211913   1.894   1.170   3.253
 3672SOL     OW11914   6.404   6.555   0.190
 3672SOL    HW111915   6.477   6.487   0.179
 3672SOL    HW211916   6.363   6.545   0.281
 3673SOL     OW11917   4.314   0.056   6.431
 3673SOL    HW111918   4.233   0.054   6.490
 3673SOL    HW211919   4.285   0.057   6.335
 3674SOL     OW11920   0.898   6.055   0.995
 3674SOL    HW111921   0.903   6.023   1.090
 3674SOL    HW211922   0.897   6.155   0.993
 3675SOL     OW11923   2.125   2.246   4.077
 3675SOL    HW111924   2.176   2.332   4.079
 3675SOL    HW211925   2.103   2.223   3.983
 3676SOL     OW11926   1.764   5.252   2.889
 3676SOL    HW111927   1.671   5.221   2.908
 3676SOL    HW211928   1.810   5.272   2.975
 3677SOL     OW11929   5.462   0.549   3.456
 3677SOL    HW111930   5.562   0.552   3.453
 3677SOL    HW211931   5.431   0.585   3.544
 3678SOL     OW11932   0.940   2.517   4.152
 3678SOL    HW111933   0.851   2.506   4.109
 3678SOL    HW211934   0.963   2.435   4.205
 3679SOL     OW11935   6.233   1.288   2.010
 3679SOL    HW111936   6.276   1.202   2.039
 3679SOL    HW211937   6.304   1.359   2.003
 3680SOL     OW11938   6.017   4.556   4.533
 3680SOL    HW111939   6.013   4.460   4.561
 3680SOL    HW211940   5.980   4.566   4.441
 3681SOL     OW11941   5.430   0.014   5.197
 3681SOL    HW111942   5.470   0.098   5.160
 3681SOL    HW211943   5.442   6.963   5.131
 3682SOL     OW11944   0.388   2.204   6.918
 3682SOL    HW111945   0.471   2.172   6.872
 3682SOL    HW211946   0.355   2.133   6.981
 3683SOL     OW11947   4.987   6.219   2.909
 3683SOL    HW111948   4.893   6.248   2.925
 3683SOL    HW211949   5.010   6.143   2.970
 3684SOL     OW11950   2.393   3.864   1.780
 3684SOL    HW111951   2.446   3.925   1.838
 3684SOL    HW211952   2.449   3.833   1.703
 3685SOL     OW11953   5.479   6.351   5.710
 3685SOL    HW111954   5.556   6.290   5.695
 3685SOL    HW211955   5.510   6.436   5.752
 3686SOL     OW11956   0.101   4.053   0.500
 3686SOL    HW111957   0.132   4.016   0.587
 3686SOL    HW211958   0.144   4.002   0.425
 3687SOL     OW11959   4.227   0.963   0.510
 3687SOL    HW111960   4.318   0.993   0.481
 3687SOL    HW211961   4.225   0.863   0.512
 3688SOL     OW11962   0.052   3.545   0.400
 3688SOL    HW111963   0.066   3.452   0.433
 3688SOL    HW211964   0.016   3.601   0.474
 3689SOL     OW11965   1.972   6.571   3.430
 3689SOL    HW111966   1.893   6.565   3.370
 3689SOL    HW211967   1.954   6.524   3.516
 3690SOL     OW11968   4.796   4.871   5.776
 3690SOL    HW111969   4.820   4.956   5.824
 3690SOL    HW211970   4.777   4.799   5.843
 3691SOL     OW11971   3.259   2.838   5.815
 3691SOL    HW111972   3.186   2.907   5.811
 3691SOL    HW211973   3.332   2.863   5.751
 3692SOL     OW11974   0.233   0.241   5.320
 3692SOL    HW111975   0.321   0.235   5.367
 3692SOL    HW211976   0.170   0.297   5.373
 3693SOL     OW11977   1.344   1.606   3.693
 3693SOL    HW111978   1.402   1.536   3.651
 3693SOL    HW211979   1.249   1.591   3.664
 3694SOL     OW11980   1.704   5.105   3.619
 3694SOL    HW111981   1.693   5.024   3.677
 3694SOL    HW211982   1.758   5.174   3.667
 3695SOL     OW11983   2.200   2.232   0.500
 3695SOL    HW111984   2.140   2.214   0.421
 3695SOL    HW211985   2.238   2.324   0.492
 3696SOL     OW11986   2.894   6.220   5.561
 3696SOL    HW111987   2.889   6.258   5.654
 3696SOL    HW211988   2.976   6.163   5.553
 3697SOL     OW11989   5.245   1.132   3.853
 3697SOL    HW111990   5.216   1.128   3.757
 3697SOL    HW211991   5.344   1.120   3.858
 3698SOL     OW11992   3.127   6.682   6.603
 3698SOL    HW111993   3.195   6.751   6.628
 3698SOL    HW211994   3.171   6.610   6.549
 3699SOL     OW11995   0.977   5.126   2.269
 3699SOL    HW111996   1.031   5.052   2.228
 3699SOL    HW211997   1.037   5.186   2.323
 3700SOL     OW11998   6.131   0.529   3.400
 3700SOL    HW111999   6.183   0.609   3.369
 3700SOL    HW212000   6.062   0.557   3.466
 3701SOL     OW12001   4.791   1.082   3.966
 3701SOL    HW112002   4.740   1.114   3.886
 3701SOL    HW212003   4.804   0.983   3.959
 3702SOL     OW12004   5.065   1.082   6.748
 3702SOL    HW112005   5.050   1.133   6.663
 3702SOL    HW212006   5.075   0.985   6.727
 3703SOL     OW12007   3.929   4.693   1.096
 3703SOL    HW112008   4.013   4.692   1.041
 3703SOL    HW212009   3.861   4.749   1.049
 3704SOL     OW12010   3.555   6.435   1.009
 3704SOL    HW112011   3.476   6.491   0.982
 3704SOL    HW212012   3.533   6.339   0.997
 3705SOL     OW12013   6.925   1.060   4.211
 3705SOL    HW112014   6.881   1.054   4.301
 3705SOL    HW212015   6.900   0.980   4.156
 3706SOL     OW12016   2.880   2.070   3.094
 3706SOL    HW112017   2.782   2.086   3.084
 3706SOL    HW212018   2.903   1.978   3.061
 3707SOL     OW12019   4.432   2.368   5.412
 3707SOL    HW112020   4.487   2.294   5.450
 3707SOL    HW212021   4.486   2.453   5.410
 3708SOL     OW12022   6.762   0.575   0.228
 3708SOL    HW112023   6.829   0.506   0.200
 3708SOL    HW212024   6.773   0.657   0.171
 3709SOL     OW12025   0.140   6.533   6.725
 3709SOL    HW112026   0.192   6.585   6.793
 3709SOL    HW212027   0.184   6.541   6.636
 3710SOL     OW12028   0.511   4.970   6.668
 3710SOL    HW112029   0.487   4.940   6.760
 3710SOL    HW212030   0.595   5.025   6.672
 3711SOL     OW12031   6.862   5.631   2.031
 3711SOL    HW112032   6.901   5.711   1.985
 3711SOL    HW212033   6.894   5.547   1.985
 3712SOL     OW12034   1.705   0.147   0.019
 3712SOL    HW112035   1.696   0.047   0.017
 3712SOL    HW212036   1.661   0.187   6.963
 3713SOL     OW12037   3.694   5.177   5.907
 3713SOL    HW112038   3.760   5.252   5.916
 3713SOL    HW212039   3.669   5.144   5.998
 3714SOL     OW12040   4.889   1.956   5.026
 3714SOL    HW112041   4.922   2.028   5.086
 3714SOL    HW212042   4.803   1.919   5.062
 3715SOL     OW12043   4.870   3.908   3.531
 3715SOL    HW112044   4.849   3.872   3.622
 3715SOL    HW212045   4.814   3.990   3.514
 3716SOL     OW12046   1.148   1.390   4.236
 3716SOL    HW112047   1.234   1.408   4.189
 3716SOL    HW212048   1.106   1.477   4.262
 3717SOL     OW12049   6.067   0.579   6.617
 3717SOL    HW112050   6.129   0.516   6.663
 3717SOL    HW212051   5.992   0.603   6.679
 3718SOL     OW12052   0.903   6.587   6.598
 3718SOL    HW112053   1.002   6.580   6.609
 3718SOL    HW212054   0.865   6.495   6.587
 3719SOL     OW12055   2.919   4.407   0.625
 3719SOL    HW112056   2.922   4.479   0.556
 3719SOL    HW212057   2.900   4.319   0.580
 3720SOL     OW12058   0.064   1.030   6.333
 3720SOL    HW112059   0.062   0.965   6.257
 3720SOL    HW212060   0.140   1.093   6.321
 3721SOL     OW12061   4.691   2.922   0.277
 3721SOL    HW112062   4.603   2.883   0.304
 3721SOL    HW212063   4.721   2.988   0.345
 3722SOL     OW12064   4.918   5.676   1.233
 3722SOL    HW112065   4.857   5.710   1.305
 3722SOL    HW212066   4.870   5.609   1.178
 3723SOL     OW12067   4.667   1.198   0.766
 3723SOL    HW112068   4.634   1.281   0.812
 3723SOL    HW212069   4.741   1.223   0.703
 3724SOL     OW12070   0.792   4.213   5.700
 3724SOL    HW112071   0.836   4.285   5.646
 3724SOL    HW212072   0.770   4.136   5.640
 3725SOL     OW12073   5.491   6.249   1.480
 3725SOL    HW112074   5.430   6.328   1.477
 3725SOL    HW212075   5.530   6.240   1.571
 3726SOL     OW12076   6.262   2.760   1.785
 3726SOL    HW112077   6.168   2.738   1.810
 3726SOL    HW212078   6.267   2.857   1.759
 3727SOL     OW12079   2.865   3.068   5.497
 3727SOL    HW112080   2.877   2.997   5.566
 3727SOL    HW212081   2.904   3.037   5.410
 3728SOL     OW12082   0.643   4.236   6.572
 3728SOL    HW112083   0.700   4.266   6.496
 3728SOL    HW212084   0.567   4.182   6.538
 3729SOL     OW12085   0.895   3.106   3.963
 3729SOL    HW112086   0.940   3.033   4.014
 3729SOL    HW212087   0.961   3.178   3.942
 3730SOL     OW12088   1.896   0.294   1.431
 3730SOL    HW112089   1.968   0.269   1.496
 3730SOL    HW212090   1.819   0.231   1.442
 3731SOL     OW12091   2.310   5.411   6.931
 3731SOL    HW112092   2.401   5.424   6.890
 3731SOL    HW212093   2.268   5.500   6.946
 3732SOL     OW12094   2.038   3.715   4.353
 3732SOL    HW112095   2.088   3.791   4.311
 3732SOL    HW212096   2.099   3.636   4.362
 3733SOL     OW12097   2.951   3.731   1.521
 3733SOL    HW112098   3.005   3.688   1.594
 3733SOL    HW212099   2.957   3.675   1.438
 3734SOL     OW12100   4.360   1.055   3.202
 3734SOL    HW112101   4.304   1.042   3.284
 3734SOL    HW212102   4.455   1.072   3.228
 3735SOL     OW12103   3.956   2.140   2.005
 3735SOL    HW112104   3.960   2.050   2.048
 3735SOL    HW212105   3.866   2.181   2.021
 3736SOL     OW12106   4.792   0.915   6.162
 3736SOL    HW112107   4.734   0.834   6.159
 3736SOL    HW212108   4.744   0.992   6.119
 3737SOL     OW12109   2.988   0.083   3.686
 3737SOL    HW112110   3.054   0.140   3.735
 3737SOL    HW212111   3.024   7.015   3.676
 3738SOL     OW12112   0.224   0.674   4.173
 3738SOL    HW112113   0.204   0.679   4.271
 3738SOL    HW212114   0.317   0.705   4.156
 3739SOL     OW12115   0.274   3.213   1.046
 3739SOL    HW112116   0.271   3.123   1.003
 3739SOL    HW212117   0.203   3.219   1.116
 3740SOL     OW12118   5.832   6.898   0.178
 3740SOL    HW112119   5.879   6.895   0.266
 3740SOL    HW212120   5.873   6.831   0.116
 3741SOL     OW12121   3.943   1.589   6.889
 3741SOL    HW112122   3.844   1.574   6.889
 3741SOL    HW212123   3.989   1.504   6.861
 3742SOL     OW12124   3.570   3.390   5.994
 3742SOL    HW112125   3.670   3.394   6.003
 3742SOL    HW212126   3.537   3.303   6.032
 3743SOL     OW12127   0.806   5.728   6.221
 3743SOL    HW112128   0.730   5.756   6.163
 3743SOL    HW212129   0.847   5.645   6.185
 3744SOL     OW12130   6.622   4.857   3.189
 3744SOL    HW112131   6.703   4.904   3.224
 3744SOL    HW212132   6.549   4.864   3.256
 3745SOL     OW12133   5.187   4.935   1.607
 3745SOL    HW112134   5.160   4.943   1.703
 3745SOL    HW212135   5.112   4.967   1.548
 3746SOL     OW12136   4.079   1.976   1.579
 3746SOL    HW112137   3.981   1.959   1.591
 3746SOL    HW212138   4.100   2.070   1.606
 3747SOL     OW12139   2.430   0.091   1.089
 3747SOL    HW112140   2.488   0.025   1.137
 3747SOL    HW212141   2.399   0.161   1.154
 3748SOL     OW12142   6.041   0.413   1.923
 3748SOL    HW112143   6.125   0.405   1.977
 3748SOL    HW212144   5.975   0.468   1.974
 3749SOL     OW12145   0.783   0.521   3.944
 3749SOL    HW112146   0.754   0.478   4.029
 3749SOL    HW212147   0.823   0.611   3.964
 3750SOL     OW12148   0.376   3.764   6.644
 3750SOL    HW112149   0.373   3.679   6.696
 3750SOL    HW212150   0.331   3.836   6.696
 3751SOL     OW12151   1.828   5.262   1.416
 3751SOL    HW112152   1.925   5.273   1.438
 3751SOL    HW212153   1.803   5.324   1.342
 3752SOL     OW12154   5.356   5.894   6.750
 3752SOL    HW112155   5.325   5.906   6.844
 3752SOL    HW212156   5.278   5.867   6.693
 3753SOL     OW12157   0.507   0.678   3.098
 3753SOL    HW112158   0.597   0.691   3.139
 3753SOL    HW212159   0.517   0.630   3.011
 3754SOL     OW12160   3.390   1.975   1.218
 3754SOL    HW112161   3.396   2.044   1.146
 3754SOL    HW212162   3.477   1.927   1.226
 3755SOL     OW12163   2.372   5.816   4.200
 3755SOL    HW112164   2.324   5.887   4.149
 3755SOL    HW212165   2.433   5.860   4.267
 3756SOL     OW12166   1.354   6.084   1.039
 3756SOL    HW112167   1.368   5.998   0.991
 3756SOL    HW212168   1.435   6.142   1.028
 3757SOL     OW12169   0.624   4.992   0.274
 3757SOL    HW112170   0.676   4.926   0.220
 3757SOL    HW212171   0.548   4.945   0.320
 3758SOL     OW12172   0.448   6.017   3.920
 3758SOL    HW112173   0.391   6.085   3.967
 3758SOL    HW212174   0.391   5.960   3.862
 3759SOL     OW12175   4.656   0.830   3.663
 3759SOL    HW112176   4.742   0.823   3.713
 3759SOL    HW212177   4.609   0.742   3.666
 3760SOL     OW12178   0.795   0.988   3.149
 3760SOL    HW112179   0.733   1.060   3.119
 3760SOL    HW212180   0.832   1.012   3.239
 3761SOL     OW12181   4.621   1.085   5.215
 3761SOL    HW112182   4.633   1.022   5.138
 3761SOL    HW212183   4.580   1.170   5.182
 3762SOL     OW12184   0.343   2.431   4.158
 3762SOL    HW112185   0.417   2.367   4.179
 3762SOL    HW212186   0.382   2.518   4.126
 3763SOL     OW12187   1.228   6.576   0.031
 3763SOL    HW112188   1.282   6.612   0.107
 3763SOL    HW212189   1.144   6.629   0.020
 3764SOL     OW12190   3.341   1.544   2.496
 3764SOL    HW112191   3.272   1.504   2.556
 3764SOL    HW212192   3.317   1.525   2.401
 3765SOL     OW12193   5.647   3.834   2.643
 3765SOL    HW112194   5.562   3.793   2.609
 3765SOL    HW212195   5.699   3.872   2.567
 3766SOL     OW12196   1.671   2.862   2.307
 3766SOL    HW112197   1.760   2.854   2.351
 3766SOL    HW212198   1.661   2.954   2.267
 3767SOL     OW12199   1.698   6.088   6.158
 3767SOL    HW112200   1.749   6.003   6.141
 3767SOL    HW212201   1.757   6.166   6.138
 3768SOL     OW12202   1.542   6.962   3.462
 3768SOL    HW112203   1.535   6.935   3.558
 3768SOL    HW212204   1.467   6.921   3.411
 3769SOL     OW12205   5.247   4.985   5.529
 3769SOL    HW112206   5.185   5.064   5.532
 3769SOL    HW212207   5.342   5.017   5.523
 3770SOL     OW12208   2.647   6.894   0.928
 3770SOL    HW112209   2.636   6.940   1.016
 3770SOL    HW212210   2.718   6.825   0.935
 3771SOL     OW12211   6.503   6.151   5.544
 3771SOL    HW112212   6.579   6.093   5.514
 3771SOL    HW212213   6.519   6.181   5.638
 3772SOL     OW12214   2.747   5.921   1.789
 3772SOL    HW112215   2.734   6.000   1.849
 3772SOL    HW212216   2.837   5.928   1.744
 3773SOL     OW12217   5.001   4.356   6.583
 3773SOL    HW112218   4.981   4.327   6.677
 3773SOL    HW212219   5.004   4.455   6.579
 3774SOL     OW12220   6.909   4.407   1.172
 3774SOL    HW112221   6.887   4.348   1.250
 3774SOL    HW212222   7.001   4.386   1.140
 3775SOL     OW12223   5.498   6.329   4.647
 3775SOL    HW112224   5.596   6.309   4.637
 3775SOL    HW212225   5.467   6.296   4.736
 3776SOL     OW12226   4.310   2.596   6.747
 3776SOL    HW112227   4.219   2.599   6.705
 3776SOL    HW212228   4.348   2.504   6.740
 3777SOL     OW12229   3.168   5.170   3.801
 3777SOL    HW112230   3.257   5.209   3.822
 3777SOL    HW212231   3.179   5.075   3.772
 3778SOL     OW12232   3.039   5.385   6.461
 3778SOL    HW112233   2.964   5.414   6.520
 3778SOL    HW212234   3.066   5.461   6.402
 3779SOL     OW12235   0.099   4.982   6.033
 3779SOL    HW112236   0.187   4.997   6.078
 3779SOL    HW212237   0.026   4.980   6.101
 3780SOL     OW12238   6.260   2.494   2.270
 3780SOL    HW112239   6.343   2.540   2.238
 3780SOL    HW212240   6.243   2.520   2.365
 3781SOL     OW12241   1.307   6.801   6.040
 3781SOL    HW112242   1.401   6.774   6.020
 3781SOL    HW212243   1.290   6.893   6.005
 3782SOL     OW12244   3.511   5.488   6.798
 3782SOL    HW112245   3.476   5.402   6.762
 3782SOL    HW212246   3.574   5.470   6.873
 3783SOL     OW12247   4.417   4.663   5.651
 3783SOL    HW112248   4.436   4.608   5.570
 3783SOL    HW212249   4.456   4.618   5.732
 3784SOL     OW12250   5.712   3.520   4.517
 3784SOL    HW112251   5.756   3.539   4.605
 3784SOL    HW212252   5.703   3.606   4.466
 3785SOL     OW12253   0.802   3.180   2.602
 3785SOL    HW112254   0.878   3.120   2.576
 3785SOL    HW212255   0.837   3.257   2.655
 3786SOL     OW12256   2.496   3.136   6.018
 3786SOL    HW112257   2.398   3.153   6.015
 3786SOL    HW212258   2.520   3.068   5.949
 3787SOL     OW12259   5.006   5.872   5.140
 3787SOL    HW112260   4.962   5.883   5.229
 3787SOL    HW212261   5.105   5.878   5.150
 3788SOL     OW12262   5.840   3.027   6.324
 3788SOL    HW112263   5.841   3.123   6.295
 3788SOL    HW212264   5.784   3.017   6.406
 3789SOL     OW12265   2.044   4.245   1.058
 3789SOL    HW112266   2.038   4.166   0.997
 3789SOL    HW212267   2.120   4.232   1.121
 3790SOL     OW12268   2.175   6.971   1.743
 3790SOL    HW112269   2.215   6.884   1.714
 3790SOL    HW212270   2.077   6.959   1.759
 3791SOL     OW12271   4.883   0.653   4.335
 3791SOL    HW112272   4.930   0.578   4.289
 3791SOL    HW212273   4.914   0.740   4.297
 3792SOL     OW12274   6.358   0.234   3.029
 3792SOL    HW112275   6.293   0.260   3.100
 3792SOL    HW212276   6.401   0.147   3.055
 3793SOL     OW12277   4.816   3.437   0.168
 3793SOL    HW112278   4.752   3.490   0.112
 3793SOL    HW212279   4.903   3.429   0.120
 3794SOL     OW12280   1.400   5.108   5.775
 3794SOL    HW112281   1.394   5.131   5.678
 3794SOL    HW212282   1.365   5.016   5.790
 3795SOL     OW12283   3.121   5.994   0.668
 3795SOL    HW112284   3.155   5.900   0.667
 3795SOL    HW212285   3.100   6.020   0.762
 3796SOL     OW12286   5.411   0.626   0.204
 3796SOL    HW112287   5.377   0.607   0.296
 3796SOL    HW212288   5.416   0.540   0.152
 3797SOL     OW12289   6.790   2.732   1.263
 3797SOL    HW112290   6.830   2.739   1.354
 3797SOL    HW212291   6.731   2.811   1.246
 3798SOL     OW12292   0.768   4.842   3.664
 3798SOL    HW112293   0.677   4.825   3.702
 3798SOL    HW212294   0.823   4.758   3.670
 3799SOL     OW12295   0.079   1.866   2.561
 3799SOL    HW112296   0.045   1.875   2.654
 3799SOL    HW212297   0.057   1.775   2.526
 3800SOL     OW12298   5.445   2.922   2.196
 3800SOL    HW112299   5.444   2.930   2.296
 3800SOL    HW212300   5.526   2.872   2.168
 3801SOL     OW12301   5.856   1.307   1.090
 3801SOL    HW112302   5.789   1.243   1.129
 3801SOL    HW212303   5.842   1.398   1.128
 3802SOL     OW12304   6.104   3.432   2.997
 3802SOL    HW112305   6.024   3.488   2.979
 3802SOL    HW212306   6.084   3.367   3.070
 3803SOL     OW12307   4.188   3.867   5.965
 3803SOL    HW112308   4.228   3.856   5.874
 3803SOL    HW212309   4.088   3.861   5.959
 3804SOL     OW12310   3.035   6.075   3.091
 3804SOL    HW112311   2.950   6.043   3.133
 3804SOL    HW212312   3.083   6.134   3.155
 3805SOL     OW12313   2.781   1.939   6.557
 3805SOL    HW112314   2.761   1.859   6.501
 3805SOL    HW212315   2.774   2.021   6.501
 3806SOL     OW12316   1.888   3.603   2.215
 3806SOL    HW112317   1.821   3.631   2.283
 3806SOL    HW212318   1.856   3.520   2.169
 3807SOL     OW12319   0.622   4.251   3.891
 3807SOL    HW112320   0.542   4.249   3.831
 3807SOL    HW212321   0.698   4.205   3.846
 3808SOL     OW12322   2.525   6.382   5.916
 3808SOL    HW112323   2.462   6.315   5.877
 3808SOL    HW212324   2.473   6.454   5.962
 3809SOL     OW12325   5.328   1.366   1.807
 3809SOL    HW112326   5.413   1.385   1.856
 3809SOL    HW212327   5.335   1.401   1.714
 3810SOL     OW12328   5.192   2.098   3.351
 3810SOL    HW112329   5.155   2.061   3.436
 3810SOL    HW212330   5.262   2.035   3.315
 3811SOL     OW12331   0.255   5.855   5.496
 3811SOL    HW112332   0.208   5.800   5.427
 3811SOL    HW212333   0.320   5.917   5.451
 3812SOL     OW12334   4.010   5.696   0.149
 3812SOL    HW112335   3.966   5.692   0.060
 3812SOL    HW212336   4.005   5.607   0.193
 3813SOL     OW12337   6.507   3.282   6.986
 3813SOL    HW112338   6.414   3.260   7.018
 3813SOL    HW212339   6.560   3.318   0.039
 3814SOL     OW12340   6.966   0.468   5.111
 3814SOL    HW112341   0.037   0.437   5.123
 3814SOL    HW212342   6.963   0.568   5.117
 3815SOL     OW12343   4.788   2.119   5.335
 3815SOL    HW112344   4.731   2.144   5.257
 3815SOL    HW212345   4.786   2.194   5.402
 3816SOL     OW12346   6.982   6.704   1.279
 3816SOL    HW112347   7.010   6.701   1.183
 3816SOL    HW212348   0.002   6.630   1.329
 3817SOL     OW12349   3.788   3.629   2.157
 3817SOL    HW112350   3.737   3.658   2.077
 3817SOL    HW212351   3.878   3.671   2.157
 3818SOL     OW12352   4.236   5.415   2.704
 3818SOL    HW112353   4.277   5.408   2.795
 3818SOL    HW212354   4.265   5.500   2.660
 3819SOL     OW12355   6.069   3.332   3.283
 3819SOL    HW112356   6.149   3.273   3.269
 3819SOL    HW212357   6.075   3.376   3.372
 3820SOL     OW12358   2.985   6.437   5.988
 3820SOL    HW112359   3.016   6.526   5.957
 3820SOL    HW212360   3.038   6.409   6.068
 3821SOL     OW12361   1.910   6.823   1.498
 3821SOL    HW112362   1.954   6.770   1.426
 3821SOL    HW212363   1.897   6.766   1.579
 3822SOL     OW12364   5.917   6.860   1.408
 3822SOL    HW112365   5.875   6.843   1.497
 3822SOL    HW212366   6.008   6.818   1.405
 3823SOL     OW12367   5.485   5.997   4.737
 3823SOL    HW112368   5.582   5.986   4.716
 3823SOL    HW212369   5.473   6.070   4.805
 3824SOL     OW12370   2.078   2.314   0.719
 3824SOL    HW112371   2.122   2.269   0.641
 3824SOL    HW212372   1.981   2.288   0.721
 3825SOL     OW12373   0.552   4.587   5.558
 3825SOL    HW112374   0.506   4.663   5.511
 3825SOL    HW212375   0.639   4.568   5.514
 3826SOL     OW12376   4.775   4.105   3.847
 3826SOL    HW112377   4.801   4.016   3.810
 3826SOL    HW212378   4.834   4.128   3.924
 3827SOL     OW12379   0.616   1.323   6.846
 3827SOL    HW112380   0.588   1.251   6.909
 3827SOL    HW212381   0.536   1.378   6.822
 3828SOL     OW12382   3.353   3.790   5.263
 3828SOL    HW112383   3.296   3.847   5.321
 3828SOL    HW212384   3.362   3.699   5.303
 3829SOL     OW12385   0.156   2.987   1.879
 3829SOL    HW112386   0.144   2.888   1.875
 3829SOL    HW212387   0.119   3.029   1.797
 3830SOL     OW12388   5.504   6.898   3.540
 3830SOL    HW112389   5.501   6.818   3.599
 3830SOL    HW212390   5.481   6.871   3.446
 3831SOL     OW12391   5.303   2.177   3.671
 3831SOL    HW112392   5.394   2.192   3.633
 3831SOL    HW212393   5.235   2.225   3.615
 3832SOL     OW12394   6.297   1.461   3.875
 3832SOL    HW112395   6.369   1.416   3.927
 3832SOL    HW212396   6.245   1.394   3.823
 3833SOL     OW12397   1.815   2.882   6.092
 3833SOL    HW112398   1.760   2.823   6.150
 3833SOL    HW212399   1.855   2.828   6.017
 3834SOL     OW12400   5.255   4.712   0.770
 3834SOL    HW112401   5.326   4.658   0.725
 3834SOL    HW212402   5.276   4.719   0.868
 3835SOL     OW12403   4.647   5.391   4.774
 3835SOL    HW112404   4.686   5.413   4.685
 3835SOL    HW212405   4.641   5.475   4.828
 3836SOL     OW12406   0.294   0.110   4.477
 3836SOL    HW112407   0.208   0.135   4.433
 3836SOL    HW212408   0.363   0.181   4.460
 3837SOL     OW12409   4.644   4.306   5.533
 3837SOL    HW112410   4.567   4.285   5.473
 3837SOL    HW212411   4.639   4.251   5.616
 3838SOL     OW12412   6.827   1.260   4.054
 3838SOL    HW112413   6.817   1.211   3.967
 3838SOL    HW212414   6.885   1.207   4.115
 3839SOL     OW12415   4.468   1.301   3.635
 3839SOL    HW112416   4.497   1.359   3.559
 3839SOL    HW212417   4.368   1.306   3.645
 3840SOL     OW12418   3.925   1.277   6.318
 3840SOL    HW112419   4.000   1.343   6.323
 3840SOL    HW212420   3.908   1.252   6.223
 3841SOL     OW12421   5.607   4.370   3.450
 3841SOL    HW112422   5.679   4.328   3.506
 3841SOL    HW212423   5.571   4.303   3.385
 3842SOL     OW12424   1.957   3.721   5.068
 3842SOL    HW112425   1.896   3.645   5.089
 3842SOL    HW212426   1.919   3.774   4.992
 3843SOL     OW12427   5.762   2.205   6.389
 3843SOL    HW112428   5.791   2.300   6.379
 3843SOL    HW212429   5.841   2.147   6.406
 3844SOL     OW12430   6.602   6.722   0.678
 3844SOL    HW112431   6.568   6.629   0.693
 3844SOL    HW212432   6.666   6.747   0.750
 3845SOL     OW12433   2.280   5.290   0.221
 3845SOL    HW112434   2.310   5.385   0.208
 3845SOL    HW212435   2.199   5.272   0.166
 3846SOL     OW12436   6.668   3.052   2.776
 3846SOL    HW112437   6.589   2.993   2.789
 3846SOL    HW212438   6.711   3.071   2.864
 3847SOL     OW12439   0.843   1.427   6.789
 3847SOL    HW112440   0.866   1.505   6.848
 3847SOL    HW212441   0.753   1.392   6.813
 3848SOL     OW12442   6.205   5.151   2.054
 3848SOL    HW112443   6.231   5.243   2.083
 3848SOL    HW212444   6.141   5.157   1.977
 3849SOL     OW12445   0.686   3.575   5.757
 3849SOL    HW112446   0.749   3.523   5.700
 3849SOL    HW212447   0.683   3.533   5.849
 3850SOL     OW12448   3.344   3.079   1.253
 3850SOL    HW112449   3.395   3.007   1.299
 3850SOL    HW212450   3.369   3.081   1.156
 3851SOL     OW12451   0.152   5.773   2.819
 3851SOL    HW112452   0.114   5.809   2.734
 3851SOL    HW212453   0.250   5.756   2.806
 3852SOL     OW12454   2.138   0.733   5.007
 3852SOL    HW112455   2.081   0.692   4.937
 3852SOL    HW212456   2.230   0.750   4.971
 3853SOL     OW12457   2.391   0.883   2.765
 3853SOL    HW112458   2.401   0.967   2.712
 3853SOL    HW212459   2.328   0.821   2.718
 3854SOL     OW12460   0.554   1.932   1.998
 3854SOL    HW112461   0.577   1.940   2.095
 3854SOL    HW212462   0.463   1.969   1.982
 3855SOL     OW12463   2.884   6.344   6.433
 3855SOL    HW112464   2.922   6.419   6.379
 3855SOL    HW212465   2.855   6.270   6.371
 3856SOL     OW12466   6.635   2.832   6.476
 3856SOL    HW112467   6.720   2.789   6.444
 3856SOL    HW212468   6.632   2.927   6.445
 3857SOL     OW12469   1.621   0.166   6.613
 3857SOL    HW112470   1.678   0.101   6.563
 3857SOL    HW212471   1.525   0.154   6.586
 3858SOL     OW12472   3.662   1.547   5.088
 3858SOL    HW112473   3.630   1.465   5.134
 3858SOL    HW212474   3.736   1.524   5.025
 3859SOL     OW12475   5.935   0.174   2.229
 3859SOL    HW112476   6.024   0.135   2.205
 3859SOL    HW212477   5.871   0.159   2.154
 3860SOL     OW12478   1.462   6.648   4.635
 3860SOL    HW112479   1.385   6.708   4.614
 3860SOL    HW212480   1.543   6.680   4.586
 3861SOL     OW12481   3.288   5.881   2.404
 3861SOL    HW112482   3.342   5.961   2.432
 3861SOL    HW212483   3.286   5.814   2.478
 3862SOL     OW12484   1.432   0.537   4.525
 3862SOL    HW112485   1.443   0.445   4.564
 3862SOL    HW212486   1.519   0.584   4.527
 3863SOL     OW12487   4.218   0.854   0.940
 3863SOL    HW112488   4.240   0.837   1.036
 3863SOL    HW212489   4.132   0.808   0.917
 3864SOL     OW12490   0.723   0.078   4.201
 3864SOL    HW112491   0.624   0.070   4.196
 3864SOL    HW212492   0.765   7.011   4.203
 3865SOL     OW12493   5.153   0.918   0.711
 3865SOL    HW112494   5.079   0.858   0.740
 3865SOL    HW212495   5.117   1.010   0.693
 3866SOL     OW12496   3.269   0.658   6.816
 3866SOL    HW112497   3.264   0.565   6.852
 3866SOL    HW212498   3.258   0.656   6.717
 3867SOL     OW12499   6.628   3.417   2.471
 3867SOL    HW112500   6.691   3.491   2.495
 3867SOL    HW212501   6.543   3.428   2.524
 3868SOL     OW12502   3.836   0.437   0.115
 3868SOL    HW112503   3.772   0.363   0.093
 3868SOL    HW212504   3.929   0.400   0.120
 3869SOL     OW12505   4.122   1.172   4.226
 3869SOL    HW112506   4.064   1.129   4.156
 3869SOL    HW212507   4.215   1.136   4.219
 3870SOL     OW12508   6.956   1.787   5.551
 3870SOL    HW112509   0.008   1.835   5.507
 3870SOL    HW212510   6.972   1.689   5.548
 3871SOL     OW12511   2.750   5.397   3.913
 3871SOL    HW112512   2.826   5.332   3.920
 3871SOL    HW212513   2.663   5.348   3.923
 3872SOL     OW12514   2.804   3.966   5.219
 3872SOL    HW112515   2.820   3.894   5.151
 3872SOL    HW212516   2.706   3.987   5.222
 3873SOL     OW12517   4.772   1.893   6.888
 3873SOL    HW112518   4.839   1.961   6.917
 3873SOL    HW212519   4.695   1.893   6.952
 3874SOL     OW12520   2.528   1.238   1.317
 3874SOL    HW112521   2.542   1.280   1.227
 3874SOL    HW212522   2.615   1.206   1.353
 3875SOL     OW12523   1.034   1.663   6.473
 3875SOL    HW112524   1.104   1.634   6.408
 3875SOL    HW212525   0.970   1.588   6.489
 3876SOL     OW12526   3.454   5.702   2.553
 3876SOL    HW112527   3.519   5.751   2.611
 3876SOL    HW212528   3.504   5.647   2.486
 3877SOL     OW12529   0.645   1.366   5.626
 3877SOL    HW112530   0.644   1.465   5.640
 3877SOL    HW212531   0.554   1.329   5.641
 3878SOL     OW12532   4.834   1.365   4.977
 3878SOL    HW112533   4.837   1.317   4.889
 3878SOL    HW212534   4.759   1.328   5.032
 3879SOL     OW12535   5.511   5.486   0.075
 3879SOL    HW112536   5.467   5.412   0.126
 3879SOL    HW212537   5.465   5.573   0.096
 3880SOL     OW12538   4.704   4.821   3.960
 3880SOL    HW112539   4.768   4.745   3.970
 3880SOL    HW212540   4.622   4.802   4.014
 3881SOL     OW12541   1.330   3.308   0.239
 3881SOL    HW112542   1.420   3.348   0.249
 3881SOL    HW212543   1.271   3.370   0.187
 3882SOL     OW12544   0.389   2.230   5.722
 3882SOL    HW112545   0.394   2.295   5.798
 3882SOL    HW212546   0.481   2.203   5.694
 3883SOL     OW12547   4.080   6.094   4.348
 3883SOL    HW112548   4.125   6.052   4.426
 3883SOL    HW212549   3.981   6.094   4.362
 3884SOL     OW12550   0.247   3.606   2.174
 3884SOL    HW112551   0.177   3.545   2.212
 3884SOL    HW212552   0.271   3.676   2.242
 3885SOL     OW12553   4.515   5.709   2.088
 3885SOL    HW112554   4.433   5.654   2.072
 3885SOL    HW212555   4.538   5.707   2.185
 3886SOL     OW12556   2.515   5.458   6.062
 3886SOL    HW112557   2.551   5.401   5.988
 3886SOL    HW212558   2.589   5.477   6.127
 3887SOL     OW12559   1.769   5.471   1.995
 3887SOL    HW112560   1.758   5.570   2.004
 3887SOL    HW212561   1.853   5.452   1.943
 3888SOL     OW12562   5.264   5.158   4.035
 3888SOL    HW112563   5.343   5.098   4.021
 3888SOL    HW212564   5.244   5.164   4.132
 3889SOL     OW12565   5.414   4.373   0.278
 3889SOL    HW112566   5.386   4.277   0.286
 3889SOL    HW212567   5.485   4.392   0.346
 3890SOL     OW12568   5.491   3.660   3.677
 3890SOL    HW112569   5.407   3.695   3.635
 3890SOL    HW212570   5.484   3.561   3.686
 3891SOL     OW12571   4.738   5.443   4.054
 3891SOL    HW112572   4.791   5.360   4.066
 3891SOL    HW212573   4.765   5.510   4.124
 3892SOL     OW12574   6.498   1.930   1.499
 3892SOL    HW112575   6.564   1.917   1.425
 3892SOL    HW212576   6.469   2.025   1.500
 3893SOL     OW12577   4.004   3.111   3.462
 3893SOL    HW112578   4.041   3.151   3.378
 3893SOL    HW212579   4.047   3.153   3.542
 3894SOL     OW12580   4.156   0.794   6.049
 3894SOL    HW112581   4.199   0.793   5.959
 3894SOL    HW212582   4.227   0.781   6.119
 3895SOL     OW12583   0.445   0.035   4.122
 3895SOL    HW112584   0.383   6.992   4.163
 3895SOL    HW212585   0.393   0.116   4.095
 3896SOL     OW12586   2.159   1.332   6.458
 3896SOL    HW112587   2.115   1.359   6.544
 3896SOL    HW212588   2.156   1.409   6.394
 3897SOL     OW12589   4.011   5.730   1.298
 3897SOL    HW112590   3.979   5.738   1.393
 3897SOL    HW212591   4.062   5.813   1.273
 3898SOL     OW12592   3.357   3.047   1.878
 3898SOL    HW112593   3.324   3.040   1.784
 3898SOL    HW212594   3.343   2.960   1.924
 3899SOL     OW12595   2.886   0.175   5.635
 3899SOL    HW112596   2.978   0.136   5.630
 3899SOL    HW212597   2.818   0.103   5.620
 3900SOL     OW12598   4.712   4.688   2.900
 3900SOL    HW112599   4.791   4.631   2.875
 3900SOL    HW212600   4.642   4.679   2.829
 3901SOL     OW12601   3.104   0.874   6.869
 3901SOL    HW112602   3.178   0.808   6.858
 3901SOL    HW212603   3.135   0.949   6.927
 3902SOL     OW12604   5.406   3.222   3.266
 3902SOL    HW112605   5.474   3.188   3.201
 3902SOL    HW212606   5.337   3.275   3.217
 3903SOL     OW12607   3.300   4.237   6.064
 3903SOL    HW112608   3.233   4.203   5.998
 3903SOL    HW212609   3.254   4.266   6.147
 3904SOL     OW12610   2.105   6.714   0.699
 3904SOL    HW112611   2.150   6.744   0.783
 3904SOL    HW212612   2.049   6.634   0.718
 3905SOL     OW12613   6.832   6.327   5.037
 3905SOL    HW112614   6.889   6.408   5.053
 3905SOL    HW212615   6.738   6.347   5.063
 3906SOL     OW12616   0.020   5.986   5.188
 3906SOL    HW112617   7.023   5.914   5.121
 3906SOL    HW212618   6.987   5.973   5.269
 3907SOL     OW12619   5.555   2.173   3.535
 3907SOL    HW112620   5.592   2.098   3.480
 3907SOL    HW212621   5.571   2.260   3.487
 3908SOL     OW12622   2.672   4.168   6.095
 3908SOL    HW112623   2.575   4.174   6.119
 3908SOL    HW212624   2.697   4.248   6.039
 3909SOL     OW12625   5.491   5.948   3.529
 3909SOL    HW112626   5.589   5.930   3.538
 3909SOL    HW212627   5.477   6.040   3.491
 3910SOL     OW12628   3.688   3.324   2.765
 3910SOL    HW112629   3.758   3.254   2.780
 3910SOL    HW212630   3.710   3.375   2.682
 3911SOL     OW12631   5.961   2.296   5.931
 3911SOL    HW112632   6.050   2.274   5.972
 3911SOL    HW212633   5.889   2.246   5.979
 3912SOL     OW12634   5.370   2.453   6.137
 3912SOL    HW112635   5.281   2.415   6.112
 3912SOL    HW212636   5.358   2.525   6.205
 3913SOL     OW12637   1.378   6.889   1.312
 3913SOL    HW112638   1.422   6.889   1.402
 3913SOL    HW212639   1.334   6.801   1.296
 3914SOL     OW12640   2.825   5.795   5.511
 3914SOL    HW112641   2.877   5.846   5.580
 3914SOL    HW212642   2.881   5.721   5.475
 3915SOL     OW12643   6.904   5.858   1.690
 3915SOL    HW112644   6.955   5.800   1.753
 3915SOL    HW212645   6.942   5.951   1.692
 3916SOL     OW12646   0.577   0.176   3.508
 3916SOL    HW112647   0.561   0.235   3.429
 3916SOL    HW212648   0.594   0.232   3.589
 3917SOL     OW12649   2.609   0.031   6.715
 3917SOL    HW112650   2.632   6.958   6.708
 3917SOL    HW212651   2.664   0.074   6.787
 3918SOL     OW12652   5.487   3.374   6.742
 3918SOL    HW112653   5.511   3.311   6.667
 3918SOL    HW212654   5.390   3.367   6.762
 3919SOL     OW12655   3.389   6.578   0.845
 3919SOL    HW112656   3.334   6.625   0.777
 3919SOL    HW212657   3.480   6.560   0.808
 3920SOL     OW12658   2.152   1.071   6.877
 3920SOL    HW112659   2.233   1.022   6.845
 3920SOL    HW212660   2.070   1.019   6.853
 3921SOL     OW12661   0.582   3.515   1.354
 3921SOL    HW112662   0.623   3.606   1.354
 3921SOL    HW212663   0.553   3.490   1.446
 3922SOL     OW12664   1.386   5.198   1.297
 3922SOL    HW112665   1.474   5.157   1.274
 3922SOL    HW212666   1.390   5.237   1.389
 3923SOL     OW12667   6.666   0.180   1.135
 3923SOL    HW112668   6.673   0.082   1.153
 3923SOL    HW212669   6.571   0.203   1.115
 3924SOL     OW12670   6.468   4.913   4.861
 3924SOL    HW112671   6.565   4.891   4.869
 3924SOL    HW212672   6.414   4.847   4.912
 3925SOL     OW12673   1.593   4.889   1.538
 3925SOL    HW112674   1.512   4.850   1.494
 3925SOL    HW212675   1.563   4.955   1.607
 3926SOL     OW12676   3.520   5.385   3.061
 3926SOL    HW112677   3.576   5.464   3.088
 3926SOL    HW212678   3.449   5.371   3.130
 3927SOL     OW12679   1.665   2.924   6.643
 3927SOL    HW112680   1.617   3.011   6.644
 3927SOL    HW212681   1.602   2.850   6.666
 3928SOL     OW12682   6.093   6.635   6.366
 3928SOL    HW112683   6.104   6.538   6.388
 3928SOL    HW212684   6.119   6.690   6.445
 3929SOL     OW12685   1.026   1.595   4.338
 3929SOL    HW112686   1.055   1.690   4.330
 3929SOL    HW212687   0.936   1.584   4.297
 3930SOL     OW12688   2.672   1.961   3.925
 3930SOL    HW112689   2.700   2.055   3.946
 3930SOL    HW212690   2.674   1.946   3.826
 3931SOL     OW12691   4.320   0.147   2.138
 3931SOL    HW112692   4.402   0.111   2.092
 3931SOL    HW212693   4.302   0.240   2.106
 3932SOL     OW12694   1.768   2.715   3.677
 3932SOL    HW112695   1.760   2.664   3.763
 3932SOL    HW212696   1.724   2.804   3.687
 3933SOL     OW12697   1.623   0.678   6.023
 3933SOL    HW112698   1.623   0.710   6.118
 3933SOL    HW212699   1.695   0.724   5.972
 3934SOL     OW12700   5.407   6.409   6.979
 3934SOL    HW112701   5.501   6.441   6.995
 3934SOL    HW212702   5.402   6.362   6.891
 3935SOL     OW12703   4.838   6.681   1.709
 3935SOL    HW112704   4.907   6.614   1.736
 3935SOL    HW212705   4.876   6.741   1.638
 3936SOL     OW12706   0.723   4.466   2.518
 3936SOL    HW112707   0.750   4.397   2.452
 3936SOL    HW212708   0.797   4.478   2.585
 3937SOL     OW12709   0.515   2.251   2.097
 3937SOL    HW112710   0.559   2.323   2.043
 3937SOL    HW212711   0.577   2.223   2.170
 3938SOL     OW12712   6.623   2.724   3.357
 3938SOL    HW112713   6.678   2.758   3.433
 3938SOL    HW212714   6.580   2.801   3.310
 3939SOL     OW12715   2.106   1.818   1.484
 3939SOL    HW112716   2.189   1.859   1.521
 3939SOL    HW212717   2.101   1.722   1.512
 3940SOL     OW12718   4.362   4.067   1.375
 3940SOL    HW112719   4.322   4.154   1.345
 3940SOL    HW212720   4.430   4.085   1.446
 3941SOL     OW12721   5.090   3.047   6.796
 3941SOL    HW112722   5.012   3.107   6.779
 3941SOL    HW212723   5.076   2.997   6.882
 3942SOL     OW12724   0.032   0.429   0.663
 3942SOL    HW112725   0.126   0.452   0.685
 3942SOL    HW212726   7.007   0.511   0.632
 3943SOL     OW12727   6.207   3.010   5.368
 3943SOL    HW112728   6.260   3.055   5.295
 3943SOL    HW212729   6.269   2.959   5.428
 3944SOL     OW12730   5.451   1.505   4.444
 3944SOL    HW112731   5.370   1.548   4.483
 3944SOL    HW212732   5.525   1.503   4.511
 3945SOL     OW12733   0.084   0.584   1.101
 3945SOL    HW112734   7.015   0.547   1.092
 3945SOL    HW212735   0.138   0.524   1.161
 3946SOL     OW12736   3.843   5.323   3.515
 3946SOL    HW112737   3.749   5.292   3.527
 3946SOL    HW212738   3.872   5.308   3.420
 3947SOL     OW12739   6.550   4.408   6.181
 3947SOL    HW112740   6.480   4.417   6.252
 3947SOL    HW212741   6.592   4.318   6.186
 3948SOL     OW12742   6.563   3.568   0.603
 3948SOL    HW112743   6.601   3.630   0.671
 3948SOL    HW212744   6.465   3.556   0.621
 3949SOL     OW12745   5.485   6.171   3.371
 3949SOL    HW112746   5.469   6.265   3.402
 3949SOL    HW212747   5.437   6.156   3.285
 3950SOL     OW12748   1.475   6.039   0.741
 3950SOL    HW112749   1.425   6.003   0.661
 3950SOL    HW212750   1.421   6.112   0.783
 3951SOL     OW12751   5.634   6.211   1.716
 3951SOL    HW112752   5.665   6.185   1.808
 3951SOL    HW212753   5.644   6.133   1.654
 3952SOL     OW12754   6.295   1.534   6.347
 3952SOL    HW112755   6.253   1.601   6.408
 3952SOL    HW212756   6.227   1.465   6.322
 3953SOL     OW12757   3.509   4.075   2.914
 3953SOL    HW112758   3.511   4.038   3.007
 3953SOL    HW212759   3.415   4.074   2.881
 3954SOL     OW12760   3.829   4.771   5.619
 3954SOL    HW112761   3.892   4.767   5.696
 3954SOL    HW212762   3.809   4.866   5.597
 3955SOL     OW12763   3.847   1.248   4.906
 3955SOL    HW112764   3.855   1.212   4.813
 3955SOL    HW212765   3.755   1.232   4.940
 3956SOL     OW12766   2.085   1.544   1.339
 3956SOL    HW112767   2.111   1.471   1.275
 3956SOL    HW212768   2.013   1.600   1.297
 3957SOL     OW12769   3.460   1.076   3.955
 3957SOL    HW112770   3.441   1.121   4.042
 3957SOL    HW212771   3.490   1.144   3.888
 3958SOL     OW12772   5.744   6.688   5.542
 3958SOL    HW112773   5.699   6.776   5.528
 3958SOL    HW212774   5.699   6.640   5.617
 3959SOL     OW12775   5.572   5.395   6.760
 3959SOL    HW112776   5.558   5.364   6.666
 3959SOL    HW212777   5.497   5.455   6.787
 3960SOL     OW12778   6.071   2.205   4.931
 3960SOL    HW112779   6.030   2.116   4.913
 3960SOL    HW212780   6.069   2.260   4.847
 3961SOL     OW12781   5.265   6.819   4.405
 3961SOL    HW112782   5.206   6.738   4.412
 3961SOL    HW212783   5.333   6.804   4.333
 3962SOL     OW12784   6.395   5.268   5.207
 3962SOL    HW112785   6.311   5.312   5.174
 3962SOL    HW212786   6.379   5.229   5.297
 3963SOL     OW12787   4.578   0.005   2.062
 3963SOL    HW112788   4.619   6.941   2.038
 3963SOL    HW212789   4.631   0.048   2.135
 3964SOL     OW12790   5.010   2.884   3.496
 3964SOL    HW112791   5.075   2.915   3.427
 3964SOL    HW212792   4.917   2.902   3.465
 3965SOL     OW12793   4.810   3.901   4.110
 3965SOL    HW112794   4.773   3.938   4.025
 3965SOL    HW212795   4.836   3.805   4.096
 3966SOL     OW12796   2.140   6.901   6.589
 3966SOL    HW112797   2.081   6.820   6.589
 3966SOL    HW212798   2.102   6.969   6.652
 3967SOL     OW12799   1.709   4.054   3.845
 3967SOL    HW112800   1.792   4.110   3.842
 3967SOL    HW212801   1.733   3.961   3.871
 3968SOL     OW12802   4.106   0.169   0.360
 3968SOL    HW112803   4.064   0.164   0.451
 3968SOL    HW212804   4.042   0.133   0.292
 3969SOL     OW12805   0.295   5.148   3.238
 3969SOL    HW112806   0.263   5.232   3.194
 3969SOL    HW212807   0.254   5.141   3.329
 3970SOL     OW12808   4.731   5.563   1.661
 3970SOL    HW112809   4.783   5.496   1.609
 3970SOL    HW212810   4.793   5.615   1.720
 3971SOL     OW12811   1.492   6.253   3.446
 3971SOL    HW112812   1.491   6.272   3.544
 3971SOL    HW212813   1.586   6.240   3.416
 3972SOL     OW12814   1.296   3.829   7.017
 3972SOL    HW112815   1.384   3.781   7.013
 3972SOL    HW212816   1.313   3.928   7.018
 3973SOL     OW12817   1.898   4.501   0.634
 3973SOL    HW112818   1.892   4.532   0.729
 3973SOL    HW212819   1.994   4.502   0.605
 3974SOL     OW12820   2.884   1.196   5.567
 3974SOL    HW112821   2.890   1.192   5.468
 3974SOL    HW212822   2.827   1.274   5.594
 3975SOL     OW12823   6.105   3.257   6.504
 3975SOL    HW112824   6.167   3.197   6.453
 3975SOL    HW212825   6.144   3.275   6.594
 3976SOL     OW12826   2.063   4.318   2.431
 3976SOL    HW112827   2.041   4.355   2.521
 3976SOL    HW212828   2.163   4.314   2.419
 3977SOL     OW12829   0.633   3.123   6.911
 3977SOL    HW112830   0.704   3.056   6.933
 3977SOL    HW212831   0.623   3.187   6.988
 3978SOL     OW12832   6.628   4.607   4.127
 3978SOL    HW112833   6.647   4.703   4.105
 3978SOL    HW212834   6.569   4.603   4.208
 3979SOL     OW12835   4.779   5.915   6.372
 3979SOL    HW112836   4.679   5.912   6.369
 3979SOL    HW212837   4.809   6.001   6.413
 3980SOL     OW12838   5.539   5.109   6.037
 3980SOL    HW112839   5.632   5.072   6.040
 3980SOL    HW212840   5.488   5.078   6.117
 3981SOL     OW12841   4.379   5.720   6.974
 3981SOL    HW112842   4.339   5.645   0.003
 3981SOL    HW212843   4.305   5.775   6.934
 3982SOL     OW12844   2.827   6.023   3.259
 3982SOL    HW112845   2.740   5.976   3.277
 3982SOL    HW212846   2.877   6.035   3.345
 3983SOL     OW12847   3.543   5.744   4.160
 3983SOL    HW112848   3.461   5.753   4.104
 3983SOL    HW212849   3.624   5.764   4.104
 3984SOL     OW12850   6.593   2.980   3.254
 3984SOL    HW112851   6.632   2.996   3.345
 3984SOL    HW212852   6.626   3.050   3.191
 3985SOL     OW12853   3.784   5.131   6.707
 3985SOL    HW112854   3.776   5.044   6.756
 3985SOL    HW212855   3.880   5.150   6.688
 3986SOL     OW12856   5.283   0.654   2.843
 3986SOL    HW112857   5.242   0.625   2.757
 3986SOL    HW212858   5.267   0.752   2.855
 3987SOL     OW12859   4.015   5.691   5.004
 3987SOL    HW112860   3.961   5.613   5.036
 3987SOL    HW212861   4.084   5.714   5.073
 3988SOL     OW12862   4.538   5.539   0.560
 3988SOL    HW112863   4.456   5.595   0.568
 3988SOL    HW212864   4.522   5.450   0.603
 3989SOL     OW12865   6.305   3.144   1.236
 3989SOL    HW112866   6.293   3.045   1.246
 3989SOL    HW212867   6.301   3.168   1.138
 3990SOL     OW12868   0.012   1.284   1.796
 3990SOL    HW112869   0.066   1.223   1.853
 3990SOL    HW212870   6.939   1.275   1.818
 3991SOL     OW12871   5.347   1.067   3.088
 3991SOL    HW112872   5.395   0.984   3.118
 3991SOL    HW212873   5.328   1.125   3.167
 3992SOL     OW12874   4.007   1.988   1.164
 3992SOL    HW112875   3.966   1.919   1.103
 3992SOL    HW212876   3.966   1.980   1.255
 3993SOL     OW12877   1.001   3.272   1.385
 3993SOL    HW112878   0.923   3.305   1.333
 3993SOL    HW212879   1.039   3.346   1.440
 3994SOL     OW12880   2.463   6.120   4.293
 3994SOL    HW112881   2.366   6.099   4.279
 3994SOL    HW212882   2.511   6.036   4.320
 3995SOL     OW12883   2.024   1.830   4.695
 3995SOL    HW112884   2.053   1.871   4.782
 3995SOL    HW212885   1.928   1.851   4.679
 3996SOL     OW12886   0.162   5.984   4.523
 3996SOL    HW112887   0.158   6.078   4.559
 3996SOL    HW212888   0.243   5.973   4.467
 3997SOL     OW12889   2.932   1.005   3.591
 3997SOL    HW112890   3.024   0.966   3.580
 3997SOL    HW212891   2.926   1.089   3.537
 3998SOL     OW12892   4.353   2.409   3.076
 3998SOL    HW112893   4.436   2.367   3.039
 3998SOL    HW212894   4.276   2.389   3.016
 3999SOL     OW12895   4.948   1.767   4.138
 3999SOL    HW112896   4.849   1.773   4.127
 3999SOL    HW212897   4.970   1.692   4.200
 4000SOL     OW12898   4.013   5.854   4.161
 4000SOL    HW112899   4.099   5.851   4.212
 4000SOL    HW212900   3.948   5.913   4.210
 4001SOL     OW12901   0.810   1.534   4.166
 4001SOL    HW112902   0.796   1.609   4.101
 4001SOL    HW212903   0.806   1.447   4.117
 4002SOL     OW12904   1.970   4.507   1.165
 4002SOL    HW112905   1.976   4.504   1.264
 4002SOL    HW212906   1.993   4.417   1.127
 4003SOL     OW12907   3.937   2.111   4.841
 4003SOL    HW112908   3.924   2.167   4.923
 4003SOL    HW212909   3.850   2.101   4.793
 4004SOL     OW12910   6.621   2.112   6.203
 4004SOL    HW112911   6.591   2.029   6.157
 4004SOL    HW212912   6.570   2.123   6.289
 4005SOL     OW12913   5.859   4.311   5.217
 4005SOL    HW112914   5.782   4.371   5.239
 4005SOL    HW212915   5.929   4.364   5.168
 4006SOL     OW12916   3.460   6.127   3.022
 4006SOL    HW112917   3.435   6.221   3.003
 4006SOL    HW212918   3.446   6.108   3.119
 4007SOL     OW12919   0.454   1.556   5.870
 4007SOL    HW112920   0.364   1.575   5.830
 4007SOL    HW212921   0.450   1.569   5.969
 4008SOL     OW12922   3.145   1.475   5.441
 4008SOL    HW112923   3.211   1.426   5.383
 4008SOL    HW212924   3.055   1.432   5.432
 4009SOL     OW12925   3.642   3.550   3.026
 4009SOL    HW112926   3.688   3.588   3.106
 4009SOL    HW212927   3.679   3.592   2.943
 4010SOL     OW12928   1.165   3.508   0.104
 4010SOL    HW112929   1.120   3.467   0.025
 4010SOL    HW212930   1.120   3.593   0.128
 4011SOL     OW12931   0.540   2.732   0.989
 4011SOL    HW112932   0.524   2.752   0.892
 4011SOL    HW212933   0.574   2.639   0.999
 4012SOL     OW12934   5.444   3.391   3.752
 4012SOL    HW112935   5.402   3.342   3.675
 4012SOL    HW212936   5.396   3.366   3.837
 4013SOL     OW12937   5.372   2.918   3.030
 4013SOL    HW112938   5.278   2.890   3.008
 4013SOL    HW212939   5.384   3.015   3.008
 4014SOL     OW12940   5.262   5.686   1.987
 4014SOL    HW112941   5.269   5.764   2.050
 4014SOL    HW212942   5.201   5.710   1.911
 4015SOL     OW12943   4.591   3.567   0.050
 4015SOL    HW112944   4.621   3.648   0.099
 4015SOL    HW212945   4.492   3.554   0.064
 4016SOL     OW12946   3.251   6.019   4.536
 4016SOL    HW112947   3.265   5.964   4.619
 4016SOL    HW212948   3.239   5.958   4.458
 4017SOL     OW12949   6.407   0.007   6.157
 4017SOL    HW112950   6.318   6.988   6.168
 4017SOL    HW212951   6.458   7.023   6.243
 4018SOL     OW12952   2.158   0.272   6.980
 4018SOL    HW112953   2.156   0.197   0.023
 4018SOL    HW212954   2.202   0.240   6.897
 4019SOL     OW12955   5.039   5.924   3.728
 4019SOL    HW112956   5.061   5.998   3.664
 4019SOL    HW212957   5.112   5.856   3.727
 4020SOL     OW12958   5.399   1.968   5.081
 4020SOL    HW112959   5.335   2.042   5.104
 4020SOL    HW212960   5.465   2.002   5.014
 4021SOL     OW12961   4.904   3.490   6.776
 4021SOL    HW112962   4.966   3.463   6.850
 4021SOL    HW212963   4.855   3.573   6.802
 4022SOL     OW12964   5.599   0.598   0.678
 4022SOL    HW112965   5.697   0.613   0.695
 4022SOL    HW212966   5.547   0.675   0.716
 4023SOL     OW12967   6.386   6.413   5.999
 4023SOL    HW112968   6.306   6.411   5.939
 4023SOL    HW212969   6.417   6.507   6.011
 4024SOL     OW12970   4.575   4.481   4.941
 4024SOL    HW112971   4.594   4.398   4.993
 4024SOL    HW212972   4.505   4.534   4.988
 4025SOL     OW12973   0.829   3.979   4.251
 4025SOL    HW112974   0.786   3.948   4.167
 4025SOL    HW212975   0.911   3.925   4.270
 4026SOL     OW12976   5.100   0.361   5.842
 4026SOL    HW112977   5.067   0.311   5.923
 4026SOL    HW212978   5.035   0.349   5.767
 4027SOL     OW12979   3.479   5.330   2.295
 4027SOL    HW112980   3.550   5.274   2.337
 4027SOL    HW212981   3.482   5.319   2.196
 4028SOL     OW12982   2.292   5.611   3.290
 4028SOL    HW112983   2.335   5.660   3.215
 4028SOL    HW212984   2.348   5.621   3.373
 4029SOL     OW12985   1.889   4.248   3.408
 4029SOL    HW112986   1.908   4.339   3.447
 4029SOL    HW212987   1.931   4.178   3.465
 4030SOL     OW12988   1.987   1.526   6.666
 4030SOL    HW112989   1.900   1.531   6.617
 4030SOL    HW212990   2.043   1.606   6.644
 4031SOL     OW12991   6.642   5.791   4.207
 4031SOL    HW112992   6.672   5.699   4.232
 4031SOL    HW212993   6.700   5.827   4.135
 4032SOL     OW12994   3.735   0.313   4.998
 4032SOL    HW112995   3.685   0.377   5.055
 4032SOL    HW212996   3.688   0.225   4.997
 4033SOL     OW12997   4.014   3.638   6.058
 4033SOL    HW112998   4.044   3.654   6.152
 4033SOL    HW212999   3.915   3.650   6.052
 4034SOL     OW13000   5.860   3.601   4.731
 4034SOL    HW113001   5.890   3.555   4.815
 4034SOL    HW213002   5.763   3.625   4.739
 4035SOL     OW13003   0.228   6.263   2.026
 4035SOL    HW113004   0.322   6.285   2.050
 4035SOL    HW213005   0.222   6.169   1.995
 4036SOL     OW13006   6.346   5.778   1.592
 4036SOL    HW113007   6.404   5.853   1.560
 4036SOL    HW213008   6.375   5.693   1.547
 4037SOL     OW13009   0.304   3.611   5.977
 4037SOL    HW113010   0.388   3.559   5.993
 4037SOL    HW213011   0.265   3.585   5.889
 4038SOL     OW13012   6.053   5.212   3.115
 4038SOL    HW113013   6.022   5.304   3.093
 4038SOL    HW213014   6.019   5.148   3.045
 4039SOL     OW13015   2.555   5.397   1.083
 4039SOL    HW113016   2.646   5.424   1.053
 4039SOL    HW213017   2.560   5.308   1.128
 4040SOL     OW13018   3.369   6.841   7.000
 4040SOL    HW113019   3.329   6.829   6.909
 4040SOL    HW213020   3.446   6.778   7.012
 4041SOL     OW13021   0.728   5.828   2.933
 4041SOL    HW113022   0.712   5.924   2.959
 4041SOL    HW213023   0.804   5.791   2.986
 4042SOL     OW13024   5.977   6.075   2.132
 4042SOL    HW113025   5.984   5.988   2.084
 4042SOL    HW213026   6.007   6.149   2.072
 4043SOL     OW13027   6.313   3.663   0.944
 4043SOL    HW113028   6.260   3.589   0.986
 4043SOL    HW213029   6.366   3.626   0.867
 4044SOL     OW13030   5.733   5.224   2.134
 4044SOL    HW113031   5.670   5.146   2.137
 4044SOL    HW213032   5.811   5.205   2.194
 4045SOL     OW13033   2.987   4.669   5.870
 4045SOL    HW113034   3.074   4.668   5.820
 4045SOL    HW213035   2.912   4.684   5.805
 4046SOL     OW13036   0.384   3.390   0.610
 4046SOL    HW113037   0.408   3.299   0.644
 4046SOL    HW213038   0.386   3.455   0.686
 4047SOL     OW13039   3.033   3.739   3.043
 4047SOL    HW113040   3.006   3.696   2.957
 4047SOL    HW213041   2.994   3.688   3.119
 4048SOL     OW13042   4.683   2.323   0.652
 4048SOL    HW113043   4.712   2.415   0.677
 4048SOL    HW213044   4.718   2.300   0.562
 4049SOL     OW13045   6.867   0.026   0.316
 4049SOL    HW113046   6.774   0.026   0.279
 4049SOL    HW213047   6.881   0.107   0.372
 4050SOL     OW13048   2.597   0.717   2.629
 4050SOL    HW113049   2.622   0.799   2.578
 4050SOL    HW213050   2.580   0.741   2.724
 4051SOL     OW13051   2.070   3.833   1.097
 4051SOL    HW113052   2.100   3.793   1.011
 4051SOL    HW213053   2.076   3.764   1.169
 4052SOL     OW13054   1.288   0.108   1.276
 4052SOL    HW113055   1.306   0.159   1.359
 4052SOL    HW213056   1.334   0.019   1.280
 4053SOL     OW13057   2.847   5.480   2.998
 4053SOL    HW113058   2.812   5.450   2.909
 4053SOL    HW213059   2.914   5.414   3.032
 4054SOL     OW13060   5.527   1.308   6.594
 4054SOL    HW113061   5.502   1.305   6.690
 4054SOL    HW213062   5.482   1.232   6.545
 4055SOL     OW13063   4.498   3.425   0.709
 4055SOL    HW113064   4.442   3.461   0.783
 4055SOL    HW213065   4.507   3.494   0.637
 4056SOL     OW13066   4.429   2.610   0.163
 4056SOL    HW113067   4.435   2.709   0.180
 4056SOL    HW213068   4.516   2.567   0.186
 4057SOL     OW13069   6.136   2.579   0.672
 4057SOL    HW113070   6.196   2.657   0.653
 4057SOL    HW213071   6.185   2.494   0.654
 4058SOL     OW13072   0.880   2.776   3.951
 4058SOL    HW113073   0.894   2.847   4.020
 4058SOL    HW213074   0.887   2.816   3.860
 4059SOL     OW13075   0.068   1.979   4.873
 4059SOL    HW113076   0.119   2.063   4.854
 4059SOL    HW213077   6.995   2.001   4.884
 4060SOL     OW13078   2.739   6.688   5.617
 4060SOL    HW113079   2.823   6.646   5.649
 4060SOL    HW213080   2.713   6.650   5.528
 4061SOL     OW13081   2.186   2.995   1.215
 4061SOL    HW113082   2.281   2.966   1.205
 4061SOL    HW213083   2.178   3.060   1.290
 4062SOL     OW13084   2.900   7.012   2.761
 4062SOL    HW113085   2.864   7.006   2.854
 4062SOL    HW213086   2.978   6.950   2.752
 4063SOL     OW13087   3.216   5.601   6.161
 4063SOL    HW113088   3.180   5.529   6.102
 4063SOL    HW213089   3.258   5.672   6.105
 4064SOL     OW13090   6.220   6.680   4.517
 4064SOL    HW113091   6.218   6.655   4.420
 4064SOL    HW213092   6.130   6.664   4.558
 4065SOL     OW13093   1.255   4.496   5.736
 4065SOL    HW113094   1.264   4.523   5.640
 4065SOL    HW213095   1.170   4.533   5.773
 4066SOL     OW13096   4.567   5.077   1.484
 4066SOL    HW113097   4.488   5.132   1.513
 4066SOL    HW213098   4.601   5.024   1.562
 4067SOL     OW13099   5.885   0.736   0.971
 4067SOL    HW113100   5.822   0.769   1.042
 4067SOL    HW213101   5.965   0.796   0.968
 4068SOL     OW13102   5.032   0.844   4.746
 4068SOL    HW113103   5.131   0.829   4.739
 4068SOL    HW213104   5.013   0.942   4.748
 4069SOL     OW13105   6.507   5.980   0.706
 4069SOL    HW113106   6.485   5.959   0.611
 4069SOL    HW213107   6.490   5.900   0.763
 4070SOL     OW13108   6.451   3.701   2.806
 4070SOL    HW113109   6.509   3.778   2.831
 4070SOL    HW213110   6.383   3.685   2.877
 4071SOL     OW13111   2.582   0.663   4.751
 4071SOL    HW113112   2.489   0.699   4.763
 4071SOL    HW213113   2.634   0.725   4.692
 4072SOL     OW13114   0.838   0.233   4.404
 4072SOL    HW113115   0.781   0.185   4.337
 4072SOL    HW213116   0.929   0.249   4.365
 4073SOL     OW13117   2.417   4.857   2.317
 4073SOL    HW113118   2.375   4.803   2.244
 4073SOL    HW213119   2.448   4.944   2.280
 4074SOL     OW13120   0.300   3.037   0.818
 4074SOL    HW113121   0.382   3.093   0.829
 4074SOL    HW213122   0.326   2.945   0.788
 4075SOL     OW13123   6.209   0.317   3.262
 4075SOL    HW113124   6.184   0.394   3.321
 4075SOL    HW213125   6.149   0.239   3.282
 4076SOL     OW13126   1.441   3.041   3.506
 4076SOL    HW113127   1.386   3.114   3.546
 4076SOL    HW213128   1.423   3.037   3.407
 4077SOL     OW13129   3.696   0.578   1.357
 4077SOL    HW113130   3.729   0.638   1.429
 4077SOL    HW213131   3.619   0.524   1.391
 4078SOL     OW13132   4.977   4.475   3.435
 4078SOL    HW113133   4.997   4.503   3.341
 4078SOL    HW213134   4.916   4.542   3.477
 4079SOL     OW13135   5.062   1.008   4.013
 4079SOL    HW113136   5.147   1.054   3.988
 4079SOL    HW213137   4.985   1.056   3.972
 4080SOL     OW13138   3.404   4.112   4.684
 4080SOL    HW113139   3.487   4.138   4.634
 4080SOL    HW213140   3.409   4.148   4.777
 4081SOL     OW13141   2.525   0.534   0.176
 4081SOL    HW113142   2.461   0.603   0.141
 4081SOL    HW213143   2.565   0.567   0.261
 4082SOL     OW13144   1.285   1.117   5.806
 4082SOL    HW113145   1.279   1.062   5.889
 4082SOL    HW213146   1.374   1.163   5.803
 4083SOL     OW13147   6.351   5.358   2.163
 4083SOL    HW113148   6.323   5.423   2.234
 4083SOL    HW213149   6.436   5.314   2.190
 4084SOL     OW13150   4.329   6.581   2.322
 4084SOL    HW113151   4.393   6.559   2.396
 4084SOL    HW213152   4.281   6.666   2.343
 4085SOL     OW13153   2.355   4.390   2.969
 4085SOL    HW113154   2.370   4.316   3.035
 4085SOL    HW213155   2.257   4.405   2.957
 4086SOL     OW13156   5.637   5.016   5.124
 4086SOL    HW113157   5.625   4.973   5.035
 4086SOL    HW213158   5.602   5.109   5.121
 4087SOL     OW13159   1.859   1.121   1.646
 4087SOL    HW113160   1.794   1.056   1.684
 4087SOL    HW213161   1.925   1.148   1.716
 4088SOL     OW13162   0.130   2.193   5.655
 4088SOL    HW113163   0.096   2.167   5.745
 4088SOL    HW213164   0.230   2.190   5.656
 4089SOL     OW13165   0.353   0.296   2.674
 4089SOL    HW113166   0.350   0.395   2.657
 4089SOL    HW213167   0.446   0.270   2.698
 4090SOL     OW13168   3.333   2.478   5.382
 4090SOL    HW113169   3.270   2.463   5.458
 4090SOL    HW213170   3.290   2.448   5.296
 4091SOL     OW13171   3.713   6.508   2.465
 4091SOL    HW113172   3.686   6.431   2.408
 4091SOL    HW213173   3.789   6.481   2.524
 4092SOL     OW13174   5.327   1.413   6.257
 4092SOL    HW113175   5.257   1.342   6.257
 4092SOL    HW213176   5.415   1.373   6.280
 4093SOL     OW13177   5.857   4.136   2.415
 4093SOL    HW113178   5.898   4.193   2.487
 4093SOL    HW213179   5.862   4.040   2.442
 4094SOL     OW13180   6.849   6.527   0.275
 4094SOL    HW113181   6.903   6.557   0.197
 4094SOL    HW213182   6.782   6.459   0.246
 4095SOL     OW13183   1.339   4.996   0.801
 4095SOL    HW113184   1.418   4.948   0.762
 4095SOL    HW213185   1.338   5.090   0.770
 4096SOL     OW13186   0.631   6.698   5.757
 4096SOL    HW113187   0.628   6.771   5.826
 4096SOL    HW213188   0.726   6.675   5.736
 4097SOL     OW13189   1.346   3.886   5.074
 4097SOL    HW113190   1.322   3.948   5.149
 4097SOL    HW213191   1.314   3.794   5.095
 4098SOL     OW13192   1.599   5.682   2.106
 4098SOL    HW113193   1.526   5.654   2.043
 4098SOL    HW213194   1.579   5.650   2.198
 4099SOL     OW13195   6.772   2.552   5.895
 4099SOL    HW113196   6.749   2.572   5.990
 4099SOL    HW213197   6.730   2.466   5.868
 4100SOL     OW13198   2.737   0.820   3.885
 4100SOL    HW113199   2.785   0.737   3.855
 4100SOL    HW213200   2.683   0.857   3.810
 4101SOL     OW13201   6.361   6.115   6.108
 4101SOL    HW113202   6.407   6.198   6.078
 4101SOL    HW213203   6.282   6.139   6.165
 4102SOL     OW13204   2.461   5.198   0.542
 4102SOL    HW113205   2.440   5.267   0.612
 4102SOL    HW213206   2.376   5.156   0.512
 4103SOL     OW13207   2.592   5.034   2.978
 4103SOL    HW113208   2.510   5.054   3.031
 4103SOL    HW213209   2.672   5.035   3.038
 4104SOL     OW13210   2.256   5.862   5.994
 4104SOL    HW113211   2.280   5.788   5.931
 4104SOL    HW213212   2.176   5.911   5.959
 4105SOL     OW13213   3.434   6.892   1.462
 4105SOL    HW113214   3.418   6.879   1.365
 4105SOL    HW213215   3.463   6.806   1.504
 4106SOL     OW13216   1.204   6.720   2.787
 4106SOL    HW113217   1.251   6.809   2.784
 4106SOL    HW213218   1.232   6.665   2.708
 4107SOL     OW13219   2.022   1.977   0.780
 4107SOL    HW113220   1.976   2.051   0.731
 4107SOL    HW213221   1.997   1.889   0.740
 4108SOL     OW13222   0.879   5.945   4.876
 4108SOL    HW113223   0.782   5.968   4.874
 4108SOL    HW213224   0.932   6.030   4.885
 4109SOL     OW13225   4.781   6.912   5.180
 4109SOL    HW113226   4.701   6.970   5.191
 4109SOL    HW213227   4.854   6.964   5.135
 4110SOL     OW13228   4.377   2.344   0.401
 4110SOL    HW113229   4.415   2.347   0.493
 4110SOL    HW213230   4.293   2.399   0.397
 4111SOL     OW13231   6.314   4.830   3.721
 4111SOL    HW113232   6.324   4.765   3.797
 4111SOL    HW213233   6.338   4.784   3.636
 4112SOL     OW13234   4.162   5.713   5.734
 4112SOL    HW113235   4.068   5.677   5.736
 4112SOL    HW213236   4.206   5.684   5.649
 4113SOL     OW13237   4.853   5.291   5.738
 4113SOL    HW113238   4.909   5.266   5.659
 4113SOL    HW213239   4.823   5.386   5.729
 4114SOL     OW13240   6.736   1.573   3.103
 4114SOL    HW113241   6.687   1.586   3.190
 4114SOL    HW213242   6.736   1.660   3.053
 4115SOL     OW13243   4.072   6.563   4.799
 4115SOL    HW113244   4.118   6.485   4.756
 4115SOL    HW213245   3.987   6.531   4.842
 4116SOL     OW13246   6.728   3.864   3.736
 4116SOL    HW113247   6.694   3.953   3.704
 4116SOL    HW213248   6.655   3.817   3.786
 4117SOL     OW13249   0.261   2.325   2.717
 4117SOL    HW113250   0.220   2.313   2.626
 4117SOL    HW213251   0.288   2.235   2.753
 4118SOL     OW13252   1.302   0.339   1.849
 4118SOL    HW113253   1.274   0.244   1.836
 4118SOL    HW213254   1.263   0.375   1.934
 4119SOL     OW13255   6.722   0.954   4.773
 4119SOL    HW113256   6.732   0.925   4.868
 4119SOL    HW213257   6.813   0.960   4.731
 4120SOL     OW13258   1.640   0.642   6.369
 4120SOL    HW113259   1.566   0.579   6.391
 4120SOL    HW213260   1.612   0.736   6.393
 4121SOL     OW13261   6.882   1.005   0.961
 4121SOL    HW113262   6.963   0.969   1.007
 4121SOL    HW213263   6.806   0.941   0.970
 4122SOL     OW13264   0.999   4.557   3.616
 4122SOL    HW113265   0.938   4.492   3.571
 4122SOL    HW213266   0.976   4.563   3.713
 4123SOL     OW13267   6.030   4.275   1.861
 4123SOL    HW113268   5.938   4.306   1.835
 4123SOL    HW213269   6.025   4.181   1.893
 4124SOL     OW13270   6.178   6.590   0.061
 4124SOL    HW113271   6.143   6.498   0.046
 4124SOL    HW213272   6.261   6.586   0.117
 4125SOL     OW13273   0.257   2.912   6.917
 4125SOL    HW113274   0.289   2.878   7.006
 4125SOL    HW213275   0.192   2.847   6.878
 4126SOL     OW13276   1.170   4.360   3.664
 4126SOL    HW113277   1.234   4.379   3.738
 4126SOL    HW213278   1.111   4.439   3.650
 4127SOL     OW13279   4.440   2.504   3.788
 4127SOL    HW113280   4.514   2.544   3.735
 4127SOL    HW213281   4.456   2.520   3.886
 4128SOL     OW13282   6.091   2.435   6.413
 4128SOL    HW113283   6.078   2.521   6.364
 4128SOL    HW213284   6.005   2.407   6.456
 4129SOL     OW13285   3.387   0.302   1.782
 4129SOL    HW113286   3.444   0.374   1.819
 4129SOL    HW213287   3.428   0.267   1.697
 4130SOL     OW13288   5.458   1.817   0.413
 4130SOL    HW113289   5.481   1.830   0.316
 4130SOL    HW213290   5.456   1.906   0.459
 4131SOL     OW13291   4.976   6.556   3.396
 4131SOL    HW113292   4.929   6.643   3.387
 4131SOL    HW213293   4.960   6.518   3.487
 4132SOL     OW13294   6.168   3.918   2.719
 4132SOL    HW113295   6.223   3.841   2.750
 4132SOL    HW213296   6.139   3.972   2.797
 4133SOL     OW13297   5.708   6.371   3.628
 4133SOL    HW113298   5.756   6.439   3.573
 4133SOL    HW213299   5.767   6.293   3.645
 4134SOL     OW13300   1.156   3.079   1.300
 4134SOL    HW113301   1.086   3.146   1.324
 4134SOL    HW213302   1.241   3.126   1.277
 4135SOL     OW13303   6.053   1.351   0.700
 4135SOL    HW113304   5.972   1.400   0.732
 4135SOL    HW213305   6.026   1.264   0.659
 4136SOL     OW13306   0.841   4.582   0.345
 4136SOL    HW113307   0.865   4.518   0.418
 4136SOL    HW213308   0.876   4.673   0.367
 4137SOL     OW13309   0.274   2.666   5.443
 4137SOL    HW113310   0.269   2.585   5.501
 4137SOL    HW213311   0.199   2.665   5.377
 4138SOL     OW13312   6.176   6.874   6.215
 4138SOL    HW113313   6.101   6.915   6.163
 4138SOL    HW213314   6.144   6.790   6.259
 4139SOL     OW13315   1.623   3.883   2.256
 4139SOL    HW113316   1.710   3.872   2.209
 4139SOL    HW213317   1.634   3.945   2.333
 4140SOL     OW13318   2.467   6.635   7.019
 4140SOL    HW113319   2.441   6.696   6.944
 4140SOL    HW213320   2.425   6.666   0.080
 4141SOL     OW13321   5.310   0.311   6.074
 4141SOL    HW113322   5.221   0.356   6.066
 4141SOL    HW213323   5.364   0.358   6.143
 4142SOL     OW13324   0.129   6.696   1.627
 4142SOL    HW113325   0.144   6.658   1.719
 4142SOL    HW213326   0.031   6.707   1.612
 4143SOL     OW13327   6.889   3.527   6.741
 4143SOL    HW113328   6.923   3.519   6.647
 4143SOL    HW213329   6.795   3.561   6.739
 4144SOL     OW13330   3.991   0.753   1.830
 4144SOL    HW113331   4.059   0.824   1.848
 4144SOL    HW213332   3.996   0.682   1.900
 4145SOL     OW13333   5.313   1.246   1.430
 4145SOL    HW113334   5.367   1.169   1.397
 4145SOL    HW213335   5.309   1.243   1.530
 4146SOL     OW13336   3.652   0.272   2.890
 4146SOL    HW113337   3.633   0.245   2.985
 4146SOL    HW213338   3.638   0.193   2.830
 4147SOL     OW13339   4.689   3.849   6.665
 4147SOL    HW113340   4.621   3.818   6.599
 4147SOL    HW213341   4.776   3.865   6.619
 4148SOL     OW13342   3.195   0.916   5.947
 4148SOL    HW113343   3.291   0.944   5.944
 4148SOL    HW213344   3.137   0.995   5.929
 4149SOL     OW13345   1.608   3.229   6.899
 4149SOL    HW113346   1.588   3.179   6.983
 4149SOL    HW213347   1.568   3.181   6.821
 4150SOL     OW13348   6.415   1.375   0.539
 4150SOL    HW113349   6.363   1.295   0.509
 4150SOL    HW213350   6.402   1.390   0.637
 4151SOL     OW13351   2.844   5.711   4.562
 4151SOL    HW113352   2.827   5.697   4.660
 4151SOL    HW213353   2.843   5.809   4.542
 4152SOL     OW13354   2.427   3.868   1.289
 4152SOL    HW113355   2.505   3.881   1.350
 4152SOL    HW213356   2.367   3.796   1.326
 4153SOL     OW13357   6.672   6.154   0.827
 4153SOL    HW113358   6.628   6.074   0.786
 4153SOL    HW213359   6.714   6.209   0.756
 4154SOL     OW13360   0.059   6.452   4.097
 4154SOL    HW113361   0.043   6.474   4.001
 4154SOL    HW213362   7.004   6.403   4.134
 4155SOL     OW13363   5.824   1.367   1.966
 4155SOL    HW113364   5.884   1.445   1.988
 4155SOL    HW213365   5.763   1.392   1.891
 4156SOL     OW13366   0.854   4.926   5.800
 4156SOL    HW113367   0.942   4.903   5.759
 4156SOL    HW213368   0.841   5.025   5.797
 4157SOL     OW13369   5.128   5.872   0.898
 4157SOL    HW113370   5.065   5.888   0.822
 4157SOL    HW213371   5.106   5.784   0.940
 4158SOL     OW13372   6.460   1.558   6.766
 4158SOL    HW113373   6.507   1.646   6.764
 4158SOL    HW213374   6.465   1.516   6.675
 4159SOL     OW13375   2.866   0.701   4.936
 4159SOL    HW113376   2.885   0.604   4.954
 4159SOL    HW213377   2.930   0.735   4.868
 4160SOL     OW13378   1.786   0.096   5.792
 4160SOL    HW113379   1.774   0.170   5.725
 4160SOL    HW213380   1.839   0.130   5.870
 4161SOL     OW13381   3.458   2.891   4.858
 4161SOL    HW113382   3.361   2.913   4.858
 4161SOL    HW213383   3.473   2.804   4.812
 4162SOL     OW13384   4.633   5.969   1.452
 4162SOL    HW113385   4.696   5.962   1.529
 4162SOL    HW213386   4.618   5.878   1.413
 4163SOL     OW13387   3.677   5.516   0.901
 4163SOL    HW113388   3.607   5.588   0.904
 4163SOL    HW213389   3.682   5.479   0.809
 4164SOL     OW13390   5.490   1.256   6.851
 4164SOL    HW113391   5.438   1.184   6.806
 4164SOL    HW213392   5.454   1.272   6.943
 4165SOL     OW13393   3.195   2.119   4.044
 4165SOL    HW113394   3.290   2.133   4.070
 4165SOL    HW213395   3.190   2.106   3.945
 4166SOL     OW13396   6.000   2.372   2.727
 4166SOL    HW113397   5.975   2.411   2.816
 4166SOL    HW213398   6.046   2.284   2.740
 4167SOL     OW13399   3.849   6.442   4.870
 4167SOL    HW113400   3.852   6.348   4.837
 4167SOL    HW213401   3.793   6.498   4.809
 4168SOL     OW13402   4.782   3.790   6.249
 4168SOL    HW113403   4.742   3.882   6.246
 4168SOL    HW213404   4.751   3.738   6.170
 4169SOL     OW13405   4.923   3.955   6.556
 4169SOL    HW113406   5.007   3.974   6.607
 4169SOL    HW213407   4.895   4.037   6.506
 4170SOL     OW13408   1.778   3.042   5.246
 4170SOL    HW113409   1.687   3.003   5.258
 4170SOL    HW213410   1.796   3.055   5.148
 4171SOL     OW13411   0.508   0.833   6.325
 4171SOL    HW113412   0.490   0.883   6.240
 4171SOL    HW213413   0.577   0.763   6.308
 4172SOL     OW13414   3.018   2.924   6.891
 4172SOL    HW113415   2.919   2.925   6.873
 4172SOL    HW213416   3.048   3.016   6.915
 4173SOL     OW13417   5.300   0.856   5.595
 4173SOL    HW113418   5.398   0.872   5.586
 4173SOL    HW213419   5.271   0.788   5.528
 4174SOL     OW13420   2.838   6.722   3.582
 4174SOL    HW113421   2.771   6.787   3.547
 4174SOL    HW213422   2.926   6.768   3.595
 4175SOL     OW13423   1.031   4.721   6.316
 4175SOL    HW113424   1.098   4.687   6.382
 4175SOL    HW213425   1.065   4.706   6.223
 4176SOL     OW13426   4.483   6.925   5.390
 4176SOL    HW113427   4.406   6.889   5.338
 4176SOL    HW213428   4.503   7.018   5.359
 4177SOL     OW13429   4.364   6.214   3.629
 4177SOL    HW113430   4.292   6.284   3.629
 4177SOL    HW213431   4.417   6.221   3.544
 4178SOL     OW13432   3.944   6.804   1.031
 4178SOL    HW113433   3.944   6.903   1.044
 4178SOL    HW213434   3.857   6.775   0.991
 4179SOL     OW13435   4.177   1.949   6.788
 4179SOL    HW113436   4.086   1.915   6.765
 4179SOL    HW213437   4.172   2.012   6.865
 4180SOL     OW13438   3.723   4.235   7.010
 4180SOL    HW113439   3.682   4.150   0.017
 4180SOL    HW213440   3.820   4.237   0.011
 4181SOL     OW13441   5.372   6.086   5.627
 4181SOL    HW113442   5.273   6.076   5.617
 4181SOL    HW213443   5.393   6.179   5.658
 4182SOL     OW13444   6.900   5.085   5.529
 4182SOL    HW113445   6.903   5.094   5.629
 4182SOL    HW213446   6.806   5.068   5.500
 4183SOL     OW13447   5.070   2.415   7.023
 4183SOL    HW113448   4.994   2.477   0.013
 4183SOL    HW213449   5.108   2.388   0.088
 4184SOL     OW13450   3.668   5.781   3.248
 4184SOL    HW113451   3.679   5.700   3.190
 4184SOL    HW213452   3.573   5.813   3.244
 4185SOL     OW13453   4.691   4.304   3.162
 4185SOL    HW113454   4.614   4.334   3.106
 4185SOL    HW213455   4.742   4.233   3.114
 4186SOL     OW13456   1.429   5.009   0.075
 4186SOL    HW113457   1.362   4.967   0.135
 4186SOL    HW213458   1.474   5.085   0.122
 4187SOL     OW13459   2.104   4.289   6.488
 4187SOL    HW113460   2.194   4.280   6.531
 4187SOL    HW213461   2.045   4.214   6.519
 4188SOL     OW13462   5.230   0.607   6.560
 4188SOL    HW113463   5.205   0.634   6.467
 4188SOL    HW213464   5.214   0.510   6.572
 4189SOL     OW13465   4.624   5.919   3.278
 4189SOL    HW113466   4.688   5.927   3.355
 4189SOL    HW213467   4.676   5.910   3.193
 4190SOL     OW13468   6.533   5.800   1.353
 4190SOL    HW113469   6.447   5.851   1.345
 4190SOL    HW213470   6.594   5.827   1.279
 4191SOL     OW13471   4.710   2.420   6.053
 4191SOL    HW113472   4.801   2.441   6.016
 4191SOL    HW213473   4.693   2.477   6.133
 4192SOL     OW13474   1.438   3.647   6.430
 4192SOL    HW113475   1.462   3.554   6.402
 4192SOL    HW213476   1.355   3.675   6.382
 4193SOL     OW13477   5.796   6.651   1.257
 4193SOL    HW113478   5.760   6.569   1.302
 4193SOL    HW213479   5.832   6.713   1.326
 4194SOL     OW13480   5.402   0.343   0.119
 4194SOL    HW113481   5.481   0.284   0.102
 4194SOL    HW213482   5.341   0.340   0.041
 4195SOL     OW13483   2.229   5.847   0.595
 4195SOL    HW113484   2.130   5.840   0.601
 4195SOL    HW213485   2.261   5.797   0.513
 4196SOL     OW13486   6.763   3.226   3.823
 4196SOL    HW113487   6.693   3.164   3.861
 4196SOL    HW213488   6.853   3.182   3.830
 4197SOL     OW13489   4.437   0.474   0.138
 4197SOL    HW113490   4.512   0.517   0.089
 4197SOL    HW213491   4.439   0.501   0.234
 4198SOL     OW13492   6.957   2.501   1.502
 4198SOL    HW113493   7.012   2.438   1.558
 4198SOL    HW213494   6.867   2.460   1.485
 4199SOL     OW13495   1.017   4.017   6.750
 4199SOL    HW113496   0.997   4.032   6.654
 4199SOL    HW213497   0.961   4.078   6.807
 4200SOL     OW13498   5.700   1.766   2.474
 4200SOL    HW113499   5.614   1.752   2.425
 4200SOL    HW213500   5.689   1.738   2.569
 4201SOL     OW13501   4.935   0.033   4.633
 4201SOL    HW113502   5.034   0.019   4.638
 4201SOL    HW213503   4.916   0.106   4.567
 4202SOL     OW13504   4.491   4.025   1.659
 4202SOL    HW113505   4.479   4.104   1.719
 4202SOL    HW213506   4.421   3.957   1.680
 4203SOL     OW13507   6.094   4.285   4.597
 4203SOL    HW113508   6.132   4.208   4.650
 4203SOL    HW213509   5.995   4.289   4.611
 4204SOL     OW13510   2.275   4.518   5.846
 4204SOL    HW113511   2.263   4.444   5.780
 4204SOL    HW213512   2.354   4.573   5.819
 4205SOL     OW13513   5.801   5.882   5.764
 4205SOL    HW113514   5.886   5.870   5.713
 4205SOL    HW213515   5.814   5.952   5.835
 4206SOL     OW13516   2.497   2.582   4.975
 4206SOL    HW113517   2.500   2.650   4.902
 4206SOL    HW213518   2.583   2.532   4.977
 4207SOL     OW13519   2.098   2.609   1.147
 4207SOL    HW113520   2.046   2.530   1.112
 4207SOL    HW213521   2.056   2.693   1.114
 4208SOL     OW13522   2.342   2.228   3.030
 4208SOL    HW113523   2.331   2.218   3.128
 4208SOL    HW213524   2.340   2.325   3.006
 4209SOL     OW13525   6.310   5.910   2.492
 4209SOL    HW113526   6.218   5.935   2.463
 4209SOL    HW213527   6.342   5.831   2.438
 4210SOL     OW13528   3.162   4.951   5.701
 4210SOL    HW113529   3.167   4.875   5.635
 4210SOL    HW213530   3.071   4.991   5.698
 4211SOL     OW13531   4.520   2.437   5.871
 4211SOL    HW113532   4.592   2.421   5.939
 4211SOL    HW213533   4.536   2.525   5.826
 4212SOL     OW13534   1.045   2.788   3.176
 4212SOL    HW113535   1.114   2.795   3.248
 4212SOL    HW213536   1.001   2.698   3.181
 4213SOL     OW13537   3.728   0.790   3.474
 4213SOL    HW113538   3.642   0.808   3.427
 4213SOL    HW213539   3.792   0.745   3.411
 4214SOL     OW13540   6.380   6.720   4.208
 4214SOL    HW113541   6.448   6.698   4.137
 4214SOL    HW213542   6.416   6.793   4.266
 4215SOL     OW13543   5.881   0.129   5.327
 4215SOL    HW113544   5.914   0.177   5.408
 4215SOL    HW213545   5.788   0.095   5.344
 4216SOL     OW13546   2.161   5.554   2.537
 4216SOL    HW113547   2.168   5.529   2.634
 4216SOL    HW213548   2.220   5.632   2.518
 4217SOL     OW13549   0.610   0.198   2.698
 4217SOL    HW113550   0.687   0.167   2.755
 4217SOL    HW213551   0.586   0.126   2.633
 4218SOL     OW13552   3.001   0.511   1.755
 4218SOL    HW113553   2.969   0.434   1.700
 4218SOL    HW213554   3.012   0.592   1.697
 4219SOL     OW13555   3.058   5.218   2.770
 4219SOL    HW113556   3.057   5.135   2.714
 4219SOL    HW213557   3.054   5.193   2.867
 4220SOL     OW13558   6.011   2.080   1.102
 4220SOL    HW113559   5.921   2.121   1.118
 4220SOL    HW213560   6.002   2.006   1.035
 4221SOL     OW13561   0.631   6.670   1.042
 4221SOL    HW113562   0.577   6.626   1.114
 4221SOL    HW213563   0.615   6.624   0.955
 4222SOL     OW13564   4.981   3.629   4.293
 4222SOL    HW113565   5.028   3.560   4.349
 4222SOL    HW213566   5.048   3.693   4.256
 4223SOL     OW13567   3.519   4.054   3.204
 4223SOL    HW113568   3.599   4.091   3.252
 4223SOL    HW213569   3.435   4.090   3.245
 4224SOL     OW13570   4.848   4.105   4.641
 4224SOL    HW113571   4.800   4.024   4.607
 4224SOL    HW213572   4.818   4.185   4.589
 4225SOL     OW13573   0.714   1.958   6.364
 4225SOL    HW113574   0.684   1.870   6.325
 4225SOL    HW213575   0.807   1.949   6.399
 4226SOL     OW13576   5.298   4.787   4.570
 4226SOL    HW113577   5.330   4.825   4.656
 4226SOL    HW213578   5.333   4.843   4.494
 4227SOL     OW13579   5.704   5.550   1.207
 4227SOL    HW113580   5.610   5.582   1.220
 4227SOL    HW213581   5.764   5.596   1.271
 4228SOL     OW13582   1.502   4.063   3.678
 4228SOL    HW113583   1.586   4.068   3.732
 4228SOL    HW213584   1.424   4.090   3.734
 4229SOL     OW13585   6.044   6.306   5.643
 4229SOL    HW113586   6.060   6.351   5.555
 4229SOL    HW213587   6.086   6.215   5.641
 4230SOL     OW13588   0.595   1.207   2.253
 4230SOL    HW113589   0.571   1.203   2.350
 4230SOL    HW213590   0.614   1.114   2.220
 4231SOL     OW13591   0.705   0.512   6.226
 4231SOL    HW113592   0.606   0.502   6.221
 4231SOL    HW213593   0.748   0.470   6.146
 4232SOL     OW13594   1.544   4.266   3.051
 4232SOL    HW113595   1.548   4.357   3.091
 4232SOL    HW213596   1.630   4.245   3.005
 4233SOL     OW13597   4.073   5.339   2.445
 4233SOL    HW113598   4.123   5.349   2.531
 4233SOL    HW213599   4.112   5.263   2.393
 4234SOL     OW13600   3.498   5.115   6.126
 4234SOL    HW113601   3.418   5.083   6.076
 4234SOL    HW213602   3.484   5.100   6.224
 4235SOL     OW13603   6.672   6.392   6.950
 4235SOL    HW113604   6.616   6.475   6.955
 4235SOL    HW213605   6.764   6.412   6.984
 4236SOL     OW13606   0.279   5.377   3.029
 4236SOL    HW113607   0.293   5.469   3.068
 4236SOL    HW213608   0.326   5.371   2.941
 4237SOL     OW13609   6.780   4.558   3.698
 4237SOL    HW113610   6.772   4.466   3.660
 4237SOL    HW213611   6.875   4.588   3.694
 4238SOL     OW13612   2.912   5.928   2.790
 4238SOL    HW113613   3.005   5.965   2.787
 4238SOL    HW213614   2.904   5.855   2.722
 4239SOL     OW13615   4.031   0.947   2.930
 4239SOL    HW113616   4.020   0.853   2.962
 4239SOL    HW213617   4.026   0.949   2.830
 4240SOL     OW13618   5.295   0.351   1.956
 4240SOL    HW113619   5.237   0.425   1.992
 4240SOL    HW213620   5.306   0.280   2.026
 4241SOL     OW13621   0.104   4.438   0.155
 4241SOL    HW113622   0.175   4.471   0.217
 4241SOL    HW213623   0.026   4.405   0.208
 4242SOL     OW13624   3.494   1.975   2.812
 4242SOL    HW113625   3.441   1.892   2.792
 4242SOL    HW213626   3.509   2.026   2.728
 4243SOL     OW13627   3.289   2.119   2.601
 4243SOL    HW113628   3.355   2.179   2.555
 4243SOL    HW213629   3.290   2.029   2.558
 4244SOL     OW13630   3.063   3.360   5.014
 4244SOL    HW113631   3.095   3.372   5.108
 4244SOL    HW213632   3.139   3.372   4.951
 4245SOL     OW13633   6.851   0.670   5.880
 4245SOL    HW113634   6.803   0.655   5.793
 4245SOL    HW213635   6.933   0.612   5.883
 4246SOL     OW13636   0.781   4.566   6.125
 4246SOL    HW113637   0.811   4.655   6.091
 4246SOL    HW213638   0.681   4.565   6.131
 4247SOL     OW13639   0.090   5.292   5.074
 4247SOL    HW113640   0.029   5.292   5.153
 4247SOL    HW213641   0.183   5.268   5.104
 4248SOL     OW13642   2.058   3.573   6.700
 4248SOL    HW113643   2.013   3.485   6.686
 4248SOL    HW213644   2.085   3.612   6.612
 4249SOL     OW13645   5.099   2.847   6.232
 4249SOL    HW113646   5.067   2.806   6.147
 4249SOL    HW213647   5.108   2.776   6.302
 4250SOL     OW13648   6.827   4.315   3.596
 4250SOL    HW113649   6.900   4.344   3.657
 4250SOL    HW213650   6.853   4.230   3.550
 4251SOL     OW13651   6.328   4.899   6.112
 4251SOL    HW113652   6.295   4.815   6.069
 4251SOL    HW213653   6.385   4.877   6.191
 4252SOL     OW13654   0.049   4.898   5.393
 4252SOL    HW113655   0.109   4.941   5.326
 4252SOL    HW213656   0.003   4.968   5.447
 4253SOL     OW13657   3.380   6.550   3.134
 4253SOL    HW113658   3.346   6.640   3.163
 4253SOL    HW213659   3.311   6.505   3.078
 4254SOL     OW13660   3.136   3.006   2.132
 4254SOL    HW113661   3.087   2.951   2.065
 4254SOL    HW213662   3.206   2.950   2.177
 4255SOL     OW13663   0.422   2.375   3.705
 4255SOL    HW113664   0.347   2.310   3.689
 4255SOL    HW213665   0.509   2.331   3.686
 4256SOL     OW13666   1.483   1.433   2.126
 4256SOL    HW113667   1.498   1.495   2.049
 4256SOL    HW213668   1.506   1.480   2.211
 4257SOL     OW13669   4.188   2.091   5.289
 4257SOL    HW113670   4.171   2.002   5.247
 4257SOL    HW213671   4.104   2.126   5.329
 4258SOL     OW13672   5.221   6.154   2.371
 4258SOL    HW113673   5.176   6.173   2.284
 4258SOL    HW213674   5.168   6.196   2.445
 4259SOL     OW13675   2.767   3.374   1.480
 4259SOL    HW113676   2.713   3.451   1.447
 4259SOL    HW213677   2.742   3.353   1.574
 4260SOL     OW13678   4.159   6.287   4.711
 4260SOL    HW113679   4.163   6.212   4.645
 4260SOL    HW213680   4.101   6.261   4.788
 4261SOL     OW13681   1.277   1.255   3.308
 4261SOL    HW113682   1.236   1.300   3.388
 4261SOL    HW213683   1.370   1.289   3.295
 4262SOL     OW13684   0.899   6.193   5.691
 4262SOL    HW113685   0.988   6.163   5.725
 4262SOL    HW213686   0.862   6.125   5.629
 4263SOL     OW13687   4.507   5.143   6.675
 4263SOL    HW113688   4.419   5.111   6.710
 4263SOL    HW213689   4.528   5.231   6.716
 4264SOL     OW13690   0.781   0.190   1.441
 4264SOL    HW113691   0.832   0.229   1.365
 4264SOL    HW213692   0.684   0.214   1.433
 4265SOL     OW13693   1.605   1.250   0.496
 4265SOL    HW113694   1.594   1.246   0.396
 4265SOL    HW213695   1.549   1.179   0.538
 4266SOL     OW13696   3.137   4.661   0.689
 4266SOL    HW113697   3.038   4.664   0.672
 4266SOL    HW213698   3.186   4.674   0.603
 4267SOL     OW13699   1.598   3.861   5.802
 4267SOL    HW113700   1.601   3.825   5.895
 4267SOL    HW213701   1.674   3.925   5.788
 4268SOL     OW13702   1.335   1.337   1.782
 4268SOL    HW113703   1.241   1.371   1.781
 4268SOL    HW213704   1.397   1.412   1.757
 4269SOL     OW13705   2.960   3.491   0.847
 4269SOL    HW113706   2.966   3.422   0.775
 4269SOL    HW213707   2.999   3.454   0.932
 4270SOL     OW13708   3.917   2.900   6.720
 4270SOL    HW113709   3.894   2.974   6.784
 4270SOL    HW213710   4.016   2.897   6.707
 4271SOL     OW13711   1.518   0.477   1.342
 4271SOL    HW113712   1.538   0.419   1.263
 4271SOL    HW213713   1.440   0.535   1.322
 4272SOL     OW13714   0.472   3.849   3.898
 4272SOL    HW113715   0.376   3.865   3.879
 4272SOL    HW213716   0.528   3.916   3.849
 4273SOL     OW13717   5.828   0.055   3.709
 4273SOL    HW113718   5.766   0.009   3.646
 4273SOL    HW213719   5.849   0.146   3.674
 4274SOL     OW13720   2.288   0.348   3.963
 4274SOL    HW113721   2.227   0.286   4.012
 4274SOL    HW213722   2.245   0.375   3.877
 4275SOL     OW13723   0.559   0.378   5.451
 4275SOL    HW113724   0.578   0.335   5.362
 4275SOL    HW213725   0.645   0.385   5.503
 4276SOL     OW13726   2.191   4.030   3.034
 4276SOL    HW113727   2.175   4.019   2.936
 4276SOL    HW213728   2.239   4.116   3.051
 4277SOL     OW13729   1.064   5.531   5.334
 4277SOL    HW113730   1.117   5.510   5.417
 4277SOL    HW213731   1.062   5.450   5.275
 4278SOL     OW13732   1.050   6.226   6.506
 4278SOL    HW113733   1.097   6.178   6.580
 4278SOL    HW213734   1.118   6.274   6.450
 4279SOL     OW13735   2.962   6.040   3.493
 4279SOL    HW113736   2.999   5.948   3.481
 4279SOL    HW213737   2.889   6.037   3.561
 4280SOL     OW13738   5.163   2.532   3.402
 4280SOL    HW113739   5.203   2.619   3.372
 4280SOL    HW213740   5.078   2.516   3.350
 4281SOL     OW13741   1.712   4.023   5.222
 4281SOL    HW113742   1.680   4.118   5.222
 4281SOL    HW213743   1.803   4.018   5.261
 4282SOL     OW13744   0.440   2.139   0.620
 4282SOL    HW113745   0.350   2.100   0.640
 4282SOL    HW213746   0.447   2.159   0.523
 4283SOL     OW13747   2.438   1.262   4.480
 4283SOL    HW113748   2.400   1.268   4.572
 4283SOL    HW213749   2.408   1.177   4.437
 4284SOL     OW13750   6.666   1.949   3.225
 4284SOL    HW113751   6.611   1.899   3.292
 4284SOL    HW213752   6.621   2.036   3.203
 4285SOL     OW13753   0.931   6.088   4.374
 4285SOL    HW113754   1.017   6.076   4.422
 4285SOL    HW213755   0.945   6.140   4.291
 4286SOL     OW13756   4.162   5.448   6.667
 4286SOL    HW113757   4.253   5.464   6.704
 4286SOL    HW213758   4.158   5.480   6.572
 4287SOL     OW13759   3.686   5.480   5.484
 4287SOL    HW113760   3.630   5.467   5.566
 4287SOL    HW213761   3.687   5.578   5.460
 4288SOL     OW13762   1.276   5.963   3.670
 4288SOL    HW113763   1.294   5.998   3.761
 4288SOL    HW213764   1.197   5.901   3.672
 4289SOL     OW13765   0.562   4.061   6.799
 4289SOL    HW113766   0.586   4.107   6.884
 4289SOL    HW213767   0.594   4.116   6.721
 4290SOL     OW13768   1.846   1.468   3.224
 4290SOL    HW113769   1.830   1.529   3.302
 4290SOL    HW213770   1.901   1.390   3.255
 4291SOL     OW13771   0.240   4.064   1.412
 4291SOL    HW113772   0.305   4.038   1.484
 4291SOL    HW213773   0.285   4.124   1.346
 4292SOL     OW13774   5.727   5.349   5.284
 4292SOL    HW113775   5.802   5.325   5.222
 4292SOL    HW213776   5.640   5.333   5.239
 4293SOL     OW13777   0.586   1.896   0.053
 4293SOL    HW113778   0.572   1.800   0.030
 4293SOL    HW213779   0.498   1.944   0.048
 4294SOL     OW13780   5.163   1.200   6.313
 4294SOL    HW113781   5.108   1.150   6.380
 4294SOL    HW213782   5.121   1.192   6.223
 4295SOL     OW13783   3.751   5.679   5.701
 4295SOL    HW113784   3.841   5.638   5.716
 4295SOL    HW213785   3.697   5.670   5.785
 4296SOL     OW13786   2.215   1.313   2.866
 4296SOL    HW113787   2.302   1.361   2.877
 4296SOL    HW213788   2.194   1.303   2.769
 4297SOL     OW13789   6.087   0.670   0.441
 4297SOL    HW113790   6.064   0.699   0.534
 4297SOL    HW213791   6.179   0.700   0.418
 4298SOL     OW13792   1.744   4.864   1.764
 4298SOL    HW113793   1.675   4.833   1.829
 4298SOL    HW213794   1.707   4.857   1.671
 4299SOL     OW13795   1.447   5.622   5.213
 4299SOL    HW113796   1.417   5.545   5.157
 4299SOL    HW213797   1.374   5.691   5.216
 4300SOL     OW13798   6.094   7.022   5.580
 4300SOL    HW113799   6.092   6.960   5.658
 4300SOL    HW213800   6.092   6.970   5.495
 4301SOL     OW13801   3.221   0.791   0.879
 4301SOL    HW113802   3.252   0.789   0.974
 4301SOL    HW213803   3.127   0.756   0.874
 4302SOL     OW13804   0.582   0.440   6.570
 4302SOL    HW113805   0.574   0.539   6.577
 4302SOL    HW213806   0.607   0.402   6.659
 4303SOL     OW13807   0.452   4.250   1.674
 4303SOL    HW113808   0.466   4.152   1.660
 4303SOL    HW213809   0.474   4.299   1.589
 4304SOL     OW13810   3.088   3.674   5.369
 4304SOL    HW113811   3.034   3.752   5.401
 4304SOL    HW213812   3.056   3.646   5.278
 4305SOL     OW13813   0.032   1.549   5.164
 4305SOL    HW113814   6.992   1.484   5.206
 4305SOL    HW213815   0.106   1.498   5.119
 4306SOL     OW13816   6.224   5.631   5.668
 4306SOL    HW113817   6.317   5.641   5.705
 4306SOL    HW213818   6.227   5.571   5.588
 4307SOL     OW13819   5.604   3.464   0.111
 4307SOL    HW113820   5.666   3.537   0.082
 4307SOL    HW213821   5.658   3.385   0.142
 4308SOL     OW13822   3.317   6.964   5.175
 4308SOL    HW113823   3.385   0.007   5.207
 4308SOL    HW213824   3.355   6.872   5.185
 4309SOL     OW13825   1.149   0.486   1.636
 4309SOL    HW113826   1.214   0.453   1.705
 4309SOL    HW213827   1.131   0.583   1.651
 4310SOL     OW13828   1.562   0.064   2.908
 4310SOL    HW113829   1.504   0.140   2.936
 4310SOL    HW213830   1.657   0.082   2.934
 4311SOL     OW13831   1.390   5.284   4.132
 4311SOL    HW113832   1.404   5.334   4.046
 4311SOL    HW213833   1.403   5.187   4.116
 4312SOL     OW13834   1.398   5.664   1.894
 4312SOL    HW113835   1.434   5.621   1.811
 4312SOL    HW213836   1.386   5.762   1.878
 4313SOL     OW13837   5.077   0.980   1.539
 4313SOL    HW113838   5.056   1.056   1.478
 4313SOL    HW213839   5.053   0.893   1.494
 4314SOL     OW13840   5.842   3.448   0.873
 4314SOL    HW113841   5.763   3.421   0.819
 4314SOL    HW213842   5.843   3.547   0.884
 4315SOL     OW13843   2.327   1.043   2.492
 4315SOL    HW113844   2.279   1.131   2.502
 4315SOL    HW213845   2.332   1.019   2.395
 4316SOL     OW13846   0.785   1.490   2.667
 4316SOL    HW113847   0.777   1.399   2.708
 4316SOL    HW213848   0.695   1.521   2.636
 4317SOL     OW13849   4.060   0.579   2.975
 4317SOL    HW113850   4.108   0.630   3.046
 4317SOL    HW213851   4.120   0.563   2.897
 4318SOL     OW13852   6.664   2.372   5.369
 4318SOL    HW113853   6.598   2.445   5.385
 4318SOL    HW213854   6.732   2.403   5.303
 4319SOL     OW13855   3.782   2.544   6.153
 4319SOL    HW113856   3.867   2.548   6.100
 4319SOL    HW213857   3.783   2.614   6.224
 4320SOL     OW13858   0.001   6.440   2.987
 4320SOL    HW113859   0.037   6.349   3.005
 4320SOL    HW213860   7.000   6.447   2.890
 4321SOL     OW13861   0.832   0.435   4.741
 4321SOL    HW113862   0.776   0.356   4.767
 4321SOL    HW213863   0.928   0.409   4.741
 4322SOL     OW13864   6.233   1.489   1.391
 4322SOL    HW113865   6.175   1.408   1.388
 4322SOL    HW213866   6.178   1.571   1.373
 4323SOL     OW13867   6.847   1.928   3.581
 4323SOL    HW113868   6.837   1.856   3.513
 4323SOL    HW213869   6.848   1.888   3.673
 4324SOL     OW13870   5.571   2.588   5.729
 4324SOL    HW113871   5.576   2.488   5.729
 4324SOL    HW213872   5.494   2.617   5.785
 4325SOL     OW13873   1.822   2.568   6.693
 4325SOL    HW113874   1.801   2.572   6.596
 4325SOL    HW213875   1.888   2.495   6.710
 4326SOL     OW13876   6.498   2.588   5.311
 4326SOL    HW113877   6.507   2.632   5.222
 4326SOL    HW213878   6.402   2.561   5.325
 4327SOL     OW13879   4.713   0.944   3.063
 4327SOL    HW113880   4.645   0.957   3.136
 4327SOL    HW213881   4.684   0.993   2.981
 4328SOL     OW13882   5.764   4.694   0.559
 4328SOL    HW113883   5.796   4.716   0.467
 4328SOL    HW213884   5.842   4.675   0.619
 4329SOL     OW13885   5.205   1.848   0.243
 4329SOL    HW113886   5.265   1.819   0.317
 4329SOL    HW213887   5.237   1.809   0.157
 4330SOL     OW13888   1.103   1.009   6.539
 4330SOL    HW113889   1.063   0.920   6.560
 4330SOL    HW213890   1.059   1.079   6.596
 4331SOL     OW13891   5.078   2.253   6.552
 4331SOL    HW113892   5.003   2.257   6.618
 4331SOL    HW213893   5.042   2.272   6.460
 4332SOL     OW13894   5.594   3.841   1.796
 4332SOL    HW113895   5.601   3.815   1.892
 4332SOL    HW213896   5.663   3.793   1.743
 4333SOL     OW13897   6.430   1.365   4.870
 4333SOL    HW113898   6.407   1.363   4.967
 4333SOL    HW213899   6.502   1.433   4.854
 4334SOL     OW13900   3.843   0.411   1.573
 4334SOL    HW113901   3.868   0.507   1.589
 4334SOL    HW213902   3.749   0.406   1.539
 4335SOL     OW13903   3.755   4.518   5.776
 4335SOL    HW113904   3.712   4.428   5.781
 4335SOL    HW213905   3.826   4.525   5.847
 4336SOL     OW13906   1.274   6.965   5.630
 4336SOL    HW113907   1.189   6.941   5.677
 4336SOL    HW213908   1.252   6.994   5.537
 4337SOL     OW13909   0.544   5.843   6.729
 4337SOL    HW113910   0.609   5.824   6.656
 4337SOL    HW213911   0.483   5.917   6.701
 4338SOL     OW13912   5.442   6.484   3.367
 4338SOL    HW113913   5.519   6.502   3.429
 4338SOL    HW213914   5.391   6.568   3.351
 4339SOL     OW13915   6.851   1.135   6.685
 4339SOL    HW113916   6.897   1.205   6.739
 4339SOL    HW213917   6.919   1.081   6.634
 4340SOL     OW13918   4.321   3.813   1.688
 4340SOL    HW113919   4.391   3.747   1.716
 4340SOL    HW213920   4.310   3.809   1.589
 4341SOL     OW13921   1.261   3.618   0.875
 4341SOL    HW113922   1.271   3.645   0.971
 4341SOL    HW213923   1.344   3.640   0.825
 4342SOL     OW13924   0.123   2.121   3.442
 4342SOL    HW113925   0.034   2.158   3.413
 4342SOL    HW213926   0.173   2.091   3.361
 4343SOL     OW13927   2.885   1.935   0.833
 4343SOL    HW113928   2.924   1.933   0.741
 4343SOL    HW213929   2.841   1.848   0.853
 4344SOL     OW13930   1.904   3.312   1.771
 4344SOL    HW113931   1.812   3.283   1.745
 4344SOL    HW213932   1.969   3.239   1.752
 4345SOL     OW13933   2.881   1.358   5.872
 4345SOL    HW113934   2.813   1.383   5.942
 4345SOL    HW213935   2.838   1.363   5.782
 4346SOL     OW13936   6.809   3.981   1.344
 4346SOL    HW113937   6.796   3.957   1.440
 4346SOL    HW213938   6.901   4.018   1.331
 4347SOL     OW13939   4.604   5.567   2.700
 4347SOL    HW113940   4.571   5.661   2.689
 4347SOL    HW213941   4.670   5.547   2.628
 4348SOL     OW13942   1.468   3.574   0.494
 4348SOL    HW113943   1.373   3.592   0.469
 4348SOL    HW213944   1.512   3.520   0.422
 4349SOL     OW13945   6.640   1.048   1.207
 4349SOL    HW113946   6.725   1.069   1.255
 4349SOL    HW213947   6.661   0.990   1.128
 4350SOL     OW13948   4.015   0.732   2.689
 4350SOL    HW113949   3.972   0.642   2.688
 4350SOL    HW213950   4.114   0.721   2.693
 4351SOL     OW13951   3.065   6.715   6.871
 4351SOL    HW113952   3.094   6.682   6.781
 4351SOL    HW213953   3.040   6.636   6.928
 4352SOL     OW13954   6.567   1.973   2.300
 4352SOL    HW113955   6.607   2.064   2.295
 4352SOL    HW213956   6.563   1.944   2.396
 4353SOL     OW13957   3.190   5.482   1.314
 4353SOL    HW113958   3.179   5.572   1.271
 4353SOL    HW213959   3.130   5.416   1.269
 4354SOL     OW13960   3.139   0.647   1.131
 4354SOL    HW113961   3.171   0.554   1.146
 4354SOL    HW213962   3.065   0.647   1.064
 4355SOL     OW13963   4.815   0.012   0.271
 4355SOL    HW113964   4.850   6.951   0.232
 4355SOL    HW213965   4.885   0.054   0.328
 4356SOL     OW13966   3.485   3.857   1.090
 4356SOL    HW113967   3.436   3.770   1.093
 4356SOL    HW213968   3.571   3.849   1.139
 4357SOL     OW13969   5.924   0.440   0.332
 4357SOL    HW113970   5.833   0.464   0.365
 4357SOL    HW213971   5.991   0.505   0.368
 4358SOL     OW13972   6.168   0.737   1.210
 4358SOL    HW113973   6.207   0.714   1.121
 4358SOL    HW213974   6.152   0.836   1.215
 4359SOL     OW13975   0.299   4.204   4.613
 4359SOL    HW113976   0.273   4.242   4.701
 4359SOL    HW213977   0.306   4.104   4.620
 4360SOL     OW13978   2.505   3.681   0.802
 4360SOL    HW113979   2.456   3.618   0.742
 4360SOL    HW213980   2.468   3.676   0.894
 4361SOL     OW13981   5.841   2.511   2.540
 4361SOL    HW113982   5.881   2.463   2.619
 4361SOL    HW213983   5.897   2.493   2.459
 4362SOL     OW13984   5.221   4.060   2.649
 4362SOL    HW113985   5.140   4.001   2.647
 4362SOL    HW213986   5.272   4.048   2.564
 4363SOL     OW13987   5.154   0.831   6.704
 4363SOL    HW113988   5.092   0.788   6.770
 4363SOL    HW213989   5.188   0.762   6.640
 4364SOL     OW13990   3.639   4.137   4.502
 4364SOL    HW113991   3.738   4.127   4.501
 4364SOL    HW213992   3.614   4.227   4.465
 4365SOL     OW13993   4.036   2.293   0.032
 4365SOL    HW113994   4.023   2.375   0.088
 4365SOL    HW213995   4.001   2.213   0.081
 4366SOL     OW13996   4.818   4.959   0.307
 4366SOL    HW113997   4.812   4.914   0.218
 4366SOL    HW213998   4.913   4.984   0.326
 4367SOL     OW13999   6.684   6.933   1.172
 4367SOL    HW114000   6.595   6.907   1.134
 4367SOL    HW214001   6.752   6.864   1.146
 4368SOL     OW14002   4.300   4.579   1.988
 4368SOL    HW114003   4.358   4.544   2.062
 4368SOL    HW214004   4.205   4.581   2.019
 4369SOL     OW14005   3.352   5.439   1.536
 4369SOL    HW114006   3.304   5.452   1.449
 4369SOL    HW214007   3.296   5.473   1.611
 4370SOL     OW14008   5.224   4.561   1.959
 4370SOL    HW114009   5.204   4.621   1.881
 4370SOL    HW214010   5.260   4.474   1.925
 4371SOL     OW14011   1.321   1.895   2.602
 4371SOL    HW114012   1.303   1.943   2.687
 4371SOL    HW214013   1.366   1.957   2.537
 4372SOL     OW14014   4.722   6.957   3.832
 4372SOL    HW114015   4.672   0.016   3.858
 4372SOL    HW214016   4.658   6.889   3.797
 4373SOL     OW14017   0.140   1.585   5.934
 4373SOL    HW114018   0.095   1.521   5.996
 4373SOL    HW214019   0.160   1.670   5.983
 4374SOL     OW14020   3.197   1.644   0.251
 4374SOL    HW114021   3.198   1.573   0.321
 4374SOL    HW214022   3.176   1.732   0.293
 4375SOL     OW14023   3.691   5.471   4.075
 4375SOL    HW114024   3.762   5.539   4.056
 4375SOL    HW214025   3.724   5.406   4.142
 4376SOL     OW14026   0.120   2.482   3.854
 4376SOL    HW114027   0.117   2.390   3.892
 4376SOL    HW214028   0.211   2.521   3.867
 4377SOL     OW14029   6.966   4.623   6.163
 4377SOL    HW114030   6.956   4.651   6.067
 4377SOL    HW214031   6.888   4.657   6.216
 4378SOL     OW14032   3.246   1.661   3.972
 4378SOL    HW114033   3.314   1.725   4.006
 4378SOL    HW214034   3.157   1.682   4.013
 4379SOL     OW14035   3.764   1.769   6.066
 4379SOL    HW114036   3.681   1.771   6.122
 4379SOL    HW214037   3.802   1.676   6.066
 4380SOL     OW14038   0.452   2.474   3.032
 4380SOL    HW114039   0.453   2.511   3.125
 4380SOL    HW214040   0.376   2.513   2.982
 4381SOL     OW14041   1.369   5.524   6.857
 4381SOL    HW114042   1.440   5.559   6.918
 4381SOL    HW214043   1.307   5.599   6.833
 4382SOL     OW14044   1.135   5.400   4.276
 4382SOL    HW114045   1.168   5.493   4.258
 4382SOL    HW214046   1.202   5.334   4.243
 4383SOL     OW14047   0.032   4.171   0.818
 4383SOL    HW114048   0.031   4.217   0.730
 4383SOL    HW214049   0.120   4.126   0.831
 4384SOL     OW14050   4.922   6.919   3.632
 4384SOL    HW114051   4.979   6.843   3.665
 4384SOL    HW214052   4.849   6.937   3.698
 4385SOL     OW14053   4.461   0.935   5.656
 4385SOL    HW114054   4.396   1.010   5.649
 4385SOL    HW214055   4.554   0.972   5.665
 4386SOL     OW14056   2.169   3.467   4.222
 4386SOL    HW114057   2.088   3.408   4.223
 4386SOL    HW214058   2.252   3.411   4.232
 4387SOL     OW14059   5.395   2.121   1.050
 4387SOL    HW114060   5.453   2.041   1.035
 4387SOL    HW214061   5.415   2.161   1.139
 4388SOL     OW14062   5.386   3.463   0.331
 4388SOL    HW114063   5.472   3.462   0.280
 4388SOL    HW214064   5.378   3.550   0.381
 4389SOL     OW14065   2.566   0.969   0.087
 4389SOL    HW114066   2.634   1.007   0.150
 4389SOL    HW214067   2.511   1.043   0.049
 4390SOL     OW14068   0.205   1.993   0.748
 4390SOL    HW114069   0.133   2.029   0.687
 4390SOL    HW214070   0.175   2.001   0.843
 4391SOL     OW14071   0.338   6.169   1.614
 4391SOL    HW114072   0.344   6.115   1.530
 4391SOL    HW214073   0.258   6.228   1.610
 4392SOL     OW14074   1.391   2.812   5.934
 4392SOL    HW114075   1.360   2.904   5.958
 4392SOL    HW214076   1.479   2.794   5.978
 4393SOL     OW14077   6.157   0.320   2.417
 4393SOL    HW114078   6.085   0.302   2.349
 4393SOL    HW214079   6.119   0.375   2.491
 4394SOL     OW14080   0.195   0.161   2.465
 4394SOL    HW114081   0.236   0.238   2.515
 4394SOL    HW214082   0.117   0.194   2.412
 4395SOL     OW14083   1.361   3.609   2.005
 4395SOL    HW114084   1.435   3.578   2.064
 4395SOL    HW214085   1.281   3.632   2.060
 4396SOL     OW14086   2.876   1.327   2.999
 4396SOL    HW114087   2.777   1.339   2.993
 4396SOL    HW214088   2.915   1.326   2.907
 4397SOL     OW14089   3.610   1.094   5.510
 4397SOL    HW114090   3.641   1.072   5.417
 4397SOL    HW214091   3.679   1.150   5.555
 4398SOL     OW14092   2.199   3.383   5.657
 4398SOL    HW114093   2.245   3.301   5.622
 4398SOL    HW214094   2.254   3.464   5.634
 4399SOL     OW14095   3.387   6.094   1.345
 4399SOL    HW114096   3.466   6.149   1.371
 4399SOL    HW214097   3.328   6.146   1.283
 4400SOL     OW14098   1.687   5.983   5.054
 4400SOL    HW114099   1.781   5.951   5.071
 4400SOL    HW214100   1.633   5.907   5.019
 4401SOL     OW14101   2.596   6.759   6.513
 4401SOL    HW114102   2.690   6.772   6.482
 4401SOL    HW214103   2.542   6.840   6.491
 4402SOL     OW14104   1.356   0.622   2.624
 4402SOL    HW114105   1.342   0.644   2.528
 4402SOL    HW214106   1.432   0.558   2.633
 4403SOL     OW14107   6.353   5.907   3.132
 4403SOL    HW114108   6.302   5.985   3.095
 4403SOL    HW214109   6.451   5.929   3.134
 4404SOL     OW14110   0.541   6.509   5.564
 4404SOL    HW114111   0.616   6.444   5.552
 4404SOL    HW214112   0.566   6.577   5.633
 4405SOL     OW14113   1.472   4.939   2.664
 4405SOL    HW114114   1.441   5.034   2.668
 4405SOL    HW214115   1.562   4.935   2.621
 4406SOL     OW14116   6.288   4.618   2.231
 4406SOL    HW114117   6.272   4.655   2.139
 4406SOL    HW214118   6.201   4.588   2.270
 4407SOL     OW14119   6.022   6.590   1.088
 4407SOL    HW114120   6.008   6.504   1.038
 4407SOL    HW214121   5.944   6.606   1.149
 4408SOL     OW14122   4.636   0.826   0.958
 4408SOL    HW114123   4.575   0.853   0.884
 4408SOL    HW214124   4.583   0.808   1.041
 4409SOL     OW14125   3.251   0.903   4.003
 4409SOL    HW114126   3.204   0.991   3.997
 4409SOL    HW214127   3.346   0.914   3.974
 4410SOL     OW14128   0.926   0.204   0.984
 4410SOL    HW114129   0.833   0.176   1.009
 4410SOL    HW214130   0.953   0.156   0.900
 4411SOL     OW14131   4.446   4.816   5.235
 4411SOL    HW114132   4.493   4.836   5.149
 4411SOL    HW214133   4.481   4.875   5.307
 4412SOL     OW14134   4.137   5.940   1.753
 4412SOL    HW114135   4.181   5.957   1.665
 4412SOL    HW214136   4.187   5.989   1.825
 4413SOL     OW14137   4.947   6.234   4.176
 4413SOL    HW114138   5.028   6.208   4.122
 4413SOL    HW214139   4.872   6.256   4.114
 4414SOL     OW14140   5.803   3.901   1.451
 4414SOL    HW114141   5.877   3.941   1.398
 4414SOL    HW214142   5.738   3.973   1.477
 4415SOL     OW14143   1.762   3.895   1.316
 4415SOL    HW114144   1.809   3.963   1.372
 4415SOL    HW214145   1.819   3.813   1.308
 4416SOL     OW14146   5.022   2.907   4.460
 4416SOL    HW114147   4.927   2.938   4.457
 4416SOL    HW214148   5.083   2.986   4.467
 4417SOL     OW14149   0.389   4.164   2.103
 4417SOL    HW114150   0.329   4.120   2.169
 4417SOL    HW214151   0.412   4.100   2.030
 4418SOL     OW14152   6.412   1.547   5.164
 4418SOL    HW114153   6.327   1.567   5.115
 4418SOL    HW214154   6.392   1.496   5.247
 4419SOL     OW14155   6.466   6.439   6.282
 4419SOL    HW114156   6.458   6.481   6.192
 4419SOL    HW214157   6.389   6.467   6.340
 4420SOL     OW14158   4.164   1.409   0.955
 4420SOL    HW114159   4.183   1.398   0.857
 4420SOL    HW214160   4.098   1.483   0.967
 4421SOL     OW14161   2.697   2.856   0.004
 4421SOL    HW114162   2.704   2.868   6.928
 4421SOL    HW214163   2.673   2.761   0.024
 4422SOL     OW14164   0.738   2.847   6.116
 4422SOL    HW114165   0.747   2.892   6.205
 4422SOL    HW214166   0.658   2.787   6.117
 4423SOL     OW14167   5.694   4.717   4.436
 4423SOL    HW114168   5.769   4.727   4.370
 4423SOL    HW214169   5.694   4.624   4.472
 4424SOL     OW14170   4.095   5.830   3.049
 4424SOL    HW114171   4.105   5.920   3.093
 4424SOL    HW214172   4.184   5.786   3.043
 4425SOL     OW14173   0.191   6.417   1.596
 4425SOL    HW114174   0.216   6.418   1.693
 4425SOL    HW214175   0.262   6.463   1.543
 4426SOL     OW14176   0.434   0.455   4.660
 4426SOL    HW114177   0.496   0.388   4.621
 4426SOL    HW214178   0.339   0.424   4.648
 4427SOL     OW14179   3.191   5.684   2.218
 4427SOL    HW114180   3.133   5.742   2.161
 4427SOL    HW214181   3.236   5.740   2.287
 4428SOL     OW14182   6.161   6.076   3.836
 4428SOL    HW114183   6.195   5.999   3.781
 4428SOL    HW214184   6.082   6.047   3.889
 4429SOL     OW14185   2.730   6.267   3.160
 4429SOL    HW114186   2.732   6.340   3.229
 4429SOL    HW214187   2.781   6.188   3.194
 4430SOL     OW14188   6.272   3.884   4.600
 4430SOL    HW114189   6.251   3.950   4.672
 4430SOL    HW214190   6.189   3.865   4.547
 4431SOL     OW14191   4.273   6.750   4.825
 4431SOL    HW114192   4.323   6.663   4.832
 4431SOL    HW214193   4.184   6.733   4.784
 4432SOL     OW14194   1.503   3.412   6.711
 4432SOL    HW114195   1.537   3.428   6.804
 4432SOL    HW214196   1.422   3.467   6.695
 4433SOL     OW14197   1.037   0.333   4.246
 4433SOL    HW114198   1.068   0.410   4.302
 4433SOL    HW214199   1.067   0.346   4.151
 4434SOL     OW14200   6.772   1.226   1.871
 4434SOL    HW114201   6.825   1.142   1.887
 4434SOL    HW214202   6.756   1.271   1.959
 4435SOL     OW14203   2.740   4.693   1.127
 4435SOL    HW114204   2.670   4.650   1.184
 4435SOL    HW214205   2.772   4.627   1.059
 4436SOL     OW14206   4.687   2.041   1.815
 4436SOL    HW114207   4.675   2.128   1.863
 4436SOL    HW214208   4.600   2.015   1.772
 4437SOL     OW14209   6.552   4.798   0.001
 4437SOL    HW114210   6.624   4.836   6.966
 4437SOL    HW214211   6.467   4.792   6.973
 4438SOL     OW14212   4.467   1.281   4.400
 4438SOL    HW114213   4.387   1.289   4.460
 4438SOL    HW214214   4.514   1.195   4.419
 4439SOL     OW14215   2.509   5.080   2.180
 4439SOL    HW114216   2.488   5.171   2.144
 4439SOL    HW214217   2.601   5.081   2.219
 4440SOL     OW14218   2.008   5.526   5.684
 4440SOL    HW114219   1.989   5.428   5.681
 4440SOL    HW214220   2.107   5.540   5.685
 4441SOL     OW14221   6.855   1.327   1.403
 4441SOL    HW114222   6.929   1.287   1.350
 4441SOL    HW214223   6.880   1.326   1.500
 4442SOL     OW14224   1.803   5.010   1.066
 4442SOL    HW114225   1.899   4.985   1.080
 4442SOL    HW214226   1.760   4.942   1.007
 4443SOL     OW14227   1.356   5.735   5.522
 4443SOL    HW114228   1.431   5.686   5.476
 4443SOL    HW214229   1.283   5.670   5.543
 4444SOL     OW14230   5.220   6.128   6.935
 4444SOL    HW114231   5.310   6.088   6.952
 4444SOL    HW214232   5.150   6.074   6.982
 4445SOL     OW14233   2.207   3.634   0.268
 4445SOL    HW114234   2.141   3.693   0.314
 4445SOL    HW214235   2.259   3.583   0.337
 4446SOL     OW14236   4.802   2.060   2.182
 4446SOL    HW114237   4.880   2.088   2.238
 4446SOL    HW214238   4.718   2.069   2.235
 4447SOL     OW14239   4.829   5.710   5.410
 4447SOL    HW114240   4.923   5.676   5.406
 4447SOL    HW214241   4.828   5.809   5.394
 4448SOL     OW14242   3.018   6.469   2.314
 4448SOL    HW114243   2.933   6.497   2.269
 4448SOL    HW214244   3.015   6.371   2.332
 4449SOL     OW14245   4.240   1.718   5.351
 4449SOL    HW114246   4.243   1.733   5.450
 4449SOL    HW214247   4.157   1.666   5.328
 4450SOL     OW14248   1.954   5.797   0.532
 4450SOL    HW114249   1.961   5.709   0.485
 4450SOL    HW214250   1.875   5.796   0.593
 4451SOL     OW14251   4.781   5.971   3.875
 4451SOL    HW114252   4.727   6.051   3.849
 4451SOL    HW214253   4.848   5.951   3.803
 4452SOL     OW14254   5.085   4.370   3.748
 4452SOL    HW114255   5.120   4.441   3.688
 4452SOL    HW214256   5.063   4.288   3.695
 4453SOL     OW14257   0.464   5.179   1.456
 4453SOL    HW114258   0.458   5.155   1.359
 4453SOL    HW214259   0.394   5.245   1.479
 4454SOL     OW14260   0.705   1.769   0.257
 4454SOL    HW114261   0.719   1.681   0.211
 4454SOL    HW214262   0.648   1.828   0.200
 4455SOL     OW14263   1.273   0.535   3.885
 4455SOL    HW114264   1.192   0.477   3.887
 4455SOL    HW214265   1.303   0.554   3.978
 4456SOL     OW14266   1.525   5.881   4.154
 4456SOL    HW114267   1.456   5.919   4.092
 4456SOL    HW214268   1.499   5.902   4.248
 4457SOL     OW14269   1.514   1.740   4.611
 4457SOL    HW114270   1.522   1.682   4.530
 4457SOL    HW214271   1.461   1.822   4.588
 4458SOL     OW14272   1.983   2.285   6.078
 4458SOL    HW114273   2.068   2.336   6.094
 4458SOL    HW214274   1.950   2.303   5.986
 4459SOL     OW14275   0.529   4.116   2.871
 4459SOL    HW114276   0.502   4.106   2.967
 4459SOL    HW214277   0.609   4.175   2.865
 4460SOL     OW14278   6.613   3.100   4.964
 4460SOL    HW114279   6.702   3.137   4.939
 4460SOL    HW214280   6.555   3.172   5.000
 4461SOL     OW14281   1.928   0.332   0.823
 4461SOL    HW114282   1.991   0.298   0.893
 4461SOL    HW214283   1.980   0.355   0.740
 4462SOL     OW14284   6.699   4.170   2.332
 4462SOL    HW114285   6.682   4.080   2.291
 4462SOL    HW214286   6.711   4.238   2.260
 4463SOL     OW14287   5.761   1.806   6.916
 4463SOL    HW114288   5.827   1.770   6.981
 4463SOL    HW214289   5.809   1.854   6.843
 4464SOL     OW14290   0.392   3.715   1.153
 4464SOL    HW114291   0.468   3.682   1.209
 4464SOL    HW214292   0.339   3.636   1.119
 4465SOL     OW14293   4.555   4.962   1.864
 4465SOL    HW114294   4.607   4.878   1.851
 4465SOL    HW214295   4.457   4.942   1.857
 4466SOL     OW14296   0.378   3.114   2.924
 4466SOL    HW114297   0.468   3.075   2.906
 4466SOL    HW214298   0.366   3.198   2.872
 4467SOL     OW14299   5.218   4.690   1.497
 4467SOL    HW114300   5.145   4.624   1.510
 4467SOL    HW214301   5.201   4.771   1.553
 4468SOL     OW14302   1.732   2.990   0.409
 4468SOL    HW114303   1.756   3.073   0.360
 4468SOL    HW214304   1.638   2.964   0.386
 4469SOL     OW14305   1.932   6.041   1.623
 4469SOL    HW114306   2.014   5.985   1.610
 4469SOL    HW214307   1.867   6.023   1.549
 4470SOL     OW14308   1.011   6.936   2.724
 4470SOL    HW114309   0.936   6.872   2.741
 4470SOL    HW214310   1.028   6.942   2.626
 4471SOL     OW14311   1.021   0.704   6.868
 4471SOL    HW114312   1.028   0.715   6.768
 4471SOL    HW214313   0.954   0.770   6.903
 4472SOL     OW14314   1.419   2.512   0.758
 4472SOL    HW114315   1.331   2.540   0.718
 4472SOL    HW214316   1.482   2.488   0.684
 4473SOL     OW14317   0.581   2.507   5.080
 4473SOL    HW114318   0.572   2.486   4.983
 4473SOL    HW214319   0.571   2.605   5.094
 4474SOL     OW14320   2.537   6.376   1.031
 4474SOL    HW114321   2.550   6.277   1.030
 4474SOL    HW214322   2.497   6.403   1.119
 4475SOL     OW14323   0.836   3.561   0.598
 4475SOL    HW114324   0.935   3.555   0.590
 4475SOL    HW214325   0.799   3.619   0.525
 4476SOL     OW14326   5.126   0.289   3.756
 4476SOL    HW114327   5.026   0.284   3.747
 4476SOL    HW214328   5.149   0.345   3.835
 4477SOL     OW14329   0.077   1.465   4.038
 4477SOL    HW114330   0.033   1.509   4.116
 4477SOL    HW214331   0.131   1.533   3.988
 4478SOL     OW14332   1.358   0.796   2.278
 4478SOL    HW114333   1.436   0.823   2.334
 4478SOL    HW214334   1.315   0.715   2.318
 4479SOL     OW14335   2.498   2.587   0.212
 4479SOL    HW114336   2.566   2.614   0.143
 4479SOL    HW214337   2.408   2.621   0.186
 4480SOL     OW14338   6.830   6.666   2.993
 4480SOL    HW114339   6.929   6.683   3.003
 4480SOL    HW214340   6.813   6.568   2.987
 4481SOL     OW14341   2.297   4.007   5.774
 4481SOL    HW114342   2.236   3.942   5.820
 4481SOL    HW214343   2.358   3.958   5.712
 4482SOL     OW14344   2.862   0.236   1.248
 4482SOL    HW114345   2.847   0.148   1.294
 4482SOL    HW214346   2.958   0.246   1.225
 4483SOL     OW14347   0.762   3.307   1.223
 4483SOL    HW114348   0.700   3.369   1.272
 4483SOL    HW214349   0.750   3.320   1.124
 4484SOL     OW14350   3.550   0.886   0.638
 4484SOL    HW114351   3.626   0.938   0.676
 4484SOL    HW214352   3.569   0.788   0.645
 4485SOL     OW14353   0.384   3.193   5.079
 4485SOL    HW114354   0.304   3.170   5.135
 4485SOL    HW214355   0.435   3.266   5.123
 4486SOL     OW14356   5.220   4.550   3.537
 4486SOL    HW114357   5.268   4.599   3.465
 4486SOL    HW214358   5.136   4.511   3.501
 4487SOL     OW14359   0.688   2.529   6.451
 4487SOL    HW114360   0.784   2.522   6.421
 4487SOL    HW214361   0.654   2.439   6.474
 4488SOL     OW14362   5.745   4.436   3.948
 4488SOL    HW114363   5.741   4.535   3.962
 4488SOL    HW214364   5.730   4.389   4.035
 4489SOL     OW14365   3.566   6.135   6.626
 4489SOL    HW114366   3.495   6.205   6.633
 4489SOL    HW214367   3.532   6.056   6.576
 4490SOL     OW14368   5.501   1.620   2.003
 4490SOL    HW114369   5.555   1.704   2.005
 4490SOL    HW214370   5.414   1.635   2.050
 4491SOL     OW14371   0.254   3.943   2.987
 4491SOL    HW114372   0.216   4.032   3.012
 4491SOL    HW214373   0.349   3.937   3.018
 4492SOL     OW14374   6.508   1.196   2.088
 4492SOL    HW114375   6.511   1.220   2.185
 4492SOL    HW214376   6.507   1.279   2.032
 4493SOL     OW14377   5.414   0.963   6.085
 4493SOL    HW114378   5.512   0.976   6.067
 4493SOL    HW214379   5.362   0.987   6.003
 4494SOL     OW14380   1.458   1.375   2.641
 4494SOL    HW114381   1.455   1.469   2.676
 4494SOL    HW214382   1.548   1.335   2.661
 4495SOL     OW14383   4.460   6.056   0.971
 4495SOL    HW114384   4.487   6.030   1.064
 4495SOL    HW214385   4.535   6.035   0.908
 4496SOL     OW14386   2.267   5.554   5.677
 4496SOL    HW114387   2.321   5.469   5.675
 4496SOL    HW214388   2.329   5.633   5.677
 4497SOL     OW14389   4.166   6.743   5.716
 4497SOL    HW114390   4.109   6.811   5.671
 4497SOL    HW214391   4.235   6.790   5.772
 4498SOL     OW14392   1.640   4.747   4.250
 4498SOL    HW114393   1.669   4.827   4.197
 4498SOL    HW214394   1.559   4.706   4.208
 4499SOL     OW14395   5.573   2.128   2.058
 4499SOL    HW114396   5.606   2.083   2.141
 4499SOL    HW214397   5.595   2.225   2.062
 4500SOL     OW14398   3.515   6.464   6.725
 4500SOL    HW114399   3.569   6.425   6.800
 4500SOL    HW214400   3.429   6.414   6.716
 4501SOL     OW14401   6.636   0.006   2.806
 4501SOL    HW114402   6.589   0.090   2.778
 4501SOL    HW214403   6.598   6.999   2.893
 4502SOL     OW14404   1.092   4.151   0.122
 4502SOL    HW114405   1.005   4.103   0.113
 4502SOL    HW214406   1.143   4.144   0.037
 4503SOL     OW14407   3.571   1.138   2.611
 4503SOL    HW114408   3.593   1.097   2.522
 4503SOL    HW214409   3.568   1.238   2.602
 4504SOL     OW14410   1.700   2.600   3.930
 4504SOL    HW114411   1.718   2.551   4.015
 4504SOL    HW214412   1.622   2.558   3.884
 4505SOL     OW14413   6.711   3.034   3.540
 4505SOL    HW114414   6.793   3.075   3.501
 4505SOL    HW214415   6.733   2.943   3.576
 4506SOL     OW14416   4.012   3.880   0.316
 4506SOL    HW114417   4.035   3.840   0.404
 4506SOL    HW214418   3.944   3.824   0.270
 4507SOL     OW14419   6.048   2.299   3.003
 4507SOL    HW114420   5.998   2.216   3.026
 4507SOL    HW214421   5.993   2.379   3.029
 4508SOL     OW14422   6.022   5.047   0.456
 4508SOL    HW114423   6.070   5.086   0.534
 4508SOL    HW214424   6.075   4.971   0.417
 4509SOL     OW14425   4.687   2.298   2.511
 4509SOL    HW114426   4.627   2.329   2.584
 4509SOL    HW214427   4.674   2.356   2.430
 4510SOL     OW14428   4.790   1.822   3.695
 4510SOL    HW114429   4.831   1.756   3.632
 4510SOL    HW214430   4.841   1.822   3.781
 4511SOL     OW14431   0.819   4.591   6.720
 4511SOL    HW114432   0.799   4.656   6.647
 4511SOL    HW214433   0.822   4.639   6.808
 4512SOL     OW14434   2.825   3.470   5.751
 4512SOL    HW114435   2.740   3.434   5.790
 4512SOL    HW214436   2.806   3.509   5.660
 4513SOL     OW14437   0.612   1.293   1.409
 4513SOL    HW114438   0.611   1.271   1.507
 4513SOL    HW214439   0.551   1.231   1.360
 4514SOL     OW14440   4.654   4.480   6.588
 4514SOL    HW114441   4.567   4.489   6.637
 4514SOL    HW214442   4.726   4.458   6.653
 4515SOL     OW14443   4.362   6.864   5.891
 4515SOL    HW114444   4.461   6.878   5.885
 4515SOL    HW214445   4.316   6.952   5.877
 4516SOL     OW14446   3.111   1.745   4.977
 4516SOL    HW114447   3.057   1.757   5.061
 4516SOL    HW214448   3.108   1.829   4.923
 4517SOL     OW14449   3.681   0.700   4.012
 4517SOL    HW114450   3.710   0.696   4.107
 4517SOL    HW214451   3.724   0.778   3.967
 4518SOL     OW14452   0.230   0.193   0.914
 4518SOL    HW114453   0.281   0.108   0.901
 4518SOL    HW214454   0.133   0.176   0.893
 4519SOL     OW14455   5.222   0.359   6.662
 4519SOL    HW114456   5.321   0.344   6.656
 4519SOL    HW214457   5.175   0.275   6.634
 4520SOL     OW14458   4.519   5.179   5.141
 4520SOL    HW114459   4.531   5.104   5.076
 4520SOL    HW214460   4.606   5.228   5.151
 4521SOL     OW14461   4.597   2.671   4.004
 4521SOL    HW114462   4.537   2.693   4.082
 4521SOL    HW214463   4.656   2.749   3.985
 4522SOL     OW14464   5.538   3.970   3.407
 4522SOL    HW114465   5.634   3.941   3.410
 4522SOL    HW214466   5.483   3.899   3.364
 4523SOL     OW14467   0.268   2.726   6.454
 4523SOL    HW114468   0.366   2.748   6.446
 4523SOL    HW214469   0.222   2.798   6.506
 4524SOL     OW14470   2.094   3.757   1.745
 4524SOL    HW114471   2.045   3.814   1.811
 4524SOL    HW214472   2.180   3.801   1.720
 4525SOL     OW14473   3.665   1.491   6.074
 4525SOL    HW114474   3.660   1.396   6.105
 4525SOL    HW214475   3.629   1.552   6.144
 4526SOL     OW14476   1.277   0.034   5.358
 4526SOL    HW114477   1.349   0.041   5.289
 4526SOL    HW214478   1.197   7.013   5.319
 4527SOL     OW14479   0.790   2.463   2.697
 4527SOL    HW114480   0.795   2.517   2.613
 4527SOL    HW214481   0.882   2.447   2.733
 4528SOL     OW14482   5.560   2.028   4.860
 4528SOL    HW114483   5.562   1.928   4.855
 4528SOL    HW214484   5.493   2.064   4.795
 4529SOL     OW14485   1.763   2.240   3.930
 4529SOL    HW114486   1.822   2.161   3.915
 4529SOL    HW214487   1.717   2.264   3.844
 4530SOL     OW14488   3.992   4.827   5.846
 4530SOL    HW114489   4.092   4.819   5.845
 4530SOL    HW214490   3.966   4.920   5.871
 4531SOL     OW14491   1.372   6.776   5.236
 4531SOL    HW114492   1.450   6.830   5.204
 4531SOL    HW214493   1.380   6.761   5.335
 4532SOL     OW14494   5.462   1.137   1.992
 4532SOL    HW114495   5.495   1.220   2.036
 4532SOL    HW214496   5.363   1.131   2.002
 4533SOL     OW14497   3.167   6.135   1.166
 4533SOL    HW114498   3.131   6.058   1.219
 4533SOL    HW214499   3.104   6.212   1.173
 4534SOL     OW14500   5.685   1.227   4.710
 4534SOL    HW114501   5.662   1.176   4.627
 4534SOL    HW214502   5.778   1.204   4.739
 4535SOL     OW14503   1.444   0.589   0.297
 4535SOL    HW114504   1.503   0.642   0.358
 4535SOL    HW214505   1.499   0.530   0.239
 4536SOL     OW14506   3.624   0.790   5.557
 4536SOL    HW114507   3.668   0.850   5.624
 4536SOL    HW214508   3.581   0.845   5.486
 4537SOL     OW14509   3.386   3.792   3.675
 4537SOL    HW114510   3.387   3.891   3.690
 4537SOL    HW214511   3.294   3.757   3.689
 4538SOL     OW14512   1.211   3.134   0.401
 4538SOL    HW114513   1.228   3.207   0.335
 4538SOL    HW214514   1.184   3.174   0.489
 4539SOL     OW14515   0.955   4.789   4.414
 4539SOL    HW114516   0.871   4.814   4.368
 4539SOL    HW214517   0.989   4.866   4.468
 4540SOL     OW14518   1.886   1.792   0.366
 4540SOL    HW114519   1.968   1.849   0.364
 4540SOL    HW214520   1.883   1.736   0.284
 4541SOL     OW14521   3.905   3.100   0.060
 4541SOL    HW114522   3.829   3.076   7.023
 4541SOL    HW214523   3.992   3.073   0.017
 4542SOL     OW14524   6.825   1.583   0.657
 4542SOL    HW114525   6.890   1.644   0.702
 4542SOL    HW214526   6.737   1.588   0.703
 4543SOL     OW14527   4.650   1.226   1.186
 4543SOL    HW114528   4.684   1.131   1.186
 4543SOL    HW214529   4.551   1.226   1.201
 4544SOL     OW14530   5.153   5.894   0.280
 4544SOL    HW114531   5.133   5.930   0.189
 4544SOL    HW214532   5.220   5.953   0.324
 4545SOL     OW14533   3.167   3.389   5.284
 4545SOL    HW114534   3.233   3.461   5.307
 4545SOL    HW214535   3.094   3.389   5.352
 4546SOL     OW14536   4.606   6.958   5.852
 4546SOL    HW114537   4.619   6.988   5.757
 4546SOL    HW214538   4.695   6.940   5.893
 4547SOL     OW14539   6.895   1.071   0.213
 4547SOL    HW114540   6.906   1.169   0.230
 4547SOL    HW214541   6.798   1.050   0.200
 4548SOL     OW14542   3.182   1.399   1.902
 4548SOL    HW114543   3.181   1.499   1.904
 4548SOL    HW214544   3.110   1.365   1.843
 4549SOL     OW14545   6.636   4.851   4.014
 4549SOL    HW114546   6.615   4.846   3.917
 4549SOL    HW214547   6.649   4.946   4.041
 4550SOL     OW14548   2.585   5.219   6.662
 4550SOL    HW114549   2.496   5.174   6.664
 4550SOL    HW214550   2.656   5.153   6.639
 4551SOL     OW14551   3.648   3.015   5.880
 4551SOL    HW114552   3.742   3.041   5.901
 4551SOL    HW214553   3.632   2.920   5.909
 4552SOL     OW14554   4.991   0.670   6.890
 4552SOL    HW114555   5.003   0.649   6.987
 4552SOL    HW214556   4.942   0.596   6.845
 4553SOL     OW14557   0.013   6.939   0.642
 4553SOL    HW114558   0.053   6.924   0.552
 4553SOL    HW214559   0.011   6.852   0.692
 4554SOL     OW14560   5.325   6.489   2.758
 4554SOL    HW114561   5.336   6.393   2.730
 4554SOL    HW214562   5.252   6.495   2.826
 4555SOL     OW14563   0.629   0.470   2.918
 4555SOL    HW114564   0.723   0.464   2.950
 4555SOL    HW214565   0.573   0.399   2.961
 4556SOL     OW14566   5.137   4.577   4.655
 4556SOL    HW114567   5.111   4.592   4.750
 4556SOL    HW214568   5.180   4.660   4.619
 4557SOL     OW14569   7.020   5.541   4.960
 4557SOL    HW114570   0.049   5.461   4.933
 4557SOL    HW214571   7.003   5.538   5.059
 4558SOL     OW14572   0.919   4.587   3.866
 4558SOL    HW114573   0.910   4.684   3.887
 4558SOL    HW214574   0.967   4.541   3.940
 4559SOL     OW14575   0.328   3.585   4.430
 4559SOL    HW114576   0.383   3.521   4.483
 4559SOL    HW214577   0.378   3.611   4.347
 4560SOL     OW14578   6.351   4.354   3.231
 4560SOL    HW114579   6.366   4.451   3.213
 4560SOL    HW214580   6.439   4.310   3.249
 4561SOL     OW14581   4.943   3.072   4.082
 4561SOL    HW114582   5.034   3.032   4.090
 4561SOL    HW214583   4.917   3.114   4.169
 4562SOL     OW14584   4.931   1.156   1.390
 4562SOL    HW114585   4.851   1.129   1.444
 4562SOL    HW214586   4.940   1.256   1.390
 4563SOL     OW14587   0.734   3.928   1.784
 4563SOL    HW114588   0.781   3.980   1.855
 4563SOL    HW214589   0.746   3.974   1.695
 4564SOL     OW14590   2.114   3.721   2.150
 4564SOL    HW114591   2.174   3.650   2.113
 4564SOL    HW214592   2.022   3.685   2.162
 4565SOL     OW14593   2.166   6.794   4.911
 4565SOL    HW114594   2.242   6.733   4.891
 4565SOL    HW214595   2.188   6.887   4.879
 4566SOL     OW14596   6.864   4.987   3.296
 4566SOL    HW114597   6.889   4.944   3.382
 4566SOL    HW214598   6.909   5.076   3.288
 4567SOL     OW14599   0.945   6.998   0.586
 4567SOL    HW114600   0.918   6.995   0.682
 4567SOL    HW214601   1.033   6.951   0.575
 4568SOL     OW14602   0.294   4.378   3.773
 4568SOL    HW114603   0.386   4.377   3.735
 4568SOL    HW214604   0.248   4.292   3.750
 4569SOL     OW14605   0.757   2.567   3.792
 4569SOL    HW114606   0.683   2.609   3.739
 4569SOL    HW214607   0.808   2.638   3.840
 4570SOL     OW14608   4.961   6.218   1.184
 4570SOL    HW114609   4.984   6.315   1.179
 4570SOL    HW214610   4.922   6.188   1.098
 4571SOL     OW14611   2.002   2.795   5.224
 4571SOL    HW114612   1.920   2.740   5.241
 4571SOL    HW214613   2.012   2.863   5.296
 4572SOL     OW14614   4.380   3.063   1.743
 4572SOL    HW114615   4.359   3.161   1.749
 4572SOL    HW214616   4.462   3.044   1.797
 4573SOL     OW14617   2.139   5.243   0.931
 4573SOL    HW114618   2.219   5.258   0.874
 4573SOL    HW214619   2.115   5.145   0.930
 4574SOL     OW14620   5.154   0.480   1.640
 4574SOL    HW114621   5.249   0.504   1.659
 4574SOL    HW214622   5.093   0.536   1.697
 4575SOL     OW14623   0.097   1.815   5.126
 4575SOL    HW114624   0.090   1.858   5.036
 4575SOL    HW214625   0.083   1.716   5.117
 4576SOL     OW14626   3.074   3.925   6.987
 4576SOL    HW114627   3.026   3.942   6.900
 4576SOL    HW214628   3.170   3.905   6.969
 4577SOL     OW14629   0.769   1.768   1.910
 4577SOL    HW114630   0.690   1.825   1.932
 4577SOL    HW214631   0.853   1.818   1.930
 4578SOL     OW14632   1.533   0.656   3.068
 4578SOL    HW114633   1.449   0.603   3.076
 4578SOL    HW214634   1.582   0.655   3.155
 4579SOL     OW14635   4.635   1.135   2.868
 4579SOL    HW114636   4.687   1.113   2.786
 4579SOL    HW214637   4.537   1.129   2.848
 4580SOL     OW14638   0.673   0.431   1.818
 4580SOL    HW114639   0.582   0.432   1.777
 4580SOL    HW214640   0.740   0.401   1.750
 4581SOL     OW14641   2.936   0.875   1.487
 4581SOL    HW114642   2.847   0.866   1.443
 4581SOL    HW214643   3.008   0.854   1.421
 4582SOL     OW14644   5.906   0.554   4.433
 4582SOL    HW114645   5.924   0.492   4.357
 4582SOL    HW214646   5.970   0.534   4.507
 4583SOL     OW14647   2.102   6.482   6.880
 4583SOL    HW114648   2.162   6.468   6.800
 4583SOL    HW214649   2.011   6.507   6.848
 4584SOL     OW14650   0.218   1.284   4.491
 4584SOL    HW114651   0.187   1.254   4.400
 4584SOL    HW214652   0.280   1.362   4.481
 4585SOL     OW14653   0.935   3.007   2.982
 4585SOL    HW114654   0.980   2.935   3.036
 4585SOL    HW214655   0.912   2.971   2.891
 4586SOL     OW14656   0.044   5.283   5.854
 4586SOL    HW114657   0.044   5.335   5.939
 4586SOL    HW214658   0.010   5.191   5.871
 4587SOL     OW14659   4.417   3.356   5.851
 4587SOL    HW114660   4.369   3.419   5.911
 4587SOL    HW214661   4.513   3.347   5.880
 4588SOL     OW14662   2.383   4.243   6.551
 4588SOL    HW114663   2.411   4.147   6.542
 4588SOL    HW214664   2.421   4.281   6.634
 4589SOL     OW14665   5.077   6.157   2.135
 4589SOL    HW114666   5.008   6.085   2.149
 4589SOL    HW214667   5.115   6.149   2.043
 4590SOL     OW14668   2.417   4.918   1.987
 4590SOL    HW114669   2.445   4.983   2.059
 4590SOL    HW214670   2.365   4.843   2.029
 4591SOL     OW14671   2.113   1.267   4.790
 4591SOL    HW114672   2.019   1.295   4.809
 4591SOL    HW214673   2.151   1.325   4.718
 4592SOL     OW14674   2.621   2.495   3.187
 4592SOL    HW114675   2.608   2.400   3.217
 4592SOL    HW214676   2.689   2.539   3.247
 4593SOL     OW14677   1.719   5.976   4.644
 4593SOL    HW114678   1.818   5.991   4.653
 4593SOL    HW214679   1.701   5.878   4.637
 4594SOL     OW14680   1.089   6.106   3.857
 4594SOL    HW114681   1.014   6.155   3.813
 4594SOL    HW214682   1.054   6.027   3.907
 4595SOL     OW14683   5.780   1.951   6.673
 4595SOL    HW114684   5.702   1.994   6.718
 4595SOL    HW214685   5.748   1.890   6.600
 4596SOL     OW14686   0.882   1.738   2.691
 4596SOL    HW114687   0.847   1.644   2.681
 4596SOL    HW214688   0.805   1.799   2.709
 4597SOL     OW14689   2.223   5.518   0.726
 4597SOL    HW114690   2.164   5.505   0.647
 4597SOL    HW214691   2.175   5.573   0.795
 4598SOL     OW14692   0.315   2.731   0.127
 4598SOL    HW114693   0.415   2.730   0.130
 4598SOL    HW214694   0.280   2.638   0.138
 4599SOL     OW14695   3.002   6.504   3.239
 4599SOL    HW114696   3.047   6.543   3.320
 4599SOL    HW214697   2.903   6.520   3.246
 4600SOL     OW14698   0.867   6.432   5.816
 4600SOL    HW114699   0.878   6.345   5.768
 4600SOL    HW214700   0.866   6.416   5.915
 4601SOL     OW14701   1.273   0.965   5.202
 4601SOL    HW114702   1.248   1.049   5.153
 4601SOL    HW214703   1.362   0.978   5.246
 4602SOL     OW14704   3.966   0.538   6.507
 4602SOL    HW114705   4.013   0.627   6.517
 4602SOL    HW214706   4.015   0.469   6.560
 4603SOL     OW14707   4.184   6.732   0.889
 4603SOL    HW114708   4.265   6.774   0.930
 4603SOL    HW214709   4.102   6.765   0.936
 4604SOL     OW14710   0.828   6.214   3.370
 4604SOL    HW114711   0.843   6.310   3.343
 4604SOL    HW214712   0.860   6.201   3.463
 4605SOL     OW14713   4.333   1.311   2.137
 4605SOL    HW114714   4.273   1.374   2.088
 4605SOL    HW214715   4.332   1.222   2.093
 4606SOL     OW14716   6.684   6.874   4.504
 4606SOL    HW114717   6.715   6.956   4.551
 4606SOL    HW214718   6.673   6.894   4.407
 4607SOL     OW14719   2.978   1.991   1.224
 4607SOL    HW114720   2.990   1.903   1.179
 4607SOL    HW214721   2.888   1.995   1.268
 4608SOL     OW14722   0.586   2.123   5.435
 4608SOL    HW114723   0.649   2.050   5.408
 4608SOL    HW214724   0.620   2.166   5.519
 4609SOL     OW14725   6.204   5.164   6.195
 4609SOL    HW114726   6.228   5.186   6.289
 4609SOL    HW214727   6.272   5.100   6.158
 4610SOL     OW14728   5.280   4.280   6.472
 4610SOL    HW114729   5.315   4.196   6.513
 4610SOL    HW214730   5.183   4.291   6.494
 4611SOL     OW14731   0.218   0.535   6.676
 4611SOL    HW114732   0.182   0.518   6.584
 4611SOL    HW214733   0.209   0.453   6.732
 4612SOL     OW14734   2.007   0.802   2.681
 4612SOL    HW114735   1.993   0.900   2.667
 4612SOL    HW214736   2.103   0.779   2.665
 4613SOL     OW14737   1.286   5.020   3.345
 4613SOL    HW114738   1.326   5.043   3.433
 4613SOL    HW214739   1.204   4.965   3.359
 4614SOL     OW14740   0.045   4.696   3.035
 4614SOL    HW114741   0.112   4.721   3.105
 4614SOL    HW214742   0.082   4.716   2.945
 4615SOL     OW14743   1.128   4.673   6.998
 4615SOL    HW114744   1.206   4.652   0.033
 4615SOL    HW214745   1.161   4.695   6.905
 4616SOL     OW14746   1.767   4.009   6.271
 4616SOL    HW114747   1.671   3.984   6.274
 4616SOL    HW214748   1.776   4.106   6.251
 4617SOL     OW14749   0.505   4.283   4.138
 4617SOL    HW114750   0.488   4.380   4.121
 4617SOL    HW214751   0.562   4.246   4.065
 4618SOL     OW14752   1.933   4.332   5.293
 4618SOL    HW114753   1.976   4.243   5.308
 4618SOL    HW214754   1.992   4.387   5.234
 4619SOL     OW14755   4.230   5.757   6.716
 4619SOL    HW114756   4.159   5.750   6.647
 4619SOL    HW214757   4.319   5.772   6.672
 4620SOL     OW14758   1.429   4.392   1.536
 4620SOL    HW114759   1.525   4.415   1.553
 4620SOL    HW214760   1.370   4.451   1.591
 4621SOL     OW14761   2.862   0.361   2.972
 4621SOL    HW114762   2.833   0.338   2.880
 4621SOL    HW214763   2.812   0.442   3.003
 4622SOL     OW14764   6.120   0.250   0.261
 4622SOL    HW114765   6.211   0.289   0.273
 4622SOL    HW214766   6.052   0.323   0.260
 4623SOL     OW14767   3.030   4.924   2.679
 4623SOL    HW114768   2.948   4.904   2.626
 4623SOL    HW214769   3.039   4.858   2.753
 4624SOL     OW14770   5.364   1.844   0.776
 4624SOL    HW114771   5.454   1.823   0.815
 4624SOL    HW214772   5.354   1.943   0.767
 4625SOL     OW14773   0.557   6.294   2.114
 4625SOL    HW114774   0.650   6.330   2.107
 4625SOL    HW214775   0.560   6.199   2.143
 4626SOL     OW14776   4.023   3.755   2.141
 4626SOL    HW114777   4.061   3.666   2.167
 4626SOL    HW214778   4.035   3.820   2.217
 4627SOL     OW14779   5.986   6.886   4.419
 4627SOL    HW114780   5.919   6.941   4.370
 4627SOL    HW214781   6.006   6.928   4.507
 4628SOL     OW14782   6.839   4.596   2.933
 4628SOL    HW114783   6.836   4.581   2.834
 4628SOL    HW214784   6.922   4.646   2.956
 4629SOL     OW14785   1.169   5.063   1.029
 4629SOL    HW114786   1.086   5.042   0.977
 4629SOL    HW214787   1.249   5.032   0.979
 4630SOL     OW14788   1.932   3.676   1.317
 4630SOL    HW114789   1.992   3.721   1.383
 4630SOL    HW214790   1.985   3.609   1.265
 4631SOL     OW14791   6.556   1.972   2.581
 4631SOL    HW114792   6.492   2.049   2.575
 4631SOL    HW214793   6.514   1.897   2.631
 4632SOL     OW14794   3.033   4.894   3.773
 4632SOL    HW114795   3.000   4.837   3.698
 4632SOL    HW214796   2.956   4.923   3.829
 4633SOL     OW14797   5.452   2.836   4.139
 4633SOL    HW114798   5.379   2.865   4.202
 4633SOL    HW214799   5.445   2.887   4.054
 4634SOL     OW14800   3.887   2.989   5.217
 4634SOL    HW114801   3.970   2.974   5.272
 4634SOL    HW214802   3.820   2.918   5.238
 4635SOL     OW14803   4.091   0.051   2.591
 4635SOL    HW114804   4.168   0.029   2.532
 4635SOL    HW214805   4.014   0.081   2.536
 4636SOL     OW14806   1.533   5.362   6.722
 4636SOL    HW114807   1.464   5.423   6.760
 4636SOL    HW214808   1.599   5.416   6.669
 4637SOL     OW14809   1.919   2.497   3.359
 4637SOL    HW114810   1.988   2.518   3.429
 4637SOL    HW214811   1.957   2.433   3.292
 4638SOL     OW14812   4.389   4.332   6.999
 4638SOL    HW114813   4.301   4.360   0.014
 4638SOL    HW214814   4.441   4.280   0.044
 4639SOL     OW14815   4.453   2.019   1.690
 4639SOL    HW114816   4.402   2.042   1.606
 4639SOL    HW214817   4.395   1.963   1.749
 4640SOL     OW14818   0.161   2.745   0.742
 4640SOL    HW114819   0.114   2.728   0.829
 4640SOL    HW214820   0.260   2.741   0.757
 4641SOL     OW14821   1.301   6.038   4.708
 4641SOL    HW114822   1.346   6.053   4.796
 4641SOL    HW214823   1.295   5.939   4.691
 4642SOL     OW14824   6.089   1.352   6.328
 4642SOL    HW114825   6.076   1.304   6.415
 4642SOL    HW214826   6.132   1.289   6.262
 4643SOL     OW14827   0.632   2.102   6.771
 4643SOL    HW114828   0.712   2.154   6.743
 4643SOL    HW214829   0.656   2.005   6.780
 4644SOL     OW14830   1.182   1.398   1.256
 4644SOL    HW114831   1.214   1.411   1.350
 4644SOL    HW214832   1.116   1.323   1.253
 4645SOL     OW14833   5.597   2.240   5.833
 4645SOL    HW114834   5.509   2.286   5.842
 4645SOL    HW214835   5.656   2.267   5.909
 4646SOL     OW14836   1.481   4.189   2.353
 4646SOL    HW114837   1.508   4.113   2.411
 4646SOL    HW214838   1.407   4.240   2.397
 4647SOL     OW14839   2.036   5.900   2.685
 4647SOL    HW114840   2.106   5.891   2.614
 4647SOL    HW214841   2.078   5.936   2.768
 4648SOL     OW14842   2.547   0.822   4.286
 4648SOL    HW114843   2.566   0.731   4.249
 4648SOL    HW214844   2.450   0.843   4.276
 4649SOL     OW14845   4.825   2.852   0.573
 4649SOL    HW114846   4.888   2.831   0.649
 4649SOL    HW214847   4.859   2.931   0.523
 4650SOL     OW14848   3.522   5.303   0.435
 4650SOL    HW114849   3.561   5.353   0.358
 4650SOL    HW214850   3.504   5.208   0.408
 4651SOL     OW14851   1.103   3.763   0.205
 4651SOL    HW114852   1.135   3.730   0.293
 4651SOL    HW214853   1.180   3.794   0.150
 4652SOL     OW14854   0.442   0.158   5.599
 4652SOL    HW114855   0.492   0.222   5.541
 4652SOL    HW214856   0.463   0.176   5.695
 4653SOL     OW14857   0.485   6.441   0.899
 4653SOL    HW114858   0.425   6.361   0.913
 4653SOL    HW214859   0.429   6.523   0.888
 4654SOL     OW14860   0.692   1.417   5.361
 4654SOL    HW114861   0.595   1.407   5.339
 4654SOL    HW214862   0.710   1.376   5.450
 4655SOL     OW14863   5.641   5.129   3.173
 4655SOL    HW114864   5.651   5.038   3.132
 4655SOL    HW214865   5.719   5.146   3.234
 4656SOL     OW14866   5.709   0.565   1.683
 4656SOL    HW114867   5.779   0.632   1.709
 4656SOL    HW214868   5.743   0.509   1.607
 4657SOL     OW14869   3.765   1.741   2.621
 4657SOL    HW114870   3.699   1.695   2.562
 4657SOL    HW214871   3.723   1.760   2.710
 4658SOL     OW14872   1.334   1.657   0.241
 4658SOL    HW114873   1.367   1.671   0.334
 4658SOL    HW214874   1.292   1.741   0.207
 4659SOL     OW14875   2.192   4.861   0.550
 4659SOL    HW114876   2.212   4.957   0.531
 4659SOL    HW214877   2.200   4.844   0.649
 4660SOL     OW14878   0.013   5.087   4.468
 4660SOL    HW114879   0.105   5.093   4.430
 4660SOL    HW214880   0.018   5.076   4.567
 4661SOL     OW14881   1.062   0.685   5.964
 4661SOL    HW114882   1.130   0.727   5.904
 4661SOL    HW214883   1.109   0.638   6.039
 4662SOL     OW14884   2.938   0.616   6.142
 4662SOL    HW114885   3.015   0.626   6.079
 4662SOL    HW214886   2.903   0.522   6.137
 4663SOL     OW14887   0.672   0.935   1.525
 4663SOL    HW114888   0.572   0.930   1.525
 4663SOL    HW214889   0.706   0.918   1.432
 4664SOL     OW14890   5.766   6.275   4.609
 4664SOL    HW114891   5.820   6.212   4.553
 4664SOL    HW214892   5.791   6.264   4.705
 4665SOL     OW14893   0.104   0.950   2.847
 4665SOL    HW114894   0.126   0.908   2.936
 4665SOL    HW214895   0.030   0.898   2.804
 4666SOL     OW14896   1.797   2.288   6.268
 4666SOL    HW114897   1.878   2.292   6.210
 4666SOL    HW214898   1.716   2.271   6.212
 4667SOL     OW14899   6.583   2.907   1.274
 4667SOL    HW114900   6.547   2.971   1.206
 4667SOL    HW214901   6.579   2.950   1.365
 4668SOL     OW14902   4.741   1.446   6.095
 4668SOL    HW114903   4.722   1.529   6.147
 4668SOL    HW214904   4.778   1.470   6.005
 4669SOL     OW14905   5.399   0.029   6.106
 4669SOL    HW114906   5.407   0.006   6.203
 4669SOL    HW214907   5.383   0.127   6.096
 4670SOL     OW14908   0.607   3.259   0.106
 4670SOL    HW114909   0.685   3.238   0.165
 4670SOL    HW214910   0.595   3.359   0.102
 4671SOL     OW14911   6.542   2.154   1.852
 4671SOL    HW114912   6.550   2.084   1.924
 4671SOL    HW214913   6.540   2.244   1.894
 4672SOL     OW14914   3.578   3.219   0.773
 4672SOL    HW114915   3.543   3.192   0.863
 4672SOL    HW214916   3.528   3.168   0.702
 4673SOL     OW14917   5.235   0.989   1.017
 4673SOL    HW114918   5.157   1.034   1.061
 4673SOL    HW214919   5.217   0.891   1.010
 4674SOL     OW14920   1.099   3.496   0.662
 4674SOL    HW114921   1.102   3.536   0.754
 4674SOL    HW214922   1.139   3.405   0.664
 4675SOL     OW14923   1.733   5.922   0.670
 4675SOL    HW114924   1.791   5.986   0.620
 4675SOL    HW214925   1.653   5.970   0.706
 4676SOL     OW14926   1.335   5.755   4.728
 4676SOL    HW114927   1.332   5.732   4.630
 4676SOL    HW214928   1.293   5.681   4.781
 4677SOL     OW14929   4.484   6.733   6.848
 4677SOL    HW114930   4.516   6.814   6.897
 4677SOL    HW214931   4.546   6.657   6.866
 4678SOL     OW14932   2.626   4.703   0.292
 4678SOL    HW114933   2.602   4.737   0.201
 4678SOL    HW214934   2.642   4.781   0.353
 4679SOL     OW14935   2.146   6.733   5.197
 4679SOL    HW114936   2.237   6.739   5.239
 4679SOL    HW214937   2.155   6.744   5.098
 4680SOL     OW14938   0.964   5.244   6.207
 4680SOL    HW114939   0.984   5.282   6.297
 4680SOL    HW214940   1.011   5.157   6.195
 4681SOL     OW14941   6.854   5.668   5.155
 4681SOL    HW114942   6.828   5.715   5.239
 4681SOL    HW214943   6.804   5.582   5.148
 4682SOL     OW14944   3.359   0.470   1.028
 4682SOL    HW114945   3.419   0.538   1.070
 4682SOL    HW214946   3.334   0.500   0.936
 4683SOL     OW14947   0.487   4.843   3.763
 4683SOL    HW114948   0.466   4.755   3.720
 4683SOL    HW214949   0.436   4.851   3.849
 4684SOL     OW14950   1.863   1.388   4.845
 4684SOL    HW114951   1.767   1.416   4.840
 4684SOL    HW214952   1.921   1.469   4.845
 4685SOL     OW14953   5.405   3.890   3.987
 4685SOL    HW114954   5.451   3.971   4.022
 4685SOL    HW214955   5.319   3.917   3.943
 4686SOL     OW14956   5.078   5.267   6.432
 4686SOL    HW114957   5.107   5.320   6.511
 4686SOL    HW214958   5.027   5.326   6.369
 4687SOL     OW14959   4.595   0.295   4.581
 4687SOL    HW114960   4.614   0.393   4.583
 4687SOL    HW214961   4.513   0.277   4.526
 4688SOL     OW14962   6.902   1.102   0.699
 4688SOL    HW114963   6.969   1.035   0.667
 4688SOL    HW214964   6.858   1.069   0.782
 4689SOL     OW14965   1.941   5.821   3.939
 4689SOL    HW114966   1.921   5.729   3.905
 4689SOL    HW214967   1.890   5.836   4.024
 4690SOL     OW14968   2.361   1.483   0.668
 4690SOL    HW114969   2.334   1.388   0.686
 4690SOL    HW214970   2.288   1.528   0.617
 4691SOL     OW14971   3.085   4.443   6.985
 4691SOL    HW114972   3.151   4.424   6.912
 4691SOL    HW214973   3.097   4.537   7.017
 4692SOL     OW14974   1.221   5.102   3.779
 4692SOL    HW114975   1.191   5.008   3.791
 4692SOL    HW214976   1.141   5.163   3.783
 4693SOL     OW14977   0.696   1.678   2.285
 4693SOL    HW114978   0.793   1.704   2.279
 4693SOL    HW214979   0.674   1.612   2.213
 4694SOL     OW14980   1.267   1.133   4.968
 4694SOL    HW114981   1.359   1.101   4.947
 4694SOL    HW214982   1.273   1.212   5.030
 4695SOL     OW14983   3.349   3.802   3.296
 4695SOL    HW114984   3.273   3.827   3.354
 4695SOL    HW214985   3.370   3.877   3.233
 4696SOL     OW14986   6.662   3.249   0.684
 4696SOL    HW114987   6.579   3.296   0.715
 4696SOL    HW214988   6.672   3.163   0.735
 4697SOL     OW14989   0.870   5.990   6.650
 4697SOL    HW114990   0.836   6.031   6.565
 4697SOL    HW214991   0.826   6.035   6.728
 4698SOL     OW14992   6.159   3.138   2.049
 4698SOL    HW114993   6.258   3.155   2.043
 4698SOL    HW214994   6.141   3.072   2.122
 4699SOL     OW14995   6.871   7.004   3.323
 4699SOL    HW114996   6.885   7.007   3.422
 4699SOL    HW214997   6.778   6.973   3.304
 4700SOL     OW14998   5.063   6.906   6.329
 4700SOL    HW114999   5.149   6.904   6.379
 4700SOL    HW215000   5.016   6.993   6.346
 4701SOL     OW15001   2.178   0.722   6.651
 4701SOL    HW115002   2.145   0.656   6.583
 4701SOL    HW215003   2.105   0.787   6.673
 4702SOL     OW15004   3.462   3.045   0.977
 4702SOL    HW115005   3.381   3.016   0.927
 4702SOL    HW215006   3.484   2.977   1.047
 4703SOL     OW15007   0.837   6.677   2.460
 4703SOL    HW115008   0.747   6.648   2.426
 4703SOL    HW215009   0.879   6.738   2.393
 4704SOL     OW15010   4.718   6.603   6.413
 4704SOL    HW115011   4.619   6.601   6.421
 4704SOL    HW215012   4.757   6.647   6.494
 4705SOL     OW15013   3.855   2.896   4.975
 4705SOL    HW115014   3.880   2.954   5.053
 4705SOL    HW215015   3.909   2.813   4.976
 4706SOL     OW15016   5.746   3.718   0.027
 4706SOL    HW115017   5.833   3.747   7.010
 4706SOL    HW215018   5.673   3.780   7.022
 4707SOL     OW15019   2.685   5.257   0.678
 4707SOL    HW115020   2.755   5.320   0.645
 4707SOL    HW215021   2.633   5.220   0.600
 4708SOL     OW15022   1.603   3.008   2.546
 4708SOL    HW115023   1.617   2.963   2.457
 4708SOL    HW215024   1.510   3.045   2.549
 4709SOL     OW15025   2.833   3.952   0.804
 4709SOL    HW115026   2.842   3.853   0.799
 4709SOL    HW215027   2.924   3.994   0.797
 4710SOL     OW15028   4.685   3.297   1.338
 4710SOL    HW115029   4.781   3.280   1.359
 4710SOL    HW215030   4.642   3.213   1.306
 4711SOL     OW15031   2.751   0.182   3.587
 4711SOL    HW115032   2.839   0.141   3.608
 4711SOL    HW215033   2.761   0.248   3.512
 4712SOL     OW15034   1.530   3.708   0.022
 4712SOL    HW115035   1.523   3.612   7.019
 4712SOL    HW215036   1.595   3.716   0.097
 4713SOL     OW15037   0.752   5.259   0.816
 4713SOL    HW115038   0.681   5.318   0.855
 4713SOL    HW215039   0.770   5.183   0.879
 4714SOL     OW15040   4.360   2.603   1.330
 4714SOL    HW115041   4.310   2.578   1.247
 4714SOL    HW215042   4.436   2.539   1.345
 4715SOL     OW15043   4.938   3.714   4.822
 4715SOL    HW115044   4.909   3.809   4.835
 4715SOL    HW215045   4.897   3.656   4.892
 4716SOL     OW15046   2.272   5.412   6.491
 4716SOL    HW115047   2.188   5.376   6.531
 4716SOL    HW215048   2.249   5.482   6.424
 4717SOL     OW15049   2.112   5.401   4.653
 4717SOL    HW115050   2.200   5.360   4.630
 4717SOL    HW215051   2.125   5.477   4.717
 4718SOL     OW15052   4.984   6.835   0.182
 4718SOL    HW115053   5.075   6.872   0.197
 4718SOL    HW215054   4.987   6.735   0.188
 4719SOL     OW15055   4.325   3.360   1.765
 4719SOL    HW115056   4.264   3.432   1.799
 4719SOL    HW215057   4.420   3.393   1.771
 4720SOL     OW15058   2.441   1.468   2.896
 4720SOL    HW115059   2.403   1.558   2.915
 4720SOL    HW215060   2.500   1.440   2.971
 4721SOL     OW15061   1.660   1.319   1.496
 4721SOL    HW115062   1.686   1.413   1.473
 4721SOL    HW215063   1.720   1.284   1.568
 4722SOL     OW15064   2.779   0.486   2.564
 4722SOL    HW115065   2.710   0.555   2.587
 4722SOL    HW215066   2.869   0.531   2.559
 4723SOL     OW15067   3.109   0.117   5.424
 4723SOL    HW115068   3.149   0.202   5.388
 4723SOL    HW215069   3.072   0.063   5.349
 4724SOL     OW15070   4.868   5.152   0.986
 4724SOL    HW115071   4.835   5.143   1.080
 4724SOL    HW215072   4.918   5.069   0.961
 4725SOL     OW15073   5.964   5.432   2.946
 4725SOL    HW115074   5.910   5.353   2.917
 4725SOL    HW215075   6.008   5.473   2.866
 4726SOL     OW15076   0.184   6.154   4.885
 4726SOL    HW115077   0.092   6.115   4.880
 4726SOL    HW215078   0.177   6.253   4.899
 4727SOL     OW15079   5.290   6.650   2.006
 4727SOL    HW115080   5.258   6.607   2.090
 4727SOL    HW215081   5.212   6.679   1.951
 4728SOL     OW15082   6.814   0.165   6.788
 4728SOL    HW115083   6.822   0.209   6.698
 4728SOL    HW215084   6.721   0.180   6.823
 4729SOL     OW15085   3.539   0.686   1.097
 4729SOL    HW115086   3.606   0.673   1.170
 4729SOL    HW215087   3.571   0.641   1.014
 4730SOL     OW15088   1.772   0.429   6.052
 4730SOL    HW115089   1.854   0.473   6.014
 4730SOL    HW215090   1.691   0.480   6.024
 4731SOL     OW15091   4.701   1.176   6.027
 4731SOL    HW115092   4.716   1.272   6.049
 4731SOL    HW215093   4.619   1.167   5.970
 4732SOL     OW15094   0.824   6.961   0.319
 4732SOL    HW115095   0.882   6.954   0.400
 4732SOL    HW215096   0.826   6.874   0.269
 4733SOL     OW15097   6.275   3.638   3.523
 4733SOL    HW115098   6.355   3.586   3.552
 4733SOL    HW215099   6.291   3.679   3.434
 4734SOL     OW15100   6.512   4.005   5.544
 4734SOL    HW115101   6.482   4.043   5.456
 4734SOL    HW215102   6.481   4.064   5.618
 4735SOL     OW15103   0.690   3.959   3.725
 4735SOL    HW115104   0.667   3.901   3.648
 4735SOL    HW215105   0.747   4.035   3.694
 4736SOL     OW15106   1.675   0.047   2.574
 4736SOL    HW115107   1.705   0.085   2.486
 4736SOL    HW215108   1.742   0.070   2.645
 4737SOL     OW15109   3.519   4.938   2.019
 4737SOL    HW115110   3.584   4.886   1.963
 4737SOL    HW215111   3.549   4.938   2.114
 4738SOL     OW15112   1.118   0.050   2.494
 4738SOL    HW115113   1.135   0.148   2.495
 4738SOL    HW215114   1.090   0.022   2.402
 4739SOL     OW15115   3.691   0.058   1.411
 4739SOL    HW115116   3.696   6.990   1.373
 4739SOL    HW215117   3.756   0.066   1.487
 4740SOL     OW15118   0.856   1.760   4.030
 4740SOL    HW115119   0.880   1.807   3.945
 4740SOL    HW215120   0.811   1.825   4.092
 4741SOL     OW15121   4.010   3.557   2.933
 4741SOL    HW115122   4.023   3.623   3.007
 4741SOL    HW215123   3.915   3.558   2.903
 4742SOL     OW15124   4.915   0.975   1.964
 4742SOL    HW115125   4.832   0.920   1.979
 4742SOL    HW215126   4.900   1.035   1.885
 4743SOL     OW15127   1.215   4.981   1.281
 4743SOL    HW115128   1.271   5.062   1.300
 4743SOL    HW215129   1.196   4.976   1.183
 4744SOL     OW15130   1.779   5.523   1.612
 4744SOL    HW115131   1.848   5.545   1.543
 4744SOL    HW215132   1.788   5.428   1.639
 4745SOL     OW15133   1.751   3.207   0.262
 4745SOL    HW115134   1.840   3.169   0.237
 4745SOL    HW215135   1.681   3.173   0.199
 4746SOL     OW15136   5.320   5.229   4.309
 4746SOL    HW115137   5.338   5.326   4.326
 4746SOL    HW215138   5.224   5.210   4.324
 4747SOL     OW15139   4.173   0.608   0.506
 4747SOL    HW115140   4.111   0.644   0.435
 4747SOL    HW215141   4.211   0.521   0.475
 4748SOL     OW15142   2.170   6.973   3.093
 4748SOL    HW115143   2.110   6.894   3.083
 4748SOL    HW215144   2.186   6.992   3.190
 4749SOL     OW15145   2.286   1.308   1.024
 4749SOL    HW115146   2.265   1.216   1.058
 4749SOL    HW215147   2.385   1.317   1.012
 4750SOL     OW15148   4.879   3.194   6.489
 4750SOL    HW115149   4.897   3.289   6.462
 4750SOL    HW215150   4.860   3.139   6.408
 4751SOL     OW15151   4.478   1.639   2.405
 4751SOL    HW115152   4.475   1.635   2.305
 4751SOL    HW215153   4.543   1.572   2.439
 4752SOL     OW15154   5.832   0.658   6.794
 4752SOL    HW115155   5.883   0.684   6.876
 4752SOL    HW215156   5.753   0.603   6.820
 4753SOL     OW15157   2.569   6.176   5.121
 4753SOL    HW115158   2.665   6.174   5.094
 4753SOL    HW215159   2.514   6.135   5.048
 4754SOL     OW15160   5.012   4.595   6.686
 4754SOL    HW115161   5.068   4.669   6.649
 4754SOL    HW215162   5.043   4.573   6.779
 4755SOL     OW15163   0.407   0.966   1.528
 4755SOL    HW115164   0.375   0.974   1.622
 4755SOL    HW215165   0.385   1.049   1.478
 4756SOL     OW15166   0.156   3.621   5.439
 4756SOL    HW115167   0.198   3.708   5.466
 4756SOL    HW215168   0.226   3.551   5.431
 4757SOL     OW15169   2.044   2.897   0.539
 4757SOL    HW115170   2.065   2.803   0.565
 4757SOL    HW215171   1.961   2.928   0.587
 4758SOL     OW15172   2.030   4.742   2.546
 4758SOL    HW115173   2.041   4.831   2.501
 4758SOL    HW215174   2.116   4.717   2.590
 4759SOL     OW15175   0.472   6.804   2.623
 4759SOL    HW115176   0.481   6.874   2.552
 4759SOL    HW215177   0.556   6.751   2.629
 4760SOL     OW15178   1.430   6.802   1.879
 4760SOL    HW115179   1.417   6.784   1.977
 4760SOL    HW215180   1.429   6.900   1.863
 4761SOL     OW15181   4.491   6.293   1.687
 4761SOL    HW115182   4.430   6.335   1.755
 4761SOL    HW215183   4.499   6.353   1.608
 4762SOL     OW15184   1.175   1.377   2.584
 4762SOL    HW115185   1.275   1.376   2.589
 4762SOL    HW215186   1.140   1.445   2.648
 4763SOL     OW15187   5.381   5.331   1.510
 4763SOL    HW115188   5.381   5.274   1.592
 4763SOL    HW215189   5.355   5.275   1.431
 4764SOL     OW15190   4.622   2.833   6.633
 4764SOL    HW115191   4.685   2.758   6.650
 4764SOL    HW215192   4.548   2.831   6.700
 4765SOL     OW15193   3.854   1.189   6.070
 4765SOL    HW115194   3.887   1.110   6.122
 4765SOL    HW215195   3.755   1.188   6.066
 4766SOL     OW15196   0.860   1.102   4.326
 4766SOL    HW115197   0.905   1.137   4.408
 4766SOL    HW215198   0.929   1.073   4.260
 4767SOL     OW15199   2.430   4.862   3.636
 4767SOL    HW115200   2.473   4.926   3.572
 4767SOL    HW215201   2.460   4.769   3.615
 4768SOL     OW15202   4.570   1.563   6.449
 4768SOL    HW115203   4.660   1.525   6.474
 4768SOL    HW215204   4.544   1.529   6.359
 4769SOL     OW15205   2.423   3.070   0.363
 4769SOL    HW115206   2.328   3.098   0.374
 4769SOL    HW215207   2.438   3.040   0.268
 4770SOL     OW15208   6.618   1.446   3.674
 4770SOL    HW115209   6.538   1.505   3.669
 4770SOL    HW215210   6.698   1.499   3.701
 4771SOL     OW15211   2.974   0.852   4.147
 4771SOL    HW115212   2.985   0.789   4.070
 4771SOL    HW215213   3.053   0.914   4.149
 4772SOL     OW15214   2.938   4.809   2.902
 4772SOL    HW115215   2.913   4.728   2.956
 4772SOL    HW215216   2.859   4.869   2.894
 4773SOL     OW15217   2.953   5.350   4.191
 4773SOL    HW115218   3.041   5.321   4.229
 4773SOL    HW215219   2.899   5.397   4.262
 4774SOL     OW15220   1.137   4.653   0.562
 4774SOL    HW115221   1.156   4.724   0.495
 4774SOL    HW215222   1.158   4.687   0.654
 4775SOL     OW15223   5.883   4.940   4.718
 4775SOL    HW115224   5.868   4.841   4.724
 4775SOL    HW215225   5.903   4.965   4.624
 4776SOL     OW15226   6.660   1.701   5.175
 4776SOL    HW115227   6.715   1.698   5.092
 4776SOL    HW215228   6.578   1.646   5.163
 4777SOL     OW15229   1.223   6.669   3.532
 4777SOL    HW115230   1.238   6.763   3.499
 4777SOL    HW215231   1.161   6.622   3.469
 4778SOL     OW15232   1.534   0.396   0.568
 4778SOL    HW115233   1.531   0.495   0.551
 4778SOL    HW215234   1.616   0.357   0.526
 4779SOL     OW15235   4.812   1.521   4.656
 4779SOL    HW115236   4.770   1.558   4.573
 4779SOL    HW215237   4.817   1.593   4.725
 4780SOL     OW15238   4.850   2.713   4.745
 4780SOL    HW115239   4.924   2.780   4.749
 4780SOL    HW215240   4.813   2.699   4.837
 4781SOL     OW15241   2.005   4.981   2.107
 4781SOL    HW115242   2.071   5.052   2.132
 4781SOL    HW215243   2.033   4.939   2.021
 4782SOL     OW15244   1.067   5.884   2.983
 4782SOL    HW115245   1.013   5.967   2.968
 4782SOL    HW215246   1.156   5.908   3.020
 4783SOL     OW15247   0.862   3.644   6.657
 4783SOL    HW115248   0.940   3.636   6.718
 4783SOL    HW215249   0.787   3.690   6.705
 4784SOL     OW15250   5.800   3.084   0.102
 4784SOL    HW115251   5.810   3.173   0.057
 4784SOL    HW215252   5.887   3.057   0.143
 4785SOL     OW15253   6.856   0.757   4.056
 4785SOL    HW115254   6.875   0.754   3.958
 4785SOL    HW215255   6.841   0.664   4.090
 4786SOL     OW15256   1.423   5.615   0.281
 4786SOL    HW115257   1.330   5.623   0.243
 4786SOL    HW215258   1.466   5.705   0.282
 4787SOL     OW15259   5.155   1.072   4.992
 4787SOL    HW115260   5.202   0.986   4.976
 4787SOL    HW215261   5.090   1.090   4.919
 4788SOL     OW15262   6.671   5.863   1.134
 4788SOL    HW115263   6.729   5.930   1.087
 4788SOL    HW215264   6.631   5.801   1.067
 4789SOL     OW15265   6.103   1.183   2.656
 4789SOL    HW115266   6.053   1.191   2.570
 4789SOL    HW215267   6.050   1.225   2.729
 4790SOL     OW15268   6.852   2.398   5.601
 4790SOL    HW115269   6.924   2.388   5.532
 4790SOL    HW215270   6.827   2.307   5.635
 4791SOL     OW15271   0.410   0.691   6.963
 4791SOL    HW115272   0.434   0.696   6.866
 4791SOL    HW215273   0.390   0.597   6.988
 4792SOL     OW15274   0.208   3.576   1.538
 4792SOL    HW115275   0.302   3.568   1.572
 4792SOL    HW215276   0.200   3.656   1.480
 4793SOL     OW15277   1.006   3.100   5.140
 4793SOL    HW115278   1.000   3.063   5.048
 4793SOL    HW215279   1.102   3.103   5.169
 4794SOL     OW15280   5.377   1.080   6.687
 4794SOL    HW115281   5.394   1.085   6.588
 4794SOL    HW215282   5.282   1.050   6.702
 4795SOL     OW15283   0.086   0.773   6.775
 4795SOL    HW115284   0.105   0.811   6.866
 4795SOL    HW215285   0.135   0.687   6.764
 4796SOL     OW15286   5.933   0.932   5.595
 4796SOL    HW115287   6.022   0.976   5.584
 4796SOL    HW215288   5.917   0.871   5.517
 4797SOL     OW15289   2.914   4.847   5.460
 4797SOL    HW115290   2.989   4.801   5.413
 4797SOL    HW215291   2.934   4.944   5.468
 4798SOL     OW15292   3.002   6.003   0.116
 4798SOL    HW115293   2.964   5.912   0.105
 4798SOL    HW215294   2.963   6.065   0.048
 4799SOL     OW15295   3.987   3.604   1.187
 4799SOL    HW115296   3.953   3.576   1.097
 4799SOL    HW215297   4.086   3.595   1.189
 4800SOL     OW15298   0.955   4.847   0.426
 4800SOL    HW115299   0.934   4.907   0.349
 4800SOL    HW215300   1.031   4.885   0.479
 4801SOL     OW15301   4.686   2.793   3.185
 4801SOL    HW115302   4.677   2.822   3.089
 4801SOL    HW215303   4.624   2.716   3.202
 4802SOL     OW15304   0.033   1.052   5.446
 4802SOL    HW115305   6.971   1.024   5.489
 4802SOL    HW215306   0.044   1.151   5.454
 4803SOL     OW15307   5.331   2.928   5.413
 4803SOL    HW115308   5.399   2.858   5.388
 4803SOL    HW215309   5.264   2.888   5.476
 4804SOL     OW15310   5.450   3.006   0.783
 4804SOL    HW115311   5.397   3.057   0.716
 4804SOL    HW215312   5.469   3.065   0.862
 4805SOL     OW15313   5.435   0.750   6.656
 4805SOL    HW115314   5.400   0.842   6.673
 4805SOL    HW215315   5.360   0.691   6.627
 4806SOL     OW15316   1.353   2.818   3.630
 4806SOL    HW115317   1.387   2.801   3.722
 4806SOL    HW215318   1.398   2.899   3.592
 4807SOL     OW15319   0.845   3.789   0.158
 4807SOL    HW115320   0.829   3.883   0.131
 4807SOL    HW215321   0.943   3.772   0.167
 4808SOL     OW15322   3.454   6.551   2.569
 4808SOL    HW115323   3.395   6.598   2.503
 4808SOL    HW215324   3.547   6.549   2.534
 4809SOL     OW15325   2.762   3.609   0.202
 4809SOL    HW115326   2.736   3.572   0.113
 4809SOL    HW215327   2.718   3.698   0.215
 4810SOL     OW15328   1.794   4.775   4.598
 4810SOL    HW115329   1.828   4.846   4.660
 4810SOL    HW215330   1.840   4.783   4.510
 4811SOL     OW15331   2.883   3.466   4.554
 4811SOL    HW115332   2.881   3.373   4.591
 4811SOL    HW215333   2.949   3.521   4.606
 4812SOL     OW15334   2.555   6.468   1.563
 4812SOL    HW115335   2.458   6.459   1.582
 4812SOL    HW215336   2.574   6.437   1.470
 4813SOL     OW15337   1.041   2.451   4.415
 4813SOL    HW115338   1.105   2.434   4.490
 4813SOL    HW215339   1.081   2.515   4.350
 4814SOL     OW15340   5.369   1.205   0.933
 4814SOL    HW115341   5.327   1.124   0.973
 4814SOL    HW215342   5.306   1.246   0.867
 4815SOL     OW15343   6.557   4.491   2.979
 4815SOL    HW115344   6.586   4.539   2.896
 4815SOL    HW215345   6.600   4.532   3.059
 4816SOL     OW15346   2.240   0.331   2.702
 4816SOL    HW115347   2.185   0.247   2.699
 4816SOL    HW215348   2.309   0.322   2.773
 4817SOL     OW15349   3.465   2.641   0.095
 4817SOL    HW115350   3.528   2.566   0.119
 4817SOL    HW215351   3.455   2.702   0.174
 4818SOL     OW15352   4.737   6.660   5.057
 4818SOL    HW115353   4.758   6.676   4.960
 4818SOL    HW215354   4.738   6.747   5.106
 4819SOL     OW15355   3.763   0.866   0.175
 4819SOL    HW115356   3.833   0.834   0.239
 4819SOL    HW215357   3.700   0.927   0.224
 4820SOL     OW15358   0.177   4.622   1.745
 4820SOL    HW115359   0.152   4.540   1.797
 4820SOL    HW215360   0.233   4.682   1.803
 4821SOL     OW15361   0.014   6.459   1.399
 4821SOL    HW115362   6.976   6.385   1.425
 4821SOL    HW215363   0.078   6.477   1.473
 4822SOL     OW15364   0.441   3.982   1.556
 4822SOL    HW115365   0.387   3.936   1.627
 4822SOL    HW215366   0.520   3.926   1.533
 4823SOL     OW15367   0.055   2.122   2.887
 4823SOL    HW115368   0.050   2.178   2.805
 4823SOL    HW215369   0.124   2.159   2.949
 4824SOL     OW15370   5.324   2.569   2.312
 4824SOL    HW115371   5.315   2.585   2.410
 4824SOL    HW215372   5.364   2.650   2.269
 4825SOL     OW15373   1.447   3.028   4.356
 4825SOL    HW115374   1.389   3.078   4.420
 4825SOL    HW215375   1.498   3.092   4.299
 4826SOL     OW15376   0.437   6.653   0.483
 4826SOL    HW115377   0.528   6.665   0.523
 4826SOL    HW215378   0.410   6.736   0.435
 4827SOL     OW15379   5.142   1.443   0.215
 4827SOL    HW115380   5.110   1.435   0.120
 4827SOL    HW215381   5.093   1.517   0.261
 4828SOL     OW15382   5.746   3.320   6.837
 4828SOL    HW115383   5.656   3.363   6.830
 4828SOL    HW215384   5.753   3.245   6.770
 4829SOL     OW15385   2.497   0.055   5.609
 4829SOL    HW115386   2.417   0.081   5.555
 4829SOL    HW215387   2.492   0.098   5.699
 4830SOL     OW15388   4.935   4.758   5.044
 4830SOL    HW115389   4.919   4.731   5.139
 4830SOL    HW215390   5.007   4.827   5.041
 4831SOL     OW15391   6.348   2.358   6.464
 4831SOL    HW115392   6.417   2.414   6.510
 4831SOL    HW215393   6.261   2.407   6.462
 4832SOL     OW15394   1.438   2.763   6.674
 4832SOL    HW115395   1.381   2.713   6.609
 4832SOL    HW215396   1.390   2.844   6.706
 4833SOL     OW15397   6.392   2.522   3.129
 4833SOL    HW115398   6.393   2.424   3.108
 4833SOL    HW215399   6.360   2.573   3.050
 4834SOL     OW15400   5.488   0.789   3.086
 4834SOL    HW115401   5.430   0.782   3.168
 4834SOL    HW215402   5.504   0.698   3.048
 4835SOL     OW15403   2.163   1.333   6.760
 4835SOL    HW115404   2.087   1.397   6.755
 4835SOL    HW215405   2.171   1.298   6.853
 4836SOL     OW15406   5.845   3.978   3.038
 4836SOL    HW115407   5.848   3.971   3.138
 4836SOL    HW215408   5.789   3.904   3.001
 4837SOL     OW15409   0.282   4.816   1.931
 4837SOL    HW115410   0.233   4.893   1.972
 4837SOL    HW215411   0.281   4.739   1.994
 4838SOL     OW15412   2.640   5.821   2.401
 4838SOL    HW115413   2.736   5.834   2.424
 4838SOL    HW215414   2.617   5.724   2.407
 4839SOL     OW15415   1.014   0.209   6.536
 4839SOL    HW115416   0.988   0.282   6.473
 4839SOL    HW215417   1.108   0.181   6.517
 4840SOL     OW15418   6.663   6.052   6.446
 4840SOL    HW115419   6.678   6.135   6.393
 4840SOL    HW215420   6.738   6.039   6.511
 4841SOL     OW15421   1.717   6.007   1.461
 4841SOL    HW115422   1.644   5.940   1.468
 4841SOL    HW215423   1.702   6.066   1.381
 4842SOL     OW15424   3.416   6.345   0.498
 4842SOL    HW115425   3.405   6.445   0.503
 4842SOL    HW215426   3.483   6.323   0.427
 4843SOL     OW15427   1.524   3.883   0.453
 4843SOL    HW115428   1.555   3.943   0.526
 4843SOL    HW215429   1.434   3.912   0.421
 4844SOL     OW15430   0.412   1.499   5.260
 4844SOL    HW115431   0.379   1.484   5.167
 4844SOL    HW215432   0.392   1.593   5.288
 4845SOL     OW15433   5.260   6.692   3.339
 4845SOL    HW115434   5.312   6.772   3.308
 4845SOL    HW215435   5.174   6.687   3.289
 4846SOL     OW15436   6.915   4.843   6.513
 4846SOL    HW115437   6.959   4.757   6.536
 4846SOL    HW215438   6.977   4.898   6.457
 4847SOL     OW15439   4.718   2.715   4.521
 4847SOL    HW115440   4.767   2.701   4.607
 4847SOL    HW215441   4.781   2.756   4.454
 4848SOL     OW15442   2.625   3.201   1.336
 4848SOL    HW115443   2.687   3.267   1.378
 4848SOL    HW215444   2.659   3.108   1.354
 4849SOL     OW15445   2.102   6.242   6.542
 4849SOL    HW115446   2.024   6.219   6.600
 4849SOL    HW215447   2.170   6.291   6.595
 4850SOL     OW15448   3.299   6.859   2.517
 4850SOL    HW115449   3.392   6.878   2.487
 4850SOL    HW215450   3.237   6.868   2.439
 4851SOL     OW15451   5.073   1.030   5.534
 4851SOL    HW115452   5.158   0.979   5.545
 4851SOL    HW215453   5.006   0.999   5.602
 4852SOL     OW15454   1.587   1.921   1.494
 4852SOL    HW115455   1.488   1.908   1.485
 4852SOL    HW215456   1.606   2.016   1.518
 4853SOL     OW15457   3.823   1.510   1.494
 4853SOL    HW115458   3.733   1.535   1.459
 4853SOL    HW215459   3.847   1.570   1.570
 4854SOL     OW15460   3.874   6.945   5.924
 4854SOL    HW115461   3.963   6.983   5.948
 4854SOL    HW215462   3.879   6.905   5.832
 4855SOL     OW15463   0.321   2.995   2.646
 4855SOL    HW115464   0.315   2.896   2.629
 4855SOL    HW215465   0.342   3.011   2.742
 4856SOL     OW15466   0.353   4.339   2.441
 4856SOL    HW115467   0.277   4.275   2.447
 4856SOL    HW215468   0.366   4.384   2.529
 4857SOL     OW15469   0.256   0.956   5.293
 4857SOL    HW115470   0.300   1.030   5.242
 4857SOL    HW215471   0.182   0.993   5.349
 4858SOL     OW15472   1.611   0.730   4.060
 4858SOL    HW115473   1.615   0.631   4.075
 4858SOL    HW215474   1.543   0.770   4.121
 4859SOL     OW15475   3.635   6.160   6.028
 4859SOL    HW115476   3.713   6.178   5.969
 4859SOL    HW215477   3.555   6.136   5.971
 4860SOL     OW15478   3.130   4.988   0.250
 4860SOL    HW115479   3.101   5.083   0.256
 4860SOL    HW215480   3.049   4.929   0.237
 4861SOL     OW15481   4.091   4.131   6.565
 4861SOL    HW115482   4.090   4.189   6.647
 4861SOL    HW215483   3.998   4.104   6.542
 4862SOL     OW15484   2.237   0.064   0.635
 4862SOL    HW115485   2.288   0.104   0.711
 4862SOL    HW215486   2.300   0.040   0.561
 4863SOL     OW15487   5.420   3.942   5.760
 4863SOL    HW115488   5.433   4.020   5.821
 4863SOL    HW215489   5.449   3.968   5.667
 4864SOL     OW15490   3.459   1.203   4.242
 4864SOL    HW115491   3.558   1.188   4.241
 4864SOL    HW215492   3.436   1.276   4.177
 4865SOL     OW15493   1.565   6.216   5.814
 4865SOL    HW115494   1.536   6.151   5.744
 4865SOL    HW215495   1.664   6.226   5.812
 4866SOL     OW15496   0.102   4.461   5.884
 4866SOL    HW115497   0.082   4.559   5.891
 4866SOL    HW215498   0.159   4.433   5.960
 4867SOL     OW15499   3.736   1.182   3.274
 4867SOL    HW115500   3.816   1.172   3.334
 4867SOL    HW215501   3.735   1.274   3.235
 4868SOL     OW15502   0.454   5.184   0.598
 4868SOL    HW115503   0.449   5.204   0.696
 4868SOL    HW215504   0.546   5.153   0.575
 4869SOL     OW15505   0.278   1.618   0.814
 4869SOL    HW115506   0.320   1.703   0.846
 4869SOL    HW215507   0.208   1.589   0.880
 4870SOL     OW15508   0.256   6.852   1.224
 4870SOL    HW115509   0.239   6.801   1.140
 4870SOL    HW215510   0.209   6.940   1.219
 4871SOL     OW15511   0.776   1.688   3.350
 4871SOL    HW115512   0.736   1.731   3.431
 4871SOL    HW215513   0.863   1.733   3.328
 4872SOL     OW15514   5.403   0.111   3.187
 4872SOL    HW115515   5.401   0.164   3.102
 4872SOL    HW215516   5.422   0.172   3.264
 4873SOL     OW15517   0.083   5.716   3.545
 4873SOL    HW115518   0.003   5.656   3.548
 4873SOL    HW215519   0.135   5.706   3.629
 4874SOL     OW15520   5.691   4.445   2.123
 4874SOL    HW115521   5.643   4.526   2.087
 4874SOL    HW215522   5.696   4.452   2.223
 4875SOL     OW15523   5.818   7.021   4.832
 4875SOL    HW115524   5.835   0.074   4.894
 4875SOL    HW215525   5.893   7.015   4.765
 4876SOL     OW15526   6.678   1.546   2.337
 4876SOL    HW115527   6.709   1.494   2.258
 4876SOL    HW215528   6.744   1.536   2.412
 4877SOL     OW15529   0.371   1.513   6.840
 4877SOL    HW115530   0.339   1.574   6.767
 4877SOL    HW215531   0.293   1.487   6.897
 4878SOL     OW15532   6.248   4.420   3.527
 4878SOL    HW115533   6.269   4.384   3.436
 4878SOL    HW215534   6.277   4.355   3.597
 4879SOL     OW15535   5.184   0.516   3.096
 4879SOL    HW115536   5.260   0.477   3.045
 4879SOL    HW215537   5.189   0.616   3.092
 4880SOL     OW15538   0.098   2.936   6.514
 4880SOL    HW115539   0.012   2.925   6.464
 4880SOL    HW215540   0.085   3.004   6.587
 4881SOL     OW15541   0.199   3.591   1.862
 4881SOL    HW115542   0.208   3.590   1.962
 4881SOL    HW215543   0.109   3.557   1.837
 4882SOL     OW15544   5.364   2.201   4.332
 4882SOL    HW115545   5.271   2.178   4.303
 4882SOL    HW215546   5.429   2.168   4.264
 4883SOL     OW15547   6.692   4.223   6.749
 4883SOL    HW115548   6.696   4.291   6.821
 4883SOL    HW215549   6.763   4.154   6.765
 4884SOL     OW15550   2.151   2.036   1.928
 4884SOL    HW115551   2.099   1.961   1.888
 4884SOL    HW215552   2.152   2.114   1.865
 4885SOL     OW15553   1.115   4.996   6.653
 4885SOL    HW115554   1.136   4.955   6.742
 4885SOL    HW215555   1.140   5.093   6.655
 4886SOL     OW15556   2.881   0.794   2.377
 4886SOL    HW115557   2.936   0.731   2.431
 4886SOL    HW215558   2.816   0.841   2.437
 4887SOL     OW15559   4.758   5.389   0.530
 4887SOL    HW115560   4.669   5.435   0.525
 4887SOL    HW215561   4.812   5.414   0.450
 4888SOL     OW15562   4.695   0.831   2.742
 4888SOL    HW115563   4.744   0.750   2.772
 4888SOL    HW215564   4.625   0.805   2.676
 4889SOL     OW15565   5.598   3.429   4.019
 4889SOL    HW115566   5.549   3.512   4.046
 4889SOL    HW215567   5.667   3.451   3.950
 4890SOL     OW15568   6.431   2.120   4.694
 4890SOL    HW115569   6.479   2.207   4.681
 4890SOL    HW215570   6.398   2.115   4.789
 4891SOL     OW15571   2.401   6.178   0.217
 4891SOL    HW115572   2.469   6.250   0.233
 4891SOL    HW215573   2.333   6.179   0.291
 4892SOL     OW15574   5.479   5.047   2.081
 4892SOL    HW115575   5.389   5.003   2.092
 4892SOL    HW215576   5.541   5.014   2.152
 4893SOL     OW15577   1.647   2.696   1.728
 4893SOL    HW115578   1.624   2.602   1.705
 4893SOL    HW215579   1.618   2.715   1.822
 4894SOL     OW15580   4.791   6.074   0.550
 4894SOL    HW115581   4.765   6.074   0.454
 4894SOL    HW215582   4.710   6.094   0.606
 4895SOL     OW15583   6.112   3.701   5.113
 4895SOL    HW115584   6.119   3.677   5.016
 4895SOL    HW215585   6.177   3.646   5.165
 4896SOL     OW15586   2.561   5.236   4.803
 4896SOL    HW115587   2.556   5.136   4.798
 4896SOL    HW215588   2.653   5.266   4.778
 4897SOL     OW15589   2.017   1.677   5.421
 4897SOL    HW115590   2.052   1.586   5.401
 4897SOL    HW215591   2.069   1.746   5.371
 4898SOL     OW15592   3.954   1.972   3.812
 4898SOL    HW115593   3.891   2.023   3.870
 4898SOL    HW215594   4.032   1.942   3.866
 4899SOL     OW15595   6.691   6.477   1.577
 4899SOL    HW115596   6.679   6.522   1.489
 4899SOL    HW215597   6.743   6.536   1.639
 4900SOL     OW15598   3.477   5.880   6.208
 4900SOL    HW115599   3.438   5.859   6.119
 4900SOL    HW215600   3.538   5.806   6.237
 4901SOL     OW15601   2.143   0.573   0.216
 4901SOL    HW115602   2.186   0.549   0.129
 4901SOL    HW215603   2.143   0.672   0.227
 4902SOL     OW15604   2.318   0.174   5.385
 4902SOL    HW115605   2.352   0.123   5.306
 4902SOL    HW215606   2.255   0.117   5.437
 4903SOL     OW15607   4.819   3.978   2.440
 4903SOL    HW115608   4.730   4.021   2.457
 4903SOL    HW215609   4.875   4.038   2.383
 4904SOL     OW15610   1.959   1.032   2.280
 4904SOL    HW115611   1.912   1.070   2.360
 4904SOL    HW215612   1.980   1.106   2.216
 4905SOL     OW15613   2.866   1.300   2.218
 4905SOL    HW115614   2.825   1.313   2.308
 4905SOL    HW215615   2.835   1.373   2.156
 4906SOL     OW15616   5.347   3.061   4.554
 4906SOL    HW115617   5.291   3.136   4.589
 4906SOL    HW215618   5.435   3.096   4.522
 4907SOL     OW15619   3.456   2.429   0.675
 4907SOL    HW115620   3.405   2.366   0.616
 4907SOL    HW215621   3.552   2.430   0.647
 4908SOL     OW15622   2.968   6.545   6.282
 4908SOL    HW115623   3.041   6.597   6.237
 4908SOL    HW215624   2.890   6.538   6.220
 4909SOL     OW15625   5.099   5.469   4.570
 4909SOL    HW115626   5.072   5.507   4.658
 4909SOL    HW215627   5.186   5.508   4.541
 4910SOL     OW15628   4.441   1.943   6.715
 4910SOL    HW115629   4.348   1.928   6.749
 4910SOL    HW215630   4.486   2.011   6.773
 4911SOL     OW15631   6.623   4.511   3.404
 4911SOL    HW115632   6.657   4.419   3.420
 4911SOL    HW215633   6.647   4.540   3.311
 4912SOL     OW15634   5.701   2.754   4.233
 4912SOL    HW115635   5.733   2.668   4.195
 4912SOL    HW215636   5.615   2.781   4.188
 4913SOL     OW15637   1.068   3.751   5.311
 4913SOL    HW115638   0.999   3.802   5.260
 4913SOL    HW215639   1.025   3.672   5.355
 4914SOL     OW15640   3.414   6.935   3.859
 4914SOL    HW115641   3.396   6.911   3.955
 4914SOL    HW215642   3.407   6.853   3.803
 4915SOL     OW15643   4.087   5.928   5.596
 4915SOL    HW115644   4.125   5.848   5.642
 4915SOL    HW215645   3.988   5.918   5.586
 4916SOL     OW15646   5.584   2.432   3.447
 4916SOL    HW115647   5.510   2.422   3.380
 4916SOL    HW215648   5.567   2.513   3.503
 4917SOL     OW15649   4.273   6.471   6.640
 4917SOL    HW115650   4.221   6.542   6.688
 4917SOL    HW215651   4.321   6.413   6.707
 4918SOL     OW15652   5.335   6.036   3.760
 4918SOL    HW115653   5.414   6.095   3.776
 4918SOL    HW215654   5.359   5.941   3.781
 4919SOL     OW15655   3.959   3.959   2.349
 4919SOL    HW115656   4.001   4.048   2.363
 4919SOL    HW215657   3.861   3.965   2.368
 4920SOL     OW15658   6.540   0.896   5.872
 4920SOL    HW115659   6.544   0.818   5.809
 4920SOL    HW215660   6.575   0.978   5.825
 4921SOL     OW15661   6.584   0.036   2.356
 4921SOL    HW115662   6.487   0.012   2.357
 4921SOL    HW215663   6.633   6.997   2.296
 4922SOL     OW15664   3.730   0.899   6.213
 4922SOL    HW115665   3.642   0.886   6.259
 4922SOL    HW215666   3.796   0.936   6.278
 4923SOL     OW15667   4.032   1.347   1.704
 4923SOL    HW115668   4.095   1.407   1.752
 4923SOL    HW215669   4.041   1.361   1.605
 4924SOL     OW15670   2.996   1.507   4.934
 4924SOL    HW115671   3.051   1.590   4.943
 4924SOL    HW215672   3.050   1.428   4.965
 4925SOL     OW15673   4.544   0.101   4.178
 4925SOL    HW115674   4.451   0.117   4.146
 4925SOL    HW215675   4.543   0.030   4.249
 4926SOL     OW15676   4.766   2.398   1.763
 4926SOL    HW115677   4.842   2.340   1.733
 4926SOL    HW215678   4.734   2.368   1.852
 4927SOL     OW15679   2.183   0.906   0.175
 4927SOL    HW115680   2.099   0.878   0.129
 4927SOL    HW215681   2.160   0.965   0.253
 4928SOL     OW15682   0.575   1.566   1.518
 4928SOL    HW115683   0.610   1.657   1.497
 4928SOL    HW215684   0.608   1.501   1.449
 4929SOL     OW15685   6.532   0.007   4.786
 4929SOL    HW115686   6.631   0.007   4.767
 4929SOL    HW215687   6.488   6.962   4.728
 4930SOL     OW15688   4.141   6.098   3.146
 4930SOL    HW115689   4.128   6.112   3.244
 4930SOL    HW215690   4.237   6.078   3.128
 4931SOL     OW15691   5.726   0.236   1.499
 4931SOL    HW115692   5.769   0.230   1.589
 4931SOL    HW215693   5.640   0.287   1.506
 4932SOL     OW15694   3.856   3.957   3.161
 4932SOL    HW115695   3.832   3.986   3.253
 4932SOL    HW215696   3.810   4.015   3.094
 4933SOL     OW15697   1.628   6.777   5.100
 4933SOL    HW115698   1.645   6.706   5.168
 4933SOL    HW215699   1.610   6.734   5.012
 4934SOL     OW15700   2.530   0.147   3.028
 4934SOL    HW115701   2.482   0.060   3.025
 4934SOL    HW215702   2.513   0.198   2.943
 4935SOL     OW15703   5.954   0.203   4.951
 4935SOL    HW115704   6.006   0.143   5.011
 4935SOL    HW215705   5.908   0.274   5.005
 4936SOL     OW15706   4.375   3.155   0.460
 4936SOL    HW115707   4.277   3.136   0.450
 4936SOL    HW215708   4.401   3.228   0.397
 4937SOL     OW15709   3.760   2.816   5.381
 4937SOL    HW115710   3.747   2.814   5.481
 4937SOL    HW215711   3.672   2.797   5.337
 4938SOL     OW15712   2.947   4.590   0.420
 4938SOL    HW115713   3.032   4.641   0.431
 4938SOL    HW215714   2.886   4.638   0.357
 4939SOL     OW15715   4.634   3.504   6.613
 4939SOL    HW115716   4.603   3.497   6.518
 4939SOL    HW215717   4.734   3.515   6.615
 4940SOL     OW15718   1.356   5.917   3.939
 4940SOL    HW115719   1.389   5.844   3.879
 4940SOL    HW215720   1.269   5.891   3.980
 4941SOL     OW15721   5.863   1.111   1.439
 4941SOL    HW115722   5.949   1.153   1.409
 4941SOL    HW215723   5.876   1.072   1.531
 4942SOL     OW15724   5.364   2.335   5.503
 4942SOL    HW115725   5.278   2.341   5.452
 4942SOL    HW215726   5.384   2.240   5.525
 4943SOL     OW15727   5.982   2.906   1.492
 4943SOL    HW115728   5.913   2.906   1.564
 4943SOL    HW215729   5.964   2.831   1.429
 4944SOL     OW15730   1.768   3.373   2.037
 4944SOL    HW115731   1.767   3.388   1.938
 4944SOL    HW215732   1.860   3.347   2.065
 4945SOL     OW15733   6.911   6.000   4.301
 4945SOL    HW115734   6.924   5.910   4.343
 4945SOL    HW215735   6.941   5.997   4.206
 4946SOL     OW15736   0.232   4.346   1.809
 4946SOL    HW115737   0.184   4.271   1.854
 4946SOL    HW215738   0.313   4.310   1.762
 4947SOL     OW15739   6.104   0.517   0.759
 4947SOL    HW115740   6.135   0.483   0.670
 4947SOL    HW215741   6.014   0.560   0.748
 4948SOL     OW15742   2.354   1.399   2.175
 4948SOL    HW115743   2.301   1.456   2.112
 4948SOL    HW215744   2.318   1.306   2.174
 4949SOL     OW15745   5.581   2.046   5.406
 4949SOL    HW115746   5.619   1.961   5.372
 4949SOL    HW215747   5.555   2.105   5.330
 4950SOL     OW15748   3.433   5.403   4.183
 4950SOL    HW115749   3.422   5.421   4.281
 4950SOL    HW215750   3.512   5.454   4.148
 4951SOL     OW15751   4.302   2.339   3.614
 4951SOL    HW115752   4.237   2.286   3.669
 4951SOL    HW215753   4.357   2.397   3.674
 4952SOL     OW15754   6.651   4.499   4.577
 4952SOL    HW115755   6.687   4.588   4.549
 4952SOL    HW215756   6.690   4.427   4.519
 4953SOL     OW15757   0.996   4.594   2.056
 4953SOL    HW115758   1.063   4.653   2.011
 4953SOL    HW215759   1.022   4.498   2.043
 4954SOL     OW15760   6.685   6.276   6.293
 4954SOL    HW115761   6.607   6.339   6.291
 4954SOL    HW215762   6.684   6.219   6.211
 4955SOL     OW15763   1.744   0.232   1.705
 4955SOL    HW115764   1.834   0.271   1.686
 4955SOL    HW215765   1.720   0.167   1.633
 4956SOL     OW15766   6.093   6.600   3.553
 4956SOL    HW115767   6.183   6.619   3.514
 4956SOL    HW215768   6.032   6.568   3.481
 4957SOL     OW15769   0.974   5.617   4.137
 4957SOL    HW115770   0.900   5.606   4.071
 4957SOL    HW215771   0.941   5.670   4.215
 4958SOL     OW15772   6.923   6.934   0.028
 4958SOL    HW115773   6.968   6.984   6.977
 4958SOL    HW215774   6.920   6.992   0.109
 4959SOL     OW15775   0.653   2.150   0.327
 4959SOL    HW115776   0.708   2.178   0.405
 4959SOL    HW215777   0.714   2.126   0.251
 4960SOL     OW15778   3.331   0.108   5.581
 4960SOL    HW115779   3.298   0.138   5.670
 4960SOL    HW215780   3.257   0.112   5.514
 4961SOL     OW15781   4.773   0.287   5.155
 4961SOL    HW115782   4.708   0.299   5.080
 4961SOL    HW215783   4.747   0.345   5.232
 4962SOL     OW15784   6.370   2.256   2.224
 4962SOL    HW115785   6.299   2.189   2.204
 4962SOL    HW215786   6.328   2.342   2.251
 4963SOL     OW15787   0.656   4.013   1.269
 4963SOL    HW115788   0.571   4.059   1.242
 4963SOL    HW215789   0.731   4.046   1.212
 4964SOL     OW15790   3.002   6.716   3.017
 4964SOL    HW115791   3.059   6.706   2.935
 4964SOL    HW215792   3.024   6.644   3.082
 4965SOL     OW15793   6.958   5.909   5.433
 4965SOL    HW115794   6.962   5.814   5.465
 4965SOL    HW215795   7.021   5.965   5.486
 4966SOL     OW15796   5.117   5.661   5.438
 4966SOL    HW115797   5.202   5.705   5.464
 4966SOL    HW215798   5.126   5.562   5.447
 4967SOL     OW15799   5.699   0.886   6.657
 4967SOL    HW115800   5.761   0.824   6.705
 4967SOL    HW215801   5.610   0.841   6.644
 4968SOL     OW15802   5.390   3.990   6.513
 4968SOL    HW115803   5.396   3.909   6.453
 4968SOL    HW215804   5.480   4.030   6.525
 4969SOL     OW15805   1.858   1.125   1.345
 4969SOL    HW115806   1.779   1.179   1.372
 4969SOL    HW215807   1.922   1.118   1.422
 4970SOL     OW15808   1.777   2.037   6.652
 4970SOL    HW115809   1.845   2.082   6.594
 4970SOL    HW215810   1.821   1.961   6.701
 4971SOL     OW15811   6.334   5.544   3.758
 4971SOL    HW115812   6.325   5.585   3.849
 4971SOL    HW215813   6.244   5.541   3.715
 4972SOL     OW15814   1.550   2.142   4.724
 4972SOL    HW115815   1.600   2.227   4.741
 4972SOL    HW215816   1.488   2.124   4.801
 4973SOL     OW15817   4.933   5.803   3.179
 4973SOL    HW115818   4.928   5.890   3.131
 4973SOL    HW215819   4.976   5.817   3.269
 4974SOL     OW15820   3.780   6.479   6.161
 4974SOL    HW115821   3.865   6.438   6.196
 4974SOL    HW215822   3.702   6.441   6.210
 4975SOL     OW15823   4.277   6.075   0.344
 4975SOL    HW115824   4.319   6.103   0.258
 4975SOL    HW215825   4.261   5.976   0.343
 4976SOL     OW15826   2.368   0.923   4.941
 4976SOL    HW115827   2.385   1.005   4.995
 4976SOL    HW215828   2.420   0.927   4.856
 4977SOL     OW15829   3.832   3.289   1.681
 4977SOL    HW115830   3.895   3.366   1.677
 4977SOL    HW215831   3.872   3.211   1.634
 4978SOL     OW15832   6.405   4.029   6.218
 4978SOL    HW115833   6.343   3.974   6.274
 4978SOL    HW215834   6.469   3.968   6.171
 4979SOL     OW15835   2.327   2.337   3.404
 4979SOL    HW115836   2.424   2.350   3.387
 4979SOL    HW215837   2.277   2.419   3.376
 4980SOL     OW15838   2.141   4.706   3.151
 4980SOL    HW115839   2.201   4.771   3.105
 4980SOL    HW215840   2.064   4.755   3.192
 4981SOL     OW15841   5.358   5.833   5.416
 4981SOL    HW115842   5.400   5.744   5.429
 4981SOL    HW215843   5.387   5.895   5.489
 4982SOL     OW15844   2.651   0.955   6.768
 4982SOL    HW115845   2.624   1.051   6.758
 4982SOL    HW215846   2.570   0.899   6.785
 4983SOL     OW15847   6.789   2.397   4.066
 4983SOL    HW115848   6.698   2.425   4.094
 4983SOL    HW215849   6.843   2.373   4.147
 4984SOL     OW15850   5.268   5.102   3.692
 4984SOL    HW115851   5.239   5.080   3.599
 4984SOL    HW215852   5.196   5.155   3.738
 4985SOL     OW15853   5.760   3.543   2.222
 4985SOL    HW115854   5.680   3.580   2.269
 4985SOL    HW215855   5.769   3.445   2.242
 4986SOL     OW15856   4.536   5.029   3.614
 4986SOL    HW115857   4.630   5.062   3.605
 4986SOL    HW215858   4.491   5.031   3.524
 4987SOL     OW15859   1.127   2.898   0.312
 4987SOL    HW115860   1.194   2.828   0.338
 4987SOL    HW215861   1.160   2.988   0.340
 4988SOL     OW15862   2.385   2.153   5.070
 4988SOL    HW115863   2.335   2.128   5.154
 4988SOL    HW215864   2.320   2.180   4.999
 4989SOL     OW15865   0.227   0.792   0.708
 4989SOL    HW115866   0.219   0.708   0.761
 4989SOL    HW215867   0.308   0.842   0.737
 4990SOL     OW15868   1.793   1.986   0.025
 4990SOL    HW115869   1.866   2.027   0.080
 4990SOL    HW215870   1.746   1.915   0.079
 4991SOL     OW15871   2.769   1.670   5.570
 4991SOL    HW115872   2.830   1.657   5.648
 4991SOL    HW215873   2.722   1.758   5.579
 4992SOL     OW15874   4.094   0.016   4.980
 4992SOL    HW115875   4.096   0.086   5.052
 4992SOL    HW215876   4.149   0.046   4.902
 4993SOL     OW15877   1.632   6.611   4.845
 4993SOL    HW115878   1.647   6.514   4.860
 4993SOL    HW215879   1.553   6.624   4.785
 4994SOL     OW15880   0.419   5.915   3.009
 4994SOL    HW115881   0.400   5.818   2.998
 4994SOL    HW215882   0.394   5.964   2.926
 4995SOL     OW15883   5.578   2.738   5.221
 4995SOL    HW115884   5.531   2.719   5.135
 4995SOL    HW215885   5.579   2.655   5.277
 4996SOL     OW15886   0.409   1.937   3.768
 4996SOL    HW115887   0.359   2.002   3.712
 4996SOL    HW215888   0.345   1.884   3.824
 4997SOL     OW15889   6.929   2.636   3.968
 4997SOL    HW115890   6.862   2.580   4.017
 4997SOL    HW215891   6.994   2.575   3.921
 4998SOL     OW15892   1.185   5.828   5.955
 4998SOL    HW115893   1.144   5.853   5.867
 4998SOL    HW215894   1.256   5.759   5.940
 4999SOL     OW15895   5.777   4.753   1.133
 4999SOL    HW115896   5.695   4.799   1.170
 4999SOL    HW215897   5.859   4.798   1.168
 5000SOL     OW15898   6.483   5.314   4.201
 5000SOL    HW115899   6.513   5.349   4.289
 5000SOL    HW215900   6.470   5.390   4.137
 5001SOL     OW15901   4.884   3.432   5.358
 5001SOL    HW115902   4.841   3.378   5.286
 5001SOL    HW215903   4.934   3.370   5.420
 5002SOL     OW15904   1.641   2.184   1.508
 5002SOL    HW115905   1.732   2.168   1.546
 5002SOL    HW215906   1.593   2.251   1.565
 5003SOL     OW15907   6.555   5.410   4.464
 5003SOL    HW115908   6.634   5.374   4.513
 5003SOL    HW215909   6.502   5.469   4.525
 5004SOL     OW15910   2.017   4.127   6.063
 5004SOL    HW115911   1.994   4.190   5.988
 5004SOL    HW215912   2.094   4.165   6.115
 5005SOL     OW15913   4.993   2.557   0.356
 5005SOL    HW115914   4.933   2.549   0.435
 5005SOL    HW215915   5.037   2.470   0.338
 5006SOL     OW15916   5.058   4.889   2.478
 5006SOL    HW115917   4.972   4.913   2.523
 5006SOL    HW215918   5.093   4.803   2.517
 5007SOL     OW15919   4.263   1.015   4.760
 5007SOL    HW115920   4.234   1.082   4.692
 5007SOL    HW215921   4.329   0.952   4.720
 5008SOL     OW15922   6.437   1.841   4.115
 5008SOL    HW115923   6.528   1.882   4.108
 5008SOL    HW215924   6.441   1.745   4.088
 5009SOL     OW15925   2.735   6.437   1.749
 5009SOL    HW115926   2.673   6.442   1.671
 5009SOL    HW215927   2.795   6.517   1.749
 5010SOL     OW15928   3.226   3.163   6.161
 5010SOL    HW115929   3.308   3.160   6.104
 5010SOL    HW215930   3.239   3.105   6.242
 5011SOL     OW15931   1.411   1.414   4.064
 5011SOL    HW115932   1.500   1.453   4.087
 5011SOL    HW215933   1.344   1.488   4.056
 5012SOL     OW15934   6.290   2.527   6.925
 5012SOL    HW115935   6.217   2.526   6.993
 5012SOL    HW215936   6.250   2.527   6.833
 5013SOL     OW15937   4.856   1.652   5.217
 5013SOL    HW115938   4.772   1.694   5.182
 5013SOL    HW215939   4.930   1.665   5.152
 5014SOL     OW15940   6.871   4.562   6.845
 5014SOL    HW115941   6.914   4.651   6.859
 5014SOL    HW215942   6.844   4.553   6.749
 5015SOL     OW15943   4.990   1.774   3.886
 5015SOL    HW115944   5.083   1.743   3.868
 5015SOL    HW215945   4.970   1.763   3.984
 5016SOL     OW15946   2.764   5.523   1.641
 5016SOL    HW115947   2.783   5.583   1.563
 5016SOL    HW215948   2.847   5.473   1.665
 5017SOL     OW15949   0.496   2.252   1.655
 5017SOL    HW115950   0.442   2.243   1.572
 5017SOL    HW215951   0.573   2.189   1.652
 5018SOL     OW15952   6.624   5.151   4.040
 5018SOL    HW115953   6.561   5.219   4.077
 5018SOL    HW215954   6.661   5.184   3.953
 5019SOL     OW15955   3.032   5.714   4.847
 5019SOL    HW115956   2.970   5.691   4.922
 5019SOL    HW215957   3.040   5.636   4.786
 5020SOL     OW15958   4.550   5.044   0.083
 5020SOL    HW115959   4.549   5.137   0.122
 5020SOL    HW215960   4.644   5.011   0.078
 5021SOL     OW15961   2.302   5.164   5.878
 5021SOL    HW115962   2.377   5.195   5.936
 5021SOL    HW215963   2.216   5.204   5.910
 5022SOL     OW15964   1.695   3.463   7.022
 5022SOL    HW115965   1.703   3.364   7.009
 5022SOL    HW215966   1.785   3.505   7.018
 5023SOL     OW15967   7.000   3.169   4.379
 5023SOL    HW115968   6.950   3.107   4.319
 5023SOL    HW215969   0.017   3.117   4.454
 5024SOL     OW15970   4.874   3.844   5.125
 5024SOL    HW115971   4.926   3.911   5.178
 5024SOL    HW215972   4.884   3.864   5.027
 5025SOL     OW15973   5.610   0.663   4.837
 5025SOL    HW115974   5.663   0.745   4.817
 5025SOL    HW215975   5.669   0.583   4.827
 5026SOL     OW15976   0.967   5.488   2.796
 5026SOL    HW115977   1.021   5.547   2.855
 5026SOL    HW215978   0.986   5.392   2.818
 5027SOL     OW15979   1.179   5.575   3.567
 5027SOL    HW115980   1.253   5.640   3.553
 5027SOL    HW215981   1.202   5.513   3.642
 5028SOL     OW15982   0.907   6.111   2.919
 5028SOL    HW115983   0.916   6.208   2.899
 5028SOL    HW215984   0.811   6.089   2.935
 5029SOL     OW15985   5.688   0.688   4.352
 5029SOL    HW115986   5.605   0.634   4.365
 5029SOL    HW215987   5.765   0.642   4.397
 5030SOL     OW15988   1.277   6.053   0.493
 5030SOL    HW115989   1.227   6.049   0.407
 5030SOL    HW215990   1.337   6.133   0.493
 5031SOL     OW15991   5.355   0.130   0.290
 5031SOL    HW115992   5.427   0.123   0.359
 5031SOL    HW215993   5.353   0.223   0.253
 5032SOL     OW15994   1.797   5.167   2.388
 5032SOL    HW115995   1.804   5.095   2.320
 5032SOL    HW215996   1.790   5.256   2.342
 5033SOL     OW15997   0.601   4.570   4.641
 5033SOL    HW115998   0.563   4.493   4.591
 5033SOL    HW215999   0.558   4.577   4.731
 5034SOL     OW16000   0.746   2.974   5.869
 5034SOL    HW116001   0.734   2.942   5.963
 5034SOL    HW216002   0.826   3.033   5.865
 5035SOL     OW16003   6.574   4.342   1.252
 5035SOL    HW116004   6.665   4.331   1.292
 5035SOL    HW216005   6.509   4.281   1.298
 5036SOL     OW16006   1.478   1.904   2.854
 5036SOL    HW116007   1.520   1.983   2.898
 5036SOL    HW216008   1.525   1.887   2.767
 5037SOL     OW16009   5.075   4.475   1.589
 5037SOL    HW116010   4.984   4.475   1.548
 5037SOL    HW216011   5.072   4.522   1.677
 5038SOL     OW16012   3.229   5.862   5.768
 5038SOL    HW116013   3.262   5.940   5.715
 5038SOL    HW216014   3.247   5.777   5.718
 5039SOL     OW16015   1.090   2.586   3.643
 5039SOL    HW116016   1.009   2.630   3.605
 5039SOL    HW216017   1.105   2.620   3.736
 5040SOL     OW16018   2.307   3.660   5.720
 5040SOL    HW116019   2.387   3.714   5.697
 5040SOL    HW216020   2.331   3.592   5.789
 5041SOL     OW16021   0.601   5.806   0.442
 5041SOL    HW116022   0.540   5.847   0.510
 5041SOL    HW216023   0.554   5.732   0.395
 5042SOL     OW16024   6.300   1.244   6.183
 5042SOL    HW116025   6.326   1.275   6.091
 5042SOL    HW216026   6.376   1.194   6.224
 5043SOL     OW16027   5.620   5.671   3.606
 5043SOL    HW116028   5.574   5.588   3.575
 5043SOL    HW216029   5.654   5.722   3.527
 5044SOL     OW16030   6.404   4.023   1.730
 5044SOL    HW116031   6.319   4.063   1.696
 5044SOL    HW216032   6.452   4.090   1.787
 5045SOL     OW16033   4.655   2.887   5.562
 5045SOL    HW116034   4.604   2.927   5.486
 5045SOL    HW216035   4.748   2.924   5.563
 5046SOL     OW16036   4.331   2.701   5.872
 5046SOL    HW116037   4.296   2.607   5.863
 5046SOL    HW216038   4.311   2.752   5.789
 5047SOL     OW16039   0.468   2.145   2.444
 5047SOL    HW116040   0.541   2.157   2.511
 5047SOL    HW216041   0.427   2.234   2.424
 5048SOL     OW16042   5.953   3.931   0.720
 5048SOL    HW116043   6.010   3.972   0.649
 5048SOL    HW216044   5.918   3.843   0.687
 5049SOL     OW16045   0.861   1.338   1.297
 5049SOL    HW116046   0.914   1.256   1.275
 5049SOL    HW216047   0.774   1.311   1.338
 5050SOL     OW16048   1.712   4.176   0.428
 5050SOL    HW116049   1.800   4.129   0.419
 5050SOL    HW216050   1.726   4.274   0.417
 5051SOL     OW16051   2.576   3.797   6.225
 5051SOL    HW116052   2.501   3.828   6.167
 5051SOL    HW216053   2.663   3.822   6.184
 5052SOL     OW16054   5.885   2.806   1.095
 5052SOL    HW116055   5.971   2.802   1.043
 5052SOL    HW216056   5.904   2.794   1.192
 5053SOL     OW16057   1.069   3.997   1.231
 5053SOL    HW116058   1.073   3.897   1.234
 5053SOL    HW216059   1.060   4.033   1.324
 5054SOL     OW16060   3.854   6.022   5.140
 5054SOL    HW116061   3.821   5.987   5.053
 5054SOL    HW216062   3.829   6.118   5.149
 5055SOL     OW16063   0.532   0.671   3.835
 5055SOL    HW116064   0.630   0.656   3.823
 5055SOL    HW216065   0.515   0.709   3.926
 5056SOL     OW16066   3.209   1.637   6.083
 5056SOL    HW116067   3.308   1.652   6.086
 5056SOL    HW216068   3.164   1.717   6.043
 5057SOL     OW16069   0.081   4.229   2.420
 5057SOL    HW116070   0.028   4.174   2.356
 5057SOL    HW216071   0.050   4.212   2.514
 5058SOL     OW16072   4.318   1.951   0.123
 5058SOL    HW116073   4.266   1.866   0.114
 5058SOL    HW216074   4.371   1.949   0.207
 5059SOL     OW16075   5.810   2.912   2.400
 5059SOL    HW116076   5.812   2.989   2.464
 5059SOL    HW216077   5.718   2.875   2.395
 5060SOL     OW16078   5.963   2.951   5.250
 5060SOL    HW116079   5.948   3.013   5.172
 5060SOL    HW216080   6.037   2.986   5.306
 5061SOL     OW16081   3.956   2.612   5.480
 5061SOL    HW116082   3.878   2.652   5.432
 5061SOL    HW216083   3.923   2.545   5.547
 5062SOL     OW16084   5.915   1.089   3.230
 5062SOL    HW116085   5.945   1.012   3.287
 5062SOL    HW216086   5.822   1.071   3.197
 5063SOL     OW16087   0.837   1.361   0.713
 5063SOL    HW116088   0.931   1.389   0.693
 5063SOL    HW216089   0.834   1.315   0.802
 5064SOL     OW16090   6.414   5.013   0.794
 5064SOL    HW116091   6.467   4.952   0.736
 5064SOL    HW216092   6.317   4.991   0.785
 5065SOL     OW16093   1.960   2.011   2.547
 5065SOL    HW116094   1.988   1.963   2.630
 5065SOL    HW216095   2.041   2.048   2.501
 5066SOL     OW16096   1.371   4.721   4.217
 5066SOL    HW116097   1.336   4.633   4.250
 5066SOL    HW216098   1.306   4.793   4.241
 5067SOL     OW16099   5.012   2.821   0.786
 5067SOL    HW116100   4.946   2.819   0.861
 5067SOL    HW216101   5.094   2.870   0.815
 5068SOL     OW16102   1.554   0.372   1.084
 5068SOL    HW116103   1.494   0.299   1.051
 5068SOL    HW216104   1.649   0.343   1.074
 5069SOL     OW16105   4.106   4.375   6.028
 5069SOL    HW116106   4.160   4.291   6.035
 5069SOL    HW216107   4.017   4.362   6.072
 5070SOL     OW16108   0.061   3.380   6.482
 5070SOL    HW116109   0.128   3.322   6.435
 5070SOL    HW216110   0.102   3.418   6.564
 5071SOL     OW16111   2.188   6.601   2.541
 5071SOL    HW116112   2.122   6.551   2.485
 5071SOL    HW216113   2.141   6.639   2.621
 5072SOL     OW16114   0.875   2.124   2.472
 5072SOL    HW116115   0.796   2.116   2.533
 5072SOL    HW216116   0.953   2.158   2.525
 5073SOL     OW16117   1.512   1.360   3.692
 5073SOL    HW116118   1.425   1.324   3.724
 5073SOL    HW216119   1.554   1.294   3.629
 5074SOL     OW16120   3.637   1.837   1.221
 5074SOL    HW116121   3.667   1.914   1.278
 5074SOL    HW216122   3.630   1.755   1.278
 5075SOL     OW16123   6.444   2.327   7.020
 5075SOL    HW116124   6.381   2.395   6.983
 5075SOL    HW216125   6.414   2.236   6.993
 5076SOL     OW16126   0.201   1.245   5.993
 5076SOL    HW116127   0.290   1.245   5.949
 5076SOL    HW216128   0.131   1.215   5.928
 5077SOL     OW16129   0.233   4.529   4.605
 5077SOL    HW116130   0.290   4.475   4.668
 5077SOL    HW216131   0.150   4.478   4.584
 5078SOL     OW16132   6.400   1.889   3.118
 5078SOL    HW116133   6.402   1.869   3.216
 5078SOL    HW216134   6.474   1.951   3.095
 5079SOL     OW16135   1.618   3.675   5.601
 5079SOL    HW116136   1.584   3.734   5.674
 5079SOL    HW216137   1.580   3.704   5.513
 5080SOL     OW16138   6.399   5.729   6.911
 5080SOL    HW116139   6.400   5.681   6.823
 5080SOL    HW216140   6.340   5.810   6.905
 5081SOL     OW16141   3.209   4.753   5.523
 5081SOL    HW116142   3.201   4.660   5.560
 5081SOL    HW216143   3.191   4.752   5.425
 5082SOL     OW16144   5.723   0.202   2.838
 5082SOL    HW116145   5.699   0.297   2.854
 5082SOL    HW216146   5.693   0.174   2.747
 5083SOL     OW16147   0.755   0.435   3.412
 5083SOL    HW116148   0.765   0.392   3.502
 5083SOL    HW216149   0.693   0.381   3.356
 5084SOL     OW16150   3.317   5.666   5.584
 5084SOL    HW116151   3.289   5.575   5.553
 5084SOL    HW216152   3.342   5.722   5.505
 5085SOL     OW16153   0.433   4.017   5.927
 5085SOL    HW116154   0.454   3.943   5.863
 5085SOL    HW216155   0.404   3.978   6.014
 5086SOL     OW16156   1.469   4.266   2.036
 5086SOL    HW116157   1.462   4.265   2.136
 5086SOL    HW216158   1.379   4.252   1.996
 5087SOL     OW16159   6.523   5.621   1.785
 5087SOL    HW116160   6.438   5.673   1.779
 5087SOL    HW216161   6.591   5.659   1.722
 5088SOL     OW16162   4.701   4.699   1.880
 5088SOL    HW116163   4.644   4.619   1.859
 5088SOL    HW216164   4.745   4.687   1.968
 5089SOL     OW16165   5.105   6.062   5.596
 5089SOL    HW116166   5.060   6.150   5.582
 5089SOL    HW216167   5.080   6.025   5.685
 5090SOL     OW16168   2.144   6.938   4.118
 5090SOL    HW116169   2.231   6.988   4.111
 5090SOL    HW216170   2.156   6.861   4.180
 5091SOL     OW16171   6.142   5.982   5.905
 5091SOL    HW116172   6.051   5.941   5.913
 5091SOL    HW216173   6.210   5.918   5.940
 5092SOL     OW16174   3.777   2.913   4.508
 5092SOL    HW116175   3.785   2.919   4.608
 5092SOL    HW216176   3.682   2.893   4.483
 5093SOL     OW16177   3.398   2.119   3.541
 5093SOL    HW116178   3.419   2.022   3.528
 5093SOL    HW216179   3.366   2.158   3.454
 5094SOL     OW16180   2.437   5.668   4.986
 5094SOL    HW116181   2.372   5.687   5.059
 5094SOL    HW216182   2.401   5.705   4.900
 5095SOL     OW16183   6.019   2.070   3.623
 5095SOL    HW116184   5.991   2.076   3.719
 5095SOL    HW216185   6.027   2.162   3.585
 5096SOL     OW16186   5.608   2.617   6.087
 5096SOL    HW116187   5.576   2.707   6.058
 5096SOL    HW216188   5.537   2.549   6.072
 5097SOL     OW16189   1.118   0.874   5.559
 5097SOL    HW116190   1.080   0.964   5.581
 5097SOL    HW216191   1.072   0.836   5.479
 5098SOL     OW16192   3.163   2.112   1.350
 5098SOL    HW116193   3.087   2.069   1.300
 5098SOL    HW216194   3.245   2.057   1.338
 5099SOL     OW16195   2.212   5.445   2.290
 5099SOL    HW116196   2.191   5.472   2.384
 5099SOL    HW216197   2.290   5.497   2.256
 5100SOL     OW16198   5.769   3.733   1.122
 5100SOL    HW116199   5.754   3.800   1.194
 5100SOL    HW216200   5.854   3.754   1.073
 5101SOL     OW16201   3.465   1.704   5.154
 5101SOL    HW116202   3.518   1.622   5.130
 5101SOL    HW216203   3.462   1.714   5.254
 5102SOL     OW16204   5.581   4.478   5.234
 5102SOL    HW116205   5.487   4.457   5.208
 5102SOL    HW216206   5.590   4.480   5.333
 5103SOL     OW16207   0.745   0.281   5.744
 5103SOL    HW116208   0.708   0.201   5.791
 5103SOL    HW216209   0.840   0.263   5.717
 5104SOL     OW16210   4.091   3.289   3.694
 5104SOL    HW116211   4.035   3.370   3.710
 5104SOL    HW216212   4.146   3.269   3.775
 5105SOL     OW16213   4.427   3.048   0.045
 5105SOL    HW116214   4.460   2.964   0.088
 5105SOL    HW216215   4.468   3.127   0.090
 5106SOL     OW16216   4.062   1.057   1.710
 5106SOL    HW116217   4.136   1.015   1.763
 5106SOL    HW216218   4.081   1.155   1.698
 5107SOL     OW16219   6.222   4.982   6.596
 5107SOL    HW116220   6.263   4.906   6.545
 5107SOL    HW216221   6.221   5.064   6.539
 5108SOL     OW16222   3.744   4.166   0.809
 5108SOL    HW116223   3.802   4.116   0.874
 5108SOL    HW216224   3.760   4.264   0.819
 5109SOL     OW16225   2.124   2.419   2.067
 5109SOL    HW116226   2.097   2.422   2.163
 5109SOL    HW216227   2.222   2.405   2.060
 5110SOL     OW16228   3.435   6.646   4.651
 5110SOL    HW116229   3.510   6.591   4.615
 5110SOL    HW216230   3.420   6.725   4.592
 5111SOL     OW16231   2.259   5.500   5.978
 5111SOL    HW116232   2.248   5.511   5.879
 5111SOL    HW216233   2.349   5.463   5.998
 5112SOL     OW16234   1.134   4.456   2.438
 5112SOL    HW116235   1.188   4.509   2.373
 5112SOL    HW216236   1.106   4.516   2.514
 5113SOL     OW16237   2.591   4.227   1.142
 5113SOL    HW116238   2.642   4.147   1.107
 5113SOL    HW216239   2.519   4.251   1.078
 5114SOL     OW16240   4.763   4.925   1.640
 5114SOL    HW116241   4.726   4.834   1.658
 5114SOL    HW216242   4.777   4.973   1.726
 5115SOL     OW16243   1.315   4.550   0.144
 5115SOL    HW116244   1.294   4.504   0.230
 5115SOL    HW216245   1.357   4.485   0.081
 5116SOL     OW16246   0.189   6.635   5.869
 5116SOL    HW116247   0.092   6.627   5.889
 5116SOL    HW216248   0.203   6.645   5.771
 5117SOL     OW16249   6.928   3.698   3.829
 5117SOL    HW116250   6.836   3.731   3.808
 5117SOL    HW216251   6.951   3.718   3.924
 5118SOL     OW16252   4.405   4.710   0.549
 5118SOL    HW116253   4.420   4.806   0.569
 5118SOL    HW216254   4.486   4.657   0.574
 5119SOL     OW16255   4.915   1.562   0.626
 5119SOL    HW116256   4.963   1.574   0.713
 5119SOL    HW216257   4.971   1.599   0.552
 5120SOL     OW16258   5.936   6.545   6.146
 5120SOL    HW116259   5.885   6.464   6.172
 5120SOL    HW216260   5.997   6.571   6.221
 5121SOL     OW16261   1.572   3.421   0.288
 5121SOL    HW116262   1.602   3.463   0.203
 5121SOL    HW216263   1.641   3.355   0.319
 5122SOL     OW16264   5.156   5.004   3.419
 5122SOL    HW116265   5.187   4.949   3.341
 5122SOL    HW216266   5.084   5.067   3.389
 5123SOL     OW16267   5.186   2.287   1.534
 5123SOL    HW116268   5.240   2.351   1.479
 5123SOL    HW216269   5.245   2.215   1.569
 5124SOL     OW16270   0.232   5.543   4.379
 5124SOL    HW116271   0.171   5.505   4.448
 5124SOL    HW216272   0.269   5.469   4.323
 5125SOL     OW16273   5.748   2.288   3.779
 5125SOL    HW116274   5.701   2.243   3.703
 5125SOL    HW216275   5.748   2.227   3.859
 5126SOL     OW16276   2.010   1.310   1.825
 5126SOL    HW116277   2.001   1.396   1.774
 5126SOL    HW216278   2.105   1.297   1.851
 5127SOL     OW16279   1.838   6.924   0.347
 5127SOL    HW116280   1.905   6.933   0.420
 5127SOL    HW216281   1.851   6.836   0.301
 5128SOL     OW16282   4.579   0.178   1.619
 5128SOL    HW116283   4.669   0.161   1.579
 5128SOL    HW216284   4.589   0.201   1.716
 5129SOL     OW16285   6.095   5.691   0.362
 5129SOL    HW116286   6.130   5.618   0.421
 5129SOL    HW216287   6.016   5.657   0.311
 5130SOL     OW16288   5.856   5.250   1.882
 5130SOL    HW116289   5.920   5.327   1.876
 5130SOL    HW216290   5.814   5.249   1.973
 5131SOL     OW16291   2.724   2.240   2.231
 5131SOL    HW116292   2.783   2.280   2.160
 5131SOL    HW216293   2.628   2.258   2.208
 5132SOL     OW16294   2.452   6.350   5.520
 5132SOL    HW116295   2.377   6.308   5.571
 5132SOL    HW216296   2.437   6.449   5.515
 5133SOL     OW16297   3.494   6.708   4.920
 5133SOL    HW116298   3.399   6.694   4.946
 5133SOL    HW216299   3.505   6.690   4.822
 5134SOL     OW16300   0.690   2.992   6.371
 5134SOL    HW116301   0.617   3.039   6.321
 5134SOL    HW216302   0.692   3.024   6.466
 5135SOL     OW16303   6.639   2.000   4.067
 5135SOL    HW116304   6.678   2.030   4.155
 5135SOL    HW216305   6.661   2.067   3.996
 5136SOL     OW16306   3.558   1.849   5.800
 5136SOL    HW116307   3.610   1.819   5.880
 5136SOL    HW216308   3.577   1.945   5.782
 5137SOL     OW16309   3.873   3.367   6.935
 5137SOL    HW116310   3.857   3.325   0.001
 5137SOL    HW216311   3.900   3.462   6.948
 5138SOL     OW16312   2.240   3.175   6.033
 5138SOL    HW116313   2.207   3.128   6.115
 5138SOL    HW216314   2.161   3.208   5.981
 5139SOL     OW16315   0.534   6.899   3.930
 5139SOL    HW116316   0.493   6.966   3.992
 5139SOL    HW216317   0.465   6.832   3.904
 5140SOL     OW16318   3.141   3.252   1.709
 5140SOL    HW116319   3.202   3.175   1.691
 5140SOL    HW216320   3.046   3.221   1.710
 5141SOL     OW16321   1.065   3.629   5.706
 5141SOL    HW116322   1.039   3.703   5.768
 5141SOL    HW216323   1.161   3.605   5.722
 5142SOL     OW16324   5.456   3.431   1.807
 5142SOL    HW116325   5.479   3.355   1.867
 5142SOL    HW216326   5.362   3.419   1.774
 5143SOL     OW16327   6.906   5.011   6.201
 5143SOL    HW116328   6.813   5.021   6.166
 5143SOL    HW216329   6.926   5.086   6.265
 5144SOL     OW16330   1.804   1.660   5.099
 5144SOL    HW116331   1.819   1.564   5.122
 5144SOL    HW216332   1.892   1.704   5.082
 5145SOL     OW16333   3.848   5.527   6.060
 5145SOL    HW116334   3.755   5.494   6.077
 5145SOL    HW216335   3.891   5.469   5.991
 5146SOL     OW16336   3.694   4.848   1.009
 5146SOL    HW116337   3.660   4.846   0.915
 5146SOL    HW216338   3.621   4.820   1.071
 5147SOL     OW16339   0.381   5.049   6.436
 5147SOL    HW116340   0.434   5.038   6.520
 5147SOL    HW216341   0.413   5.129   6.385
 5148SOL     OW16342   0.142   0.640   1.420
 5148SOL    HW116343   0.181   0.549   1.407
 5148SOL    HW216344   0.140   0.663   1.517
 5149SOL     OW16345   6.932   0.584   5.621
 5149SOL    HW116346   0.003   0.614   5.631
 5149SOL    HW216347   6.885   0.644   5.555
 5150SOL     OW16348   2.566   5.803   5.384
 5150SOL    HW116349   2.659   5.791   5.419
 5150SOL    HW216350   2.544   5.901   5.383
 5151SOL     OW16351   4.377   0.111   5.626
 5151SOL    HW116352   4.457   0.076   5.578
 5151SOL    HW216353   4.394   0.205   5.654
 5152SOL     OW16354   6.440   4.878   6.768
 5152SOL    HW116355   6.469   4.799   6.714
 5152SOL    HW216356   6.389   4.941   6.709
 5153SOL     OW16357   2.314   2.754   0.703
 5153SOL    HW116358   2.328   2.703   0.788
 5153SOL    HW216359   2.364   2.710   0.629
 5154SOL     OW16360   1.277   4.592   4.836
 5154SOL    HW116361   1.250   4.513   4.890
 5154SOL    HW216362   1.214   4.667   4.852
 5155SOL     OW16363   3.985   0.499   1.956
 5155SOL    HW116364   3.905   0.518   2.012
 5155SOL    HW216365   3.962   0.432   1.885
 5156SOL     OW16366   5.281   3.275   6.311
 5156SOL    HW116367   5.262   3.229   6.224
 5156SOL    HW216368   5.194   3.304   6.352
 5157SOL     OW16369   6.062   2.392   3.787
 5157SOL    HW116370   5.997   2.406   3.713
 5157SOL    HW216371   6.156   2.402   3.753
 5158SOL     OW16372   3.827   0.351   1.197
 5158SOL    HW116373   3.758   0.281   1.177
 5158SOL    HW216374   3.782   0.439   1.214
 5159SOL     OW16375   2.069   3.304   4.990
 5159SOL    HW116376   2.126   3.381   5.020
 5159SOL    HW216377   2.102   3.220   5.032
 5160SOL     OW16378   2.651   2.478   3.731
 5160SOL    HW116379   2.693   2.387   3.733
 5160SOL    HW216380   2.720   2.547   3.751
 5161SOL     OW16381   2.218   3.377   0.040
 5161SOL    HW116382   2.195   3.316   0.116
 5161SOL    HW216383   2.148   3.448   0.032
 5162SOL     OW16384   6.473   5.620   4.638
 5162SOL    HW116385   6.416   5.538   4.638
 5162SOL    HW216386   6.534   5.619   4.717
 5163SOL     OW16387   5.715   4.018   0.370
 5163SOL    HW116388   5.694   4.074   0.450
 5163SOL    HW216389   5.635   3.961   0.347
 5164SOL     OW16390   6.563   6.102   4.778
 5164SOL    HW116391   6.535   6.077   4.870
 5164SOL    HW216392   6.560   6.201   4.767
 5165SOL     OW16393   5.471   3.968   5.113
 5165SOL    HW116394   5.448   3.932   5.203
 5165SOL    HW216395   5.569   3.988   5.109
 5166SOL     OW16396   0.678   0.064   3.087
 5166SOL    HW116397   0.620   7.021   3.041
 5166SOL    HW216398   0.722   0.123   3.020
 5167SOL     OW16399   1.931   0.376   5.296
 5167SOL    HW116400   1.928   0.283   5.260
 5167SOL    HW216401   2.011   0.387   5.355
 5168SOL     OW16402   3.638   2.085   2.324
 5168SOL    HW116403   3.652   2.017   2.253
 5168SOL    HW216404   3.551   2.132   2.309
 5169SOL     OW16405   3.772   5.269   6.420
 5169SOL    HW116406   3.673   5.256   6.414
 5169SOL    HW216407   3.811   5.201   6.482
 5170SOL     OW16408   4.172   5.530   4.372
 5170SOL    HW116409   4.135   5.512   4.281
 5170SOL    HW216410   4.221   5.450   4.405
 5171SOL     OW16411   2.809   4.867   5.186
 5171SOL    HW116412   2.831   4.856   5.283
 5171SOL    HW216413   2.874   4.815   5.131
 5172SOL     OW16414   2.077   3.868   6.248
 5172SOL    HW116415   1.991   3.918   6.254
 5172SOL    HW216416   2.111   3.872   6.154
 5173SOL     OW16417   6.997   2.699   4.466
 5173SOL    HW116418   7.010   2.627   4.535
 5173SOL    HW216419   6.955   2.779   4.509
 5174SOL     OW16420   3.004   4.960   6.812
 5174SOL    HW116421   3.102   4.959   6.830
 5174SOL    HW216422   2.955   4.997   6.891
 5175SOL     OW16423   0.005   5.138   6.647
 5175SOL    HW116424   6.942   5.162   6.603
 5175SOL    HW216425   0.063   5.088   6.583
 5176SOL     OW16426   5.414   3.609   6.261
 5176SOL    HW116427   5.386   3.647   6.349
 5176SOL    HW216428   5.349   3.636   6.191
 5177SOL     OW16429   5.133   4.886   6.035
 5177SOL    HW116430   5.098   4.917   6.124
 5177SOL    HW216431   5.105   4.951   5.964
 5178SOL     OW16432   3.408   4.230   0.247
 5178SOL    HW116433   3.411   4.236   0.347
 5178SOL    HW216434   3.318   4.198   0.218
 5179SOL     OW16435   3.157   6.574   5.153
 5179SOL    HW116436   3.210   6.644   5.202
 5179SOL    HW216437   3.114   6.512   5.219
 5180SOL     OW16438   4.820   1.619   0.064
 5180SOL    HW116439   4.865   1.706   0.084
 5180SOL    HW216440   4.885   1.557   0.020
 5181SOL     OW16441   2.858   6.023   2.143
 5181SOL    HW116442   2.802   5.940   2.138
 5181SOL    HW216443   2.914   6.020   2.226
 5182SOL     OW16444   4.665   4.115   1.111
 5182SOL    HW116445   4.623   4.109   1.202
 5182SOL    HW216446   4.602   4.162   1.049
 5183SOL     OW16447   3.668   0.413   3.753
 5183SOL    HW116448   3.765   0.436   3.746
 5183SOL    HW216449   3.629   0.456   3.835
 5184SOL     OW16450   0.891   2.547   3.191
 5184SOL    HW116451   0.831   2.514   3.263
 5184SOL    HW216452   0.836   2.571   3.111
 5185SOL     OW16453   3.980   0.128   1.542
 5185SOL    HW116454   4.009   0.086   1.628
 5185SOL    HW216455   3.928   0.212   1.562
 5186SOL     OW16456   5.587   4.186   6.825
 5186SOL    HW116457   5.524   4.253   6.785
 5186SOL    HW216458   5.681   4.217   6.813
 5187SOL     OW16459   4.911   3.191   4.319
 5187SOL    HW116460   4.870   3.142   4.395
 5187SOL    HW216461   4.934   3.284   4.348
 5188SOL     OW16462   6.993   0.902   3.362
 5188SOL    HW116463   6.977   0.804   3.345
 5188SOL    HW216464   0.035   0.937   3.295
 5189SOL     OW16465   4.815   5.094   5.927
 5189SOL    HW116466   4.820   5.166   5.857
 5189SOL    HW216467   4.865   5.124   6.008
 5190SOL     OW16468   2.428   2.151   2.255
 5190SOL    HW116469   2.423   2.075   2.190
 5190SOL    HW216470   2.417   2.237   2.205
 5191SOL     OW16471   4.935   0.778   2.254
 5191SOL    HW116472   4.890   0.755   2.168
 5191SOL    HW216473   4.922   0.875   2.274
 5192SOL     OW16474   6.267   4.315   1.112
 5192SOL    HW116475   6.363   4.324   1.141
 5192SOL    HW216476   6.208   4.354   1.183
 5193SOL     OW16477   4.056   4.825   2.423
 5193SOL    HW116478   4.085   4.809   2.517
 5193SOL    HW216479   4.077   4.745   2.367
 5194SOL     OW16480   4.935   1.022   0.422
 5194SOL    HW116481   5.024   1.064   0.405
 5194SOL    HW216482   4.938   0.926   0.394
 5195SOL     OW16483   0.362   5.698   5.081
 5195SOL    HW116484   0.300   5.626   5.111
 5195SOL    HW216485   0.317   5.787   5.094
 5196SOL     OW16486   0.576   3.565   3.844
 5196SOL    HW116487   0.505   3.497   3.823
 5196SOL    HW216488   0.535   3.656   3.848
 5197SOL     OW16489   4.091   5.936   5.213
 5197SOL    HW116490   3.996   5.954   5.187
 5197SOL    HW216491   4.103   5.952   5.311
 5198SOL     OW16492   4.220   1.087   5.754
 5198SOL    HW116493   4.186   1.176   5.724
 5198SOL    HW216494   4.179   1.015   5.698
 5199SOL     OW16495   0.929   5.982   2.208
 5199SOL    HW116496   0.926   6.081   2.193
 5199SOL    HW216497   0.894   5.935   2.127
 5200SOL     OW16498   5.939   6.658   5.378
 5200SOL    HW116499   5.965   6.750   5.348
 5200SOL    HW216500   5.857   6.663   5.434
 5201SOL     OW16501   6.943   3.977   5.160
 5201SOL    HW116502   6.971   3.893   5.206
 5201SOL    HW216503   7.016   4.007   5.098
 5202SOL     OW16504   3.801   2.169   5.923
 5202SOL    HW116505   3.728   2.140   5.862
 5202SOL    HW216506   3.881   2.111   5.910
 5203SOL     OW16507   0.952   0.449   6.396
 5203SOL    HW116508   0.871   0.472   6.342
 5203SOL    HW216509   0.931   0.459   6.494
 5204SOL     OW16510   2.017   0.611   2.018
 5204SOL    HW116511   2.096   0.663   2.051
 5204SOL    HW216512   1.935   0.669   2.021
 5205SOL     OW16513   6.732   0.129   1.901
 5205SOL    HW116514   6.771   0.113   1.810
 5205SOL    HW216515   6.797   0.096   1.970
 5206SOL     OW16516   1.104   5.087   5.011
 5206SOL    HW116517   1.185   5.045   5.051
 5206SOL    HW216518   1.094   5.056   4.917
 5207SOL     OW16519   4.456   0.908   5.006
 5207SOL    HW116520   4.356   0.905   5.006
 5207SOL    HW216521   4.492   0.840   5.069
 5208SOL     OW16522   6.741   1.611   0.148
 5208SOL    HW116523   6.727   1.552   0.227
 5208SOL    HW216524   6.717   1.705   0.171
 5209SOL     OW16525   4.822   6.369   2.226
 5209SOL    HW116526   4.890   6.413   2.168
 5209SOL    HW216527   4.768   6.304   2.172
 5210SOL     OW16528   5.981   4.207   1.409
 5210SOL    HW116529   6.027   4.263   1.340
 5210SOL    HW216530   5.883   4.228   1.409
 5211SOL     OW16531   5.041   2.962   4.799
 5211SOL    HW116532   5.111   2.901   4.761
 5211SOL    HW216533   5.042   3.049   4.751
 5212SOL     OW16534   6.601   3.506   6.814
 5212SOL    HW116535   6.563   3.586   6.862
 5212SOL    HW216536   6.586   3.424   6.869
 5213SOL     OW16537   3.388   3.280   3.795
 5213SOL    HW116538   3.315   3.267   3.728
 5213SOL    HW216539   3.437   3.365   3.775
 5214SOL     OW16540   5.226   3.096   6.104
 5214SOL    HW116541   5.237   3.028   6.177
 5214SOL    HW216542   5.277   3.066   6.023
 5215SOL     OW16543   0.197   5.018   4.960
 5215SOL    HW116544   0.281   5.065   4.935
 5215SOL    HW216545   0.193   4.929   4.914
 5216SOL     OW16546   6.415   4.539   0.628
 5216SOL    HW116547   6.510   4.555   0.601
 5216SOL    HW216548   6.413   4.479   0.708
 5217SOL     OW16549   3.322   0.109   2.656
 5217SOL    HW116550   3.256   0.090   2.583
 5217SOL    HW216551   3.280   0.170   2.723
 5218SOL     OW16552   6.236   0.357   0.589
 5218SOL    HW116553   6.261   0.386   0.497
 5218SOL    HW216554   6.173   0.279   0.583
 5219SOL     OW16555   4.458   1.909   4.966
 5219SOL    HW116556   4.441   2.000   4.927
 5219SOL    HW216557   4.541   1.871   4.926
 5220SOL     OW16558   1.926   4.319   4.270
 5220SOL    HW116559   1.829   4.341   4.273
 5220SOL    HW216560   1.939   4.221   4.283
 5221SOL     OW16561   4.737   5.939   0.977
 5221SOL    HW116562   4.677   5.945   1.057
 5221SOL    HW216563   4.795   6.020   0.973
 5222SOL     OW16564   6.289   3.026   2.551
 5222SOL    HW116565   6.385   3.046   2.533
 5222SOL    HW216566   6.277   2.928   2.568
 5223SOL     OW16567   0.142   2.327   0.993
 5223SOL    HW116568   0.079   2.405   0.989
 5223SOL    HW216569   0.134   2.282   1.082
 5224SOL     OW16570   1.613   1.391   4.361
 5224SOL    HW116571   1.630   1.440   4.275
 5224SOL    HW216572   1.535   1.431   4.408
 5225SOL     OW16573   0.134   2.434   6.138
 5225SOL    HW116574   0.170   2.341   6.149
 5225SOL    HW216575   0.105   2.448   6.043
 5226SOL     OW16576   0.024   6.898   4.086
 5226SOL    HW116577   0.042   6.996   4.090
 5226SOL    HW216578   0.111   6.849   4.072
 5227SOL     OW16579   2.004   2.742   6.351
 5227SOL    HW116580   2.061   2.722   6.271
 5227SOL    HW216581   2.042   2.821   6.400
 5228SOL     OW16582   1.129   2.293   5.127
 5228SOL    HW116583   1.063   2.361   5.159
 5228SOL    HW216584   1.197   2.337   5.068
 5229SOL     OW16585   4.121   1.716   0.027
 5229SOL    HW116586   4.132   1.657   0.107
 5229SOL    HW216587   4.046   1.683   6.994
 5230SOL     OW16588   6.720   0.400   1.965
 5230SOL    HW116589   6.650   0.421   1.896
 5230SOL    HW216590   6.730   0.301   1.973
 5231SOL     OW16591   6.434   3.763   1.844
 5231SOL    HW116592   6.435   3.842   1.783
 5231SOL    HW216593   6.447   3.793   1.939
 5232SOL     OW16594   1.633   1.820   6.005
 5232SOL    HW116595   1.540   1.816   5.970
 5232SOL    HW216596   1.695   1.850   5.933
 5233SOL     OW16597   2.512   0.089   3.560
 5233SOL    HW116598   2.605   0.120   3.578
 5233SOL    HW216599   2.473   0.051   3.644
 5234SOL     OW16600   3.220   2.178   6.370
 5234SOL    HW116601   3.200   2.223   6.283
 5234SOL    HW216602   3.147   2.197   6.435
 5235SOL     OW16603   2.068   2.871   1.431
 5235SOL    HW116604   1.992   2.935   1.419
 5235SOL    HW216605   2.137   2.888   1.361
 5236SOL     OW16606   2.958   5.031   2.221
 5236SOL    HW116607   3.008   5.065   2.141
 5236SOL    HW216608   2.945   4.932   2.212
 5237SOL     OW16609   1.533   1.591   1.458
 5237SOL    HW116610   1.615   1.642   1.435
 5237SOL    HW216611   1.517   1.521   1.388
 5238SOL     OW16612   5.979   0.729   3.078
 5238SOL    HW116613   5.944   0.674   3.153
 5238SOL    HW216614   6.037   0.803   3.114
 5239SOL     OW16615   2.603   3.807   6.937
 5239SOL    HW116616   2.619   3.709   6.925
 5239SOL    HW216617   2.516   3.821   6.984
 5240SOL     OW16618   1.774   4.113   5.756
 5240SOL    HW116619   1.752   4.151   5.666
 5240SOL    HW216620   1.741   4.174   5.827
 5241SOL     OW16621   2.229   5.776   3.672
 5241SOL    HW116622   2.148   5.827   3.643
 5241SOL    HW216623   2.202   5.685   3.703
 5242SOL     OW16624   4.084   6.159   5.861
 5242SOL    HW116625   4.134   6.077   5.887
 5242SOL    HW216626   4.128   6.202   5.782
 5243SOL     OW16627   1.747   5.910   3.698
 5243SOL    HW116628   1.767   5.834   3.760
 5243SOL    HW216629   1.648   5.925   3.695
 5244SOL     OW16630   5.608   0.743   6.337
 5244SOL    HW116631   5.508   0.744   6.340
 5244SOL    HW216632   5.641   0.830   6.300
 5245SOL     OW16633   3.272   3.827   2.001
 5245SOL    HW116634   3.216   3.774   1.937
 5245SOL    HW216635   3.310   3.907   1.954
 5246SOL     OW16636   6.123   2.849   5.703
 5246SOL    HW116637   6.190   2.834   5.776
 5246SOL    HW216638   6.168   2.888   5.624
 5247SOL     OW16639   4.703   1.072   5.694
 5247SOL    HW116640   4.734   1.066   5.599
 5247SOL    HW216641   4.687   1.168   5.717
 5248SOL     OW16642   4.358   1.318   2.667
 5248SOL    HW116643   4.311   1.305   2.580
 5248SOL    HW216644   4.298   1.365   2.731
 5249SOL     OW16645   0.065   5.754   1.847
 5249SOL    HW116646   0.136   5.823   1.834
 5249SOL    HW216647   0.101   5.680   1.903
 5250SOL     OW16648   1.561   4.850   0.682
 5250SOL    HW116649   1.553   4.867   0.584
 5250SOL    HW216650   1.656   4.865   0.711
 5251SOL     OW16651   1.227   4.584   6.498
 5251SOL    HW116652   1.213   4.512   6.566
 5251SOL    HW216653   1.316   4.570   6.453
 5252SOL     OW16654   4.069   6.332   2.977
 5252SOL    HW116655   4.041   6.260   3.041
 5252SOL    HW216656   4.127   6.398   3.024
 5253SOL     OW16657   0.148   5.795   4.752
 5253SOL    HW116658   0.101   5.849   4.681
 5253SOL    HW216659   0.233   5.759   4.715
 5254SOL     OW16660   4.593   6.073   1.821
 5254SOL    HW116661   4.545   6.148   1.775
 5254SOL    HW216662   4.669   6.043   1.764
 5255SOL     OW16663   0.618   1.463   6.353
 5255SOL    HW116664   0.686   1.476   6.425
 5255SOL    HW216665   0.591   1.366   6.350
 5256SOL     OW16666   4.272   2.108   2.704
 5256SOL    HW116667   4.362   2.087   2.741
 5256SOL    HW216668   4.279   2.122   2.605
 5257SOL     OW16669   5.565   1.152   0.286
 5257SOL    HW116670   5.505   1.187   0.214
 5257SOL    HW216671   5.552   1.053   0.295
 5258SOL     OW16672   5.771   1.746   5.550
 5258SOL    HW116673   5.784   1.802   5.469
 5258SOL    HW216674   5.853   1.691   5.567
 5259SOL     OW16675   4.834   6.050   4.422
 5259SOL    HW116676   4.848   6.064   4.324
 5259SOL    HW216677   4.747   6.091   4.450
 5260SOL     OW16678   1.699   6.769   1.797
 5260SOL    HW116679   1.712   6.708   1.719
 5260SOL    HW216680   1.601   6.780   1.816
 5261SOL     OW16681   6.088   4.707   0.251
 5261SOL    HW116682   5.990   4.696   0.270
 5261SOL    HW216683   6.140   4.639   0.302
 5262SOL     OW16684   2.287   2.001   1.646
 5262SOL    HW116685   2.353   2.057   1.596
 5262SOL    HW216686   2.302   2.012   1.744
 5263SOL     OW16687   0.631   5.989   2.641
 5263SOL    HW116688   0.620   5.907   2.586
 5263SOL    HW216689   0.723   6.026   2.629
 5264SOL     OW16690   6.665   2.228   2.232
 5264SOL    HW116691   6.578   2.234   2.182
 5264SOL    HW216692   6.734   2.283   2.184
 5265SOL     OW16693   0.839   5.553   5.839
 5265SOL    HW116694   0.751   5.533   5.797
 5265SOL    HW216695   0.847   5.651   5.857
 5266SOL     OW16696   1.284   0.120   6.506
 5266SOL    HW116697   1.281   0.028   6.466
 5266SOL    HW216698   1.341   0.179   6.449
 5267SOL     OW16699   6.181   0.906   4.835
 5267SOL    HW116700   6.251   0.902   4.763
 5267SOL    HW216701   6.210   0.970   4.905
 5268SOL     OW16702   6.077   0.454   5.924
 5268SOL    HW116703   5.999   0.392   5.936
 5268SOL    HW216704   6.054   0.544   5.958
 5269SOL     OW16705   1.189   0.549   4.409
 5269SOL    HW116706   1.283   0.566   4.440
 5269SOL    HW216707   1.145   0.636   4.388
 5270SOL     OW16708   1.182   1.323   7.021
 5270SOL    HW116709   1.102   1.330   0.058
 5270SOL    HW216710   1.251   1.389   0.026
 5271SOL     OW16711   1.415   6.102   6.218
 5271SOL    HW116712   1.509   6.085   6.187
 5271SOL    HW216713   1.384   6.026   6.274
 5272SOL     OW16714   4.168   0.352   6.054
 5272SOL    HW116715   4.136   0.280   6.115
 5272SOL    HW216716   4.103   0.428   6.055
 5273SOL     OW16717   2.314   1.500   3.232
 5273SOL    HW116718   2.244   1.485   3.302
 5273SOL    HW216719   2.337   1.413   3.189
 5274SOL     OW16720   5.863   4.003   1.165
 5274SOL    HW116721   5.892   3.936   1.096
 5274SOL    HW216722   5.872   4.095   1.127
 5275SOL     OW16723   6.076   0.594   6.319
 5275SOL    HW116724   6.172   0.589   6.291
 5275SOL    HW216725   6.069   0.629   6.412
 5276SOL     OW16726   3.532   6.677   1.628
 5276SOL    HW116727   3.605   6.683   1.559
 5276SOL    HW216728   3.526   6.583   1.661
 5277SOL     OW16729   1.598   3.506   1.748
 5277SOL    HW116730   1.547   3.547   1.673
 5277SOL    HW216731   1.595   3.406   1.739
 5278SOL     OW16732   4.111   3.747   3.127
 5278SOL    HW116733   4.206   3.780   3.126
 5278SOL    HW216734   4.058   3.797   3.058
 5279SOL     OW16735   1.312   6.331   3.001
 5279SOL    HW116736   1.382   6.401   2.992
 5279SOL    HW216737   1.222   6.372   2.988
 5280SOL     OW16738   3.959   0.461   3.737
 5280SOL    HW116739   3.973   0.505   3.826
 5280SOL    HW216740   3.949   0.362   3.751
 5281SOL     OW16741   6.651   2.754   3.901
 5281SOL    HW116742   6.566   2.704   3.884
 5281SOL    HW216743   6.728   2.690   3.897
 5282SOL     OW16744   5.158   2.597   0.961
 5282SOL    HW116745   5.141   2.500   0.977
 5282SOL    HW216746   5.236   2.627   1.016
 5283SOL     OW16747   4.866   5.024   5.394
 5283SOL    HW116748   4.793   4.967   5.434
 5283SOL    HW216749   4.902   4.979   5.312
 5284SOL     OW16750   5.180   2.675   4.513
 5284SOL    HW116751   5.147   2.762   4.476
 5284SOL    HW216752   5.106   2.608   4.514
 5285SOL     OW16753   4.307   5.910   2.694
 5285SOL    HW116754   4.244   5.972   2.741
 5285SOL    HW216755   4.313   5.936   2.597
 5286SOL     OW16756   1.916   4.621   2.339
 5286SOL    HW116757   1.975   4.540   2.337
 5286SOL    HW216758   1.954   4.688   2.404
 5287SOL     OW16759   0.831   0.579   2.489
 5287SOL    HW116760   0.781   0.492   2.490
 5287SOL    HW216761   0.914   0.570   2.544
 5288SOL     OW16762   3.874   0.438   0.942
 5288SOL    HW116763   3.950   0.478   0.889
 5288SOL    HW216764   3.908   0.407   1.031
 5289SOL     OW16765   1.885   6.987   1.734
 5289SOL    HW116766   1.865   7.005   1.637
 5289SOL    HW216767   1.827   6.912   1.766
 5290SOL     OW16768   6.155   6.800   6.571
 5290SOL    HW116769   6.182   6.774   6.664
 5290SOL    HW216770   6.143   6.900   6.567
 5291SOL     OW16771   1.132   5.760   6.946
 5291SOL    HW116772   1.048   5.739   6.896
 5291SOL    HW216773   1.169   5.847   6.913
 5292SOL     OW16774   5.570   1.701   1.483
 5292SOL    HW116775   5.540   1.711   1.578
 5292SOL    HW216776   5.654   1.646   1.481
 5293SOL     OW16777   1.761   1.466   3.801
 5293SOL    HW116778   1.673   1.428   3.772
 5293SOL    HW216779   1.757   1.488   3.898
 5294SOL     OW16780   3.607   1.756   6.647
 5294SOL    HW116781   3.637   1.736   6.554
 5294SOL    HW216782   3.608   1.855   6.662
 5295SOL     OW16783   0.026   1.670   3.223
 5295SOL    HW116784   0.013   1.743   3.289
 5295SOL    HW216785   7.002   1.588   3.254
 5296SOL     OW16786   0.553   2.759   6.425
 5296SOL    HW116787   0.599   2.848   6.416
 5296SOL    HW216788   0.621   2.687   6.436
 5297SOL     OW16789   0.994   2.170   1.666
 5297SOL    HW116790   0.976   2.247   1.727
 5297SOL    HW216791   0.979   2.197   1.571
 5298SOL     OW16792   1.053   4.000   1.809
 5298SOL    HW116793   1.135   3.982   1.863
 5298SOL    HW216794   0.977   4.022   1.870
 5299SOL     OW16795   3.864   0.162   6.987
 5299SOL    HW116796   3.851   0.241   6.927
 5299SOL    HW216797   3.960   0.154   7.012
 5300SOL     OW16798   6.373   4.821   4.529
 5300SOL    HW116799   6.366   4.857   4.436
 5300SOL    HW216800   6.453   4.861   4.574
 5301SOL     OW16801   5.567   0.081   6.932
 5301SOL    HW116802   5.621   0.122   6.858
 5301SOL    HW216803   5.590   0.125   7.018
 5302SOL     OW16804   6.700   4.084   3.105
 5302SOL    HW116805   6.736   3.998   3.140
 5302SOL    HW216806   6.607   4.099   3.141
 5303SOL     OW16807   2.256   4.741   2.685
 5303SOL    HW116808   2.305   4.827   2.675
 5303SOL    HW216809   2.242   4.722   2.782
 5304SOL     OW16810   4.797   1.564   5.852
 5304SOL    HW116811   4.882   1.572   5.800
 5304SOL    HW216812   4.726   1.619   5.808
 5305SOL     OW16813   4.026   1.683   4.724
 5305SOL    HW116814   4.099   1.615   4.734
 5305SOL    HW216815   4.040   1.757   4.790
 5306SOL     OW16816   2.369   6.682   2.864
 5306SOL    HW116817   2.442   6.644   2.807
 5306SOL    HW216818   2.390   6.665   2.960
 5307SOL     OW16819   5.158   6.333   6.555
 5307SOL    HW116820   5.173   6.235   6.538
 5307SOL    HW216821   5.101   6.371   6.483
 5308SOL     OW16822   0.088   1.379   1.551
 5308SOL    HW116823   0.182   1.395   1.520
 5308SOL    HW216824   0.089   1.352   1.647
 5309SOL     OW16825   3.663   3.623   5.715
 5309SOL    HW116826   3.667   3.533   5.672
 5309SOL    HW216827   3.572   3.662   5.703
 5310SOL     OW16828   4.934   2.784   0.211
 5310SOL    HW116829   4.875   2.858   0.241
 5310SOL    HW216830   4.939   2.714   0.282
 5311SOL     OW16831   0.057   5.957   0.306
 5311SOL    HW116832   0.003   5.973   0.389
 5311SOL    HW216833   0.113   5.875   0.319
 5312SOL     OW16834   0.229   4.004   1.857
 5312SOL    HW116835   0.325   3.985   1.879
 5312SOL    HW216836   0.190   3.926   1.808
 5313SOL     OW16837   0.078   6.249   6.702
 5313SOL    HW116838   7.013   6.249   6.657
 5313SOL    HW216839   0.125   6.336   6.684
 5314SOL     OW16840   3.808   4.877   0.562
 5314SOL    HW116841   3.711   4.890   0.581
 5314SOL    HW216842   3.822   4.789   0.515
 5315SOL     OW16843   5.599   1.423   2.504
 5315SOL    HW116844   5.565   1.497   2.445
 5315SOL    HW216845   5.522   1.378   2.548
 5316SOL     OW16846   5.455   4.977   4.730
 5316SOL    HW116847   5.405   5.052   4.773
 5316SOL    HW216848   5.534   4.953   4.787
 5317SOL     OW16849   6.760   4.801   1.648
 5317SOL    HW116850   6.855   4.826   1.666
 5317SOL    HW216851   6.707   4.806   1.733
 5318SOL     OW16852   6.467   2.598   3.758
 5318SOL    HW116853   6.424   2.513   3.726
 5318SOL    HW216854   6.444   2.673   3.696
 5319SOL     OW16855   3.226   6.510   2.720
 5319SOL    HW116856   3.143   6.532   2.668
 5319SOL    HW216857   3.306   6.534   2.666
 5320SOL     OW16858   6.301   2.098   6.955
 5320SOL    HW116859   6.216   2.106   6.903
 5320SOL    HW216860   6.308   2.007   6.996
 5321SOL     OW16861   2.675   4.526   6.990
 5321SOL    HW116862   2.627   4.613   6.997
 5321SOL    HW216863   2.710   4.500   0.056
 5322SOL     OW16864   2.919   6.574   0.670
 5322SOL    HW116865   2.828   6.576   0.629
 5322SOL    HW216866   2.974   6.504   0.624
 5323SOL     OW16867   6.593   3.109   0.448
 5323SOL    HW116868   6.512   3.052   0.464
 5323SOL    HW216869   6.608   3.168   0.527
 5324SOL     OW16870   4.171   3.522   1.915
 5324SOL    HW116871   4.158   3.511   2.013
 5324SOL    HW216872   4.141   3.613   1.886
 5325SOL     OW16873   2.972   6.512   5.622
 5325SOL    HW116874   2.912   6.448   5.671
 5325SOL    HW216875   3.066   6.500   5.652
 5326SOL     OW16876   5.978   0.877   3.380
 5326SOL    HW116877   5.900   0.822   3.411
 5326SOL    HW216878   6.025   0.915   3.460
 5327SOL     OW16879   6.224   0.174   3.964
 5327SOL    HW116880   6.219   0.107   4.037
 5327SOL    HW216881   6.165   0.145   3.888
 5328SOL     OW16882   2.264   4.589   6.422
 5328SOL    HW116883   2.226   4.629   6.339
 5328SOL    HW216884   2.326   4.514   6.398
 5329SOL     OW16885   0.254   6.767   6.284
 5329SOL    HW116886   0.179   6.809   6.336
 5329SOL    HW216887   0.265   6.815   6.197
 5330SOL     OW16888   4.518   4.386   0.947
 5330SOL    HW116889   4.474   4.444   0.878
 5330SOL    HW216890   4.538   4.441   1.028
 5331SOL     OW16891   5.892   1.254   6.721
 5331SOL    HW116892   5.893   1.328   6.788
 5331SOL    HW216893   5.848   1.174   6.761
 5332SOL     OW16894   6.864   3.220   7.009
 5332SOL    HW116895   6.898   3.127   0.000
 5332SOL    HW216896   6.799   3.221   6.933
 5333SOL     OW16897   0.335   6.551   4.141
 5333SOL    HW116898   0.238   6.527   4.152
 5333SOL    HW216899   0.350   6.587   4.049
 5334SOL     OW16900   3.494   5.938   1.072
 5334SOL    HW116901   3.514   5.898   1.162
 5334SOL    HW216902   3.479   5.865   1.005
 5335SOL     OW16903   0.310   5.372   1.803
 5335SOL    HW116904   0.271   5.322   1.725
 5335SOL    HW216905   0.380   5.317   1.847
 5336SOL     OW16906   1.290   3.086   5.260
 5336SOL    HW116907   1.329   3.117   5.174
 5336SOL    HW216908   1.347   3.117   5.336
 5337SOL     OW16909   6.449   1.835   0.758
 5337SOL    HW116910   6.370   1.798   0.708
 5337SOL    HW216911   6.418   1.880   0.842
 5338SOL     OW16912   6.987   3.116   1.692
 5338SOL    HW116913   7.007   3.203   1.649
 5338SOL    HW216914   6.933   3.131   1.775
 5339SOL     OW16915   4.942   3.802   3.116
 5339SOL    HW116916   5.014   3.872   3.119
 5339SOL    HW216917   4.934   3.759   3.206
 5340SOL     OW16918   5.352   3.872   1.677
 5340SOL    HW116919   5.352   3.918   1.588
 5340SOL    HW216920   5.445   3.864   1.711
 5341SOL     OW16921   4.794   5.486   3.596
 5341SOL    HW116922   4.806   5.487   3.497
 5341SOL    HW216923   4.874   5.525   3.640
 5342SOL     OW16924   6.225   5.048   4.941
 5342SOL    HW116925   6.296   5.016   4.878
 5342SOL    HW216926   6.250   5.026   5.035
 5343SOL     OW16927   3.348   3.615   6.876
 5343SOL    HW116928   3.271   3.623   6.812
 5343SOL    HW216929   3.422   3.562   6.833
 5344SOL     OW16930   5.883   1.532   6.815
 5344SOL    HW116931   5.787   1.511   6.833
 5344SOL    HW216932   5.901   1.628   6.837
 5345SOL     OW16933   3.567   1.330   0.193
 5345SOL    HW116934   3.589   1.304   0.100
 5345SOL    HW216935   3.561   1.248   0.250
 5346SOL     OW16936   2.169   5.956   2.919
 5346SOL    HW116937   2.243   5.894   2.945
 5346SOL    HW216938   2.195   6.050   2.942
 5347SOL     OW16939   6.136   2.247   5.303
 5347SOL    HW116940   6.038   2.229   5.311
 5347SOL    HW216941   6.151   2.324   5.241
 5348SOL     OW16942   4.970   2.489   5.306
 5348SOL    HW116943   4.943   2.558   5.374
 5348SOL    HW216944   4.916   2.501   5.223
 5349SOL     OW16945   0.817   4.117   0.445
 5349SOL    HW116946   0.869   4.038   0.478
 5349SOL    HW216947   0.752   4.146   0.515
 5350SOL     OW16948   1.268   0.184   6.804
 5350SOL    HW116949   1.286   0.175   6.706
 5350SOL    HW216950   1.240   0.277   6.826
 5351SOL     OW16951   0.495   5.606   3.980
 5351SOL    HW116952   0.555   5.539   4.023
 5351SOL    HW216953   0.541   5.644   3.899
 5352SOL     OW16954   0.415   2.678   5.892
 5352SOL    HW116955   0.340   2.642   5.837
 5352SOL    HW216956   0.390   2.675   5.989
 5353SOL     OW16957   2.383   6.966   2.938
 5353SOL    HW116958   2.381   6.882   2.883
 5353SOL    HW216959   2.294   6.980   2.981
 5354SOL     OW16960   3.457   6.092   2.051
 5354SOL    HW116961   3.498   6.062   2.137
 5354SOL    HW216962   3.415   6.013   2.005
 5355SOL     OW16963   5.157   4.542   5.325
 5355SOL    HW116964   5.224   4.499   5.265
 5355SOL    HW216965   5.164   4.502   5.416
 5356SOL     OW16966   6.867   6.864   1.521
 5356SOL    HW116967   6.772   6.849   1.492
 5356SOL    HW216968   6.925   6.872   1.440
 5357SOL     OW16969   6.328   3.403   2.542
 5357SOL    HW116970   6.279   3.483   2.509
 5357SOL    HW216971   6.283   3.320   2.508
 5358SOL     OW16972   5.839   0.244   6.801
 5358SOL    HW116973   5.923   0.199   6.834
 5358SOL    HW216974   5.817   0.321   6.861
 5359SOL     OW16975   3.711   2.148   6.984
 5359SOL    HW116976   3.626   2.164   6.933
 5359SOL    HW216977   3.749   2.235   7.013
 5360SOL     OW16978   5.062   5.883   3.427
 5360SOL    HW116979   5.144   5.826   3.425
 5360SOL    HW216980   5.086   5.974   3.460
 5361SOL     OW16981   1.244   3.932   2.724
 5361SOL    HW116982   1.340   3.958   2.729
 5361SOL    HW216983   1.229   3.848   2.777
 5362SOL     OW16984   5.911   1.649   3.780
 5362SOL    HW116985   5.998   1.642   3.732
 5362SOL    HW216986   5.881   1.558   3.808
 5363SOL     OW16987   6.665   4.771   5.754
 5363SOL    HW116988   6.706   4.855   5.790
 5363SOL    HW216989   6.703   4.692   5.803
 5364SOL     OW16990   4.815   2.352   1.419
 5364SOL    HW116991   4.840   2.261   1.452
 5364SOL    HW216992   4.891   2.390   1.366
 5365SOL     OW16993   3.508   3.134   6.086
 5365SOL    HW116994   3.487   3.107   5.992
 5365SOL    HW216995   3.539   3.055   6.138
 5366SOL     OW16996   0.133   4.174   3.743
 5366SOL    HW116997   0.069   4.175   3.819
 5366SOL    HW216998   0.128   4.085   3.696
 5367SOL     OW16999   6.337   6.025   1.231
 5367SOL    HW117000   6.432   6.041   1.203
 5367SOL    HW217001   6.317   5.927   1.225
 5368SOL     OW17002   0.149   5.664   5.337
 5368SOL    HW117003   0.067   5.631   5.384
 5368SOL    HW217004   0.230   5.618   5.373
 5369SOL     OW17005   3.444   0.007   2.244
 5369SOL    HW117006   3.351   0.029   2.273
 5369SOL    HW217007   3.503   0.002   2.324
 5370SOL     OW17008   2.520   1.971   0.280
 5370SOL    HW117009   2.608   1.924   0.278
 5370SOL    HW217010   2.516   2.031   0.360
 5371SOL     OW17011   6.413   5.138   3.671
 5371SOL    HW117012   6.404   5.039   3.678
 5371SOL    HW217013   6.379   5.181   3.754
 5372SOL     OW17014   0.307   0.361   4.140
 5372SOL    HW117015   0.249   0.441   4.125
 5372SOL    HW217016   0.374   0.355   4.066
 5373SOL     OW17017   4.230   6.963   0.297
 5373SOL    HW117018   4.207   0.032   0.325
 5373SOL    HW217019   4.278   6.917   0.371
 5374SOL     OW17020   1.497   3.764   1.143
 5374SOL    HW117021   1.545   3.806   1.066
 5374SOL    HW217022   1.490   3.830   1.218
 5375SOL     OW17023   2.634   5.429   4.976
 5375SOL    HW117024   2.563   5.489   5.013
 5375SOL    HW217025   2.592   5.366   4.910
 5376SOL     OW17026   0.200   6.749   2.255
 5376SOL    HW117027   0.230   6.654   2.261
 5376SOL    HW217028   0.253   6.797   2.185
 5377SOL     OW17029   1.127   3.027   2.018
 5377SOL    HW117030   1.054   3.025   1.950
 5377SOL    HW217031   1.196   2.959   1.995
 5378SOL     OW17032   4.789   0.111   3.501
 5378SOL    HW117033   4.714   0.052   3.473
 5378SOL    HW217034   4.860   0.057   3.545
 5379SOL     OW17035   2.949   2.232   4.187
 5379SOL    HW117036   2.994   2.221   4.275
 5379SOL    HW217037   3.012   2.206   4.113
 5380SOL     OW17038   4.557   6.689   1.706
 5380SOL    HW117039   4.555   6.740   1.620
 5380SOL    HW217040   4.650   6.693   1.744
 5381SOL     OW17041   2.821   1.951   2.358
 5381SOL    HW117042   2.821   1.943   2.258
 5381SOL    HW217043   2.807   2.046   2.384
 5382SOL     OW17044   4.722   0.576   2.506
 5382SOL    HW117045   4.665   0.658   2.504
 5382SOL    HW217046   4.811   0.599   2.546
 5383SOL     OW17047   2.264   4.280   5.172
 5383SOL    HW117048   2.283   4.182   5.172
 5383SOL    HW217049   2.347   4.330   5.199
 5384SOL     OW17050   5.227   6.434   5.687
 5384SOL    HW117051   5.315   6.386   5.685
 5384SOL    HW217052   5.205   6.459   5.781
 5385SOL     OW17053   3.451   3.847   0.579
 5385SOL    HW117054   3.469   3.924   0.639
 5385SOL    HW217055   3.527   3.836   0.515
 5386SOL     OW17056   4.755   4.899   3.105
 5386SOL    HW117057   4.731   4.837   3.031
 5386SOL    HW217058   4.723   4.991   3.083
 5387SOL     OW17059   0.964   2.517   5.206
 5387SOL    HW117060   0.947   2.568   5.122
 5387SOL    HW217061   0.894   2.540   5.274
 5388SOL     OW17062   6.264   6.893   3.247
 5388SOL    HW117063   6.210   6.851   3.320
 5388SOL    HW217064   6.266   6.992   3.260
 5389SOL     OW17065   6.209   1.382   4.720
 5389SOL    HW117066   6.188   1.292   4.682
 5389SOL    HW217067   6.286   1.374   4.783
 5390SOL     OW17068   5.637   3.269   3.458
 5390SOL    HW117069   5.698   3.259   3.379
 5390SOL    HW217070   5.567   3.338   3.437
 5391SOL     OW17071   4.673   3.207   0.689
 5391SOL    HW117072   4.613   3.127   0.693
 5391SOL    HW217073   4.620   3.289   0.710
 5392SOL     OW17074   5.457   0.945   4.073
 5392SOL    HW117075   5.404   0.912   4.151
 5392SOL    HW217076   5.424   1.036   4.046
 5393SOL     OW17077   4.881   3.274   2.897
 5393SOL    HW117078   4.902   3.356   2.844
 5393SOL    HW217079   4.865   3.197   2.836
 5394SOL     OW17080   0.062   3.061   2.976
 5394SOL    HW117081   0.161   3.055   2.986
 5394SOL    HW217082   0.036   3.025   2.886
 5395SOL     OW17083   0.130   0.780   1.685
 5395SOL    HW117084   0.045   0.822   1.656
 5395SOL    HW217085   0.186   0.848   1.733
 5396SOL     OW17086   3.881   2.511   0.366
 5396SOL    HW117087   3.951   2.496   0.436
 5396SOL    HW217088   3.923   2.557   0.287
 5397SOL     OW17089   0.688   6.725   2.950
 5397SOL    HW117090   0.751   6.770   3.013
 5397SOL    HW217091   0.735   6.705   2.864
 5398SOL     OW17092   5.530   2.364   3.072
 5398SOL    HW117093   5.460   2.375   3.142
 5398SOL    HW217094   5.487   2.343   2.984
 5399SOL     OW17095   2.738   2.679   0.583
 5399SOL    HW117096   2.706   2.774   0.583
 5399SOL    HW217097   2.799   2.664   0.505
 5400SOL     OW17098   5.229   3.068   0.411
 5400SOL    HW117099   5.213   2.974   0.382
 5400SOL    HW217100   5.154   3.126   0.382
 5401SOL     OW17101   5.102   4.257   1.221
 5401SOL    HW117102   5.014   4.300   1.200
 5401SOL    HW217103   5.141   4.299   1.304
 5402SOL     OW17104   2.469   5.541   1.779
 5402SOL    HW117105   2.385   5.509   1.735
 5402SOL    HW217106   2.545   5.483   1.751
 5403SOL     OW17107   5.933   2.656   5.602
 5403SOL    HW117108   5.877   2.604   5.667
 5403SOL    HW217109   5.986   2.725   5.652
 5404SOL     OW17110   4.887   6.362   0.362
 5404SOL    HW117111   4.963   6.334   0.421
 5404SOL    HW217112   4.844   6.444   0.400
 5405SOL     OW17113   6.647   5.014   6.109
 5405SOL    HW117114   6.570   5.003   6.045
 5405SOL    HW217115   6.648   5.108   6.143
 5406SOL     OW17116   1.558   1.085   5.540
 5406SOL    HW117117   1.470   1.039   5.555
 5406SOL    HW217118   1.620   1.063   5.615
 5407SOL     OW17119   1.896   1.406   2.559
 5407SOL    HW117120   1.857   1.497   2.543
 5407SOL    HW217121   1.823   1.343   2.587
 5408SOL     OW17122   2.109   2.555   4.579
 5408SOL    HW117123   2.182   2.622   4.592
 5408SOL    HW217124   2.023   2.591   4.614
 5409SOL     OW17125   6.849   4.718   3.483
 5409SOL    HW117126   6.794   4.635   3.491
 5409SOL    HW217127   6.899   4.733   3.568
 5410SOL     OW17128   5.853   1.597   0.163
 5410SOL    HW117129   5.947   1.575   0.139
 5410SOL    HW217130   5.807   1.514   0.195
 5411SOL     OW17131   3.259   6.249   1.908
 5411SOL    HW117132   3.196   6.196   1.965
 5411SOL    HW217133   3.353   6.232   1.936
 5412SOL     OW17134   2.075   2.021   6.150
 5412SOL    HW117135   2.038   2.107   6.115
 5412SOL    HW217136   2.172   2.033   6.171
 5413SOL     OW17137   0.038   5.427   5.618
 5413SOL    HW117138   0.076   5.390   5.702
 5413SOL    HW217139   0.066   5.371   5.540
 5414SOL     OW17140   5.858   6.007   5.976
 5414SOL    HW117141   5.819   5.961   6.056
 5414SOL    HW217142   5.915   6.084   6.007
 5415SOL     OW17143   1.718   1.029   0.365
 5415SOL    HW117144   1.629   1.068   0.342
 5415SOL    HW217145   1.715   0.990   0.456
 5416SOL     OW17146   3.812   5.053   6.182
 5416SOL    HW117147   3.760   5.105   6.250
 5416SOL    HW217148   3.902   5.094   6.169
 5417SOL     OW17149   5.452   0.377   1.452
 5417SOL    HW117150   5.427   0.416   1.540
 5417SOL    HW217151   5.469   0.450   1.386
 5418SOL     OW17152   0.461   2.739   5.252
 5418SOL    HW117153   0.537   2.780   5.302
 5418SOL    HW217154   0.408   2.679   5.313
 5419SOL     OW17155   3.653   2.041   6.158
 5419SOL    HW117156   3.558   2.067   6.140
 5419SOL    HW217157   3.714   2.101   6.107
 5420SOL     OW17158   2.122   1.678   1.034
 5420SOL    HW117159   2.196   1.715   0.978
 5420SOL    HW217160   2.105   1.582   1.008
 5421SOL     OW17161   3.954   5.552   1.015
 5421SOL    HW117162   3.858   5.543   0.991
 5421SOL    HW217163   3.963   5.572   1.113
 5422SOL     OW17164   2.413   6.542   3.162
 5422SOL    HW117165   2.464   6.628   3.159
 5422SOL    HW217166   2.354   6.541   3.242
 5423SOL     OW17167   4.401   6.777   2.673
 5423SOL    HW117168   4.453   6.704   2.628
 5423SOL    HW217169   4.372   6.747   2.764
 5424SOL     OW17170   3.658   3.412   5.476
 5424SOL    HW117171   3.656   3.332   5.416
 5424SOL    HW217172   3.619   3.388   5.565
 5425SOL     OW17173   1.971   5.357   5.141
 5425SOL    HW117174   2.033   5.304   5.082
 5425SOL    HW217175   2.024   5.424   5.193
 5426SOL     OW17176   1.638   4.102   0.161
 5426SOL    HW117177   1.648   4.114   0.260
 5426SOL    HW217178   1.728   4.101   0.118
 5427SOL     OW17179   4.893   1.915   0.599
 5427SOL    HW117180   4.799   1.892   0.627
 5427SOL    HW217181   4.955   1.901   0.676
 5428SOL     OW17182   4.368   5.737   2.938
 5428SOL    HW117183   4.401   5.644   2.953
 5428SOL    HW217184   4.379   5.761   2.842
 5429SOL     OW17185   2.787   6.455   3.591
 5429SOL    HW117186   2.808   6.553   3.595
 5429SOL    HW217187   2.832   6.407   3.666
 5430SOL     OW17188   1.149   4.322   5.437
 5430SOL    HW117189   1.239   4.326   5.479
 5430SOL    HW217190   1.109   4.231   5.452
 5431SOL     OW17191   5.457   4.171   1.177
 5431SOL    HW117192   5.411   4.148   1.263
 5431SOL    HW217193   5.401   4.141   1.100
 5432SOL     OW17194   1.922   5.267   5.680
 5432SOL    HW117195   1.905   5.208   5.602
 5432SOL    HW217196   1.924   5.213   5.764
 5433SOL     OW17197   2.121   6.695   1.059
 5433SOL    HW117198   2.104   6.678   1.156
 5433SOL    HW217199   2.053   6.761   1.025
 5434SOL     OW17200   5.305   5.583   4.403
 5434SOL    HW117201   5.223   5.616   4.357
 5434SOL    HW217202   5.344   5.656   4.459
 5435SOL     OW17203   0.379   3.470   0.264
 5435SOL    HW117204   0.286   3.464   0.227
 5435SOL    HW217205   0.393   3.397   0.330
 5436SOL     OW17206   1.097   4.605   1.007
 5436SOL    HW117207   1.004   4.638   1.022
 5436SOL    HW217208   1.096   4.506   0.995
 5437SOL     OW17209   3.081   6.221   6.174
 5437SOL    HW117210   3.116   6.261   6.258
 5437SOL    HW217211   2.997   6.170   6.194
 5438SOL     OW17212   4.994   6.624   2.742
 5438SOL    HW117213   5.028   6.561   2.812
 5438SOL    HW217214   4.965   6.709   2.784
 5439SOL     OW17215   0.957   3.763   1.683
 5439SOL    HW117216   0.874   3.757   1.738
 5439SOL    HW217217   1.008   3.845   1.707
 5440SOL     OW17218   5.763   6.162   3.236
 5440SOL    HW117219   5.809   6.250   3.248
 5440SOL    HW217220   5.664   6.176   3.235
 5441SOL     OW17221   5.010   0.396   4.746
 5441SOL    HW117222   5.030   0.310   4.794
 5441SOL    HW217223   4.937   0.445   4.794
 5442SOL     OW17224   2.897   6.947   0.231
 5442SOL    HW117225   2.885   0.020   0.205
 5442SOL    HW217226   2.830   6.891   0.182
 5443SOL     OW17227   6.030   1.270   3.379
 5443SOL    HW117228   5.979   1.205   3.323
 5443SOL    HW217229   6.124   1.238   3.389
 5444SOL     OW17230   1.499   1.653   6.449
 5444SOL    HW117231   1.514   1.748   6.476
 5444SOL    HW217232   1.524   1.642   6.352
 5445SOL     OW17233   5.832   6.240   4.898
 5445SOL    HW117234   5.858   6.336   4.905
 5445SOL    HW217235   5.888   6.195   4.829
 5446SOL     OW17236   2.261   3.971   0.071
 5446SOL    HW117237   2.238   4.032   7.019
 5446SOL    HW217238   2.291   3.883   0.035
 5447SOL     OW17239   5.930   2.474   1.632
 5447SOL    HW117240   6.010   2.447   1.578
 5447SOL    HW217241   5.882   2.392   1.662
 5448SOL     OW17242   5.738   5.061   1.495
 5448SOL    HW117243   5.695   5.141   1.536
 5448SOL    HW217244   5.676   4.983   1.501
 5449SOL     OW17245   2.142   0.098   2.585
 5449SOL    HW117246   2.154   0.006   2.547
 5449SOL    HW217247   2.045   0.122   2.582
 5450SOL     OW17248   4.449   4.600   1.539
 5450SOL    HW117249   4.475   4.545   1.619
 5450SOL    HW217250   4.358   4.573   1.509
 5451SOL     OW17251   0.565   5.649   3.413
 5451SOL    HW117252   0.529   5.737   3.381
 5451SOL    HW217253   0.655   5.634   3.373
 5452SOL     OW17254   2.172   3.852   3.236
 5452SOL    HW117255   2.159   3.914   3.159
 5452SOL    HW217256   2.094   3.791   3.244
 5453SOL     OW17257   5.797   5.522   4.132
 5453SOL    HW117258   5.769   5.433   4.169
 5453SOL    HW217259   5.718   5.569   4.095
 5454SOL     OW17260   6.304   3.470   2.013
 5454SOL    HW117261   6.345   3.404   2.077
 5454SOL    HW217262   6.376   3.518   1.963
 5455SOL     OW17263   2.243   3.035   2.751
 5455SOL    HW117264   2.241   3.088   2.666
 5455SOL    HW217265   2.286   2.947   2.735
 5456SOL     OW17266   5.203   2.795   0.278
 5456SOL    HW117267   5.135   2.727   0.306
 5456SOL    HW217268   5.250   2.763   0.196
 5457SOL     OW17269   6.016   1.342   0.356
 5457SOL    HW117270   6.022   1.410   0.430
 5457SOL    HW217271   6.034   1.386   0.269
 5458SOL     OW17272   6.502   4.484   5.927
 5458SOL    HW117273   6.442   4.562   5.944
 5458SOL    HW217274   6.515   4.433   6.011
 5459SOL     OW17275   2.533   3.667   5.321
 5459SOL    HW117276   2.513   3.762   5.345
 5459SOL    HW217277   2.451   3.612   5.332
 5460SOL     OW17278   0.051   1.113   1.466
 5460SOL    HW117279   0.110   1.105   1.386
 5460SOL    HW217280   0.058   1.206   1.503
 5461SOL     OW17281   5.627   0.547   6.581
 5461SOL    HW117282   5.604   0.606   6.658
 5461SOL    HW217283   5.645   0.603   6.500
 5462SOL     OW17284   5.151   4.827   6.612
 5462SOL    HW117285   5.102   4.910   6.637
 5462SOL    HW217286   5.250   4.844   6.615
 5463SOL     OW17287   2.525   4.757   7.013
 5463SOL    HW117288   2.547   4.838   6.959
 5463SOL    HW217289   2.459   4.701   6.963
 5464SOL     OW17290   2.208   5.861   3.947
 5464SOL    HW117291   2.226   5.832   3.853
 5464SOL    HW217292   2.109   5.869   3.961
 5465SOL     OW17293   0.780   0.970   4.697
 5465SOL    HW117294   0.866   1.003   4.735
 5465SOL    HW217295   0.796   0.887   4.643
 5466SOL     OW17296   5.395   2.415   5.083
 5466SOL    HW117297   5.345   2.484   5.136
 5466SOL    HW217298   5.422   2.454   4.995
 5467SOL     OW17299   5.133   3.952   3.918
 5467SOL    HW117300   5.069   4.027   3.937
 5467SOL    HW217301   5.166   3.959   3.824
 5468SOL     OW17302   0.260   2.923   1.129
 5468SOL    HW117303   0.267   2.896   1.225
 5468SOL    HW217304   0.317   3.003   1.112
 5469SOL     OW17305   4.430   1.406   3.190
 5469SOL    HW117306   4.478   1.430   3.275
 5469SOL    HW217307   4.398   1.490   3.146
 5470SOL     OW17308   2.799   4.858   4.129
 5470SOL    HW117309   2.719   4.802   4.150
 5470SOL    HW217310   2.825   4.847   4.033
 5471SOL     OW17311   5.067   0.487   4.203
 5471SOL    HW117312   5.160   0.500   4.169
 5471SOL    HW217313   5.055   0.393   4.235
 5472SOL     OW17314   2.922   4.019   6.690
 5472SOL    HW117315   2.966   4.100   6.729
 5472SOL    HW217316   2.823   4.031   6.692
 5473SOL     OW17317   2.957   4.763   2.194
 5473SOL    HW117318   2.904   4.694   2.145
 5473SOL    HW217319   3.048   4.770   2.155
 5474SOL     OW17320   0.921   4.975   1.899
 5474SOL    HW117321   0.932   4.999   1.803
 5474SOL    HW217322   0.896   5.058   1.951
 5475SOL     OW17323   0.889   1.175   5.420
 5475SOL    HW117324   0.860   1.084   5.391
 5475SOL    HW217325   0.927   1.170   5.513
 5476SOL     OW17326   2.717   1.197   4.992
 5476SOL    HW117327   2.661   1.246   5.058
 5476SOL    HW217328   2.798   1.160   5.037
 5477SOL     OW17329   2.253   4.075   3.396
 5477SOL    HW117330   2.156   4.075   3.421
 5477SOL    HW217331   2.274   3.990   3.348
 5478SOL     OW17332   6.477   3.588   5.963
 5478SOL    HW117333   6.523   3.558   5.879
 5478SOL    HW217334   6.383   3.554   5.962
 5479SOL     OW17335   5.278   3.976   4.343
 5479SOL    HW117336   5.240   4.052   4.291
 5479SOL    HW217337   5.375   3.993   4.361
 5480SOL     OW17338   1.562   3.006   6.314
 5480SOL    HW117339   1.531   2.983   6.222
 5480SOL    HW217340   1.617   2.931   6.351
 5481SOL     OW17341   4.333   1.576   0.421
 5481SOL    HW117342   4.399   1.504   0.440
 5481SOL    HW217343   4.266   1.542   0.354
 5482SOL     OW17344   5.291   4.590   2.213
 5482SOL    HW117345   5.369   4.653   2.204
 5482SOL    HW217346   5.248   4.578   2.124
 5483SOL     OW17347   5.588   2.193   0.504
 5483SOL    HW117348   5.609   2.281   0.461
 5483SOL    HW217349   5.664   2.130   0.488
 5484SOL     OW17350   6.320   0.602   6.191
 5484SOL    HW117351   6.347   0.692   6.157
 5484SOL    HW217352   6.346   0.532   6.125
 5485SOL     OW17353   2.798   0.949   4.325
 5485SOL    HW117354   2.703   0.925   4.305
 5485SOL    HW217355   2.859   0.898   4.264
 5486SOL     OW17356   0.076   0.402   3.941
 5486SOL    HW117357   0.123   0.468   3.882
 5486SOL    HW217358   7.013   0.439   3.972
 5487SOL     OW17359   4.436   5.167   1.167
 5487SOL    HW117360   4.495   5.232   1.215
 5487SOL    HW217361   4.454   5.172   1.069
 5488SOL     OW17362   4.917   0.518   6.338
 5488SOL    HW117363   4.867   0.520   6.251
 5488SOL    HW217364   4.943   0.424   6.359
 5489SOL     OW17365   6.521   3.867   2.501
 5489SOL    HW117366   6.535   3.954   2.548
 5489SOL    HW217367   6.428   3.863   2.465
 5490SOL     OW17368   3.095   0.957   6.502
 5490SOL    HW117369   3.073   1.017   6.424
 5490SOL    HW217370   3.015   0.951   6.562
 5491SOL     OW17371   6.415   6.359   1.545
 5491SOL    HW117372   6.341   6.406   1.498
 5491SOL    HW217373   6.489   6.423   1.563
 5492SOL     OW17374   1.003   1.359   4.893
 5492SOL    HW117375   0.964   1.285   4.838
 5492SOL    HW217376   1.097   1.377   4.863
 5493SOL     OW17377   4.338   1.546   6.942
 5493SOL    HW117378   4.410   1.521   7.007
 5493SOL    HW217379   4.268   1.601   6.989
 5494SOL     OW17380   5.285   3.077   2.545
 5494SOL    HW117381   5.346   3.044   2.617
 5494SOL    HW217382   5.336   3.135   2.482
 5495SOL     OW17383   3.111   3.117   4.335
 5495SOL    HW117384   3.115   3.117   4.435
 5495SOL    HW217385   3.102   3.210   4.302
 5496SOL     OW17386   4.663   5.012   2.200
 5496SOL    HW117387   4.642   4.927   2.153
 5496SOL    HW217388   4.611   5.017   2.286
 5497SOL     OW17389   5.033   0.182   0.307
 5497SOL    HW117390   5.070   0.138   0.226
 5497SOL    HW217391   4.984   0.266   0.281
 5498SOL     OW17392   4.612   1.462   4.221
 5498SOL    HW117393   4.673   1.410   4.161
 5498SOL    HW217394   4.553   1.399   4.271
 5499SOL     OW17395   0.218   0.753   5.122
 5499SOL    HW117396   0.310   0.758   5.084
 5499SOL    HW217397   0.213   0.806   5.206
 5500SOL     OW17398   2.041   6.404   1.058
 5500SOL    HW117399   2.019   6.459   0.978
 5500SOL    HW217400   2.126   6.354   1.043
 5501SOL     OW17401   2.327   0.756   1.893
 5501SOL    HW117402   2.418   0.714   1.892
 5501SOL    HW217403   2.259   0.688   1.863
 5502SOL     OW17404   5.000   4.278   0.603
 5502SOL    HW117405   5.015   4.375   0.619
 5502SOL    HW217406   4.983   4.232   0.691
 5503SOL     OW17407   6.663   0.218   4.045
 5503SOL    HW117408   6.656   0.297   3.984
 5503SOL    HW217409   6.594   0.224   4.117
 5504SOL     OW17410   2.762   2.390   4.548
 5504SOL    HW117411   2.858   2.362   4.547
 5504SOL    HW217412   2.716   2.356   4.466
 5505SOL     OW17413   3.331   4.982   0.556
 5505SOL    HW117414   3.265   5.056   0.541
 5505SOL    HW217415   3.288   4.894   0.540
 5506SOL     OW17416   0.760   6.685   5.269
 5506SOL    HW117417   0.730   6.767   5.319
 5506SOL    HW217418   0.681   6.641   5.227
 5507SOL     OW17419   2.636   5.807   5.120
 5507SOL    HW117420   2.584   5.811   5.206
 5507SOL    HW217421   2.578   5.772   5.047
 5508SOL     OW17422   1.754   1.176   5.095
 5508SOL    HW117423   1.809   1.257   5.116
 5508SOL    HW217424   1.807   1.114   5.037
 5509SOL     OW17425   7.005   0.256   5.970
 5509SOL    HW117426   6.936   0.217   5.908
 5509SOL    HW217427   0.065   0.200   5.966
 5510SOL     OW17428   0.545   6.744   5.003
 5510SOL    HW117429   0.539   6.682   5.081
 5510SOL    HW217430   0.602   6.822   5.026
 5511SOL     OW17431   0.406   2.526   1.245
 5511SOL    HW117432   0.312   2.541   1.278
 5511SOL    HW217433   0.462   2.605   1.268
 5512SOL     OW17434   6.347   0.397   0.348
 5512SOL    HW117435   6.426   0.347   0.381
 5512SOL    HW217436   6.375   0.489   0.321
 5513SOL     OW17437   3.148   5.909   4.293
 5513SOL    HW117438   3.083   5.923   4.218
 5513SOL    HW217439   3.184   5.815   4.289
 5514SOL     OW17440   6.039   6.100   3.413
 5514SOL    HW117441   5.948   6.111   3.374
 5514SOL    HW217442   6.047   6.159   3.494
 5515SOL     OW17443   0.311   3.635   3.184
 5515SOL    HW117444   0.250   3.694   3.236
 5515SOL    HW217445   0.396   3.684   3.165
 5516SOL     OW17446   1.625   2.669   0.390
 5516SOL    HW117447   1.589   2.689   0.299
 5516SOL    HW217448   1.557   2.692   0.459
 5517SOL     OW17449   3.102   1.094   1.756
 5517SOL    HW117450   3.067   1.114   1.847
 5517SOL    HW217451   3.050   1.146   1.688
 5518SOL     OW17452   5.558   3.574   5.707
 5518SOL    HW117453   5.505   3.638   5.763
 5518SOL    HW217454   5.495   3.515   5.656
 5519SOL     OW17455   5.576   5.151   2.520
 5519SOL    HW117456   5.579   5.229   2.582
 5519SOL    HW217457   5.488   5.151   2.471
 5520SOL     OW17458   1.450   3.041   0.838
 5520SOL    HW117459   1.420   2.976   0.768
 5520SOL    HW217460   1.425   3.134   0.811
 5521SOL     OW17461   5.497   4.467   6.096
 5521SOL    HW117462   5.400   4.446   6.079
 5521SOL    HW217463   5.552   4.386   6.079
 5522SOL     OW17464   1.356   2.438   1.781
 5522SOL    HW117465   1.449   2.432   1.817
 5522SOL    HW217466   1.343   2.368   1.711
 5523SOL     OW17467   3.189   6.684   1.445
 5523SOL    HW117468   3.147   6.695   1.354
 5523SOL    HW217469   3.256   6.610   1.442
 5524SOL     OW17470   6.343   6.815   5.886
 5524SOL    HW117471   6.378   6.753   5.957
 5524SOL    HW217472   6.245   6.800   5.875
 5525SOL     OW17473   6.325   6.588   3.402
 5525SOL    HW117474   6.380   6.640   3.467
 5525SOL    HW217475   6.385   6.529   3.347
 5526SOL     OW17476   5.600   3.227   4.525
 5526SOL    HW117477   5.656   3.147   4.547
 5526SOL    HW217478   5.658   3.301   4.492
 5527SOL     OW17479   2.579   3.289   6.779
 5527SOL    HW117480   2.572   3.372   6.724
 5527SOL    HW217481   2.487   3.258   6.805
 5528SOL     OW17482   6.648   2.678   2.581
 5528SOL    HW117483   6.586   2.687   2.659
 5528SOL    HW217484   6.599   2.640   2.503
 5529SOL     OW17485   1.153   0.895   4.006
 5529SOL    HW117486   1.209   0.933   4.080
 5529SOL    HW217487   1.185   0.929   3.918
 5530SOL     OW17488   0.066   3.075   6.742
 5530SOL    HW117489   0.013   2.994   6.768
 5530SOL    HW217490   0.111   3.112   6.822
 5531SOL     OW17491   2.904   3.198   6.970
 5531SOL    HW117492   2.845   3.184   6.890
 5531SOL    HW217493   2.847   3.222   0.025
 5532SOL     OW17494   2.841   2.776   1.420
 5532SOL    HW117495   2.837   2.713   1.342
 5532SOL    HW217496   2.812   2.728   1.503
 5533SOL     OW17497   3.423   0.318   1.229
 5533SOL    HW117498   3.381   0.370   1.154
 5533SOL    HW217499   3.481   0.246   1.192
 5534SOL     OW17500   0.790   3.259   5.181
 5534SOL    HW117501   0.869   3.199   5.168
 5534SOL    HW217502   0.762   3.296   5.093
 5535SOL     OW17503   4.915   4.607   3.947
 5535SOL    HW117504   5.007   4.646   3.944
 5535SOL    HW217505   4.906   4.549   4.028
 5536SOL     OW17506   2.354   1.040   4.374
 5536SOL    HW117507   2.325   1.054   4.280
 5536SOL    HW217508   2.283   0.989   4.424
 5537SOL     OW17509   3.737   1.018   3.642
 5537SOL    HW117510   3.671   1.058   3.578
 5537SOL    HW217511   3.771   0.932   3.605
 5538SOL     OW17512   5.128   2.365   2.259
 5538SOL    HW117513   5.183   2.448   2.247
 5538SOL    HW217514   5.189   2.286   2.266
 5539SOL     OW17515   1.807   0.558   6.645
 5539SOL    HW117516   1.772   0.651   6.640
 5539SOL    HW217517   1.743   0.501   6.696
 5540SOL     OW17518   5.127   0.055   5.320
 5540SOL    HW117519   5.070   0.086   5.244
 5540SOL    HW217520   5.223   0.054   5.292
 5541SOL     OW17521   4.277   2.446   6.007
 5541SOL    HW117522   4.260   2.350   6.032
 5541SOL    HW217523   4.360   2.451   5.952
 5542SOL     OW17524   4.862   4.074   6.158
 5542SOL    HW117525   4.771   4.080   6.119
 5542SOL    HW217526   4.866   4.126   6.243
 5543SOL     OW17527   0.716   0.235   6.165
 5543SOL    HW117528   0.815   0.231   6.177
 5543SOL    HW217529   0.689   0.179   6.087
 5544SOL     OW17530   3.387   5.297   0.128
 5544SOL    HW117531   3.421   5.220   0.182
 5544SOL    HW217532   3.291   5.314   0.151
 5545SOL     OW17533   5.846   1.680   2.802
 5545SOL    HW117534   5.933   1.642   2.834
 5545SOL    HW217535   5.777   1.668   2.873
 5546SOL     OW17536   0.353   5.915   4.342
 5546SOL    HW117537   0.340   5.851   4.267
 5546SOL    HW217538   0.341   6.009   4.309
 5547SOL     OW17539   5.367   1.511   4.989
 5547SOL    HW117540   5.355   1.555   5.078
 5547SOL    HW217541   5.291   1.449   4.972
 5548SOL     OW17542   0.963   3.501   5.186
 5548SOL    HW117543   0.886   3.439   5.171
 5548SOL    HW217544   0.995   3.490   5.280
 5549SOL     OW17545   3.706   2.788   0.943
 5549SOL    HW117546   3.736   2.877   0.910
 5549SOL    HW217547   3.783   2.742   0.989
 5550SOL     OW17548   2.708   3.759   1.684
 5550SOL    HW117549   2.720   3.847   1.638
 5550SOL    HW217550   2.778   3.695   1.652
 5551SOL     OW17551   1.680   4.507   2.423
 5551SOL    HW117552   1.738   4.583   2.392
 5551SOL    HW217553   1.598   4.502   2.365
 5552SOL     OW17554   0.949   0.557   0.238
 5552SOL    HW117555   1.036   0.555   0.288
 5552SOL    HW217556   0.962   0.517   0.147
 5553SOL     OW17557   5.424   6.675   0.212
 5553SOL    HW117558   5.338   6.645   0.172
 5553SOL    HW217559   5.436   6.773   0.198
 5554SOL     OW17560   6.656   2.439   1.546
 5554SOL    HW117561   6.646   2.498   1.626
 5554SOL    HW217562   6.576   2.449   1.487
 5555SOL     OW17563   1.753   4.934   2.196
 5555SOL    HW117564   1.834   4.956   2.142
 5555SOL    HW217565   1.727   4.839   2.181
 5556SOL     OW17566   6.886   1.352   4.801
 5556SOL    HW117567   6.799   1.396   4.824
 5556SOL    HW217568   6.879   1.311   4.710
 5557SOL     OW17569   3.486   6.588   2.889
 5557SOL    HW117570   3.464   6.565   2.984
 5557SOL    HW217571   3.417   6.548   2.829
 5558SOL     OW17572   4.280   3.383   6.310
 5558SOL    HW117573   4.190   3.425   6.322
 5558SOL    HW217574   4.274   3.286   6.333
 5559SOL     OW17575   3.447   0.581   3.160
 5559SOL    HW117576   3.449   0.582   3.060
 5559SOL    HW217577   3.540   0.585   3.196
 5560SOL     OW17578   0.140   5.956   3.414
 5560SOL    HW117579   0.237   5.979   3.421
 5560SOL    HW217580   0.122   5.872   3.466
 5561SOL     OW17581   3.524   0.549   3.557
 5561SOL    HW117582   3.567   0.636   3.531
 5561SOL    HW217583   3.579   0.505   3.627
 5562SOL     OW17584   4.375   3.183   0.734
 5562SOL    HW117585   4.424   3.270   0.731
 5562SOL    HW217586   4.370   3.145   0.641
 5563SOL     OW17587   2.238   4.717   2.117
 5563SOL    HW117588   2.219   4.634   2.064
 5563SOL    HW217589   2.242   4.695   2.214
 5564SOL     OW17590   4.678   0.232   6.092
 5564SOL    HW117591   4.642   0.194   6.007
 5564SOL    HW217592   4.618   0.207   6.168
 5565SOL     OW17593   3.708   1.289   6.472
 5565SOL    HW117594   3.802   1.293   6.438
 5565SOL    HW217595   3.675   1.194   6.468
 5566SOL     OW17596   1.462   5.413   5.641
 5566SOL    HW117597   1.509   5.458   5.565
 5566SOL    HW217598   1.429   5.323   5.611
 5567SOL     OW17599   0.758   4.985   6.927
 5567SOL    HW117600   0.696   5.063   6.934
 5567SOL    HW217601   0.760   4.954   6.832
 5568SOL     OW17602   4.818   5.364   1.850
 5568SOL    HW117603   4.908   5.398   1.820
 5568SOL    HW217604   4.747   5.425   1.815
 5569SOL     OW17605   2.131   2.108   2.188
 5569SOL    HW117606   2.145   2.118   2.089
 5569SOL    HW217607   2.154   2.194   2.233
 5570SOL     OW17608   6.564   3.941   1.234
 5570SOL    HW117609   6.498   3.996   1.286
 5570SOL    HW217610   6.653   3.944   1.279
 5571SOL     OW17611   6.653   4.597   0.493
 5571SOL    HW117612   6.649   4.658   0.414
 5571SOL    HW217613   6.748   4.579   0.516
 5572SOL     OW17614   1.242   4.348   4.934
 5572SOL    HW117615   1.183   4.272   4.909
 5572SOL    HW217616   1.308   4.318   5.004
 5573SOL     OW17617   3.482   5.061   3.649
 5573SOL    HW117618   3.430   5.000   3.709
 5573SOL    HW217619   3.580   5.049   3.665
 5574SOL     OW17620   0.971   1.410   6.175
 5574SOL    HW117621   0.958   1.350   6.254
 5574SOL    HW217622   1.063   1.449   6.177
 5575SOL     OW17623   0.064   0.817   2.009
 5575SOL    HW117624   0.119   0.852   2.085
 5575SOL    HW217625   0.022   0.730   2.036
 5576SOL     OW17626   1.666   4.868   3.732
 5576SOL    HW117627   1.667   4.790   3.794
 5576SOL    HW217628   1.611   4.847   3.652
 5577SOL     OW17629   2.453   2.794   6.412
 5577SOL    HW117630   2.517   2.830   6.479
 5577SOL    HW217631   2.500   2.782   6.324
 5578SOL     OW17632   3.922   3.976   3.948
 5578SOL    HW117633   3.844   3.920   3.977
 5578SOL    HW217634   4.007   3.925   3.964
 5579SOL     OW17635   5.794   3.321   1.599
 5579SOL    HW117636   5.776   3.359   1.509
 5579SOL    HW217637   5.893   3.318   1.615
 5580SOL     OW17638   5.355   2.020   5.557
 5580SOL    HW117639   5.432   2.022   5.493
 5580SOL    HW217640   5.386   1.984   5.645
 5581SOL     OW17641   1.283   1.280   6.784
 5581SOL    HW117642   1.323   1.368   6.761
 5581SOL    HW217643   1.251   1.282   6.879
 5582SOL     OW17644   2.973   2.365   6.256
 5582SOL    HW117645   2.907   2.295   6.230
 5582SOL    HW217646   2.928   2.454   6.260
 5583SOL     OW17647   6.349   6.839   0.668
 5583SOL    HW117648   6.300   6.754   0.685
 5583SOL    HW217649   6.447   6.820   0.658
 5584SOL     OW17650   1.755   2.974   4.684
 5584SOL    HW117651   1.832   3.022   4.642
 5584SOL    HW217652   1.724   3.025   4.764
 5585SOL     OW17653   5.605   4.671   1.408
 5585SOL    HW117654   5.581   4.740   1.340
 5585SOL    HW217655   5.657   4.714   1.482
 5586SOL     OW17656   0.922   5.336   1.263
 5586SOL    HW117657   0.850   5.273   1.292
 5586SOL    HW217658   0.962   5.381   1.343
 5587SOL     OW17659   6.486   0.690   5.664
 5587SOL    HW117660   6.396   0.732   5.677
 5587SOL    HW217661   6.477   0.591   5.668
 5588SOL     OW17662   3.618   6.830   0.496
 5588SOL    HW117663   3.577   6.807   0.408
 5588SOL    HW217664   3.552   6.880   0.552
 5589SOL     OW17665   6.730   4.202   6.126
 5589SOL    HW117666   6.752   4.110   6.095
 5589SOL    HW217667   6.759   4.269   6.057
 5590SOL     OW17668   6.078   5.281   3.661
 5590SOL    HW117669   6.128   5.354   3.708
 5590SOL    HW217670   6.118   5.266   3.571
 5591SOL     OW17671   5.144   1.456   2.262
 5591SOL    HW117672   5.102   1.403   2.189
 5591SOL    HW217673   5.105   1.428   2.350
 5592SOL     OW17674   0.124   5.381   3.982
 5592SOL    HW117675   0.077   5.317   4.042
 5592SOL    HW217676   0.067   5.401   3.902
 5593SOL     OW17677   1.028   4.241   0.679
 5593SOL    HW117678   0.977   4.162   0.647
 5593SOL    HW217679   1.121   4.239   0.641
 5594SOL     OW17680   6.093   1.347   5.642
 5594SOL    HW117681   5.996   1.320   5.638
 5594SOL    HW217682   6.127   1.336   5.735
 5595SOL     OW17683   0.633   2.122   0.796
 5595SOL    HW117684   0.581   2.124   0.710
 5595SOL    HW217685   0.571   2.141   0.872
 5596SOL     OW17686   3.866   6.230   3.252
 5596SOL    HW117687   3.869   6.131   3.270
 5596SOL    HW217688   3.797   6.249   3.183
 5597SOL     OW17689   5.138   3.110   1.580
 5597SOL    HW117690   5.054   3.129   1.528
 5597SOL    HW217691   5.137   3.015   1.611
 5598SOL     OW17692   4.105   0.818   4.393
 5598SOL    HW117693   4.057   0.758   4.458
 5598SOL    HW217694   4.164   0.763   4.334
 5599SOL     OW17695   0.762   1.400   3.595
 5599SOL    HW117696   0.756   1.462   3.673
 5599SOL    HW217697   0.673   1.358   3.579
 5600SOL     OW17698   2.622   2.964   5.427
 5600SOL    HW117699   2.578   2.990   5.341
 5600SOL    HW217700   2.684   3.037   5.456
 5601SOL     OW17701   2.461   0.654   6.427
 5601SOL    HW117702   2.391   0.722   6.405
 5601SOL    HW217703   2.426   0.562   6.408
 5602SOL     OW17704   1.971   0.686   6.964
 5602SOL    HW117705   1.911   0.605   6.961
 5602SOL    HW217706   2.066   0.656   6.978
 5603SOL     OW17707   6.337   4.059   5.327
 5603SOL    HW117708   6.332   4.006   5.243
 5603SOL    HW217709   6.246   4.090   5.352
 5604SOL     OW17710   5.108   0.722   6.331
 5604SOL    HW117711   5.158   0.691   6.251
 5604SOL    HW217712   5.025   0.668   6.341
 5605SOL     OW17713   0.556   1.786   6.582
 5605SOL    HW117714   0.605   1.778   6.495
 5605SOL    HW217715   0.621   1.809   6.655
 5606SOL     OW17716   5.415   0.395   2.984
 5606SOL    HW117717   5.388   0.307   2.947
 5606SOL    HW217718   5.480   0.439   2.923
 5607SOL     OW17719   5.267   0.711   1.192
 5607SOL    HW117720   5.264   0.696   1.093
 5607SOL    HW217721   5.177   0.692   1.231
 5608SOL     OW17722   3.846   6.293   5.122
 5608SOL    HW117723   3.938   6.332   5.134
 5608SOL    HW217724   3.801   6.337   5.045
 5609SOL     OW17725   1.360   5.649   5.826
 5609SOL    HW117726   1.390   5.556   5.801
 5609SOL    HW217727   1.439   5.703   5.853
 5610SOL     OW17728   4.472   0.191   6.827
 5610SOL    HW117729   4.431   0.182   6.918
 5610SOL    HW217730   4.412   0.248   6.770
 5611SOL     OW17731   1.969   4.052   4.314
 5611SOL    HW117732   1.974   4.093   4.405
 5611SOL    HW217733   2.050   3.995   4.299
 5612SOL     OW17734   3.374   6.374   4.726
 5612SOL    HW117735   3.289   6.374   4.777
 5612SOL    HW217736   3.412   6.467   4.723
 5613SOL     OW17737   3.204   5.519   1.747
 5613SOL    HW117738   3.253   5.540   1.833
 5613SOL    HW217739   3.119   5.471   1.768
 5614SOL     OW17740   5.208   1.759   4.380
 5614SOL    HW117741   5.126   1.818   4.373
 5614SOL    HW217742   5.284   1.812   4.417
 5615SOL     OW17743   1.199   1.758   1.829
 5615SOL    HW117744   1.109   1.741   1.787
 5615SOL    HW217745   1.264   1.689   1.798
 5616SOL     OW17746   1.917   6.496   5.164
 5616SOL    HW117747   1.872   6.413   5.132
 5616SOL    HW217748   2.016   6.490   5.146
 5617SOL     OW17749   0.660   0.998   5.744
 5617SOL    HW117750   0.731   0.958   5.801
 5617SOL    HW217751   0.581   0.936   5.741
 5618SOL     OW17752   6.262   5.062   2.669
 5618SOL    HW117753   6.166   5.045   2.688
 5618SOL    HW217754   6.276   5.160   2.651
 5619SOL     OW17755   2.152   3.901   5.225
 5619SOL    HW117756   2.227   3.959   5.191
 5619SOL    HW217757   2.098   3.868   5.148
 5620SOL     OW17758   5.056   2.059   6.906
 5620SOL    HW117759   4.967   2.098   6.928
 5620SOL    HW217760   5.056   2.028   6.811
 5621SOL     OW17761   2.634   1.928   6.795
 5621SOL    HW117762   2.572   2.004   6.809
 5621SOL    HW217763   2.663   1.926   6.699
 5622SOL     OW17764   5.629   0.011   5.407
 5622SOL    HW117765   5.593   6.982   5.484
 5622SOL    HW217766   5.568   0.002   5.329
 5623SOL     OW17767   0.027   5.993   6.849
 5623SOL    HW117768   7.002   6.000   6.936
 5623SOL    HW217769   0.063   6.083   6.823
 5624SOL     OW17770   0.478   3.942   1.931
 5624SOL    HW117771   0.511   3.893   2.012
 5624SOL    HW217772   0.543   3.930   1.856
 5625SOL     OW17773   6.336   1.777   5.766
 5625SOL    HW117774   6.312   1.795   5.670
 5625SOL    HW217775   6.260   1.803   5.825
 5626SOL     OW17776   5.265   6.789   5.093
 5626SOL    HW117777   5.277   6.883   5.061
 5626SOL    HW217778   5.208   6.738   5.029
 5627SOL     OW17779   1.076   0.581   1.040
 5627SOL    HW117780   1.102   0.673   1.013
 5627SOL    HW217781   1.139   0.515   1.000
 5628SOL     OW17782   1.630   1.559   4.131
 5628SOL    HW117783   1.623   1.643   4.185
 5628SOL    HW217784   1.711   1.563   4.072
 5629SOL     OW17785   3.148   3.048   3.760
 5629SOL    HW117786   3.229   3.067   3.815
 5629SOL    HW217787   3.173   2.989   3.683
 5630SOL     OW17788   6.607   3.814   0.762
 5630SOL    HW117789   6.591   3.892   0.701
 5630SOL    HW217790   6.652   3.846   0.846
 5631SOL     OW17791   5.703   1.022   6.228
 5631SOL    HW117792   5.723   1.028   6.326
 5631SOL    HW217793   5.787   1.030   6.175
 5632SOL     OW17794   3.402   2.278   0.469
 5632SOL    HW117795   3.308   2.306   0.452
 5632SOL    HW217796   3.409   2.179   0.463
 5633SOL     OW17797   6.814   2.903   5.622
 5633SOL    HW117798   6.884   2.840   5.589
 5633SOL    HW217799   6.769   2.865   5.702
 5634SOL     OW17800   4.669   6.449   4.752
 5634SOL    HW117801   4.731   6.374   4.774
 5634SOL    HW217802   4.588   6.414   4.705
 5635SOL     OW17803   3.363   1.309   6.061
 5635SOL    HW117804   3.410   1.371   5.997
 5635SOL    HW217805   3.265   1.325   6.055
 5636SOL     OW17806   4.474   6.671   4.483
 5636SOL    HW117807   4.463   6.760   4.527
 5636SOL    HW217808   4.386   6.624   4.480
 5637SOL     OW17809   5.806   0.042   3.284
 5637SOL    HW117810   5.737   0.050   3.356
 5637SOL    HW217811   5.784   6.987   3.226
 5638SOL     OW17812   0.219   3.913   0.301
 5638SOL    HW117813   0.126   3.917   0.265
 5638SOL    HW217814   0.250   3.818   0.301
 5639SOL     OW17815   4.640   6.687   0.194
 5639SOL    HW117816   4.600   6.776   0.216
 5639SOL    HW217817   4.685   6.692   0.104
 5640SOL     OW17818   1.169   0.199   3.103
 5640SOL    HW117819   1.188   0.216   3.200
 5640SOL    HW217820   1.231   0.254   3.047
 5641SOL     OW17821   6.751   5.304   4.902
 5641SOL    HW117822   6.848   5.284   4.890
 5641SOL    HW217823   6.716   5.252   4.980
 5642SOL     OW17824   1.538   1.203   0.230
 5642SOL    HW117825   1.484   1.120   0.213
 5642SOL    HW217826   1.502   1.278   0.175
 5643SOL     OW17827   5.619   1.696   5.968
 5643SOL    HW117828   5.703   1.655   5.932
 5643SOL    HW217829   5.630   1.795   5.973
 5644SOL     OW17830   2.589   0.438   6.128
 5644SOL    HW117831   2.509   0.390   6.166
 5644SOL    HW217832   2.670   0.382   6.140
 5645SOL     OW17833   5.870   3.843   4.192
 5645SOL    HW117834   5.970   3.840   4.182
 5645SOL    HW217835   5.827   3.804   4.111
 5646SOL     OW17836   0.494   4.463   2.731
 5646SOL    HW117837   0.575   4.473   2.674
 5646SOL    HW217838   0.463   4.368   2.728
 5647SOL     OW17839   5.193   5.944   2.588
 5647SOL    HW117840   5.135   6.017   2.624
 5647SOL    HW217841   5.219   5.966   2.494
 5648SOL     OW17842   5.106   6.305   3.335
 5648SOL    HW117843   5.068   6.396   3.353
 5648SOL    HW217844   5.127   6.296   3.238
 5649SOL     OW17845   0.605   0.261   4.546
 5649SOL    HW117846   0.697   0.273   4.509
 5649SOL    HW217847   0.593   0.166   4.575
 5650SOL     OW17848   0.003   3.701   6.171
 5650SOL    HW117849   6.970   3.666   6.096
 5650SOL    HW217850   0.074   3.761   6.133
 5651SOL     OW17851   2.646   1.055   0.633
 5651SOL    HW117852   2.686   1.080   0.545
 5651SOL    HW217853   2.659   1.129   0.698
 5652SOL     OW17854   0.404   5.711   2.750
 5652SOL    HW117855   0.484   5.660   2.783
 5652SOL    HW217856   0.435   5.787   2.693
 5653SOL     OW17857   6.927   0.654   2.835
 5653SOL    HW117858   6.847   0.594   2.840
 5653SOL    HW217859   6.970   0.659   2.925
 5654SOL     OW17860   3.354   6.046   5.614
 5654SOL    HW117861   3.391   6.002   5.532
 5654SOL    HW217862   3.419   6.114   5.647
 5655SOL     OW17863   5.784   3.086   4.257
 5655SOL    HW117864   5.715   3.075   4.185
 5655SOL    HW217865   5.781   3.180   4.291
 5656SOL     OW17866   0.242   3.770   0.708
 5656SOL    HW117867   0.253   3.728   0.618
 5656SOL    HW217868   0.166   3.726   0.756
 5657SOL     OW17869   5.798   5.966   4.938
 5657SOL    HW117870   5.890   5.943   4.970
 5657SOL    HW217871   5.782   6.064   4.949
 5658SOL     OW17872   2.522   2.688   6.144
 5658SOL    HW117873   2.425   2.665   6.135
 5658SOL    HW217874   2.577   2.605   6.137
 5659SOL     OW17875   2.430   4.399   6.352
 5659SOL    HW117876   2.419   4.326   6.420
 5659SOL    HW217877   2.523   4.435   6.355
 5660SOL     OW17878   3.464   0.177   4.499
 5660SOL    HW117879   3.412   0.133   4.573
 5660SOL    HW217880   3.434   0.140   4.411
 5661SOL     OW17881   0.717   5.809   6.452
 5661SOL    HW117882   0.736   5.780   6.358
 5661SOL    HW217883   0.735   5.907   6.460
 5662SOL     OW17884   2.980   6.329   0.863
 5662SOL    HW117885   2.948   6.417   0.827
 5662SOL    HW217886   3.076   6.316   0.839
 5663SOL     OW17887   2.659   2.520   6.494
 5663SOL    HW117888   2.603   2.577   6.554
 5663SOL    HW217889   2.601   2.456   6.445
 5664SOL     OW17890   4.829   4.964   4.285
 5664SOL    HW117891   4.814   4.873   4.245
 5664SOL    HW217892   4.754   4.985   4.348
 5665SOL     OW17893   1.894   1.005   1.084
 5665SOL    HW117894   1.863   1.040   1.172
 5665SOL    HW217895   1.896   0.905   1.087
 5666SOL     OW17896   5.753   2.995   4.662
 5666SOL    HW117897   5.681   2.929   4.687
 5666SOL    HW217898   5.805   2.960   4.584
 5667SOL     OW17899   3.033   5.000   4.267
 5667SOL    HW117900   2.957   4.950   4.225
 5667SOL    HW217901   3.061   4.954   4.351
 5668SOL     OW17902   4.291   4.842   3.969
 5668SOL    HW117903   4.319   4.785   3.892
 5668SOL    HW217904   4.237   4.919   3.936
 5669SOL     OW17905   5.881   4.491   5.829
 5669SOL    HW117906   5.865   4.395   5.806
 5669SOL    HW217907   5.793   4.539   5.838
 5670SOL     OW17908   1.378   2.532   4.388
 5670SOL    HW117909   1.380   2.474   4.470
 5670SOL    HW217910   1.439   2.610   4.400
 5671SOL     OW17911   6.191   6.041   2.724
 5671SOL    HW117912   6.157   5.975   2.791
 5671SOL    HW217913   6.247   5.994   2.656
 5672SOL     OW17914   5.228   3.393   4.289
 5672SOL    HW117915   5.250   3.301   4.256
 5672SOL    HW217916   5.312   3.440   4.313
 5673SOL     OW17917   0.482   2.378   0.335
 5673SOL    HW117918   0.445   2.399   0.245
 5673SOL    HW217919   0.510   2.282   0.338
 5674SOL     OW17920   2.635   5.330   5.273
 5674SOL    HW117921   2.669   5.299   5.184
 5674SOL    HW217922   2.541   5.363   5.263
 5675SOL     OW17923   3.027   2.133   1.003
 5675SOL    HW117924   3.021   2.059   0.936
 5675SOL    HW217925   2.983   2.104   1.088
 5676SOL     OW17926   3.905   1.681   1.725
 5676SOL    HW117927   3.996   1.654   1.695
 5676SOL    HW217928   3.859   1.603   1.768
 5677SOL     OW17929   0.875   1.553   5.953
 5677SOL    HW117930   0.803   1.621   5.957
 5677SOL    HW217931   0.883   1.507   6.042
 5678SOL     OW17932   4.019   1.938   2.171
 5678SOL    HW117933   4.112   1.930   2.206
 5678SOL    HW217934   3.955   1.899   2.237
 5679SOL     OW17935   7.009   3.759   5.721
 5679SOL    HW117936   0.060   3.790   5.664
 5679SOL    HW217937   6.930   3.737   5.664
 5680SOL     OW17938   0.525   5.604   4.863
 5680SOL    HW117939   0.469   5.537   4.813
 5680SOL    HW217940   0.470   5.647   4.935
 5681SOL     OW17941   1.325   3.456   3.022
 5681SOL    HW117942   1.391   3.524   3.052
 5681SOL    HW217943   1.238   3.471   3.068
 5682SOL     OW17944   1.883   4.568   0.909
 5682SOL    HW117945   1.839   4.656   0.929
 5682SOL    HW217946   1.885   4.513   0.993
 5683SOL     OW17947   0.114   0.261   5.613
 5683SOL    HW117948   0.087   0.166   5.630
 5683SOL    HW217949   0.041   0.306   5.561
 5684SOL     OW17950   2.048   2.941   4.890
 5684SOL    HW117951   2.029   2.844   4.900
 5684SOL    HW217952   2.142   2.953   4.857
 5685SOL     OW17953   2.010   1.882   1.763
 5685SOL    HW117954   2.076   1.906   1.692
 5685SOL    HW217955   1.923   1.858   1.720
 5686SOL     OW17956   5.687   6.198   5.604
 5686SOL    HW117957   5.680   6.236   5.512
 5686SOL    HW217958   5.688   6.098   5.600
 5687SOL     OW17959   1.555   6.924   6.542
 5687SOL    HW117960   1.468   6.916   6.492
 5687SOL    HW217961   1.547   6.876   6.629
 5688SOL     OW17962   1.894   1.879   3.062
 5688SOL    HW117963   1.915   1.873   2.964
 5688SOL    HW217964   1.814   1.822   3.083
 5689SOL     OW17965   0.168   2.483   1.324
 5689SOL    HW117966   0.085   2.476   1.268
 5689SOL    HW217967   0.142   2.495   1.420
 5690SOL     OW17968   2.938   5.470   0.081
 5690SOL    HW117969   3.000   5.517   0.143
 5690SOL    HW217970   2.844   5.497   0.099
 5691SOL     OW17971   4.535   2.428   3.456
 5691SOL    HW117972   4.580   2.488   3.522
 5691SOL    HW217973   4.441   2.410   3.485
 5692SOL     OW17974   6.329   4.975   1.733
 5692SOL    HW117975   6.235   4.980   1.766
 5692SOL    HW217976   6.340   4.893   1.677
 5693SOL     OW17977   3.290   0.726   2.659
 5693SOL    HW117978   3.309   0.677   2.574
 5693SOL    HW217979   3.274   0.660   2.733
 5694SOL     OW17980   0.300   0.392   1.161
 5694SOL    HW117981   0.320   0.318   1.097
 5694SOL    HW217982   0.365   0.466   1.146
 5695SOL     OW17983   2.269   1.160   2.204
 5695SOL    HW117984   2.270   1.061   2.189
 5695SOL    HW217985   2.175   1.194   2.193
 5696SOL     OW17986   0.168   0.352   3.552
 5696SOL    HW117987   0.225   0.273   3.530
 5696SOL    HW217988   0.095   0.324   3.615
 5697SOL     OW17989   6.445   1.544   0.196
 5697SOL    HW117990   6.422   1.455   0.158
 5697SOL    HW217991   6.509   1.532   0.271
 5698SOL     OW17992   3.001   2.192   3.320
 5698SOL    HW117993   3.099   2.184   3.338
 5698SOL    HW217994   2.983   2.169   3.225
 5699SOL     OW17995   2.543   2.529   2.461
 5699SOL    HW117996   2.583   2.444   2.492
 5699SOL    HW217997   2.614   2.587   2.421
 5700SOL     OW17998   5.666   0.107   2.598
 5700SOL    HW117999   5.677   0.025   2.542
 5700SOL    HW218000   5.712   0.184   2.554
 5701SOL     OW18001   1.832   0.532   0.957
 5701SOL    HW118002   1.771   0.599   0.914
 5701SOL    HW218003   1.864   0.467   0.888
 5702SOL     OW18004   1.474   6.309   5.161
 5702SOL    HW118005   1.509   6.295   5.068
 5702SOL    HW218006   1.417   6.231   5.187
 5703SOL     OW18007   1.100   2.840   6.229
 5703SOL    HW118008   1.060   2.910   6.170
 5703SOL    HW218009   1.133   2.764   6.173
 5704SOL     OW18010   4.236   5.802   4.402
 5704SOL    HW118011   4.233   5.840   4.494
 5704SOL    HW218012   4.207   5.706   4.404
 5705SOL     OW18013   5.683   1.101   5.110
 5705SOL    HW118014   5.700   1.040   5.032
 5705SOL    HW218015   5.753   1.172   5.112
 5706SOL     OW18016   5.553   1.604   1.067
 5706SOL    HW118017   5.567   1.542   0.990
 5706SOL    HW218018   5.636   1.606   1.123
 5707SOL     OW18019   6.085   5.653   1.024
 5707SOL    HW118020   6.021   5.591   1.070
 5707SOL    HW218021   6.178   5.620   1.038
 5708SOL     OW18022   5.046   6.430   2.074
 5708SOL    HW118023   5.061   6.337   2.109
 5708SOL    HW218024   5.112   6.492   2.116
 5709SOL     OW18025   0.579   3.234   2.442
 5709SOL    HW118026   0.518   3.168   2.398
 5709SOL    HW218027   0.660   3.187   2.476
 5710SOL     OW18028   5.130   1.716   0.854
 5710SOL    HW118029   5.194   1.770   0.799
 5710SOL    HW218030   5.181   1.655   0.914
 5711SOL     OW18031   4.314   1.542   1.810
 5711SOL    HW118032   4.256   1.552   1.730
 5711SOL    HW218033   4.405   1.578   1.791
 5712SOL     OW18034   6.290   6.445   6.634
 5712SOL    HW118035   6.373   6.497   6.612
 5712SOL    HW218036   6.220   6.508   6.669
 5713SOL     OW18037   1.189   1.496   1.011
 5713SOL    HW118038   1.270   1.544   0.977
 5713SOL    HW218039   1.203   1.471   1.107
 5714SOL     OW18040   5.968   0.459   0.988
 5714SOL    HW118041   6.044   0.469   0.925
 5714SOL    HW218042   5.915   0.544   0.992
 5715SOL     OW18043   0.207   6.486   1.171
 5715SOL    HW118044   0.135   6.468   1.239
 5715SOL    HW218045   0.285   6.528   1.216
 5716SOL     OW18046   0.792   4.598   5.433
 5716SOL    HW118047   0.796   4.698   5.433
 5716SOL    HW218048   0.855   4.563   5.364
 5717SOL     OW18049   0.092   5.678   3.260
 5717SOL    HW118050   0.081   5.730   3.345
 5717SOL    HW218051   0.107   5.581   3.281
 5718SOL     OW18052   1.066   4.210   0.383
 5718SOL    HW118053   1.088   4.192   0.287
 5718SOL    HW218054   0.968   4.201   0.397
 5719SOL     OW18055   3.246   3.177   0.584
 5719SOL    HW118056   3.235   3.212   0.677
 5719SOL    HW218057   3.204   3.241   0.520
 5720SOL     OW18058   2.910   5.051   6.387
 5720SOL    HW118059   2.980   4.983   6.410
 5720SOL    HW218060   2.841   5.009   6.328
 5721SOL     OW18061   1.131   3.226   0.649
 5721SOL    HW118062   1.058   3.158   0.660
 5721SOL    HW218063   1.154   3.265   0.739
 5722SOL     OW18064   1.726   0.378   5.602
 5722SOL    HW118065   1.824   0.399   5.603
 5722SOL    HW218066   1.689   0.397   5.511
 5723SOL     OW18067   4.086   3.473   0.157
 5723SOL    HW118068   4.043   3.399   0.209
 5723SOL    HW218069   4.050   3.561   0.187
 5724SOL     OW18070   6.101   1.844   5.898
 5724SOL    HW118071   6.058   1.906   5.833
 5724SOL    HW218072   6.120   1.892   5.984
 5725SOL     OW18073   0.022   4.497   4.864
 5725SOL    HW118074   6.964   4.526   4.914
 5725SOL    HW218075   0.007   4.509   4.766
 5726SOL     OW18076   4.504   4.560   2.182
 5726SOL    HW118077   4.517   4.463   2.199
 5726SOL    HW218078   4.593   4.604   2.167
 5727SOL     OW18079   1.298   3.062   5.972
 5727SOL    HW118080   1.266   3.077   6.066
 5727SOL    HW218081   1.343   3.145   5.939
 5728SOL     OW18082   2.991   6.858   4.582
 5728SOL    HW118083   2.905   6.889   4.541
 5728SOL    HW218084   2.971   6.801   4.662
 5729SOL     OW18085   2.940   1.945   4.505
 5729SOL    HW118086   2.984   1.855   4.510
 5729SOL    HW218087   2.999   2.008   4.454
 5730SOL     OW18088   6.493   4.265   5.118
 5730SOL    HW118089   6.445   4.229   5.197
 5730SOL    HW218090   6.451   4.352   5.090
 5731SOL     OW18091   0.575   6.678   2.357
 5731SOL    HW118092   0.589   6.704   2.262
 5731SOL    HW218093   0.485   6.711   2.388
 5732SOL     OW18094   5.227   0.181   3.540
 5732SOL    HW118095   5.205   0.085   3.521
 5732SOL    HW218096   5.182   0.209   3.625
 5733SOL     OW18097   2.952   1.071   5.084
 5733SOL    HW118098   2.925   0.985   5.128
 5733SOL    HW218099   3.029   1.054   5.022
 5734SOL     OW18100   1.547   6.766   3.961
 5734SOL    HW118101   1.500   6.854   3.953
 5734SOL    HW218102   1.499   6.709   4.028
 5735SOL     OW18103   2.966   1.084   1.037
 5735SOL    HW118104   2.992   1.105   1.131
 5735SOL    HW218105   2.879   1.034   1.037
 5736SOL     OW18106   1.867   4.880   0.623
 5736SOL    HW118107   1.857   4.830   0.537
 5736SOL    HW218108   1.954   4.855   0.666
 5737SOL     OW18109   5.985   4.150   0.024
 5737SOL    HW118110   5.975   4.235   0.076
 5737SOL    HW218111   6.082   4.135   0.004
 5738SOL     OW18112   0.286   5.175   4.423
 5738SOL    HW118113   0.356   5.109   4.451
 5738SOL    HW218114   0.323   5.236   4.352
 5739SOL     OW18115   0.614   2.892   0.744
 5739SOL    HW118116   0.589   2.938   0.829
 5739SOL    HW218117   0.703   2.847   0.755
 5740SOL     OW18118   4.200   5.116   0.057
 5740SOL    HW118119   4.237   5.164   0.137
 5740SOL    HW218120   4.255   5.033   0.041
 5741SOL     OW18121   0.478   2.971   2.388
 5741SOL    HW118122   0.424   3.007   2.312
 5741SOL    HW218123   0.417   2.928   2.454
 5742SOL     OW18124   0.603   5.368   3.820
 5742SOL    HW118125   0.603   5.461   3.785
 5742SOL    HW218126   0.584   5.304   3.746
 5743SOL     OW18127   0.872   6.501   5.411
 5743SOL    HW118128   0.835   6.410   5.393
 5743SOL    HW218129   0.819   6.569   5.361
 5744SOL     OW18130   6.407   0.413   1.842
 5744SOL    HW118131   6.424   0.459   1.755
 5744SOL    HW218132   6.393   0.482   1.913
 5745SOL     OW18133   6.738   3.415   2.834
 5745SOL    HW118134   6.746   3.512   2.853
 5745SOL    HW218135   6.643   3.391   2.817
 5746SOL     OW18136   0.133   4.432   6.207
 5746SOL    HW118137   0.075   4.367   6.256
 5746SOL    HW218138   0.079   4.512   6.180
 5747SOL     OW18139   0.208   6.161   3.713
 5747SOL    HW118140   0.109   6.165   3.729
 5747SOL    HW218141   0.227   6.109   3.630
 5748SOL     OW18142   1.223   0.655   4.126
 5748SOL    HW118143   1.191   0.678   4.218
 5748SOL    HW218144   1.198   0.729   4.063
 5749SOL     OW18145   0.753   0.718   3.171
 5749SOL    HW118146   0.749   0.728   3.270
 5749SOL    HW218147   0.772   0.807   3.129
 5750SOL     OW18148   5.797   6.912   2.306
 5750SOL    HW118149   5.834   7.005   2.303
 5750SOL    HW218150   5.848   6.854   2.242
 5751SOL     OW18151   0.990   2.415   6.346
 5751SOL    HW118152   0.976   2.510   6.320
 5751SOL    HW218153   1.035   2.410   6.435
 5752SOL     OW18154   1.599   1.238   6.781
 5752SOL    HW118155   1.505   1.269   6.799
 5752SOL    HW218156   1.663   1.310   6.809
 5753SOL     OW18157   4.562   1.254   7.000
 5753SOL    HW118158   4.526   1.342   0.007
 5753SOL    HW218159   4.519   1.230   6.913
 5754SOL     OW18160   6.422   5.795   0.862
 5754SOL    HW118161   6.376   5.763   0.779
 5754SOL    HW218162   6.378   5.754   0.942
 5755SOL     OW18163   3.178   3.684   1.697
 5755SOL    HW118164   3.189   3.617   1.623
 5755SOL    HW218165   3.200   3.776   1.662
 5756SOL     OW18166   6.185   6.978   4.126
 5756SOL    HW118167   6.259   6.943   4.183
 5756SOL    HW218168   6.106   6.917   4.132
 5757SOL     OW18169   6.414   6.073   1.508
 5757SOL    HW118170   6.319   6.042   1.505
 5757SOL    HW218171   6.416   6.172   1.491
 5758SOL     OW18172   2.763   0.952   5.906
 5758SOL    HW118173   2.689   0.988   5.850
 5758SOL    HW218174   2.752   0.853   5.916
 5759SOL     OW18175   0.840   0.857   5.920
 5759SOL    HW118176   0.755   0.808   5.937
 5759SOL    HW218177   0.917   0.802   5.951
 5760SOL     OW18178   6.966   5.810   1.154
 5760SOL    HW118179   6.871   5.787   1.177
 5760SOL    HW218180   6.967   5.881   1.083
 5761SOL     OW18181   4.509   0.911   3.931
 5761SOL    HW118182   4.524   0.978   4.004
 5761SOL    HW218183   4.419   0.925   3.891
 5762SOL     OW18184   4.955   6.558   1.345
 5762SOL    HW118185   4.964   6.534   1.248
 5762SOL    HW218186   4.966   6.476   1.401
 5763SOL     OW18187   3.346   1.014   0.474
 5763SOL    HW118188   3.381   0.977   0.560
 5763SOL    HW218189   3.344   0.941   0.405
 5764SOL     OW18190   3.685   2.934   6.604
 5764SOL    HW118191   3.772   2.926   6.651
 5764SOL    HW218192   3.653   3.028   6.608
 5765SOL     OW18193   0.013   5.556   6.892
 5765SOL    HW118194   0.024   5.464   6.855
 5765SOL    HW218195   6.991   5.550   6.981
 5766SOL     OW18196   2.017   1.566   2.805
 5766SOL    HW118197   2.018   1.469   2.780
 5766SOL    HW218198   2.054   1.576   2.898
 5767SOL     OW18199   5.244   6.341   0.189
 5767SOL    HW118200   5.219   6.246   0.170
 5767SOL    HW218201   5.283   6.382   0.106
 5768SOL     OW18202   6.221   6.654   1.692
 5768SOL    HW118203   6.180   6.568   1.723
 5768SOL    HW218204   6.314   6.661   1.726
 5769SOL     OW18205   0.289   4.368   3.120
 5769SOL    HW118206   0.231   4.431   3.171
 5769SOL    HW218207   0.349   4.420   3.058
 5770SOL     OW18208   5.370   2.400   1.789
 5770SOL    HW118209   5.312   2.476   1.760
 5770SOL    HW218210   5.313   2.329   1.831
 5771SOL     OW18211   1.012   1.124   1.921
 5771SOL    HW118212   1.026   1.113   1.822
 5771SOL    HW218213   1.028   1.219   1.946
 5772SOL     OW18214   6.463   5.617   5.845
 5772SOL    HW118215   6.495   5.531   5.807
 5772SOL    HW218216   6.422   5.601   5.935
 5773SOL     OW18217   5.238   6.155   4.476
 5773SOL    HW118218   5.262   6.250   4.455
 5773SOL    HW218219   5.198   6.112   4.395
 5774SOL     OW18220   1.502   5.021   2.120
 5774SOL    HW118221   1.489   4.965   2.039
 5774SOL    HW218222   1.585   4.993   2.167
 5775SOL     OW18223   0.950   0.836   0.858
 5775SOL    HW118224   1.027   0.841   0.921
 5775SOL    HW218225   0.984   0.839   0.764
 5776SOL     OW18226   5.008   0.864   5.977
 5776SOL    HW118227   5.101   0.853   6.011
 5776SOL    HW218228   4.945   0.871   6.054
 5777SOL     OW18229   5.771   6.509   4.443
 5777SOL    HW118230   5.694   6.524   4.381
 5777SOL    HW218231   5.748   6.437   4.508
 5778SOL     OW18232   2.736   0.045   3.921
 5778SOL    HW118233   2.684   0.130   3.913
 5778SOL    HW218234   2.801   0.039   3.845
 5779SOL     OW18235   4.005   0.281   2.135
 5779SOL    HW118236   4.089   0.227   2.123
 5779SOL    HW218237   4.004   0.357   2.070
 5780SOL     OW18238   6.663   4.434   0.197
 5780SOL    HW118239   6.596   4.374   0.240
 5780SOL    HW218240   6.651   4.528   0.230
 5781SOL     OW18241   3.967   3.950   5.446
 5781SOL    HW118242   4.010   4.035   5.479
 5781SOL    HW218243   3.915   3.908   5.520
 5782SOL     OW18244   4.922   2.067   2.830
 5782SOL    HW118245   4.868   2.044   2.749
 5782SOL    HW218246   5.007   2.111   2.801
 5783SOL     OW18247   3.407   6.150   3.297
 5783SOL    HW118248   3.417   6.186   3.390
 5783SOL    HW218249   3.401   6.050   3.301
 5784SOL     OW18250   1.070   6.135   1.665
 5784SOL    HW118251   1.144   6.137   1.732
 5784SOL    HW218252   1.073   6.217   1.608
 5785SOL     OW18253   2.428   1.705   6.325
 5785SOL    HW118254   2.505   1.658   6.368
 5785SOL    HW218255   2.407   1.788   6.378
 5786SOL     OW18256   2.165   1.758   6.815
 5786SOL    HW118257   2.128   1.743   6.724
 5786SOL    HW218258   2.265   1.758   6.811
 5787SOL     OW18259   0.935   2.252   5.647
 5787SOL    HW118260   0.975   2.160   5.646
 5787SOL    HW218261   1.005   2.318   5.672
 5788SOL     OW18262   0.601   2.464   1.963
 5788SOL    HW118263   0.692   2.421   1.964
 5788SOL    HW218264   0.580   2.495   1.870
 5789SOL     OW18265   3.233   0.072   0.542
 5789SOL    HW118266   3.197   0.025   0.462
 5789SOL    HW218267   3.171   0.059   0.619
 5790SOL     OW18268   6.449   6.388   2.527
 5790SOL    HW118269   6.434   6.296   2.492
 5790SOL    HW218270   6.361   6.431   2.546
 5791SOL     OW18271   4.186   0.584   1.171
 5791SOL    HW118272   4.118   0.657   1.179
 5791SOL    HW218273   4.150   0.501   1.214
 5792SOL     OW18274   4.410   2.359   2.651
 5792SOL    HW118275   4.474   2.426   2.690
 5792SOL    HW218276   4.346   2.330   2.722
 5793SOL     OW18277   4.281   2.398   0.718
 5793SOL    HW118278   4.219   2.348   0.779
 5793SOL    HW218279   4.352   2.443   0.772
 5794SOL     OW18280   2.982   6.466   7.009
 5794SOL    HW118281   2.915   6.412   0.036
 5794SOL    HW218282   3.072   6.455   0.025
 5795SOL     OW18283   1.401   1.062   1.764
 5795SOL    HW118284   1.378   1.159   1.764
 5795SOL    HW218285   1.500   1.052   1.766
 5796SOL     OW18286   4.457   0.599   5.920
 5796SOL    HW118287   4.451   0.515   5.973
 5796SOL    HW218288   4.536   0.595   5.858
 5797SOL     OW18289   6.146   1.864   0.170
 5797SOL    HW118290   6.246   1.868   0.170
 5797SOL    HW218291   6.115   1.818   0.253
 5798SOL     OW18292   1.972   2.359   4.814
 5798SOL    HW118293   1.945   2.440   4.866
 5798SOL    HW218294   1.999   2.386   4.722
 5799SOL     OW18295   2.835   0.361   4.240
 5799SOL    HW118296   2.741   0.380   4.210
 5799SOL    HW218297   2.856   0.418   4.320
 5800SOL     OW18298   1.720   6.309   1.684
 5800SOL    HW118299   1.740   6.253   1.765
 5800SOL    HW218300   1.640   6.272   1.637
 5801SOL     OW18301   1.784   2.403   3.070
 5801SOL    HW118302   1.824   2.423   3.159
 5801SOL    HW218303   1.831   2.324   3.030
 5802SOL     OW18304   6.990   0.162   2.828
 5802SOL    HW118305   0.060   0.139   2.802
 5802SOL    HW218306   6.926   0.115   2.766
 5803SOL     OW18307   0.159   6.252   4.595
 5803SOL    HW118308   0.145   6.206   4.683
 5803SOL    HW218309   0.206   6.339   4.611
 5804SOL     OW18310   6.024   2.319   3.489
 5804SOL    HW118311   6.091   2.312   3.416
 5804SOL    HW218312   5.934   2.341   3.451
 5805SOL     OW18313   0.775   2.631   1.260
 5805SOL    HW118314   0.743   2.551   1.310
 5805SOL    HW218315   0.734   2.714   1.300
 5806SOL     OW18316   6.359   4.415   1.505
 5806SOL    HW118317   6.400   4.461   1.584
 5806SOL    HW218318   6.297   4.343   1.536
 5807SOL     OW18319   0.961   0.816   2.761
 5807SOL    HW118320   1.036   0.847   2.819
 5807SOL    HW218321   0.878   0.868   2.782
 5808SOL     OW18322   6.504   5.915   5.944
 5808SOL    HW118323   6.458   5.978   6.006
 5808SOL    HW218324   6.442   5.840   5.920
 5809SOL     OW18325   6.865   3.426   4.740
 5809SOL    HW118326   6.829   3.379   4.659
 5809SOL    HW218327   6.956   3.461   4.720
 5810SOL     OW18328   0.931   6.520   5.104
 5810SOL    HW118329   0.990   6.596   5.077
 5810SOL    HW218330   0.860   6.554   5.166
 5811SOL     OW18331   3.114   4.706   0.064
 5811SOL    HW118332   3.028   4.735   0.105
 5811SOL    HW218333   3.149   4.780   0.005
 5812SOL     OW18334   6.452   2.458   6.223
 5812SOL    HW118335   6.405   2.426   6.306
 5812SOL    HW218336   6.521   2.526   6.248
 5813SOL     OW18337   6.388   5.662   1.118
 5813SOL    HW118338   6.374   5.582   1.060
 5813SOL    HW218339   6.475   5.653   1.167
 5814SOL     OW18340   5.108   1.978   2.499
 5814SOL    HW118341   5.032   2.027   2.457
 5814SOL    HW218342   5.097   1.880   2.483
 5815SOL     OW18343   6.539   4.004   4.925
 5815SOL    HW118344   6.516   4.083   4.982
 5815SOL    HW218345   6.544   4.033   4.829
 5816SOL     OW18346   0.162   4.603   1.240
 5816SOL    HW118347   0.204   4.655   1.165
 5816SOL    HW218348   0.150   4.508   1.212
 5817SOL     OW18349   6.226   2.658   4.047
 5817SOL    HW118350   6.174   2.641   4.131
 5817SOL    HW218351   6.324   2.648   4.066
 5818SOL     OW18352   2.604   0.455   4.401
 5818SOL    HW118353   2.511   0.465   4.437
 5818SOL    HW218354   2.609   0.493   4.309
 5819SOL     OW18355   3.995   4.040   1.384
 5819SOL    HW118356   4.010   3.988   1.300
 5819SOL    HW218357   4.063   4.013   1.452
 5820SOL     OW18358   1.026   6.580   2.134
 5820SOL    HW118359   1.099   6.562   2.200
 5820SOL    HW218360   0.979   6.665   2.158
 5821SOL     OW18361   5.377   5.996   1.956
 5821SOL    HW118362   5.401   5.951   1.870
 5821SOL    HW218363   5.446   6.066   1.978
 5822SOL     OW18364   0.765   4.053   3.235
 5822SOL    HW118365   0.814   4.137   3.211
 5822SOL    HW218366   0.827   3.975   3.228
 5823SOL     OW18367   2.711   6.612   5.286
 5823SOL    HW118368   2.622   6.650   5.264
 5823SOL    HW218369   2.708   6.512   5.279
 5824SOL     OW18370   2.584   5.555   2.373
 5824SOL    HW118371   2.603   5.505   2.288
 5824SOL    HW218372   2.609   5.498   2.451
 5825SOL     OW18373   3.702   1.993   4.239
 5825SOL    HW118374   3.697   1.899   4.207
 5825SOL    HW218375   3.708   1.994   4.339
 5826SOL     OW18376   1.307   6.114   5.248
 5826SOL    HW118377   1.222   6.164   5.260
 5826SOL    HW218378   1.287   6.021   5.216
 5827SOL     OW18379   2.042   4.006   4.012
 5827SOL    HW118380   1.970   3.956   3.963
 5827SOL    HW218381   2.028   3.997   4.111
 5828SOL     OW18382   4.331   0.450   5.108
 5828SOL    HW118383   4.261   0.521   5.104
 5828SOL    HW218384   4.320   0.397   5.192
 5829SOL     OW18385   1.698   1.262   2.697
 5829SOL    HW118386   1.728   1.166   2.697
 5829SOL    HW218387   1.695   1.296   2.791
 5830SOL     OW18388   5.129   4.938   4.915
 5830SOL    HW118389   5.094   4.897   4.831
 5830SOL    HW218390   5.174   5.024   4.894
 5831SOL     OW18391   2.489   2.082   4.623
 5831SOL    HW118392   2.473   2.168   4.573
 5831SOL    HW218393   2.544   2.021   4.567
 5832SOL     OW18394   2.508   4.917   3.323
 5832SOL    HW118395   2.462   4.873   3.247
 5832SOL    HW218396   2.453   4.994   3.356
 5833SOL     OW18397   2.545   4.615   1.328
 5833SOL    HW118398   2.609   4.685   1.360
 5833SOL    HW218399   2.451   4.642   1.350
 5834SOL     OW18400   5.879   1.637   5.878
 5834SOL    HW118401   5.971   1.676   5.887
 5834SOL    HW218402   5.883   1.538   5.889
 5835SOL     OW18403   3.760   0.971   3.904
 5835SOL    HW118404   3.737   0.980   3.807
 5835SOL    HW218405   3.723   1.048   3.954
 5836SOL     OW18406   5.266   4.817   1.259
 5836SOL    HW118407   5.214   4.902   1.268
 5836SOL    HW218408   5.264   4.768   1.346
 5837SOL     OW18409   1.932   4.102   0.095
 5837SOL    HW118410   1.985   4.173   0.141
 5837SOL    HW218411   1.914   4.131   0.001
 5838SOL     OW18412   2.962   3.114   0.425
 5838SOL    HW118413   2.868   3.149   0.422
 5838SOL    HW218414   2.965   3.023   0.382
 5839SOL     OW18415   2.544   1.259   1.004
 5839SOL    HW118416   2.525   1.168   1.040
 5839SOL    HW218417   2.598   1.251   0.921
 5840SOL     OW18418   6.193   3.908   2.144
 5840SOL    HW118419   6.172   3.820   2.102
 5840SOL    HW218420   6.155   3.912   2.236
 5841SOL     OW18421   5.188   2.328   0.698
 5841SOL    HW118422   5.238   2.412   0.678
 5841SOL    HW218423   5.195   2.265   0.621
 5842SOL     OW18424   3.905   2.170   2.332
 5842SOL    HW118425   3.941   2.210   2.248
 5842SOL    HW218426   3.818   2.124   2.312
 5843SOL     OW18427   3.131   2.374   1.016
 5843SOL    HW118428   3.101   2.279   1.000
 5843SOL    HW218429   3.133   2.392   1.115
 5844SOL     OW18430   6.688   5.325   5.520
 5844SOL    HW118431   6.694   5.269   5.438
 5844SOL    HW218432   6.780   5.350   5.551
 5845SOL     OW18433   1.945   6.226   3.086
 5845SOL    HW118434   1.973   6.320   3.108
 5845SOL    HW218435   2.024   6.175   3.051
 5846SOL     OW18436   0.763   4.249   4.830
 5846SOL    HW118437   0.809   4.316   4.772
 5846SOL    HW218438   0.670   4.280   4.850
 5847SOL     OW18439   2.224   4.303   5.660
 5847SOL    HW118440   2.269   4.331   5.575
 5847SOL    HW218441   2.187   4.211   5.650
 5848SOL     OW18442   3.114   6.627   1.186
 5848SOL    HW118443   3.089   6.530   1.188
 5848SOL    HW218444   3.208   6.637   1.154
 5849SOL     OW18445   2.889   5.982   6.524
 5849SOL    HW118446   2.926   5.922   6.452
 5849SOL    HW218447   2.887   5.932   6.611
 5850SOL     OW18448   5.010   2.047   1.367
 5850SOL    HW118449   4.995   2.043   1.466
 5850SOL    HW218450   5.037   2.139   1.341
 5851SOL     OW18451   1.520   2.870   5.585
 5851SOL    HW118452   1.582   2.887   5.662
 5851SOL    HW218453   1.467   2.787   5.603
 5852SOL     OW18454   4.235   5.022   3.190
 5852SOL    HW118455   4.211   4.927   3.211
 5852SOL    HW218456   4.283   5.063   3.268
 5853SOL     OW18457   4.539   4.459   0.251
 5853SOL    HW118458   4.532   4.368   0.211
 5853SOL    HW218459   4.611   4.459   0.321
 5854SOL     OW18460   2.737   4.516   5.411
 5854SOL    HW118461   2.809   4.538   5.476
 5854SOL    HW218462   2.778   4.495   5.322
 5855SOL     OW18463   1.760   1.912   4.641
 5855SOL    HW118464   1.696   1.989   4.646
 5855SOL    HW218465   1.710   1.830   4.611
 5856SOL     OW18466   0.444   0.830   1.996
 5856SOL    HW118467   0.498   0.909   2.025
 5856SOL    HW218468   0.505   0.754   1.973
 5857SOL     OW18469   6.218   5.463   6.889
 5857SOL    HW118470   6.245   5.559   6.897
 5857SOL    HW218471   6.130   5.457   6.841
 5858SOL     OW18472   3.225   1.680   1.849
 5858SOL    HW118473   3.206   1.756   1.912
 5858SOL    HW218474   3.228   1.714   1.755
 5859SOL     OW18475   6.036   5.100   1.522
 5859SOL    HW118476   5.939   5.080   1.537
 5859SOL    HW218477   6.083   5.099   1.610
 5860SOL     OW18478   1.642   2.979   1.854
 5860SOL    HW118479   1.707   2.905   1.871
 5860SOL    HW218480   1.589   2.997   1.937
 5861SOL     OW18481   5.065   0.142   4.852
 5861SOL    HW118482   5.143   0.081   4.860
 5861SOL    HW218483   5.004   0.108   4.780
 5862SOL     OW18484   0.004   4.889   1.654
 5862SOL    HW118485   0.097   4.878   1.619
 5862SOL    HW218486   0.006   4.945   1.736
 5863SOL     OW18487   4.239   6.525   6.381
 5863SOL    HW118488   4.266   6.500   6.474
 5863SOL    HW218489   4.179   6.605   6.384
 5864SOL     OW18490   3.433   2.976   3.834
 5864SOL    HW118491   3.404   2.922   3.755
 5864SOL    HW218492   3.438   3.072   3.808
 5865SOL     OW18493   6.666   6.373   1.141
 5865SOL    HW118494   6.617   6.287   1.125
 5865SOL    HW218495   6.614   6.430   1.204
 5866SOL     OW18496   3.325   3.430   4.360
 5866SOL    HW118497   3.389   3.506   4.358
 5866SOL    HW218498   3.285   3.418   4.269
 5867SOL     OW18499   4.889   0.935   1.023
 5867SOL    HW118500   4.794   0.912   1.001
 5867SOL    HW218501   4.917   0.884   1.104
 5868SOL     OW18502   1.529   0.873   1.277
 5868SOL    HW118503   1.480   0.871   1.364
 5868SOL    HW218504   1.627   0.864   1.294
 5869SOL     OW18505   1.870   5.314   3.719
 5869SOL    HW118506   1.820   5.361   3.646
 5869SOL    HW218507   1.952   5.271   3.680
 5870SOL     OW18508   3.900   6.413   3.759
 5870SOL    HW118509   3.899   6.497   3.813
 5870SOL    HW218510   3.809   6.397   3.720
 5871SOL     OW18511   3.394   2.925   3.558
 5871SOL    HW118512   3.471   2.990   3.553
 5871SOL    HW218513   3.423   2.836   3.522
 5872SOL     OW18514   3.794   5.192   1.428
 5872SOL    HW118515   3.791   5.111   1.369
 5872SOL    HW218516   3.889   5.212   1.452
 5873SOL     OW18517   4.217   6.790   2.456
 5873SOL    HW118518   4.192   6.886   2.443
 5873SOL    HW218519   4.292   6.783   2.522
 5874SOL     OW18520   0.170   4.067   5.043
 5874SOL    HW118521   0.224   4.015   5.109
 5874SOL    HW218522   0.168   4.018   4.956
 5875SOL     OW18523   4.540   3.056   0.960
 5875SOL    HW118524   4.456   3.105   0.936
 5875SOL    HW218525   4.587   3.028   0.876
 5876SOL     OW18526   3.180   3.351   3.115
 5876SOL    HW118527   3.083   3.357   3.095
 5876SOL    HW218528   3.208   3.429   3.171
 5877SOL     OW18529   4.964   4.068   1.707
 5877SOL    HW118530   4.881   4.083   1.761
 5877SOL    HW218531   5.011   3.986   1.741
 5878SOL     OW18532   0.514   3.507   1.623
 5878SOL    HW118533   0.535   3.571   1.696
 5878SOL    HW218534   0.462   3.430   1.661
 5879SOL     OW18535   1.541   4.522   4.890
 5879SOL    HW118536   1.443   4.522   4.872
 5879SOL    HW218537   1.560   4.470   4.973
 5880SOL     OW18538   2.547   5.023   6.933
 5880SOL    HW118539   2.494   5.057   7.011
 5880SOL    HW218540   2.499   5.046   6.848
 5881SOL     OW18541   1.654   6.536   3.797
 5881SOL    HW118542   1.664   6.463   3.864
 5881SOL    HW218543   1.602   6.612   3.838
 5882SOL     OW18544   4.633   0.676   3.029
 5882SOL    HW118545   4.681   0.763   3.020
 5882SOL    HW218546   4.678   0.620   3.099
 5883SOL     OW18547   1.440   3.129   5.495
 5883SOL    HW118548   1.519   3.185   5.518
 5883SOL    HW218549   1.465   3.032   5.498
 5884SOL     OW18550   0.071   0.664   3.061
 5884SOL    HW118551   0.093   0.590   3.126
 5884SOL    HW218552   0.141   0.735   3.067
 5885SOL     OW18553   5.705   6.559   0.206
 5885SOL    HW118554   5.659   6.623   0.268
 5885SOL    HW218555   5.768   6.609   0.147
 5886SOL     OW18556   5.826   1.208   5.664
 5886SOL    HW118557   5.737   1.184   5.625
 5886SOL    HW218558   5.863   1.129   5.713
 5887SOL     OW18559   2.930   6.824   2.311
 5887SOL    HW118560   2.905   6.727   2.310
 5887SOL    HW218561   2.849   6.880   2.326
 5888SOL     OW18562   6.665   5.774   1.593
 5888SOL    HW118563   6.635   5.785   1.498
 5888SOL    HW218564   6.751   5.823   1.606
 5889SOL     OW18565   3.328   6.764   0.672
 5889SOL    HW118566   3.381   6.849   0.678
 5889SOL    HW218567   3.232   6.786   0.653
 5890SOL     OW18568   4.017   5.112   5.765
 5890SOL    HW118569   4.115   5.127   5.748
 5890SOL    HW218570   3.970   5.096   5.678
 5891SOL     OW18571   1.722   2.813   6.390
 5891SOL    HW118572   1.821   2.805   6.380
 5891SOL    HW218573   1.700   2.834   6.485
 5892SOL     OW18574   3.320   5.874   1.953
 5892SOL    HW118575   3.302   5.780   1.980
 5892SOL    HW218576   3.387   5.875   1.879
 5893SOL     OW18577   1.347   3.152   2.635
 5893SOL    HW118578   1.350   3.164   2.734
 5893SOL    HW218579   1.321   3.238   2.592
 5894SOL     OW18580   1.230   3.877   3.669
 5894SOL    HW118581   1.245   3.784   3.700
 5894SOL    HW218582   1.279   3.940   3.729
 5895SOL     OW18583   5.204   5.136   2.966
 5895SOL    HW118584   5.243   5.074   2.899
 5895SOL    HW218585   5.138   5.088   3.023
 5896SOL     OW18586   5.043   1.544   5.713
 5896SOL    HW118587   5.107   1.507   5.779
 5896SOL    HW218588   5.012   1.472   5.651
 5897SOL     OW18589   4.377   4.128   0.933
 5897SOL    HW118590   4.428   4.214   0.931
 5897SOL    HW218591   4.280   4.148   0.918
 5898SOL     OW18592   1.633   6.075   2.893
 5898SOL    HW118593   1.536   6.090   2.873
 5898SOL    HW218594   1.645   6.064   2.992
 5899SOL     OW18595   5.143   0.445   3.500
 5899SOL    HW118596   5.130   0.493   3.587
 5899SOL    HW218597   5.188   0.358   3.517
 5900SOL     OW18598   3.860   5.012   1.655
 5900SOL    HW118599   3.847   5.018   1.556
 5900SOL    HW218600   3.956   4.997   1.676
 5901SOL     OW18601   3.084   5.951   3.839
 5901SOL    HW118602   3.163   6.008   3.860
 5901SOL    HW218603   3.001   6.008   3.836
 5902SOL     OW18604   5.924   2.504   0.232
 5902SOL    HW118605   5.884   2.553   0.309
 5902SOL    HW218606   5.898   2.408   0.236
 5903SOL     OW18607   0.555   2.320   6.569
 5903SOL    HW118608   0.485   2.253   6.545
 5903SOL    HW218609   0.580   2.310   6.665
 5904SOL     OW18610   1.068   3.411   2.017
 5904SOL    HW118611   1.097   3.504   2.041
 5904SOL    HW218612   1.133   3.345   2.054
 5905SOL     OW18613   6.921   3.325   2.122
 5905SOL    HW118614   6.851   3.341   2.053
 5905SOL    HW218615   6.881   3.276   2.199
 5906SOL     OW18616   6.511   1.121   3.175
 5906SOL    HW118617   6.554   1.206   3.144
 5906SOL    HW218618   6.515   1.116   3.274
 5907SOL     OW18619   1.629   1.024   2.861
 5907SOL    HW118620   1.549   1.083   2.860
 5907SOL    HW218621   1.601   0.928   2.855
 5908SOL     OW18622   1.023   2.815   5.559
 5908SOL    HW118623   0.967   2.732   5.562
 5908SOL    HW218624   1.057   2.835   5.651
 5909SOL     OW18625   6.573   4.672   6.646
 5909SOL    HW118626   6.503   4.605   6.624
 5909SOL    HW218627   6.658   4.649   6.600
 5910SOL     OW18628   1.523   1.365   3.293
 5910SOL    HW118629   1.548   1.432   3.363
 5910SOL    HW218630   1.588   1.290   3.294
 5911SOL     OW18631   6.120   5.719   6.698
 5911SOL    HW118632   6.023   5.731   6.718
 5911SOL    HW218633   6.156   5.804   6.657
 5912SOL     OW18634   0.980   1.313   2.920
 5912SOL    HW118635   0.941   1.239   2.866
 5912SOL    HW218636   0.914   1.342   2.989
 5913SOL     OW18637   6.496   3.198   1.435
 5913SOL    HW118638   6.422   3.194   1.366
 5913SOL    HW218639   6.578   3.236   1.392
 5914SOL     OW18640   1.563   6.959   0.725
 5914SOL    HW118641   1.547   0.012   0.662
 5914SOL    HW218642   1.656   6.965   0.762
 5915SOL     OW18643   4.000   0.369   5.490
 5915SOL    HW118644   3.933   0.331   5.427
 5915SOL    HW218645   3.964   0.452   5.531
 5916SOL     OW18646   1.120   0.348   2.487
 5916SOL    HW118647   1.037   0.334   2.432
 5916SOL    HW218648   1.103   0.420   2.554
 5917SOL     OW18649   3.286   3.629   0.622
 5917SOL    HW118650   3.241   3.651   0.708
 5917SOL    HW218651   3.342   3.707   0.592
 5918SOL     OW18652   3.300   0.007   4.685
 5918SOL    HW118653   3.254   6.970   4.750
 5918SOL    HW218654   3.349   6.976   4.617
 5919SOL     OW18655   3.169   4.105   4.964
 5919SOL    HW118656   3.176   4.192   4.915
 5919SOL    HW218657   3.261   4.069   4.979
 5920SOL     OW18658   1.070   0.538   5.607
 5920SOL    HW118659   1.073   0.601   5.684
 5920SOL    HW218660   1.162   0.530   5.567
 5921SOL     OW18661   2.462   4.786   0.532
 5921SOL    HW118662   2.490   4.726   0.607
 5921SOL    HW218663   2.366   4.812   0.543
 5922SOL     OW18664   4.642   2.494   2.326
 5922SOL    HW118665   4.544   2.500   2.307
 5922SOL    HW218666   4.690   2.568   2.279
 5923SOL     OW18667   5.951   1.331   2.842
 5923SOL    HW118668   5.913   1.358   2.931
 5923SOL    HW218669   5.876   1.311   2.779
 5924SOL     OW18670   7.023   6.569   3.260
 5924SOL    HW118671   0.020   6.667   3.252
 5924SOL    HW218672   7.005   6.531   3.170
 5925SOL     OW18673   5.071   0.710   1.413
 5925SOL    HW118674   5.151   0.733   1.469
 5925SOL    HW218675   5.060   0.611   1.411
 5926SOL     OW18676   5.341   3.219   3.553
 5926SOL    HW118677   5.413   3.178   3.497
 5926SOL    HW218678   5.260   3.159   3.552
 5927SOL     OW18679   1.018   0.066   1.511
 5927SOL    HW118680   0.926   0.089   1.478
 5927SOL    HW218681   1.038   6.994   1.491
 5928SOL     OW18682   3.159   6.965   0.316
 5928SOL    HW118683   3.190   6.895   0.251
 5928SOL    HW218684   3.059   6.967   0.317
 5929SOL     OW18685   1.149   0.992   1.665
 5929SOL    HW118686   1.113   1.072   1.617
 5929SOL    HW218687   1.240   1.012   1.700
 5930SOL     OW18688   1.067   4.323   1.999
 5930SOL    HW118689   1.121   4.334   1.916
 5930SOL    HW218690   1.070   4.228   2.029
 5931SOL     OW18691   5.122   6.570   4.383
 5931SOL    HW118692   5.199   6.507   4.366
 5931SOL    HW218693   5.037   6.525   4.358
 5932SOL     OW18694   3.236   5.906   0.225
 5932SOL    HW118695   3.230   5.931   0.321
 5932SOL    HW218696   3.178   5.968   0.171
 5933SOL     OW18697   6.746   5.513   4.284
 5933SOL    HW118698   6.675   5.475   4.343
 5933SOL    HW218699   6.835   5.479   4.315
 5934SOL     OW18700   3.756   4.287   6.743
 5934SOL    HW118701   3.741   4.246   6.832
 5934SOL    HW218702   3.671   4.283   6.689
 5935SOL     OW18703   1.616   0.601   5.391
 5935SOL    HW118704   1.561   0.550   5.325
 5935SOL    HW218705   1.686   0.654   5.343
 5936SOL     OW18706   3.835   2.879   2.365
 5936SOL    HW118707   3.806   2.873   2.269
 5936SOL    HW218708   3.916   2.938   2.372
 5937SOL     OW18709   0.677   3.146   0.399
 5937SOL    HW118710   0.719   3.225   0.356
 5937SOL    HW218711   0.727   3.063   0.373
 5938SOL     OW18712   1.260   3.132   4.521
 5938SOL    HW118713   1.319   3.143   4.600
 5938SOL    HW218714   1.181   3.192   4.529
 5939SOL     OW18715   4.816   0.464   6.086
 5939SOL    HW118716   4.768   0.549   6.062
 5939SOL    HW218717   4.753   0.387   6.078
 5940SOL     OW18718   5.255   5.166   0.880
 5940SOL    HW118719   5.192   5.239   0.905
 5940SOL    HW218720   5.211   5.105   0.813
 5941SOL     OW18721   1.131   1.371   3.496
 5941SOL    HW118722   1.066   1.447   3.487
 5941SOL    HW218723   1.147   1.353   3.593
 5942SOL     OW18724   4.951   2.057   6.257
 5942SOL    HW118725   5.042   2.024   6.282
 5942SOL    HW218726   4.886   2.031   6.329
 5943SOL     OW18727   2.094   4.439   2.115
 5943SOL    HW118728   2.162   4.371   2.142
 5943SOL    HW218729   2.003   4.400   2.126
 5944SOL     OW18730   6.779   3.885   6.024
 5944SOL    HW118731   6.691   3.851   6.056
 5944SOL    HW218732   6.839   3.808   6.001
 5945SOL     OW18733   6.979   6.479   3.829
 5945SOL    HW118734   6.941   6.397   3.873
 5945SOL    HW218735   6.918   6.557   3.846
 5946SOL     OW18736   3.300   2.967   6.367
 5946SOL    HW118737   3.306   2.978   6.466
 5946SOL    HW218738   3.296   2.870   6.344
 5947SOL     OW18739   3.519   3.566   5.125
 5947SOL    HW118740   3.474   3.570   5.215
 5947SOL    HW218741   3.560   3.655   5.105
 5948SOL     OW18742   4.705   3.900   1.758
 5948SOL    HW118743   4.764   3.840   1.702
 5948SOL    HW218744   4.637   3.943   1.699
 5949SOL     OW18745   1.292   4.031   3.891
 5949SOL    HW118746   1.205   4.062   3.928
 5949SOL    HW218747   1.343   3.984   3.963
 5950SOL     OW18748   2.270   0.111   4.903
 5950SOL    HW118749   2.359   0.152   4.885
 5950SOL    HW218750   2.229   0.079   4.817
 5951SOL     OW18751   0.410   2.651   6.208
 5951SOL    HW118752   0.328   2.598   6.228
 5951SOL    HW218753   0.448   2.687   6.294
 5952SOL     OW18754   3.563   4.154   2.022
 5952SOL    HW118755   3.651   4.108   2.008
 5952SOL    HW218756   3.546   4.216   1.946
 5953SOL     OW18757   6.914   2.887   6.828
 5953SOL    HW118758   6.904   2.939   6.914
 5953SOL    HW218759   6.871   2.938   6.754
 5954SOL     OW18760   2.166   4.950   3.614
 5954SOL    HW118761   2.098   4.896   3.665
 5954SOL    HW218762   2.256   4.908   3.625
 5955SOL     OW18763   3.879   2.962   0.524
 5955SOL    HW118764   3.855   3.055   0.552
 5955SOL    HW218765   3.867   2.900   0.601
 5956SOL     OW18766   4.231   2.658   7.009
 5956SOL    HW118767   4.311   2.651   0.046
 5956SOL    HW218768   4.258   2.638   6.915
 5957SOL     OW18769   6.791   2.393   3.506
 5957SOL    HW118770   6.779   2.331   3.584
 5957SOL    HW218771   6.704   2.438   3.487
 5958SOL     OW18772   2.671   6.339   2.545
 5958SOL    HW118773   2.679   6.278   2.467
 5958SOL    HW218774   2.615   6.296   2.616
 5959SOL     OW18775   5.026   4.376   2.885
 5959SOL    HW118776   4.963   4.309   2.849
 5959SOL    HW218777   5.116   4.364   2.842
 5960SOL     OW18778   6.010   0.156   6.241
 5960SOL    HW118779   6.097   0.198   6.217
 5960SOL    HW218780   5.938   0.226   6.241
 5961SOL     OW18781   2.513   2.171   3.764
 5961SOL    HW118782   2.466   2.084   3.781
 5961SOL    HW218783   2.511   2.226   3.848
 5962SOL     OW18784   5.220   4.753   6.958
 5962SOL    HW118785   5.242   4.690   0.009
 5962SOL    HW218786   5.215   4.703   6.872
 5963SOL     OW18787   2.094   3.827   0.617
 5963SOL    HW118788   2.088   3.788   0.709
 5963SOL    HW218789   2.026   3.784   0.559
 5964SOL     OW18790   1.386   6.756   3.236
 5964SOL    HW118791   1.420   6.677   3.286
 5964SOL    HW218792   1.444   6.773   3.156
 5965SOL     OW18793   2.305   0.450   1.185
 5965SOL    HW118794   2.208   0.436   1.168
 5965SOL    HW218795   2.336   0.532   1.137
 5966SOL     OW18796   2.889   1.770   5.159
 5966SOL    HW118797   2.831   1.787   5.079
 5966SOL    HW218798   2.939   1.853   5.182
 5967SOL     OW18799   4.735   2.329   5.515
 5967SOL    HW118800   4.703   2.424   5.522
 5967SOL    HW218801   4.679   2.271   5.573
 5968SOL     OW18802   6.206   1.980   3.435
 5968SOL    HW118803   6.147   2.004   3.512
 5968SOL    HW218804   6.185   1.887   3.405
 5969SOL     OW18805   5.318   6.500   1.478
 5969SOL    HW118806   5.289   6.580   1.531
 5969SOL    HW218807   5.360   6.530   1.392
 5970SOL     OW18808   6.039   2.109   0.363
 5970SOL    HW118809   6.122   2.138   0.315
 5970SOL    HW218810   6.021   2.172   0.439
 5971SOL     OW18811   6.731   5.232   3.809
 5971SOL    HW118812   6.756   5.141   3.774
 5971SOL    HW218813   6.718   5.294   3.732
 5972SOL     OW18814   6.138   5.251   0.685
 5972SOL    HW118815   6.182   5.162   0.681
 5972SOL    HW218816   6.065   5.249   0.754
 5973SOL     OW18817   3.445   0.789   2.340
 5973SOL    HW118818   3.369   0.852   2.322
 5973SOL    HW218819   3.409   0.700   2.368
 5974SOL     OW18820   5.641   1.315   4.362
 5974SOL    HW118821   5.590   1.398   4.386
 5974SOL    HW218822   5.632   1.248   4.435
 5975SOL     OW18823   3.463   5.062   0.281
 5975SOL    HW118824   3.537   4.996   0.267
 5975SOL    HW218825   3.408   5.035   0.360
 5976SOL     OW18826   1.318   2.400   6.239
 5976SOL    HW118827   1.308   2.411   6.338
 5976SOL    HW218828   1.416   2.397   6.216
 5977SOL     OW18829   0.723   5.583   1.922
 5977SOL    HW118830   0.761   5.504   1.971
 5977SOL    HW218831   0.791   5.618   1.857
 5978SOL     OW18832   3.124   3.668   6.104
 5978SOL    HW118833   3.118   3.569   6.099
 5978SOL    HW218834   3.059   3.703   6.172
 5979SOL     OW18835   5.870   0.229   1.071
 5979SOL    HW118836   5.889   0.320   1.032
 5979SOL    HW218837   5.884   0.231   1.170
 5980SOL     OW18838   3.228   2.575   0.709
 5980SOL    HW118839   3.183   2.500   0.758
 5980SOL    HW218840   3.325   2.555   0.700
 5981SOL     OW18841   3.484   2.741   0.779
 5981SOL    HW118842   3.576   2.767   0.810
 5981SOL    HW218843   3.417   2.767   0.848
 5982SOL     OW18844   5.574   2.727   1.275
 5982SOL    HW118845   5.543   2.821   1.289
 5982SOL    HW218846   5.600   2.688   1.363
 5983SOL     OW18847   6.721   1.197   3.616
 5983SOL    HW118848   6.727   1.155   3.525
 5983SOL    HW218849   6.672   1.284   3.609
 5984SOL     OW18850   5.764   6.364   2.150
 5984SOL    HW118851   5.703   6.442   2.163
 5984SOL    HW218852   5.811   6.345   2.236
 5985SOL     OW18853   6.657   4.995   2.734
 5985SOL    HW118854   6.629   5.090   2.751
 5985SOL    HW218855   6.593   4.953   2.669
 5986SOL     OW18856   3.834   2.914   3.398
 5986SOL    HW118857   3.861   2.827   3.356
 5986SOL    HW218858   3.912   2.976   3.399
 5987SOL     OW18859   6.902   6.318   4.247
 5987SOL    HW118860   6.827   6.384   4.245
 5987SOL    HW218861   6.965   6.342   4.321
 5988SOL     OW18862   1.894   2.151   0.351
 5988SOL    HW118863   1.848   2.240   0.345
 5988SOL    HW218864   1.852   2.097   0.424
 5989SOL     OW18865   2.417   6.607   5.530
 5989SOL    HW118866   2.380   6.676   5.467
 5989SOL    HW218867   2.425   6.647   5.621
 5990SOL     OW18868   2.326   3.611   1.682
 5990SOL    HW118869   2.341   3.697   1.732
 5990SOL    HW218870   2.331   3.534   1.746
 5991SOL     OW18871   5.596   1.394   0.852
 5991SOL    HW118872   5.580   1.409   0.754
 5991SOL    HW218873   5.551   1.310   0.881
 5992SOL     OW18874   2.699   4.894   3.517
 5992SOL    HW118875   2.748   4.975   3.484
 5992SOL    HW218876   2.626   4.872   3.452
 5993SOL     OW18877   5.780   2.038   0.318
 5993SOL    HW118878   5.744   2.030   0.225
 5993SOL    HW218879   5.880   2.042   0.316
 5994SOL     OW18880   0.285   4.576   0.798
 5994SOL    HW118881   0.301   4.614   0.707
 5994SOL    HW218882   0.286   4.477   0.793
 5995SOL     OW18883   5.394   3.488   0.655
 5995SOL    HW118884   5.361   3.401   0.616
 5995SOL    HW218885   5.420   3.550   0.581
 5996SOL     OW18886   1.881   0.342   1.988
 5996SOL    HW118887   1.837   0.427   1.957
 5996SOL    HW218888   1.957   0.365   2.049
 5997SOL     OW18889   6.338   0.404   4.433
 5997SOL    HW118890   6.395   0.350   4.496
 5997SOL    HW218891   6.280   0.342   4.379
 5998SOL     OW18892   6.124   6.366   6.428
 5998SOL    HW118893   6.109   6.272   6.397
 5998SOL    HW218894   6.209   6.372   6.480
 5999SOL     OW18895   5.352   3.531   0.928
 5999SOL    HW118896   5.336   3.603   0.995
 5999SOL    HW218897   5.350   3.570   0.836
 6000SOL     OW18898   1.067   4.609   1.760
 6000SOL    HW118899   1.029   4.695   1.726
 6000SOL    HW218900   1.051   4.537   1.692
 6001SOL     OW18901   6.934   6.243   5.726
 6001SOL    HW118902   6.948   6.198   5.814
 6001SOL    HW218903   6.979   6.191   5.654
 6002SOL     OW18904   5.803   4.604   5.091
 6002SOL    HW118905   5.714   4.627   5.130
 6002SOL    HW218906   5.792   4.545   5.011
 6003SOL     OW18907   2.974   1.220   5.302
 6003SOL    HW118908   2.925   1.307   5.298
 6003SOL    HW218909   3.001   1.193   5.209
 6004SOL     OW18910   5.439   3.009   5.032
 6004SOL    HW118911   5.430   2.911   5.016
 6004SOL    HW218912   5.479   3.025   5.122
 6005SOL     OW18913   4.235   4.338   0.305
 6005SOL    HW118914   4.226   4.404   0.379
 6005SOL    HW218915   4.270   4.251   0.341
 6006SOL     OW18916   2.784   6.141   6.304
 6006SOL    HW118917   2.704   6.104   6.258
 6006SOL    HW218918   2.812   6.080   6.377
 6007SOL     OW18919   2.820   6.512   4.536
 6007SOL    HW118920   2.815   6.513   4.636
 6007SOL    HW218921   2.773   6.593   4.500
 6008SOL     OW18922   2.328   3.971   6.707
 6008SOL    HW118923   2.266   3.905   6.749
 6008SOL    HW218924   2.315   4.060   6.750
 6009SOL     OW18925   2.774   5.398   2.743
 6009SOL    HW118926   2.870   5.410   2.717
 6009SOL    HW218927   2.724   5.357   2.667
 6010SOL     OW18928   0.317   5.119   5.776
 6010SOL    HW118929   0.355   5.118   5.869
 6010SOL    HW218930   0.240   5.183   5.772
 6011SOL     OW18931   5.631   1.908   3.153
 6011SOL    HW118932   5.651   1.942   3.061
 6011SOL    HW218933   5.701   1.841   3.179
 6012SOL     OW18934   6.832   0.737   6.129
 6012SOL    HW118935   6.846   0.712   6.033
 6012SOL    HW218936   6.771   0.670   6.172
 6013SOL     OW18937   5.873   1.755   2.232
 6013SOL    HW118938   5.956   1.699   2.239
 6013SOL    HW218939   5.817   1.741   2.314
 6014SOL     OW18940   4.068   3.185   4.256
 6014SOL    HW118941   4.011   3.104   4.261
 6014SOL    HW218942   4.085   3.221   4.347
 6015SOL     OW18943   6.403   0.121   3.288
 6015SOL    HW118944   6.492   0.165   3.276
 6015SOL    HW218945   6.333   0.190   3.306
 6016SOL     OW18946   4.289   1.960   4.657
 6016SOL    HW118947   4.255   1.920   4.572
 6016SOL    HW218948   4.223   1.943   4.730
 6017SOL     OW18949   1.251   2.057   5.196
 6017SOL    HW118950   1.270   2.071   5.293
 6017SOL    HW218951   1.188   2.129   5.164
 6018SOL     OW18952   2.460   1.201   3.746
 6018SOL    HW118953   2.368   1.163   3.747
 6018SOL    HW218954   2.488   1.222   3.839
 6019SOL     OW18955   6.947   3.620   6.411
 6019SOL    HW118956   6.977   3.664   6.327
 6019SOL    HW218957   6.977   3.525   6.413
 6020SOL     OW18958   0.811   5.680   4.866
 6020SOL    HW118959   0.849   5.772   4.859
 6020SOL    HW218960   0.712   5.685   4.871
 6021SOL     OW18961   4.579   0.306   3.511
 6021SOL    HW118962   4.538   0.295   3.420
 6021SOL    HW218963   4.661   0.249   3.517
 6022SOL     OW18964   6.552   3.425   1.234
 6022SOL    HW118965   6.497   3.509   1.234
 6022SOL    HW218966   6.649   3.449   1.238
 6023SOL     OW18967   4.228   6.679   2.892
 6023SOL    HW118968   4.254   6.764   2.938
 6023SOL    HW218969   4.152   6.696   2.830
 6024SOL     OW18970   0.734   6.588   0.403
 6024SOL    HW118971   0.802   6.644   0.356
 6024SOL    HW218972   0.662   6.562   0.338
 6025SOL     OW18973   3.426   0.258   5.987
 6025SOL    HW118974   3.338   0.256   5.938
 6025SOL    HW218975   3.436   0.174   6.040
 6026SOL     OW18976   5.591   6.145   3.779
 6026SOL    HW118977   5.668   6.091   3.743
 6026SOL    HW218978   5.627   6.221   3.833
 6027SOL     OW18979   6.445   4.157   5.754
 6027SOL    HW118980   6.361   4.206   5.728
 6027SOL    HW218981   6.516   4.223   5.779
 6028SOL     OW18982   5.867   5.665   6.678
 6028SOL    HW118983   5.786   5.663   6.737
 6028SOL    HW218984   5.839   5.647   6.583
 6029SOL     OW18985   2.576   1.486   2.630
 6029SOL    HW118986   2.655   1.546   2.617
 6029SOL    HW218987   2.556   1.477   2.728
 6030SOL     OW18988   6.354   3.462   4.751
 6030SOL    HW118989   6.259   3.452   4.720
 6030SOL    HW218990   6.405   3.518   4.685
 6031SOL     OW18991   6.816   0.311   3.547
 6031SOL    HW118992   6.830   0.409   3.560
 6031SOL    HW218993   6.887   0.275   3.487
 6032SOL     OW18994   2.816   0.372   3.374
 6032SOL    HW118995   2.905   0.337   3.345
 6032SOL    HW218996   2.818   0.472   3.376
 6033SOL     OW18997   0.883   1.732   3.050
 6033SOL    HW118998   0.894   1.799   2.977
 6033SOL    HW218999   0.963   1.735   3.110
 6034SOL     OW19000   0.769   0.978   0.997
 6034SOL    HW119001   0.829   0.926   0.936
 6034SOL    HW219002   0.718   1.046   0.944
 6035SOL     OW19003   1.521   1.111   2.320
 6035SOL    HW119004   1.430   1.097   2.360
 6035SOL    HW219005   1.511   1.132   2.223
 6036SOL     OW19006   6.852   3.343   0.509
 6036SOL    HW119007   6.933   3.373   0.558
 6036SOL    HW219008   6.783   3.313   0.576
 6037SOL     OW19009   4.254   0.557   6.552
 6037SOL    HW119010   4.210   0.647   6.555
 6037SOL    HW219011   4.218   0.500   6.626
 6038SOL     OW19012   2.275   1.446   0.027
 6038SOL    HW119013   2.330   1.363   0.017
 6038SOL    HW219014   2.302   1.512   6.982
 6039SOL     OW19015   3.497   2.927   4.503
 6039SOL    HW119016   3.500   3.023   4.530
 6039SOL    HW219017   3.434   2.916   4.426
 6040SOL     OW19018   0.012   1.342   0.347
 6040SOL    HW119019   0.109   1.320   0.342
 6040SOL    HW219020   7.004   1.333   0.442
 6041SOL     OW19021   0.771   3.031   4.729
 6041SOL    HW119022   0.864   3.019   4.763
 6041SOL    HW219023   0.709   3.044   4.806
 6042SOL     OW19024   2.715   6.039   4.055
 6042SOL    HW119025   2.671   6.015   3.969
 6042SOL    HW219026   2.706   5.964   4.120
 6043SOL     OW19027   2.442   5.584   2.111
 6043SOL    HW119028   2.404   5.651   2.175
 6043SOL    HW219029   2.470   5.631   2.027
 6044SOL     OW19030   0.146   3.308   0.510
 6044SOL    HW119031   0.111   3.265   0.593
 6044SOL    HW219032   0.229   3.359   0.531
 6045SOL     OW19033   5.145   1.538   4.582
 6045SOL    HW119034   5.143   1.606   4.508
 6045SOL    HW219035   5.057   1.539   4.629
 6046SOL     OW19036   3.332   4.090   2.460
 6046SOL    HW119037   3.344   4.110   2.363
 6046SOL    HW219038   3.257   4.025   2.472
 6047SOL     OW19039   0.162   1.430   6.993
 6047SOL    HW119040   0.127   1.497   0.035
 6047SOL    HW219041   0.200   1.352   0.019
 6048SOL     OW19042   6.299   5.463   3.275
 6048SOL    HW119043   6.222   5.517   3.241
 6048SOL    HW219044   6.268   5.399   3.345
 6049SOL     OW19045   4.836   4.881   6.735
 6049SOL    HW119046   4.817   4.979   6.731
 6049SOL    HW219047   4.923   4.865   6.780
 6050SOL     OW19048   2.584   5.512   2.898
 6050SOL    HW119049   2.622   5.440   2.840
 6050SOL    HW219050   2.659   5.567   2.935
 6051SOL     OW19051   0.911   1.412   2.431
 6051SOL    HW119052   0.867   1.448   2.513
 6051SOL    HW219053   1.006   1.389   2.452
 6052SOL     OW19054   5.736   6.128   6.440
 6052SOL    HW119055   5.651   6.076   6.428
 6052SOL    HW219056   5.740   6.162   6.534
 6053SOL     OW19057   3.956   2.150   5.442
 6053SOL    HW119058   3.865   2.162   5.402
 6053SOL    HW219059   3.969   2.055   5.468
 6054SOL     OW19060   4.353   3.561   0.135
 6054SOL    HW119061   4.336   3.649   0.180
 6054SOL    HW219062   4.265   3.520   0.108
 6055SOL     OW19063   2.899   4.675   1.467
 6055SOL    HW119064   2.973   4.618   1.432
 6055SOL    HW219065   2.834   4.618   1.518
 6056SOL     OW19066   5.113   6.465   2.932
 6056SOL    HW119067   5.069   6.519   3.004
 6056SOL    HW219068   5.069   6.375   2.927
 6057SOL     OW19069   6.102   1.248   3.751
 6057SOL    HW119070   6.040   1.296   3.689
 6057SOL    HW219071   6.056   1.234   3.839
 6058SOL     OW19072   0.114   2.709   5.775
 6058SOL    HW119073   0.057   2.686   5.854
 6058SOL    HW219074   0.059   2.706   5.692
 6059SOL     OW19075   4.246   2.176   6.549
 6059SOL    HW119076   4.302   2.146   6.472
 6059SOL    HW219077   4.224   2.098   6.607
 6060SOL     OW19078   1.936   2.414   1.054
 6060SOL    HW119079   1.928   2.320   1.090
 6060SOL    HW219080   1.848   2.443   1.018
 6061SOL     OW19081   2.345   4.585   6.819
 6061SOL    HW119082   2.356   4.489   6.846
 6061SOL    HW219083   2.261   4.595   6.766
 6062SOL     OW19084   1.984   1.895   5.905
 6062SOL    HW119085   2.023   1.915   5.994
 6062SOL    HW219086   2.021   1.808   5.871
 6063SOL     OW19087   4.526   3.809   6.446
 6063SOL    HW119088   4.552   3.872   6.373
 6063SOL    HW219089   4.520   3.716   6.410
 6064SOL     OW19090   5.846   6.060   0.452
 6064SOL    HW119091   5.832   6.156   0.429
 6064SOL    HW219092   5.893   6.014   0.376
 6065SOL     OW19093   2.346   5.754   1.472
 6065SOL    HW119094   2.347   5.813   1.392
 6065SOL    HW219095   2.422   5.690   1.468
 6066SOL     OW19096   5.988   5.887   1.916
 6066SOL    HW119097   5.962   5.876   1.820
 6066SOL    HW219098   6.055   5.818   1.940
 6067SOL     OW19099   0.371   4.864   5.713
 6067SOL    HW119100   0.345   4.816   5.797
 6067SOL    HW219101   0.343   4.959   5.719
 6068SOL     OW19102   3.936   1.615   3.567
 6068SOL    HW119103   3.874   1.537   3.559
 6068SOL    HW219104   4.030   1.583   3.561
 6069SOL     OW19105   0.507   5.011   5.223
 6069SOL    HW119106   0.532   5.103   5.193
 6069SOL    HW219107   0.556   4.943   5.169
 6070SOL     OW19108   2.476   1.002   1.041
 6070SOL    HW119109   2.457   0.941   0.964
 6070SOL    HW219110   2.390   1.025   1.086
 6071SOL     OW19111   5.826   0.373   6.458
 6071SOL    HW119112   5.748   0.413   6.508
 6071SOL    HW219113   5.911   0.406   6.498
 6072SOL     OW19114   6.614   2.713   0.324
 6072SOL    HW119115   6.677   2.761   0.385
 6072SOL    HW219116   6.596   2.769   0.243
 6073SOL     OW19117   4.723   3.782   0.252
 6073SOL    HW119118   4.810   3.739   0.226
 6073SOL    HW219119   4.720   3.794   0.351
 6074SOL     OW19120   1.138   6.068   2.720
 6074SOL    HW119121   1.058   6.083   2.777
 6074SOL    HW219122   1.138   6.135   2.645
 6075SOL     OW19123   6.441   6.912   6.797
 6075SOL    HW119124   6.401   6.970   6.868
 6075SOL    HW219125   6.518   6.861   6.836
 6076SOL     OW19126   0.178   6.683   2.949
 6076SOL    HW119127   0.119   6.612   2.985
 6076SOL    HW219128   0.269   6.677   2.991
 6077SOL     OW19129   4.724   6.092   2.597
 6077SOL    HW119130   4.718   6.005   2.548
 6077SOL    HW219131   4.819   6.110   2.623
 6078SOL     OW19132   5.357   4.617   0.160
 6078SOL    HW119133   5.400   4.531   0.189
 6078SOL    HW219134   5.418   4.693   0.184
 6079SOL     OW19135   3.447   1.781   0.190
 6079SOL    HW119136   3.526   1.736   0.232
 6079SOL    HW219137   3.374   1.715   0.177
 6080SOL     OW19138   6.960   3.465   5.536
 6080SOL    HW119139   0.022   3.512   5.516
 6080SOL    HW219140   6.925   3.423   5.452
 6081SOL     OW19141   2.189   3.911   4.259
 6081SOL    HW119142   2.237   3.995   4.234
 6081SOL    HW219143   2.198   3.844   4.186
 6082SOL     OW19144   4.919   1.391   1.062
 6082SOL    HW119145   4.921   1.383   1.162
 6082SOL    HW219146   4.952   1.306   1.021
 6083SOL     OW19147   4.867   0.073   6.280
 6083SOL    HW119148   4.812   0.128   6.216
 6083SOL    HW219149   4.839   0.094   6.374
 6084SOL     OW19150   6.458   4.909   3.416
 6084SOL    HW119151   6.442   4.813   3.439
 6084SOL    HW219152   6.372   4.951   3.387
 6085SOL     OW19153   0.906   6.322   0.927
 6085SOL    HW119154   0.835   6.301   0.860
 6085SOL    HW219155   0.898   6.418   0.955
 6086SOL     OW19156   3.949   3.475   0.954
 6086SOL    HW119157   3.883   3.510   0.887
 6086SOL    HW219158   4.023   3.427   0.907
 6087SOL     OW19159   3.860   0.791   0.431
 6087SOL    HW119160   3.807   0.708   0.450
 6087SOL    HW219161   3.827   0.865   0.489
 6088SOL     OW19162   3.790   5.682   1.983
 6088SOL    HW119163   3.771   5.772   1.944
 6088SOL    HW219164   3.779   5.612   1.912
 6089SOL     OW19165   6.286   5.250   3.460
 6089SOL    HW119166   6.293   5.191   3.381
 6089SOL    HW219167   6.331   5.208   3.539
 6090SOL     OW19168   3.788   5.833   4.931
 6090SOL    HW119169   3.781   5.838   4.831
 6090SOL    HW219170   3.876   5.793   4.956
 6091SOL     OW19171   0.983   2.802   2.734
 6091SOL    HW119172   0.906   2.790   2.671
 6091SOL    HW219173   1.040   2.720   2.732
 6092SOL     OW19174   2.089   6.694   1.336
 6092SOL    HW119175   2.166   6.737   1.383
 6092SOL    HW219176   2.079   6.600   1.368
 6093SOL     OW19177   2.917   3.094   1.702
 6093SOL    HW119178   2.924   3.012   1.646
 6093SOL    HW219179   2.822   3.108   1.729
 6094SOL     OW19180   1.013   0.257   5.698
 6094SOL    HW119181   1.039   0.335   5.642
 6094SOL    HW219182   1.060   0.262   5.786
 6095SOL     OW19183   4.882   5.283   2.406
 6095SOL    HW119184   4.845   5.199   2.364
 6095SOL    HW219185   4.982   5.278   2.407
 6096SOL     OW19186   4.573   5.826   2.700
 6096SOL    HW119187   4.632   5.847   2.622
 6096SOL    HW219188   4.495   5.889   2.701
 6097SOL     OW19189   2.594   5.250   1.727
 6097SOL    HW119190   2.578   5.262   1.629
 6097SOL    HW219191   2.506   5.248   1.775
 6098SOL     OW19192   6.141   1.547   5.068
 6098SOL    HW119193   6.092   1.576   4.985
 6098SOL    HW219194   6.081   1.560   5.147
 6099SOL     OW19195   3.425   6.705   5.255
 6099SOL    HW119196   3.450   6.686   5.350
 6099SOL    HW219197   3.494   6.665   5.194
 6100SOL     OW19198   0.579   5.529   5.734
 6100SOL    HW119199   0.538   5.566   5.650
 6100SOL    HW219200   0.506   5.506   5.798
 6101SOL     OW19201   0.753   3.027   1.261
 6101SOL    HW119202   0.811   2.997   1.337
 6101SOL    HW219203   0.772   3.124   1.242
 6102SOL     OW19204   3.119   0.399   3.052
 6102SOL    HW119205   3.027   0.361   3.038
 6102SOL    HW219206   3.165   0.349   3.125
 6103SOL     OW19207   5.833   1.181   2.546
 6103SOL    HW119208   5.753   1.238   2.525
 6103SOL    HW219209   5.806   1.108   2.609
 6104SOL     OW19210   6.542   0.710   4.971
 6104SOL    HW119211   6.518   0.758   4.886
 6104SOL    HW219212   6.610   0.763   5.021
 6105SOL     OW19213   3.915   4.577   5.993
 6105SOL    HW119214   3.902   4.602   6.089
 6105SOL    HW219215   3.939   4.659   5.940
 6106SOL     OW19216   6.341   3.911   5.115
 6106SOL    HW119217   6.413   3.876   5.174
 6106SOL    HW219218   6.340   3.859   5.029
 6107SOL     OW19219   6.075   5.026   5.381
 6107SOL    HW119220   6.040   4.971   5.304
 6107SOL    HW219221   6.158   4.983   5.417
 6108SOL     OW19222   3.374   0.747   6.277
 6108SOL    HW119223   3.382   0.672   6.211
 6108SOL    HW219224   3.348   0.831   6.230
 6109SOL     OW19225   6.914   7.024   3.599
 6109SOL    HW119226   6.880   6.929   3.603
 6109SOL    HW219227   6.869   0.054   3.670
 6110SOL     OW19228   1.235   2.064   3.659
 6110SOL    HW119229   1.155   2.124   3.658
 6110SOL    HW219230   1.245   2.022   3.749
 6111SOL     OW19231   2.736   2.553   0.819
 6111SOL    HW119232   2.726   2.592   0.728
 6111SOL    HW219233   2.743   2.627   0.886
 6112SOL     OW19234   4.875   6.801   3.392
 6112SOL    HW119235   4.845   6.864   3.319
 6112SOL    HW219236   4.886   6.852   3.477
 6113SOL     OW19237   3.035   5.299   1.183
 6113SOL    HW119238   2.980   5.302   1.099
 6113SOL    HW219239   3.077   5.209   1.192
 6114SOL     OW19240   4.981   3.482   1.761
 6114SOL    HW119241   4.940   3.399   1.725
 6114SOL    HW219242   4.927   3.561   1.733
 6115SOL     OW19243   6.689   0.904   5.079
 6115SOL    HW119244   6.772   0.917   5.133
 6115SOL    HW219245   6.656   0.993   5.047
 6116SOL     OW19246   6.809   3.135   0.293
 6116SOL    HW119247   6.731   3.118   0.353
 6116SOL    HW219248   6.888   3.163   0.349
 6117SOL     OW19249   2.269   2.376   1.204
 6117SOL    HW119250   2.240   2.347   1.113
 6117SOL    HW219251   2.234   2.468   1.222
 6118SOL     OW19252   5.634   0.842   1.379
 6118SOL    HW119253   5.709   0.780   1.354
 6118SOL    HW219254   5.639   0.863   1.476
 6119SOL     OW19255   0.278   1.179   6.266
 6119SOL    HW119256   0.377   1.192   6.279
 6119SOL    HW219257   0.256   1.189   6.169
 6120SOL     OW19258   3.115   1.139   4.017
 6120SOL    HW119259   3.150   1.222   3.974
 6120SOL    HW219260   3.035   1.106   3.966
 6121SOL     OW19261   3.293   1.299   5.270
 6121SOL    HW119262   3.282   1.312   5.172
 6121SOL    HW219263   3.272   1.204   5.295
 6122SOL     OW19264   4.647   4.775   5.007
 6122SOL    HW119265   4.742   4.802   4.989
 6122SOL    HW219266   4.627   4.689   4.960
 6123SOL     OW19267   6.807   1.751   4.945
 6123SOL    HW119268   6.875   1.705   4.887
 6123SOL    HW219269   6.795   1.845   4.912
 6124SOL     OW19270   2.471   6.336   4.064
 6124SOL    HW119271   2.482   6.247   4.108
 6124SOL    HW219272   2.374   6.358   4.056
 6125SOL     OW19273   3.788   1.322   5.559
 6125SOL    HW119274   3.723   1.396   5.539
 6125SOL    HW219275   3.825   1.335   5.651
 6126SOL     OW19276   5.939   2.650   6.611
 6126SOL    HW119277   5.897   2.561   6.632
 6126SOL    HW219278   5.891   2.722   6.660
 6127SOL     OW19279   5.103   2.414   2.544
 6127SOL    HW119280   5.095   2.498   2.599
 6127SOL    HW219281   5.173   2.427   2.474
 6128SOL     OW19282   6.050   6.014   5.271
 6128SOL    HW119283   6.079   5.919   5.264
 6128SOL    HW219284   6.130   6.073   5.284
 6129SOL     OW19285   2.356   5.655   3.004
 6129SOL    HW119286   2.395   5.747   3.005
 6129SOL    HW219287   2.421   5.592   2.963
 6130SOL     OW19288   6.181   2.919   0.325
 6130SOL    HW119289   6.111   2.975   0.371
 6130SOL    HW219290   6.177   2.935   0.227
 6131SOL     OW19291   6.460   2.902   2.842
 6131SOL    HW119292   6.501   2.813   2.861
 6131SOL    HW219293   6.376   2.890   2.788
 6132SOL     OW19294   4.687   6.231   6.298
 6132SOL    HW119295   4.604   6.264   6.344
 6132SOL    HW219296   4.757   6.210   6.366
 6133SOL     OW19297   0.658   2.275   3.618
 6133SOL    HW119298   0.753   2.290   3.643
 6133SOL    HW219299   0.628   2.349   3.557
 6134SOL     OW19300   0.083   6.433   5.363
 6134SOL    HW119301   0.086   6.502   5.291
 6134SOL    HW219302   0.132   6.351   5.333
 6135SOL     OW19303   6.295   6.415   0.482
 6135SOL    HW119304   6.275   6.452   0.572
 6135SOL    HW219305   6.216   6.429   0.422
 6136SOL     OW19306   1.146   2.333   3.516
 6136SOL    HW119307   1.184   2.410   3.566
 6136SOL    HW219308   1.208   2.307   3.442
 6137SOL     OW19309   6.797   5.149   1.304
 6137SOL    HW119310   6.699   5.162   1.292
 6137SOL    HW219311   6.815   5.056   1.337
 6138SOL     OW19312   5.658   0.931   1.966
 6138SOL    HW119313   5.585   0.992   1.997
 6138SOL    HW219314   5.637   0.899   1.874
 6139SOL     OW19315   1.838   2.195   5.472
 6139SOL    HW119316   1.927   2.202   5.518
 6139SOL    HW219317   1.766   2.227   5.534
 6140SOL     OW19318   2.341   0.305   3.527
 6140SOL    HW119319   2.337   0.362   3.445
 6140SOL    HW219320   2.399   0.225   3.509
 6141SOL     OW19321   1.115   0.700   0.545
 6141SOL    HW119322   1.160   0.629   0.491
 6141SOL    HW219323   1.107   0.783   0.489
 6142SOL     OW19324   0.305   6.968   1.836
 6142SOL    HW119325   0.339   0.029   1.796
 6142SOL    HW219326   0.322   6.892   1.772
 6143SOL     OW19327   0.924   3.011   5.398
 6143SOL    HW119328   0.987   2.949   5.445
 6143SOL    HW219329   0.952   3.019   5.302
 6144SOL     OW19330   3.372   5.968   2.813
 6144SOL    HW119331   3.431   5.975   2.732
 6144SOL    HW219332   3.418   6.012   2.890
 6145SOL     OW19333   5.128   2.879   4.182
 6145SOL    HW119334   5.148   2.785   4.153
 6145SOL    HW219335   5.107   2.879   4.280
 6146SOL     OW19336   5.874   0.810   5.358
 6146SOL    HW119337   5.852   0.756   5.277
 6146SOL    HW219338   5.916   0.896   5.329
 6147SOL     OW19339   1.362   1.851   5.887
 6147SOL    HW119340   1.319   1.777   5.836
 6147SOL    HW219341   1.371   1.932   5.829
 6148SOL     OW19342   3.998   4.766   6.733
 6148SOL    HW119343   3.983   4.668   6.734
 6148SOL    HW219344   3.910   4.814   6.731
 6149SOL     OW19345   3.766   2.015   1.365
 6149SOL    HW119346   3.749   2.103   1.409
 6149SOL    HW219347   3.791   1.947   1.435
 6150SOL     OW19348   0.530   5.092   4.462
 6150SOL    HW119349   0.554   5.021   4.528
 6150SOL    HW219350   0.558   5.181   4.497
 6151SOL     OW19351   3.847   5.301   3.238
 6151SOL    HW119352   3.911   5.276   3.166
 6151SOL    HW219353   3.768   5.240   3.236
 6152SOL     OW19354   0.473   4.030   3.130
 6152SOL    HW119355   0.404   4.070   3.191
 6152SOL    HW219356   0.564   4.057   3.161
 6153SOL     OW19357   5.395   6.133   0.705
 6153SOL    HW119358   5.306   6.093   0.685
 6153SOL    HW219359   5.400   6.226   0.669
 6154SOL     OW19360   4.369   4.579   2.862
 6154SOL    HW119361   4.410   4.526   2.937
 6154SOL    HW219362   4.308   4.649   2.900
 6155SOL     OW19363   2.013   1.562   3.710
 6155SOL    HW119364   1.915   1.545   3.726
 6155SOL    HW219365   2.063   1.549   3.796
 6156SOL     OW19366   4.664   4.210   2.445
 6156SOL    HW119367   4.686   4.263   2.364
 6156SOL    HW219368   4.566   4.190   2.446
 6157SOL     OW19369   0.522   3.058   0.998
 6157SOL    HW119370   0.543   3.151   0.967
 6157SOL    HW219371   0.601   3.019   1.044
 6158SOL     OW19372   2.988   1.112   5.871
 6158SOL    HW119373   2.915   1.052   5.902
 6158SOL    HW219374   2.951   1.203   5.852
 6159SOL     OW19375   5.980   2.308   0.588
 6159SOL    HW119376   5.981   2.244   0.665
 6159SOL    HW219377   5.976   2.401   0.623
 6160SOL     OW19378   0.936   6.725   1.245
 6160SOL    HW119379   0.955   6.647   1.185
 6160SOL    HW219380   0.892   6.797   1.192
 6161SOL     OW19381   5.163   4.010   6.670
 6161SOL    HW119382   5.186   4.058   6.755
 6161SOL    HW219383   5.246   3.995   6.617
 6162SOL     OW19384   6.103   5.933   0.941
 6162SOL    HW119385   6.064   5.858   0.993
 6162SOL    HW219386   6.045   5.953   0.861
 6163SOL     OW19387   6.105   6.112   3.108
 6163SOL    HW119388   6.091   6.194   3.052
 6163SOL    HW219389   6.122   6.139   3.203
 6164SOL     OW19390   3.360   3.312   4.612
 6164SOL    HW119391   3.353   3.344   4.518
 6164SOL    HW219392   3.448   3.267   4.626
 6165SOL     OW19393   3.878   0.941   6.967
 6165SOL    HW119394   3.814   0.899   0.008
 6165SOL    HW219395   3.863   1.040   6.964
 6166SOL     OW19396   3.477   0.999   5.899
 6166SOL    HW119397   3.442   0.971   5.809
 6166SOL    HW219398   3.556   0.942   5.922
 6167SOL     OW19399   1.559   3.437   2.725
 6167SOL    HW119400   1.475   3.488   2.702
 6167SOL    HW219401   1.595   3.393   2.643
 6168SOL     OW19402   0.927   3.647   4.414
 6168SOL    HW119403   0.908   3.591   4.494
 6168SOL    HW219404   0.852   3.638   4.348
 6169SOL     OW19405   2.869   0.718   0.448
 6169SOL    HW119406   2.876   0.788   0.519
 6169SOL    HW219407   2.877   0.761   0.358
 6170SOL     OW19408   3.066   5.005   1.257
 6170SOL    HW119409   3.159   5.003   1.292
 6170SOL    HW219410   3.002   4.993   1.333
 6171SOL     OW19411   2.013   4.453   1.435
 6171SOL    HW119412   2.083   4.397   1.392
 6171SOL    HW219413   2.046   4.486   1.524
 6172SOL     OW19414   2.996   5.174   1.495
 6172SOL    HW119415   3.087   5.146   1.526
 6172SOL    HW219416   2.934   5.096   1.498
 6173SOL     OW19417   1.442   5.302   2.299
 6173SOL    HW119418   1.510   5.368   2.331
 6173SOL    HW219419   1.464   5.211   2.333
 6174SOL     OW19420   5.736   4.362   1.860
 6174SOL    HW119421   5.705   4.376   1.954
 6174SOL    HW219422   5.690   4.282   1.821
 6175SOL     OW19423   4.844   0.252   3.812
 6175SOL    HW119424   4.814   0.224   3.720
 6175SOL    HW219425   4.765   0.248   3.874
 6176SOL     OW19426   5.458   2.938   6.963
 6176SOL    HW119427   5.551   2.904   6.978
 6176SOL    HW219428   5.434   3.001   0.013
 6177SOL     OW19429   6.240   2.759   2.691
 6177SOL    HW119430   6.232   2.665   2.658
 6177SOL    HW219431   6.209   2.765   2.786
 6178SOL     OW19432   6.166   3.473   1.050
 6178SOL    HW119433   6.176   3.374   1.046
 6178SOL    HW219434   6.108   3.497   1.128
 6179SOL     OW19435   0.344   2.054   5.040
 6179SOL    HW119436   0.377   2.109   5.117
 6179SOL    HW219437   0.305   2.115   4.971
 6180SOL     OW19438   3.401   6.987   6.038
 6180SOL    HW119439   3.387   6.891   6.062
 6180SOL    HW219440   3.370   7.002   5.944
 6181SOL     OW19441   4.317   5.997   6.826
 6181SOL    HW119442   4.226   6.031   6.851
 6181SOL    HW219443   4.309   5.908   6.783
 6182SOL     OW19444   4.963   0.060   5.563
 6182SOL    HW119445   5.023   0.003   5.619
 6182SOL    HW219446   5.003   0.071   5.472
 6183SOL     OW19447   3.147   0.392   2.576
 6183SOL    HW119448   3.153   0.312   2.515
 6183SOL    HW219449   3.146   0.361   2.671
 6184SOL     OW19450   6.806   0.142   5.851
 6184SOL    HW119451   6.714   0.138   5.888
 6184SOL    HW219452   6.836   0.050   5.823
 6185SOL     OW19453   2.389   2.692   6.964
 6185SOL    HW119454   2.412   2.772   6.908
 6185SOL    HW219455   2.459   2.622   6.953
 6186SOL     OW19456   4.768   0.821   3.967
 6186SOL    HW119457   4.676   0.844   3.936
 6186SOL    HW219458   4.772   0.724   3.992
 6187SOL     OW19459   3.143   5.240   4.357
 6187SOL    HW119460   3.238   5.256   4.385
 6187SOL    HW219461   3.130   5.143   4.341
 6188SOL     OW19462   2.875   6.668   1.779
 6188SOL    HW119463   2.898   6.690   1.874
 6188SOL    HW219464   2.955   6.683   1.721
 6189SOL     OW19465   5.249   4.716   3.331
 6189SOL    HW119466   5.208   4.687   3.244
 6189SOL    HW219467   5.328   4.775   3.313
 6190SOL     OW19468   5.318   2.679   5.834
 6190SOL    HW119469   5.239   2.689   5.895
 6190SOL    HW219470   5.305   2.598   5.776
 6191SOL     OW19471   6.884   1.756   6.157
 6191SOL    HW119472   6.801   1.739   6.103
 6191SOL    HW219473   6.858   1.784   6.250
 6192SOL     OW19474   3.559   2.476   0.289
 6192SOL    HW119475   3.628   2.522   0.346
 6192SOL    HW219476   3.475   2.463   0.342
 6193SOL     OW19477   6.859   0.317   1.614
 6193SOL    HW119478   6.861   0.399   1.672
 6193SOL    HW219479   6.764   0.296   1.590
 6194SOL     OW19480   2.391   0.334   0.548
 6194SOL    HW119481   2.365   0.321   0.453
 6194SOL    HW219482   2.344   0.266   0.605
 6195SOL     OW19483   2.387   6.793   5.305
 6195SOL    HW119484   2.447   6.810   5.226
 6195SOL    HW219485   2.373   6.879   5.355
 6196SOL     OW19486   0.726   1.924   5.682
 6196SOL    HW119487   0.718   1.933   5.582
 6196SOL    HW219488   0.735   2.015   5.722
 6197SOL     OW19489   2.339   2.673   0.978
 6197SOL    HW119490   2.368   2.739   1.048
 6197SOL    HW219491   2.268   2.614   1.016
 6198SOL     OW19492   3.672   5.309   2.835
 6198SOL    HW119493   3.601   5.327   2.902
 6198SOL    HW219494   3.693   5.392   2.784
 6199SOL     OW19495   0.471   0.675   6.690
 6199SOL    HW119496   0.459   0.766   6.651
 6199SOL    HW219497   0.388   0.620   6.673
 6200SOL     OW19498   3.936   0.565   5.793
 6200SOL    HW119499   4.015   0.563   5.854
 6200SOL    HW219500   3.961   0.609   5.707
 6201SOL     OW19501   1.912   5.020   4.305
 6201SOL    HW119502   1.826   5.065   4.281
 6201SOL    HW219503   1.894   4.925   4.331
 6202SOL     OW19504   2.462   2.170   1.256
 6202SOL    HW119505   2.380   2.217   1.223
 6202SOL    HW219506   2.527   2.161   1.180
 6203SOL     OW19507   6.021   1.783   4.293
 6203SOL    HW119508   6.110   1.747   4.324
 6203SOL    HW219509   6.032   1.879   4.267
 6204SOL     OW19510   1.166   6.455   5.709
 6204SOL    HW119511   1.178   6.403   5.794
 6204SOL    HW219512   1.077   6.500   5.710
 6205SOL     OW19513   5.332   6.273   6.749
 6205SOL    HW119514   5.272   6.315   6.682
 6205SOL    HW219515   5.279   6.217   6.812
 6206SOL     OW19516   5.163   6.968   3.433
 6206SOL    HW119517   5.158   0.004   3.352
 6206SOL    HW219518   5.095   6.896   3.425
 6207SOL     OW19519   2.275   4.180   4.219
 6207SOL    HW119520   2.297   4.225   4.133
 6207SOL    HW219521   2.274   4.249   4.292
 6208SOL     OW19522   5.485   5.507   5.324
 6208SOL    HW119523   5.535   5.553   5.397
 6208SOL    HW219524   5.476   5.568   5.245
 6209SOL     OW19525   2.487   5.054   1.071
 6209SOL    HW119526   2.570   5.100   1.103
 6209SOL    HW219527   2.512   4.982   1.006
 6210SOL     OW19528   6.921   4.901   2.722
 6210SOL    HW119529   6.832   4.945   2.708
 6210SOL    HW219530   6.937   4.835   2.650
 6211SOL     OW19531   2.371   0.795   5.256
 6211SOL    HW119532   2.273   0.813   5.246
 6211SOL    HW219533   2.421   0.838   5.181
 6212SOL     OW19534   6.463   0.429   3.553
 6212SOL    HW119535   6.488   0.333   3.561
 6212SOL    HW219536   6.509   0.469   3.473
 6213SOL     OW19537   6.905   0.273   0.476
 6213SOL    HW119538   6.948   0.337   0.540
 6213SOL    HW219539   6.806   0.279   0.484
 6214SOL     OW19540   5.233   4.887   2.050
 6214SOL    HW119541   5.200   4.903   1.957
 6214SOL    HW219542   5.159   4.905   2.115
 6215SOL     OW19543   2.853   4.954   1.421
 6215SOL    HW119544   2.867   4.855   1.417
 6215SOL    HW219545   2.760   4.973   1.451
 6216SOL     OW19546   6.618   2.390   2.761
 6216SOL    HW119547   6.564   2.311   2.791
 6216SOL    HW219548   6.604   2.405   2.664
 6217SOL     OW19549   4.699   1.703   1.286
 6217SOL    HW119550   4.634   1.767   1.246
 6217SOL    HW219551   4.782   1.699   1.230
 6218SOL     OW19552   4.452   5.433   4.086
 6218SOL    HW119553   4.423   5.351   4.037
 6218SOL    HW219554   4.551   5.447   4.072
 6219SOL     OW19555   0.162   1.222   4.221
 6219SOL    HW119556   0.080   1.165   4.210
 6219SOL    HW219557   0.168   1.286   4.144
 6220SOL     OW19558   1.579   3.368   5.315
 6220SOL    HW119559   1.541   3.457   5.336
 6220SOL    HW219560   1.543   3.335   5.227
 6221SOL     OW19561   4.434   4.774   4.616
 6221SOL    HW119562   4.420   4.719   4.698
 6221SOL    HW219563   4.380   4.858   4.622
 6222SOL     OW19564   0.184   1.839   1.251
 6222SOL    HW119565   0.276   1.855   1.214
 6222SOL    HW219566   0.189   1.832   1.351
 6223SOL     OW19567   5.165   4.222   4.232
 6223SOL    HW119568   5.150   4.229   4.330
 6223SOL    HW219569   5.159   4.313   4.191
 6224SOL     OW19570   2.620   0.469   4.919
 6224SOL    HW119571   2.559   0.481   4.998
 6224SOL    HW219572   2.623   0.554   4.866
 6225SOL     OW19573   3.766   2.211   6.523
 6225SOL    HW119574   3.703   2.289   6.527
 6225SOL    HW219575   3.858   2.242   6.549
 6226SOL     OW19576   6.737   6.530   4.231
 6226SOL    HW119577   6.769   6.619   4.264
 6226SOL    HW219578   6.705   6.538   4.137
 6227SOL     OW19579   2.709   4.445   6.722
 6227SOL    HW119580   2.697   4.346   6.734
 6227SOL    HW219581   2.704   4.490   6.811
 6228SOL     OW19582   6.943   2.224   3.105
 6228SOL    HW119583   6.953   2.203   3.202
 6228SOL    HW219584   6.985   2.152   3.050
 6229SOL     OW19585   1.797   2.133   1.745
 6229SOL    HW119586   1.815   2.114   1.841
 6229SOL    HW219587   1.883   2.131   1.693
 6230SOL     OW19588   2.637   1.871   4.171
 6230SOL    HW119589   2.644   1.774   4.149
 6230SOL    HW219590   2.663   1.925   4.091
 6231SOL     OW19591   6.755   5.163   1.815
 6231SOL    HW119592   6.749   5.197   1.721
 6231SOL    HW219593   6.731   5.066   1.817
 6232SOL     OW19594   0.927   1.090   6.951
 6232SOL    HW119595   0.907   1.170   7.007
 6232SOL    HW219596   0.988   1.116   6.876
 6233SOL     OW19597   4.392   0.900   6.728
 6233SOL    HW119598   4.451   0.888   6.648
 6233SOL    HW219599   4.297   0.883   6.702
 6234SOL     OW19600   2.294   2.369   3.668
 6234SOL    HW119601   2.263   2.405   3.580
 6234SOL    HW219602   2.374   2.310   3.653
 6235SOL     OW19603   2.254   5.833   2.220
 6235SOL    HW119604   2.166   5.801   2.185
 6235SOL    HW219605   2.273   5.925   2.184
 6236SOL     OW19606   6.923   4.076   6.865
 6236SOL    HW119607   6.986   3.998   6.857
 6236SOL    HW219608   6.925   4.111   6.959
 6237SOL     OW19609   4.204   5.871   6.250
 6237SOL    HW119610   4.160   5.954   6.285
 6237SOL    HW219611   4.133   5.804   6.228
 6238SOL     OW19612   5.450   3.687   0.479
 6238SOL    HW119613   5.424   3.762   0.540
 6238SOL    HW219614   5.528   3.715   0.423
 6239SOL     OW19615   3.113   6.642   3.453
 6239SOL    HW119616   3.210   6.629   3.434
 6239SOL    HW219617   3.086   6.584   3.530
 6240SOL     OW19618   2.781   3.481   0.493
 6240SOL    HW119619   2.755   3.543   0.567
 6240SOL    HW219620   2.803   3.534   0.411
 6241SOL     OW19621   4.779   0.357   1.859
 6241SOL    HW119622   4.861   0.303   1.878
 6241SOL    HW219623   4.698   0.297   1.866
 6242SOL     OW19624   3.746   1.981   2.988
 6242SOL    HW119625   3.684   1.965   2.911
 6242SOL    HW219626   3.699   1.959   3.074
 6243SOL     OW19627   6.080   5.894   2.927
 6243SOL    HW119628   6.122   5.818   2.976
 6243SOL    HW219629   6.057   5.967   2.992
 6244SOL     OW19630   1.865   2.060   2.002
 6244SOL    HW119631   1.964   2.044   2.006
 6244SOL    HW219632   1.818   1.972   1.998
 6245SOL     OW19633   2.326   4.008   0.585
 6245SOL    HW119634   2.281   3.923   0.612
 6245SOL    HW219635   2.425   3.999   0.598
 6246SOL     OW19636   4.514   6.932   0.254
 6246SOL    HW119637   4.578   7.008   0.268
 6246SOL    HW219638   4.426   6.967   0.224
 6247SOL     OW19639   6.852   6.667   2.453
 6247SOL    HW119640   6.767   6.643   2.405
 6247SOL    HW219641   6.830   6.710   2.540
 6248SOL     OW19642   0.922   5.720   0.707
 6248SOL    HW119643   0.969   5.632   0.709
 6248SOL    HW219644   0.900   5.745   0.613
 6249SOL     OW19645   6.424   3.645   6.377
 6249SOL    HW119646   6.518   3.678   6.370
 6249SOL    HW219647   6.390   3.620   6.286
 6250SOL     OW19648   0.063   4.742   5.902
 6250SOL    HW119649   0.022   4.751   5.811
 6250SOL    HW219650   0.088   4.833   5.936
 6251SOL     OW19651   4.635   1.451   0.887
 6251SOL    HW119652   4.637   1.505   0.803
 6251SOL    HW219653   4.705   1.484   0.950
 6252SOL     OW19654   1.989   6.633   4.812
 6252SOL    HW119655   2.058   6.698   4.844
 6252SOL    HW219656   1.935   6.601   4.890
 6253SOL     OW19657   2.614   3.588   1.373
 6253SOL    HW119658   2.635   3.684   1.391
 6253SOL    HW219659   2.623   3.569   1.275
 6254SOL     OW19660   5.304   0.336   0.712
 6254SOL    HW119661   5.403   0.341   0.697
 6254SOL    HW219662   5.285   0.334   0.810
 6255SOL     OW19663   6.962   3.101   3.411
 6255SOL    HW119664   0.002   3.174   3.436
 6255SOL    HW219665   6.958   3.094   3.311
 6256SOL     OW19666   4.084   5.193   4.178
 6256SOL    HW119667   4.166   5.149   4.215
 6256SOL    HW219668   4.109   5.282   4.140
 6257SOL     OW19669   4.224   2.923   6.701
 6257SOL    HW119670   4.303   2.932   6.761
 6257SOL    HW219671   4.251   2.877   6.617
 6258SOL     OW19672   4.150   2.279   2.875
 6258SOL    HW119673   4.054   2.255   2.888
 6258SOL    HW219674   4.195   2.208   2.820
 6259SOL     OW19675   3.196   2.179   1.715
 6259SOL    HW119676   3.127   2.146   1.651
 6259SOL    HW219677   3.195   2.279   1.716
 6260SOL     OW19678   3.200   4.445   1.271
 6260SOL    HW119679   3.125   4.419   1.332
 6260SOL    HW219680   3.177   4.530   1.224
 6261SOL     OW19681   4.952   6.695   6.203
 6261SOL    HW119682   4.918   6.731   6.116
 6261SOL    HW219683   4.949   6.768   6.272
 6262SOL     OW19684   1.021   5.828   5.103
 6262SOL    HW119685   0.941   5.839   5.161
 6262SOL    HW219686   1.004   5.870   5.014
 6263SOL     OW19687   6.041   1.277   1.294
 6263SOL    HW119688   5.949   1.287   1.257
 6263SOL    HW219689   6.107   1.274   1.218
 6264SOL     OW19690   2.616   1.409   0.159
 6264SOL    HW119691   2.535   1.412   0.217
 6264SOL    HW219692   2.649   1.501   0.141
 6265SOL     OW19693   5.865   3.350   0.138
 6265SOL    HW119694   5.924   3.346   0.219
 6265SOL    HW219695   5.921   3.362   0.056
 6266SOL     OW19696   2.494   0.210   2.528
 6266SOL    HW119697   2.495   0.190   2.626
 6266SOL    HW219698   2.585   0.195   2.490
 6267SOL     OW19699   2.874   6.679   0.384
 6267SOL    HW119700   2.877   6.764   0.332
 6267SOL    HW219701   2.957   6.671   0.440
 6268SOL     OW19702   1.908   5.602   2.368
 6268SOL    HW119703   1.896   5.526   2.304
 6268SOL    HW219704   1.998   5.596   2.412
 6269SOL     OW19705   6.117   4.636   6.745
 6269SOL    HW119706   6.146   4.558   6.801
 6269SOL    HW219707   6.180   4.712   6.758
 6270SOL     OW19708   0.516   1.160   3.881
 6270SOL    HW119709   0.500   1.071   3.840
 6270SOL    HW219710   0.478   1.161   3.974
 6271SOL     OW19711   6.321   1.916   1.234
 6271SOL    HW119712   6.297   2.011   1.252
 6271SOL    HW219713   6.416   1.900   1.263
 6272SOL     OW19714   2.383   2.790   3.443
 6272SOL    HW119715   2.460   2.853   3.448
 6272SOL    HW219716   2.376   2.738   3.529
 6273SOL     OW19717   4.129   0.890   2.406
 6273SOL    HW119718   4.058   0.821   2.421
 6273SOL    HW219719   4.198   0.882   2.478
 6274SOL     OW19720   2.685   5.985   6.896
 6274SOL    HW119721   2.740   6.066   6.878
 6274SOL    HW219722   2.738   5.903   6.873
 6275SOL     OW19723   3.157   1.033   4.896
 6275SOL    HW119724   3.242   0.983   4.911
 6275SOL    HW219725   3.145   1.049   4.798
 6276SOL     OW19726   1.454   5.421   3.575
 6276SOL    HW119727   1.422   5.371   3.495
 6276SOL    HW219728   1.554   5.421   3.577
 6277SOL     OW19729   6.176   3.352   4.134
 6277SOL    HW119730   6.149   3.267   4.180
 6277SOL    HW219731   6.268   3.342   4.096
 6278SOL     OW19732   4.444   0.937   3.491
 6278SOL    HW119733   4.502   0.888   3.556
 6278SOL    HW219734   4.501   0.973   3.417
 6279SOL     OW19735   4.701   1.995   6.401
 6279SOL    HW119736   4.634   1.922   6.414
 6279SOL    HW219737   4.670   2.057   6.329
 6280SOL     OW19738   1.197   5.447   5.969
 6280SOL    HW119739   1.235   5.534   5.936
 6280SOL    HW219740   1.270   5.380   5.978
 6281SOL     OW19741   3.240   6.282   4.511
 6281SOL    HW119742   3.247   6.182   4.513
 6281SOL    HW219743   3.311   6.322   4.569
 6282SOL     OW19744   0.796   6.844   3.975
 6282SOL    HW119745   0.700   6.842   3.949
 6282SOL    HW219746   0.853   6.815   3.898
 6283SOL     OW19747   1.081   2.969   4.899
 6283SOL    HW119748   1.097   2.893   4.962
 6283SOL    HW219749   1.069   2.934   4.806
 6284SOL     OW19750   2.506   4.561   6.605
 6284SOL    HW119751   2.582   4.503   6.634
 6284SOL    HW219752   2.442   4.573   6.681
 6285SOL     OW19753   1.977   4.051   2.498
 6285SOL    HW119754   2.026   4.046   2.410
 6285SOL    HW219755   1.939   4.142   2.510
 6286SOL     OW19756   6.459   6.258   4.510
 6286SOL    HW119757   6.488   6.348   4.478
 6286SOL    HW219758   6.530   6.191   4.492
 6287SOL     OW19759   3.866   4.999   2.506
 6287SOL    HW119760   3.943   4.938   2.487
 6287SOL    HW219761   3.834   4.984   2.600
 6288SOL     OW19762   5.677   3.232   0.581
 6288SOL    HW119763   5.660   3.290   0.661
 6288SOL    HW219764   5.718   3.146   0.610
 6289SOL     OW19765   0.859   6.694   2.733
 6289SOL    HW119766   0.854   6.673   2.636
 6289SOL    HW219767   0.929   6.636   2.776
 6290SOL     OW19768   5.966   4.337   3.564
 6290SOL    HW119769   6.049   4.367   3.517
 6290SOL    HW219770   5.964   4.377   3.656
 6291SOL     OW19771   4.048   3.822   3.418
 6291SOL    HW119772   4.125   3.763   3.442
 6291SOL    HW219773   4.039   3.826   3.319
 6292SOL     OW19774   6.889   0.978   1.930
 6292SOL    HW119775   6.881   0.976   1.830
 6292SOL    HW219776   6.959   0.913   1.959
 6293SOL     OW19777   5.964   5.246   6.468
 6293SOL    HW119778   5.928   5.280   6.382
 6293SOL    HW219779   5.904   5.174   6.503
 6294SOL     OW19780   3.686   6.235   1.960
 6294SOL    HW119781   3.662   6.331   1.976
 6294SOL    HW219782   3.609   6.176   1.984
 6295SOL     OW19783   6.953   5.675   5.559
 6295SOL    HW119784   7.018   5.602   5.581
 6295SOL    HW219785   6.862   5.637   5.547
 6296SOL     OW19786   6.289   1.327   3.005
 6296SOL    HW119787   6.290   1.360   2.910
 6296SOL    HW219788   6.237   1.242   3.010
 6297SOL     OW19789   5.692   0.807   5.694
 6297SOL    HW119790   5.779   0.854   5.674
 6297SOL    HW219791   5.637   0.803   5.611
 6298SOL     OW19792   6.782   2.345   4.481
 6298SOL    HW119793   6.711   2.276   4.463
 6298SOL    HW219794   6.821   2.330   4.572
 6299SOL     OW19795   6.705   3.018   0.845
 6299SOL    HW119796   6.733   3.058   0.932
 6299SOL    HW219797   6.769   2.945   0.820
 6300SOL     OW19798   5.339   1.333   3.552
 6300SOL    HW119799   5.396   1.343   3.634
 6300SOL    HW219800   5.275   1.409   3.547
 6301SOL     OW19801   3.869   0.749   0.918
 6301SOL    HW119802   3.876   0.835   0.867
 6301SOL    HW219803   3.828   0.679   0.861
 6302SOL     OW19804   6.324   0.468   2.773
 6302SOL    HW119805   6.400   0.498   2.716
 6302SOL    HW219806   6.275   0.394   2.726
 6303SOL     OW19807   2.541   5.709   4.528
 6303SOL    HW119808   2.483   5.729   4.608
 6303SOL    HW219809   2.636   5.701   4.557
 6304SOL     OW19810   3.804   1.003   4.641
 6304SOL    HW119811   3.874   0.952   4.691
 6304SOL    HW219812   3.788   0.960   4.552
 6305SOL     OW19813   5.574   0.868   2.480
 6305SOL    HW119814   5.595   0.840   2.386
 6305SOL    HW219815   5.490   0.921   2.481
 6306SOL     OW19816   5.940   2.702   3.850
 6306SOL    HW119817   6.002   2.627   3.876
 6306SOL    HW219818   5.916   2.755   3.931
 6307SOL     OW19819   1.830   4.471   0.158
 6307SOL    HW119820   1.776   4.444   0.237
 6307SOL    HW219821   1.926   4.447   0.174
 6308SOL     OW19822   4.039   1.895   6.308
 6308SOL    HW119823   3.949   1.935   6.329
 6308SOL    HW219824   4.041   1.868   6.212
 6309SOL     OW19825   5.869   2.074   5.163
 6309SOL    HW119826   5.845   2.128   5.244
 6309SOL    HW219827   5.959   2.033   5.175
 6310SOL     OW19828   6.896   5.627   4.732
 6310SOL    HW119829   6.826   5.687   4.770
 6310SOL    HW219830   6.958   5.598   4.805
 6311SOL     OW19831   5.886   0.252   4.376
 6311SOL    HW119832   5.863   0.168   4.327
 6311SOL    HW219833   5.884   0.329   4.313
 6312SOL     OW19834   5.546   4.029   5.537
 6312SOL    HW119835   5.638   3.991   5.528
 6312SOL    HW219836   5.525   4.084   5.457
 6313SOL     OW19837   2.078   5.188   3.904
 6313SOL    HW119838   2.101   5.211   3.810
 6313SOL    HW219839   2.150   5.223   3.965
 6314SOL     OW19840   1.451   0.447   3.709
 6314SOL    HW119841   1.388   0.486   3.776
 6314SOL    HW219842   1.400   0.425   3.625
 6315SOL     OW19843   1.964   3.461   0.309
 6315SOL    HW119844   1.973   3.538   0.245
 6315SOL    HW219845   1.957   3.376   0.257
 6316SOL     OW19846   4.308   1.219   4.949
 6316SOL    HW119847   4.300   1.302   4.894
 6316SOL    HW219848   4.286   1.139   4.892
 6317SOL     OW19849   6.498   5.190   4.771
 6317SOL    HW119850   6.588   5.227   4.792
 6317SOL    HW219851   6.466   5.132   4.846
 6318SOL     OW19852   1.672   1.792   4.321
 6318SOL    HW119853   1.654   1.884   4.287
 6318SOL    HW219854   1.762   1.790   4.365
 6319SOL     OW19855   1.196   2.208   2.958
 6319SOL    HW119856   1.296   2.211   2.967
 6319SOL    HW219857   1.157   2.290   3.001
 6320SOL     OW19858   0.461   2.407   2.373
 6320SOL    HW119859   0.521   2.487   2.373
 6320SOL    HW219860   0.367   2.437   2.358
 6321SOL     OW19861   2.369   3.883   6.084
 6321SOL    HW119862   2.383   3.977   6.116
 6321SOL    HW219863   2.315   3.884   6.000
 6322SOL     OW19864   2.667   0.339   0.064
 6322SOL    HW119865   2.633   0.400   0.136
 6322SOL    HW219866   2.592   0.283   0.029
 6323SOL     OW19867   4.138   1.609   1.599
 6323SOL    HW119868   4.111   1.566   1.513
 6323SOL    HW219869   4.197   1.688   1.579
 6324SOL     OW19870   3.166   1.875   0.396
 6324SOL    HW119871   3.119   1.946   0.344
 6324SOL    HW219872   3.113   1.851   0.477
 6325SOL     OW19873   1.421   3.215   2.879
 6325SOL    HW119874   1.504   3.244   2.830
 6325SOL    HW219875   1.371   3.296   2.911
 6326SOL     OW19876   4.285   6.729   1.630
 6326SOL    HW119877   4.359   6.704   1.692
 6326SOL    HW219878   4.209   6.665   1.642
 6327SOL     OW19879   3.830   5.258   5.463
 6327SOL    HW119880   3.774   5.334   5.431
 6327SOL    HW219881   3.781   5.207   5.533
 6328SOL     OW19882   2.207   4.409   0.022
 6328SOL    HW119883   2.147   4.490   0.020
 6328SOL    HW219884   2.302   4.438   0.034
 6329SOL     OW19885   0.783   1.484   3.080
 6329SOL    HW119886   0.811   1.580   3.076
 6329SOL    HW219887   0.823   1.441   3.162
 6330SOL     OW19888   3.650   0.639   0.065
 6330SOL    HW119889   3.711   0.562   0.084
 6330SOL    HW219890   3.701   0.724   0.075
 6331SOL     OW19891   4.791   3.278   1.757
 6331SOL    HW119892   4.830   3.305   1.846
 6331SOL    HW219893   4.739   3.194   1.768
 6332SOL     OW19894   4.683   6.220   2.042
 6332SOL    HW119895   4.654   6.297   1.984
 6332SOL    HW219896   4.686   6.137   1.988
 6333SOL     OW19897   2.372   5.181   3.083
 6333SOL    HW119898   2.374   5.250   3.012
 6333SOL    HW219899   2.300   5.203   3.149
 6334SOL     OW19900   2.362   1.423   2.450
 6334SOL    HW119901   2.368   1.455   2.355
 6334SOL    HW219902   2.429   1.471   2.506
 6335SOL     OW19903   6.988   0.974   6.962
 6335SOL    HW119904   6.945   1.033   0.007
 6335SOL    HW219905   0.028   1.028   6.906
 6336SOL     OW19906   1.472   2.858   4.845
 6336SOL    HW119907   1.490   2.770   4.802
 6336SOL    HW219908   1.437   2.923   4.777
 6337SOL     OW19909   0.513   4.593   4.924
 6337SOL    HW119910   0.419   4.613   4.952
 6337SOL    HW219911   0.573   4.595   5.004
 6338SOL     OW19912   3.847   1.402   4.434
 6338SOL    HW119913   3.784   1.479   4.425
 6338SOL    HW219914   3.923   1.413   4.370
 6339SOL     OW19915   0.199   2.761   4.305
 6339SOL    HW119916   0.168   2.748   4.211
 6339SOL    HW219917   0.121   2.754   4.367
 6340SOL     OW19918   2.992   5.840   4.060
 6340SOL    HW119919   3.023   5.860   3.968
 6340SOL    HW219920   3.044   5.763   4.097
 6341SOL     OW19921   6.076   5.667   2.106
 6341SOL    HW119922   6.045   5.749   2.154
 6341SOL    HW219923   6.126   5.609   2.170
 6342SOL     OW19924   1.465   3.735   0.738
 6342SOL    HW119925   1.485   3.698   0.648
 6342SOL    HW219926   1.535   3.802   0.763
 6343SOL     OW19927   4.488   1.362   0.474
 6343SOL    HW119928   4.563   1.326   0.420
 6343SOL    HW219929   4.457   1.293   0.539
 6344SOL     OW19930   6.187   4.662   4.701
 6344SOL    HW119931   6.254   4.715   4.649
 6344SOL    HW219932   6.115   4.629   4.640
 6345SOL     OW19933   1.932   2.193   1.306
 6345SOL    HW119934   1.914   2.137   1.226
 6345SOL    HW219935   2.007   2.154   1.358
 6346SOL     OW19936   0.437   5.203   3.993
 6346SOL    HW119937   0.510   5.138   4.016
 6346SOL    HW219938   0.462   5.253   3.911
 6347SOL     OW19939   3.267   0.351   0.459
 6347SOL    HW119940   3.191   0.411   0.486
 6347SOL    HW219941   3.245   0.257   0.485
 6348SOL     OW19942   0.285   2.828   3.625
 6348SOL    HW119943   0.193   2.859   3.600
 6348SOL    HW219944   0.316   2.759   3.560
 6349SOL     OW19945   1.316   0.724   0.733
 6349SOL    HW119946   1.222   0.717   0.702
 6349SOL    HW219947   1.339   0.819   0.753
 6350SOL     OW19948   6.985   6.114   3.317
 6350SOL    HW119949   0.024   6.050   3.360
 6350SOL    HW219950   7.007   6.122   3.220
 6351SOL     OW19951   0.086   2.463   3.153
 6351SOL    HW119952   0.126   2.528   3.089
 6351SOL    HW219953   0.087   2.371   3.112
 6352SOL     OW19954   0.046   4.770   2.490
 6352SOL    HW119955   0.020   4.673   2.486
 6352SOL    HW219956   0.136   4.779   2.532
 6353SOL     OW19957   6.671   6.552   1.931
 6353SOL    HW119958   6.651   6.467   1.980
 6353SOL    HW219959   6.747   6.536   1.868
 6354SOL     OW19960   0.021   6.767   4.533
 6354SOL    HW119961   0.114   6.791   4.506
 6354SOL    HW219962   7.015   6.824   4.609
 6355SOL     OW19963   1.377   2.247   1.606
 6355SOL    HW119964   1.308   2.176   1.621
 6355SOL    HW219965   1.363   2.288   1.516
 6356SOL     OW19966   3.199   3.716   1.278
 6356SOL    HW119967   3.251   3.751   1.356
 6356SOL    HW219968   3.263   3.689   1.205
 6357SOL     OW19969   5.175   1.830   1.270
 6357SOL    HW119970   5.155   1.928   1.269
 6357SOL    HW219971   5.195   1.799   1.177
 6358SOL     OW19972   1.232   2.866   5.403
 6358SOL    HW119973   1.157   2.880   5.467
 6358SOL    HW219974   1.250   2.951   5.353
 6359SOL     OW19975   7.017   0.939   6.577
 6359SOL    HW119976   0.030   0.964   6.487
 6359SOL    HW219977   0.062   0.888   6.628
 6360SOL     OW19978   2.417   5.157   4.207
 6360SOL    HW119979   2.508   5.127   4.237
 6360SOL    HW219980   2.350   5.140   4.280
 6361SOL     OW19981   2.954   6.723   5.300
 6361SOL    HW119982   2.861   6.687   5.294
 6361SOL    HW219983   3.003   6.677   5.375
 6362SOL     OW19984   6.740   5.298   6.158
 6362SOL    HW119985   6.767   5.332   6.249
 6362SOL    HW219986   6.747   5.372   6.092
 6363SOL     OW19987   0.978   5.252   3.828
 6363SOL    HW119988   0.936   5.216   3.745
 6363SOL    HW219989   0.910   5.256   3.901
 6364SOL     OW19990   2.832   2.151   6.396
 6364SOL    HW119991   2.913   2.187   6.443
 6364SOL    HW219992   2.860   2.105   6.312
 6365SOL     OW19993   4.232   5.606   2.305
 6365SOL    HW119994   4.206   5.516   2.340
 6365SOL    HW219995   4.225   5.606   2.205
 6366SOL     OW19996   0.520   4.075   5.535
 6366SOL    HW119997   0.521   4.157   5.478
 6366SOL    HW219998   0.446   4.081   5.601
 6367SOL     OW19999   5.233   5.905   2.149
 6367SOL    HW120000   5.246   5.967   2.227
 6367SOL    HW220001   5.289   5.937   2.072
 6368SOL     OW20002   2.755   1.675   2.599
 6368SOL    HW120003   2.738   1.733   2.679
 6368SOL    HW220004   2.757   1.732   2.516
 6369SOL     OW20005   2.059   6.211   4.909
 6369SOL    HW120006   2.102   6.302   4.907
 6369SOL    HW220007   2.128   6.142   4.928
 6370SOL     OW20008   5.256   3.031   2.013
 6370SOL    HW120009   5.300   3.004   2.099
 6370SOL    HW220010   5.165   3.068   2.032
 6371SOL     OW20011   4.388   1.223   3.998
 6371SOL    HW120012   4.371   1.312   4.039
 6371SOL    HW220013   4.374   1.227   3.900
 6372SOL     OW20014   2.798   0.253   2.733
 6372SOL    HW120015   2.823   0.292   2.645
 6372SOL    HW220016   2.805   0.153   2.730
 6373SOL     OW20017   3.455   4.583   0.346
 6373SOL    HW120018   3.528   4.607   0.282
 6373SOL    HW220019   3.433   4.486   0.337
 6374SOL     OW20020   2.855   3.480   3.515
 6374SOL    HW120021   2.915   3.401   3.524
 6374SOL    HW220022   2.841   3.501   3.418
 6375SOL     OW20023   2.569   5.785   1.907
 6375SOL    HW120024   2.507   5.724   1.858
 6375SOL    HW220025   2.626   5.834   1.841
 6376SOL     OW20026   1.203   1.581   5.372
 6376SOL    HW120027   1.115   1.609   5.410
 6376SOL    HW220028   1.196   1.575   5.272
 6377SOL     OW20029   1.091   1.970   3.908
 6377SOL    HW120030   1.161   1.904   3.880
 6377SOL    HW220031   1.123   2.021   3.987
 6378SOL     OW20032   4.325   5.437   3.731
 6378SOL    HW120033   4.276   5.363   3.685
 6378SOL    HW220034   4.423   5.419   3.726
 6379SOL     OW20035   2.784   4.876   1.935
 6379SOL    HW120036   2.708   4.877   2.000
 6379SOL    HW220037   2.836   4.791   1.945
 6380SOL     OW20038   1.422   0.948   6.016
 6380SOL    HW120039   1.468   0.914   6.098
 6380SOL    HW220040   1.468   0.915   5.934
 6381SOL     OW20041   3.428   3.197   2.647
 6381SOL    HW120042   3.345   3.146   2.625
 6381SOL    HW220043   3.407   3.267   2.715
 6382SOL     OW20044   1.508   4.888   4.515
 6382SOL    HW120045   1.476   4.843   4.432
 6382SOL    HW220046   1.563   4.825   4.569
 6383SOL     OW20047   3.820   1.453   4.118
 6383SOL    HW120048   3.805   1.361   4.155
 6383SOL    HW220049   3.740   1.481   4.066
 6384SOL     OW20050   6.584   4.167   1.900
 6384SOL    HW120051   6.518   4.238   1.926
 6384SOL    HW220052   6.670   4.210   1.872
 6385SOL     OW20053   1.086   5.925   5.698
 6385SOL    HW120054   1.086   5.884   5.607
 6385SOL    HW220055   1.153   5.999   5.701
 6386SOL     OW20056   2.232   5.375   2.901
 6386SOL    HW120057   2.202   5.306   2.836
 6386SOL    HW220058   2.243   5.463   2.854
 6387SOL     OW20059   6.137   0.619   4.854
 6387SOL    HW120060   6.169   0.712   4.837
 6387SOL    HW220061   6.123   0.605   4.952
 6388SOL     OW20062   1.698   4.738   3.107
 6388SOL    HW120063   1.651   4.826   3.100
 6388SOL    HW220064   1.704   4.696   3.017
 6389SOL     OW20065   1.449   4.237   1.058
 6389SOL    HW120066   1.520   4.171   1.082
 6389SOL    HW220067   1.360   4.193   1.062
 6390SOL     OW20068   0.604   2.894   4.539
 6390SOL    HW120069   0.624   2.844   4.623
 6390SOL    HW220070   0.643   2.986   4.545
 6391SOL     OW20071   3.996   0.651   0.226
 6391SOL    HW120072   3.926   0.666   0.295
 6391SOL    HW220073   3.964   0.581   0.161
 6392SOL     OW20074   1.496   5.934   4.432
 6392SOL    HW120075   1.589   5.949   4.465
 6392SOL    HW220076   1.445   6.020   4.434
 6393SOL     OW20077   4.808   1.142   6.904
 6393SOL    HW120078   4.725   1.187   6.936
 6393SOL    HW220079   4.862   1.207   6.850
 6394SOL     OW20080   3.433   5.259   1.721
 6394SOL    HW120081   3.378   5.338   1.695
 6394SOL    HW220082   3.526   5.270   1.684
 6395SOL     OW20083   5.675   2.036   0.016
 6395SOL    HW120084   5.697   2.118   6.987
 6395SOL    HW220085   5.713   1.955   6.993
 6396SOL     OW20086   6.241   3.353   6.759
 6396SOL    HW120087   6.280   3.284   6.821
 6396SOL    HW220088   6.314   3.396   6.707
 6397SOL     OW20089   6.333   1.138   0.817
 6397SOL    HW120090   6.410   1.180   0.865
 6397SOL    HW220091   6.294   1.203   0.753
 6398SOL     OW20092   3.956   0.693   1.570
 6398SOL    HW120093   3.959   0.691   1.670
 6398SOL    HW220094   3.962   0.787   1.538
 6399SOL     OW20095   1.170   6.599   6.648
 6399SOL    HW120096   1.213   6.613   6.559
 6399SOL    HW220097   1.205   6.667   6.713
 6400SOL     OW20098   2.930   5.022   4.797
 6400SOL    HW120099   2.954   5.099   4.738
 6400SOL    HW220100   2.908   4.942   4.741
 6401SOL     OW20101   0.713   4.897   5.423
 6401SOL    HW120102   0.764   4.981   5.405
 6401SOL    HW220103   0.685   4.894   5.519
 6402SOL     OW20104   1.858   3.049   3.428
 6402SOL    HW120105   1.835   3.138   3.388
 6402SOL    HW220106   1.865   2.980   3.356
 6403SOL     OW20107   0.601   6.119   1.780
 6403SOL    HW120108   0.564   6.142   1.690
 6403SOL    HW220109   0.692   6.079   1.770
 6404SOL     OW20110   5.372   1.035   2.451
 6404SOL    HW120111   5.415   1.111   2.402
 6404SOL    HW220112   5.275   1.032   2.429
 6405SOL     OW20113   3.408   0.140   1.528
 6405SOL    HW120114   3.400   0.041   1.528
 6405SOL    HW220115   3.503   0.167   1.511
 6406SOL     OW20116   2.646   1.789   3.105
 6406SOL    HW120117   2.678   1.729   3.032
 6406SOL    HW220118   2.660   1.884   3.079
 6407SOL     OW20119   4.829   6.160   6.818
 6407SOL    HW120120   4.875   6.238   6.862
 6407SOL    HW220121   4.737   6.152   6.855
 6408SOL     OW20122   5.612   2.371   0.936
 6408SOL    HW120123   5.618   2.470   0.952
 6408SOL    HW220124   5.564   2.328   1.012
 6409SOL     OW20125   0.885   5.266   1.936
 6409SOL    HW120126   0.846   5.272   2.028
 6409SOL    HW220127   0.819   5.298   1.870
 6410SOL     OW20128   0.449   0.440   1.654
 6410SOL    HW120129   0.420   0.401   1.567
 6410SOL    HW220130   0.375   0.496   1.692
 6411SOL     OW20131   1.660   1.896   3.271
 6411SOL    HW120132   1.647   1.815   3.214
 6411SOL    HW220133   1.573   1.921   3.314
 6412SOL     OW20134   5.887   2.600   4.457
 6412SOL    HW120135   5.825   2.547   4.514
 6412SOL    HW220136   5.883   2.567   4.363
 6413SOL     OW20137   0.601   4.936   0.881
 6413SOL    HW120138   0.653   4.982   0.953
 6413SOL    HW220139   0.658   4.924   0.800
 6414SOL     OW20140   5.906   0.523   3.255
 6414SOL    HW120141   5.867   0.434   3.230
 6414SOL    HW220142   5.994   0.508   3.302
 6415SOL     OW20143   1.542   1.888   2.014
 6415SOL    HW120144   1.509   1.942   1.937
 6415SOL    HW220145   1.465   1.855   2.068
 6416SOL     OW20146   2.547   6.055   6.519
 6416SOL    HW120147   2.530   6.083   6.614
 6416SOL    HW220148   2.504   5.966   6.502
 6417SOL     OW20149   6.992   5.917   4.048
 6417SOL    HW120150   6.893   5.931   4.039
 6417SOL    HW220151   7.016   5.829   4.006
 6418SOL     OW20152   6.985   5.244   2.157
 6418SOL    HW120153   0.004   5.301   2.228
 6418SOL    HW220154   6.957   5.157   2.197
 6419SOL     OW20155   2.595   2.921   0.540
 6419SOL    HW120156   2.504   2.934   0.499
 6419SOL    HW220157   2.632   3.009   0.568
 6420SOL     OW20158   0.640   2.679   0.013
 6420SOL    HW120159   0.632   2.680   6.937
 6420SOL    HW220160   0.638   2.584   0.045
 6421SOL     OW20161   5.487   1.897   0.171
 6421SOL    HW120162   5.557   1.952   0.127
 6421SOL    HW220163   5.446   1.835   0.105
 6422SOL     OW20164   5.921   2.956   2.834
 6422SOL    HW120165   6.009   2.973   2.790
 6422SOL    HW220166   5.898   2.859   2.825
 6423SOL     OW20167   5.380   4.078   0.402
 6423SOL    HW120168   5.324   4.063   0.321
 6423SOL    HW220169   5.383   3.995   0.457
 6424SOL     OW20170   5.908   3.808   5.246
 6424SOL    HW120171   5.984   3.769   5.195
 6424SOL    HW220172   5.918   3.908   5.251
 6425SOL     OW20173   0.536   5.262   1.197
 6425SOL    HW120174   0.454   5.269   1.140
 6425SOL    HW220175   0.557   5.351   1.237
 6426SOL     OW20176   6.110   3.000   3.051
 6426SOL    HW120177   6.205   2.997   3.082
 6426SOL    HW220178   6.105   3.050   2.964
 6427SOL     OW20179   0.700   3.282   5.893
 6427SOL    HW120180   0.611   3.320   5.915
 6427SOL    HW220181   0.693   3.182   5.888
 6428SOL     OW20182   6.016   3.852   4.465
 6428SOL    HW120183   5.992   3.864   4.561
 6428SOL    HW220184   5.941   3.884   4.407
 6429SOL     OW20185   0.936   1.554   5.484
 6429SOL    HW120186   0.844   1.588   5.465
 6429SOL    HW220187   0.931   1.486   5.557
 6430SOL     OW20188   6.389   2.950   0.474
 6430SOL    HW120189   6.300   2.956   0.427
 6430SOL    HW220190   6.393   2.865   0.526
 6431SOL     OW20191   6.102   1.643   2.310
 6431SOL    HW120192   6.086   1.548   2.337
 6431SOL    HW220193   6.172   1.683   2.369
 6432SOL     OW20194   6.410   3.966   0.464
 6432SOL    HW120195   6.491   3.910   0.443
 6432SOL    HW220196   6.338   3.947   0.398
 6433SOL     OW20197   2.026   3.486   1.586
 6433SOL    HW120198   2.073   3.523   1.506
 6433SOL    HW220199   1.957   3.420   1.556
 6434SOL     OW20200   1.300   5.720   0.840
 6434SOL    HW120201   1.255   5.633   0.819
 6434SOL    HW220202   1.230   5.789   0.860
 6435SOL     OW20203   5.099   3.443   0.598
 6435SOL    HW120204   5.037   3.380   0.644
 6435SOL    HW220205   5.047   3.518   0.558
 6436SOL     OW20206   1.793   2.470   1.402
 6436SOL    HW120207   1.763   2.551   1.352
 6436SOL    HW220208   1.831   2.403   1.339
 6437SOL     OW20209   0.168   1.096   1.200
 6437SOL    HW120210   0.161   1.006   1.157
 6437SOL    HW220211   0.099   1.157   1.159
 6438SOL     OW20212   0.744   3.362   4.910
 6438SOL    HW120213   0.831   3.318   4.888
 6438SOL    HW220214   0.689   3.371   4.828
 6439SOL     OW20215   0.080   6.203   2.703
 6439SOL    HW120216   7.022   6.257   2.725
 6439SOL    HW220217   0.149   6.263   2.663
 6440SOL     OW20218   0.705   0.682   1.939
 6440SOL    HW120219   0.694   0.599   1.883
 6440SOL    HW220220   0.781   0.736   1.904
 6441SOL     OW20221   4.715   1.913   3.000
 6441SOL    HW120222   4.776   1.968   2.942
 6441SOL    HW220223   4.763   1.831   3.030
 6442SOL     OW20224   1.965   1.251   3.521
 6442SOL    HW120225   2.017   1.334   3.543
 6442SOL    HW220226   1.979   1.228   3.424
 6443SOL     OW20227   2.025   0.390   1.150
 6443SOL    HW120228   2.004   0.371   1.246
 6443SOL    HW220229   1.972   0.469   1.119
 6444SOL     OW20230   1.269   1.845   3.009
 6444SOL    HW120231   1.193   1.872   2.950
 6444SOL    HW220232   1.356   1.870   2.965
 6445SOL     OW20233   3.079   4.243   5.880
 6445SOL    HW120234   3.026   4.320   5.918
 6445SOL    HW220235   3.047   4.158   5.920
 6446SOL     OW20236   0.105   0.983   0.559
 6446SOL    HW120237   0.164   1.021   0.488
 6446SOL    HW220238   0.156   0.918   0.615
 6447SOL     OW20239   1.523   0.840   3.782
 6447SOL    HW120240   1.568   0.912   3.834
 6447SOL    HW220241   1.578   0.757   3.784
 6448SOL     OW20242   6.723   2.365   3.058
 6448SOL    HW120243   6.815   2.325   3.066
 6448SOL    HW220244   6.691   2.355   2.964
 6449SOL     OW20245   3.971   2.600   0.827
 6449SOL    HW120246   4.020   2.572   0.909
 6449SOL    HW220247   3.955   2.699   0.830
 6450SOL     OW20248   6.461   2.657   0.530
 6450SOL    HW120249   6.396   2.594   0.487
 6450SOL    HW220250   6.529   2.685   0.462
 6451SOL     OW20251   2.591   6.575   4.208
 6451SOL    HW120252   2.521   6.512   4.174
 6451SOL    HW220253   2.645   6.610   4.131
 6452SOL     OW20254   3.661   6.358   4.296
 6452SOL    HW120255   3.685   6.285   4.232
 6452SOL    HW220256   3.621   6.435   4.247
 6453SOL     OW20257   2.072   5.257   6.676
 6453SOL    HW120258   2.110   5.249   6.768
 6453SOL    HW220259   2.031   5.348   6.665
 6454SOL     OW20260   3.590   0.851   4.816
 6454SOL    HW120261   3.545   0.787   4.754
 6454SOL    HW220262   3.631   0.926   4.763
 6455SOL     OW20263   6.689   3.398   0.124
 6455SOL    HW120264   6.726   3.475   0.176
 6455SOL    HW220265   6.762   3.332   0.104
 6456SOL     OW20266   6.721   2.013   4.672
 6456SOL    HW120267   6.634   1.990   4.717
 6456SOL    HW220268   6.779   1.931   4.670
 6457SOL     OW20269   5.700   3.223   2.226
 6457SOL    HW120270   5.768   3.184   2.290
 6457SOL    HW220271   5.706   3.175   2.138
 6458SOL     OW20272   1.011   5.893   3.657
 6458SOL    HW120273   1.018   5.982   3.701
 6458SOL    HW220274   0.957   5.900   3.573
 6459SOL     OW20275   5.624   4.464   0.449
 6459SOL    HW120276   5.654   4.458   0.544
 6459SOL    HW220277   5.612   4.560   0.424
 6460SOL     OW20278   3.663   4.636   1.464
 6460SOL    HW120279   3.675   4.540   1.491
 6460SOL    HW220280   3.593   4.642   1.393
 6461SOL     OW20281   3.244   5.902   5.171
 6461SOL    HW120282   3.328   5.923   5.122
 6461SOL    HW220283   3.173   5.969   5.146
 6462SOL     OW20284   1.901   3.767   2.523
 6462SOL    HW120285   1.919   3.863   2.546
 6462SOL    HW220286   1.968   3.736   2.456
 6463SOL     OW20287   1.320   3.548   5.692
 6463SOL    HW120288   1.333   3.640   5.656
 6463SOL    HW220289   1.408   3.500   5.694
 6464SOL     OW20290   1.400   4.840   1.939
 6464SOL    HW120291   1.422   4.777   1.865
 6464SOL    HW220292   1.309   4.819   1.975
 6465SOL     OW20293   5.950   0.473   2.568
 6465SOL    HW120294   5.938   0.476   2.667
 6465SOL    HW220295   5.978   0.563   2.535
 6466SOL     OW20296   6.480   2.390   4.701
 6466SOL    HW120297   6.502   2.423   4.793
 6466SOL    HW220298   6.548   2.423   4.636
 6467SOL     OW20299   3.256   6.827   6.351
 6467SOL    HW120300   3.351   6.859   6.343
 6467SOL    HW220301   3.255   6.733   6.384
 6468SOL     OW20302   6.091   4.421   2.307
 6468SOL    HW120303   6.132   4.365   2.379
 6468SOL    HW220304   5.992   4.426   2.321
 6469SOL     OW20305   6.191   1.545   6.010
 6469SOL    HW120306   6.258   1.599   6.060
 6469SOL    HW220307   6.102   1.550   6.056
 6470SOL     OW20308   6.602   5.890   4.537
 6470SOL    HW120309   6.564   5.803   4.567
 6470SOL    HW220310   6.568   5.912   4.446
 6471SOL     OW20311   6.315   6.016   5.388
 6471SOL    HW120312   6.375   5.946   5.350
 6471SOL    HW220313   6.363   6.064   5.462
 6472SOL     OW20314   2.024   6.287   1.619
 6472SOL    HW120315   2.078   6.275   1.702
 6472SOL    HW220316   1.972   6.203   1.601
 6473SOL     OW20317   1.922   0.823   5.302
 6473SOL    HW120318   1.866   0.898   5.337
 6473SOL    HW220319   1.996   0.804   5.367
 6474SOL     OW20320   1.734   3.538   6.531
 6474SOL    HW120321   1.748   3.620   6.587
 6474SOL    HW220322   1.668   3.558   6.459
 6475SOL     OW20323   4.306   5.660   3.905
 6475SOL    HW120324   4.400   5.671   3.939
 6475SOL    HW220325   4.305   5.594   3.831
 6476SOL     OW20326   4.944   5.674   2.785
 6476SOL    HW120327   4.883   5.752   2.773
 6476SOL    HW220328   5.028   5.704   2.831
 6477SOL     OW20329   6.625   6.343   0.213
 6477SOL    HW120330   6.554   6.282   0.248
 6477SOL    HW220331   6.665   6.304   0.130
 6478SOL     OW20332   4.445   5.707   1.225
 6478SOL    HW120333   4.467   5.686   1.130
 6478SOL    HW220334   4.377   5.780   1.229
 6479SOL     OW20335   3.134   6.132   2.829
 6479SOL    HW120336   3.113   6.099   2.921
 6479SOL    HW220337   3.232   6.121   2.812
 6480SOL     OW20338   2.745   0.928   1.055
 6480SOL    HW120339   2.734   0.836   1.093
 6480SOL    HW220340   2.657   0.973   1.053
 6481SOL     OW20341   4.665   0.543   1.021
 6481SOL    HW120342   4.588   0.540   1.084
 6481SOL    HW220343   4.688   0.638   1.001
 6482SOL     OW20344   0.212   0.102   5.884
 6482SOL    HW120345   0.166   0.074   5.800
 6482SOL    HW220346   0.256   0.191   5.870
 6483SOL     OW20347   2.068   4.953   1.522
 6483SOL    HW120348   2.051   4.905   1.608
 6483SOL    HW220349   1.988   4.943   1.463
 6484SOL     OW20350   4.644   6.813   3.068
 6484SOL    HW120351   4.691   6.892   3.107
 6484SOL    HW220352   4.574   6.843   3.004
 6485SOL     OW20353   0.546   2.845   3.055
 6485SOL    HW120354   0.573   2.833   2.960
 6485SOL    HW220355   0.463   2.901   3.059
 6486SOL     OW20356   1.570   2.657   3.142
 6486SOL    HW120357   1.587   2.562   3.167
 6486SOL    HW220358   1.648   2.692   3.090
 6487SOL     OW20359   5.956   5.673   3.453
 6487SOL    HW120360   5.895   5.597   3.434
 6487SOL    HW220361   5.943   5.744   3.384
 6488SOL     OW20362   3.386   5.300   4.459
 6488SOL    HW120363   3.432   5.221   4.499
 6488SOL    HW220364   3.398   5.380   4.518
 6489SOL     OW20365   2.559   1.419   6.444
 6489SOL    HW120366   2.598   1.339   6.490
 6489SOL    HW220367   2.486   1.389   6.382
 6490SOL     OW20368   5.195   2.094   0.117
 6490SOL    HW120369   5.140   2.109   0.035
 6490SOL    HW220370   5.183   2.000   0.149
 6491SOL     OW20371   5.304   0.615   5.468
 6491SOL    HW120372   5.394   0.659   5.462
 6491SOL    HW220373   5.307   0.542   5.537
 6492SOL     OW20374   6.221   5.804   6.105
 6492SOL    HW120375   6.285   5.878   6.125
 6492SOL    HW220376   6.271   5.721   6.081
 6493SOL     OW20377   0.678   6.961   5.104
 6493SOL    HW120378   0.771   6.994   5.085
 6493SOL    HW220379   0.674   6.924   5.197
 6494SOL     OW20380   0.353   2.035   3.246
 6494SOL    HW120381   0.364   1.937   3.235
 6494SOL    HW220382   0.424   2.070   3.307
 6495SOL     OW20383   5.572   4.662   2.013
 6495SOL    HW120384   5.566   4.636   1.916
 6495SOL    HW220385   5.487   4.708   2.040
 6496SOL     OW20386   0.288   6.201   3.251
 6496SOL    HW120387   0.272   6.220   3.154
 6496SOL    HW220388   0.235   6.120   3.278
 6497SOL     OW20389   0.791   6.891   1.098
 6497SOL    HW120390   0.746   6.979   1.115
 6497SOL    HW220391   0.722   6.821   1.081
 6498SOL     OW20392   1.408   3.620   4.356
 6498SOL    HW120393   1.376   3.714   4.368
 6498SOL    HW220394   1.476   3.599   4.427
 6499SOL     OW20395   6.349   1.422   3.264
 6499SOL    HW120396   6.337   1.384   3.172
 6499SOL    HW220397   6.327   1.352   3.331
 6500SOL     OW20398   5.961   4.928   2.347
 6500SOL    HW120399   5.975   4.838   2.307
 6500SOL    HW220400   5.973   4.923   2.446
 6501SOL     OW20401   6.875   3.943   0.644
 6501SOL    HW120402   6.783   3.983   0.651
 6501SOL    HW220403   6.919   3.977   0.561
 6502SOL     OW20404   0.928   5.006   1.280
 6502SOL    HW120405   1.026   5.003   1.296
 6502SOL    HW220406   0.879   4.999   1.367
 6503SOL     OW20407   4.435   0.656   4.037
 6503SOL    HW120408   4.522   0.612   4.059
 6503SOL    HW220409   4.447   0.755   4.036
 6504SOL     OW20410   2.302   1.705   0.844
 6504SOL    HW120411   2.277   1.757   0.762
 6504SOL    HW220412   2.302   1.608   0.823
 6505SOL     OW20413   5.784   5.172   0.481
 6505SOL    HW120414   5.865   5.119   0.457
 6505SOL    HW220415   5.788   5.197   0.577
 6506SOL     OW20416   2.330   1.110   1.407
 6506SOL    HW120417   2.359   1.025   1.362
 6506SOL    HW220418   2.371   1.188   1.360
 6507SOL     OW20419   2.871   0.848   1.761
 6507SOL    HW120420   2.943   0.900   1.807
 6507SOL    HW220421   2.881   0.859   1.662
 6508SOL     OW20422   1.880   2.415   1.867
 6508SOL    HW120423   1.939   2.338   1.892
 6508SOL    HW220424   1.916   2.458   1.784
 6509SOL     OW20425   1.084   2.944   4.054
 6509SOL    HW120426   1.158   2.907   4.111
 6509SOL    HW220427   1.118   2.957   3.961
 6510SOL     OW20428   6.049   4.597   6.480
 6510SOL    HW120429   5.955   4.630   6.470
 6510SOL    HW220430   6.091   4.641   6.559
 6511SOL     OW20431   0.306   6.838   6.017
 6511SOL    HW120432   0.263   6.769   5.958
 6511SOL    HW220433   0.255   6.924   6.010
 6512SOL     OW20434   5.236   5.715   3.790
 6512SOL    HW120435   5.333   5.734   3.804
 6512SOL    HW220436   5.188   5.717   3.878
 6513SOL     OW20437   1.115   6.688   3.160
 6513SOL    HW120438   1.078   6.769   3.113
 6513SOL    HW220439   1.209   6.706   3.189
 6514SOL     OW20440   2.805   0.660   3.343
 6514SOL    HW120441   2.760   0.727   3.402
 6514SOL    HW220442   2.881   0.704   3.295
 6515SOL     OW20443   0.711   0.716   3.459
 6515SOL    HW120444   0.612   0.734   3.456
 6515SOL    HW220445   0.728   0.619   3.445
 6516SOL     OW20446   1.362   0.779   5.459
 6516SOL    HW120447   1.351   0.682   5.437
 6516SOL    HW220448   1.271   0.821   5.469
 6517SOL     OW20449   2.707   2.117   1.078
 6517SOL    HW120450   2.714   2.151   0.985
 6517SOL    HW220451   2.680   2.020   1.077
 6518SOL     OW20452   5.706   6.313   0.611
 6518SOL    HW120453   5.744   6.279   0.697
 6518SOL    HW220454   5.623   6.366   0.630
 6519SOL     OW20455   0.831   2.077   4.022
 6519SOL    HW120456   0.914   2.047   3.975
 6519SOL    HW220457   0.752   2.066   3.961
 6520SOL     OW20458   5.852   5.143   1.262
 6520SOL    HW120459   5.804   5.214   1.210
 6520SOL    HW220460   5.796   5.115   1.340
 6521SOL     OW20461   1.341   2.249   5.720
 6521SOL    HW120462   1.406   2.175   5.739
 6521SOL    HW220463   1.291   2.272   5.804
 6522SOL     OW20464   2.316   4.848   4.418
 6522SOL    HW120465   2.270   4.826   4.333
 6522SOL    HW220466   2.320   4.947   4.429
 6523SOL     OW20467   1.815   2.230   0.705
 6523SOL    HW120468   1.799   2.141   0.661
 6523SOL    HW220469   1.727   2.273   0.725
 6524SOL     OW20470   4.068   2.379   5.360
 6524SOL    HW120471   4.041   2.470   5.390
 6524SOL    HW220472   4.035   2.311   5.426
 6525SOL     OW20473   0.461   2.689   4.192
 6525SOL    HW120474   0.364   2.710   4.197
 6525SOL    HW220475   0.495   2.663   4.282
 6526SOL     OW20476   1.485   5.759   3.734
 6526SOL    HW120477   1.474   5.777   3.636
 6526SOL    HW220478   1.558   5.692   3.748
 6527SOL     OW20479   2.406   1.446   4.262
 6527SOL    HW120480   2.420   1.380   4.336
 6527SOL    HW220481   2.334   1.511   4.288
 6528SOL     OW20482   0.596   0.284   3.265
 6528SOL    HW120483   0.651   0.215   3.219
 6528SOL    HW220484   0.544   0.337   3.198
 6529SOL     OW20485   6.478   2.858   2.374
 6529SOL    HW120486   6.546   2.930   2.368
 6529SOL    HW220487   6.519   2.770   2.349
 6530SOL     OW20488   0.203   1.788   0.211
 6530SOL    HW120489   0.248   1.754   0.294
 6530SOL    HW220490   0.140   1.719   0.177
 6531SOL     OW20491   5.003   2.366   5.658
 6531SOL    HW120492   5.063   2.286   5.658
 6531SOL    HW220493   4.917   2.343   5.613
 6532SOL     OW20494   1.230   1.913   0.069
 6532SOL    HW120495   1.166   1.938   0.141
 6532SOL    HW220496   1.323   1.933   0.099
 6533SOL     OW20497   4.701   7.013   1.035
 6533SOL    HW120498   4.708   0.053   1.111
 6533SOL    HW220499   4.785   7.017   0.981
 6534SOL     OW20500   3.125   2.764   6.693
 6534SOL    HW120501   3.221   2.783   6.669
 6534SOL    HW220502   3.099   2.818   6.773
 6535SOL     OW20503   2.330   3.494   5.306
 6535SOL    HW120504   2.323   3.396   5.327
 6535SOL    HW220505   2.277   3.514   5.224
 6536SOL     OW20506   0.354   1.942   6.782
 6536SOL    HW120507   0.347   1.847   6.753
 6536SOL    HW220508   0.421   1.990   6.725
 6537SOL     OW20509   1.007   0.718   6.590
 6537SOL    HW120510   0.921   0.677   6.618
 6537SOL    HW220511   1.004   0.741   6.493
 6538SOL     OW20512   2.519   2.650   5.782
 6538SOL    HW120513   2.579   2.688   5.712
 6538SOL    HW220514   2.465   2.576   5.743
 6539SOL     OW20515   3.659   1.684   6.916
 6539SOL    HW120516   3.581   1.636   6.877
 6539SOL    HW220517   3.644   1.783   6.911
 6540SOL     OW20518   3.749   2.124   3.463
 6540SOL    HW120519   3.727   2.129   3.560
 6540SOL    HW220520   3.820   2.192   3.441
 6541SOL     OW20521   2.500   2.539   5.314
 6541SOL    HW120522   2.569   2.498   5.254
 6541SOL    HW220523   2.421   2.478   5.321
 6542SOL     OW20524   5.386   4.496   2.475
 6542SOL    HW120525   5.485   4.494   2.487
 6542SOL    HW220526   5.363   4.548   2.393
 6543SOL     OW20527   1.152   6.312   5.950
 6543SOL    HW120528   1.173   6.225   5.995
 6543SOL    HW220529   1.072   6.353   5.993
 6544SOL     OW20530   0.048   5.922   2.629
 6544SOL    HW120531   0.083   5.917   2.535
 6544SOL    HW220532   0.051   6.017   2.661
 6545SOL     OW20533   5.992   2.939   6.847
 6545SOL    HW120534   6.004   3.015   6.783
 6545SOL    HW220535   5.918   2.880   6.817
 6546SOL     OW20536   3.371   4.481   5.995
 6546SOL    HW120537   3.324   4.393   6.009
 6546SOL    HW220538   3.327   4.530   5.920
 6547SOL     OW20539   4.903   0.884   6.418
 6547SOL    HW120540   4.993   0.841   6.408
 6547SOL    HW220541   4.863   0.899   6.327
 6548SOL     OW20542   5.113   3.822   5.755
 6548SOL    HW120543   5.173   3.903   5.760
 6548SOL    HW220544   5.169   3.739   5.753
 6549SOL     OW20545   2.601   2.270   2.569
 6549SOL    HW120546   2.688   2.276   2.618
 6549SOL    HW220547   2.578   2.174   2.554
 6550SOL     OW20548   1.129   5.541   2.532
 6550SOL    HW120549   1.056   5.545   2.601
 6550SOL    HW220550   1.158   5.633   2.508
 6551SOL     OW20551   3.455   5.317   2.012
 6551SOL    HW120552   3.518   5.311   1.935
 6551SOL    HW220553   3.378   5.256   1.997
 6552SOL     OW20554   4.548   4.540   5.862
 6552SOL    HW120555   4.595   4.609   5.919
 6552SOL    HW220556   4.563   4.449   5.902
 6553SOL     OW20557   0.033   3.349   3.136
 6553SOL    HW120558   0.075   3.260   3.118
 6553SOL    HW220559   0.046   3.409   3.058
 6554SOL     OW20560   0.197   3.949   4.740
 6554SOL    HW120561   0.155   3.860   4.720
 6554SOL    HW220562   0.296   3.938   4.746
 6555SOL     OW20563   0.836   1.607   1.405
 6555SOL    HW120564   0.843   1.509   1.386
 6555SOL    HW220565   0.893   1.630   1.483
 6556SOL     OW20566   3.892   0.184   3.527
 6556SOL    HW120567   3.845   0.176   3.615
 6556SOL    HW220568   3.983   0.144   3.533
 6557SOL     OW20569   5.407   5.667   0.829
 6557SOL    HW120570   5.413   5.767   0.823
 6557SOL    HW220571   5.371   5.631   0.743
 6558SOL     OW20572   6.997   6.516   5.630
 6558SOL    HW120573   0.015   6.476   5.548
 6558SOL    HW220574   6.955   6.444   5.685
 6559SOL     OW20575   2.960   3.605   1.265
 6559SOL    HW120576   3.057   3.630   1.274
 6559SOL    HW220577   2.952   3.506   1.253
 6560SOL     OW20578   4.297   1.976   1.139
 6560SOL    HW120579   4.198   1.968   1.130
 6560SOL    HW220580   4.333   2.027   1.061
 6561SOL     OW20581   3.872   3.957   4.538
 6561SOL    HW120582   3.920   3.933   4.622
 6561SOL    HW220583   3.929   3.932   4.459
 6562SOL     OW20584   0.212   4.661   4.996
 6562SOL    HW120585   0.148   4.587   4.977
 6562SOL    HW220586   0.242   4.655   5.091
 6563SOL     OW20587   0.448   5.362   2.457
 6563SOL    HW120588   0.545   5.388   2.469
 6563SOL    HW220589   0.407   5.420   2.386
 6564SOL     OW20590   1.379   4.792   3.230
 6564SOL    HW120591   1.340   4.873   3.273
 6564SOL    HW220592   1.316   4.758   3.160
 6565SOL     OW20593   6.690   3.494   4.931
 6565SOL    HW120594   6.745   3.462   4.855
 6565SOL    HW220595   6.742   3.560   4.985
 6566SOL     OW20596   4.052   1.126   0.677
 6566SOL    HW120597   4.109   1.119   0.595
 6566SOL    HW220598   4.095   1.189   0.742
 6567SOL     OW20599   6.608   2.505   0.742
 6567SOL    HW120600   6.543   2.546   0.678
 6567SOL    HW220601   6.701   2.535   0.719
 6568SOL     OW20602   4.952   3.486   1.302
 6568SOL    HW120603   5.000   3.439   1.228
 6568SOL    HW220604   5.019   3.529   1.362
 6569SOL     OW20605   1.402   4.352   5.504
 6569SOL    HW120606   1.436   4.301   5.425
 6569SOL    HW220607   1.418   4.299   5.587
 6570SOL     OW20608   6.759   3.802   1.869
 6570SOL    HW120609   6.664   3.827   1.890
 6570SOL    HW220610   6.804   3.878   1.823
 6571SOL     OW20611   1.823   6.130   3.982
 6571SOL    HW120612   1.899   6.120   3.918
 6571SOL    HW220613   1.811   6.045   4.033
 6572SOL     OW20614   2.067   3.776   5.649
 6572SOL    HW120615   2.143   3.723   5.686
 6572SOL    HW220616   1.985   3.720   5.646
 6573SOL     OW20617   1.731   1.810   1.716
 6573SOL    HW120618   1.719   1.843   1.622
 6573SOL    HW220619   1.662   1.851   1.775
 6574SOL     OW20620   2.356   4.384   4.460
 6574SOL    HW120621   2.439   4.340   4.495
 6574SOL    HW220622   2.379   4.474   4.423
 6575SOL     OW20623   1.686   1.983   2.599
 6575SOL    HW120624   1.778   2.017   2.577
 6575SOL    HW220625   1.691   1.884   2.612
 6576SOL     OW20626   0.169   6.557   3.699
 6576SOL    HW120627   0.078   6.538   3.737
 6576SOL    HW220628   0.193   6.485   3.634
 6577SOL     OW20629   0.187   3.910   5.578
 6577SOL    HW120630   0.266   3.952   5.623
 6577SOL    HW220631   0.133   3.982   5.533
 6578SOL     OW20632   6.256   5.845   3.727
 6578SOL    HW120633   6.212   5.755   3.735
 6578SOL    HW220634   6.268   5.867   3.630
 6579SOL     OW20635   0.192   3.847   3.891
 6579SOL    HW120636   0.187   3.897   3.978
 6579SOL    HW220637   0.108   3.864   3.839
 6580SOL     OW20638   5.432   2.592   0.357
 6580SOL    HW120639   5.462   2.687   0.372
 6580SOL    HW220640   5.402   2.582   0.262
 6581SOL     OW20641   2.536   2.224   5.486
 6581SOL    HW120642   2.631   2.199   5.506
 6581SOL    HW220643   2.513   2.308   5.535
 6582SOL     OW20644   6.661   0.450   2.447
 6582SOL    HW120645   6.654   0.515   2.523
 6582SOL    HW220646   6.613   0.366   2.471
 6583SOL     OW20647   6.877   1.149   6.153
 6583SOL    HW120648   6.795   1.093   6.151
 6583SOL    HW220649   6.930   1.130   6.236
 6584SOL     OW20650   5.851   2.644   0.476
 6584SOL    HW120651   5.825   2.633   0.572
 6584SOL    HW220652   5.890   2.735   0.462
 6585SOL     OW20653   2.739   0.699   2.180
 6585SOL    HW120654   2.798   0.679   2.101
 6585SOL    HW220655   2.795   0.729   2.257
 6586SOL     OW20656   6.060   1.776   6.946
 6586SOL    HW120657   6.144   1.766   6.893
 6586SOL    HW220658   6.081   1.820   0.010
 6587SOL     OW20659   1.731   5.880   1.843
 6587SOL    HW120660   1.825   5.892   1.809
 6587SOL    HW220661   1.727   5.799   1.900
 6588SOL     OW20662   3.115   2.508   0.199
 6588SOL    HW120663   3.184   2.454   0.153
 6588SOL    HW220664   3.099   2.593   0.148
 6589SOL     OW20665   4.832   1.776   6.022
 6589SOL    HW120666   4.920   1.800   6.063
 6589SOL    HW220667   4.843   1.696   5.962
 6590SOL     OW20668   6.243   1.881   5.497
 6590SOL    HW120669   6.161   1.912   5.450
 6590SOL    HW220670   6.309   1.848   5.429
 6591SOL     OW20671   4.892   0.267   2.804
 6591SOL    HW120672   4.909   0.353   2.852
 6591SOL    HW220673   4.949   0.263   2.722
 6592SOL     OW20674   6.381   5.168   5.483
 6592SOL    HW120675   6.334   5.205   5.563
 6592SOL    HW220676   6.380   5.068   5.487
 6593SOL     OW20677   5.075   0.928   2.744
 6593SOL    HW120678   5.046   0.931   2.840
 6593SOL    HW220679   5.169   0.962   2.737
 6594SOL     OW20680   5.241   1.039   6.969
 6594SOL    HW120681   5.191   1.072   6.889
 6594SOL    HW220682   5.181   1.041   0.025
 6595SOL     OW20683   3.280   2.450   6.416
 6595SOL    HW120684   3.207   2.404   6.366
 6595SOL    HW220685   3.257   2.452   6.513
 6596SOL     OW20686   2.856   6.561   4.806
 6596SOL    HW120687   2.899   6.610   4.883
 6596SOL    HW220688   2.845   6.465   4.830
 6597SOL     OW20689   0.160   4.122   6.598
 6597SOL    HW120690   0.112   4.182   6.662
 6597SOL    HW220691   0.123   4.136   6.506
 6598SOL     OW20692   2.803   6.001   4.545
 6598SOL    HW120693   2.751   6.038   4.622
 6598SOL    HW220694   2.858   6.074   4.504
 6599SOL     OW20695   4.490   3.545   6.363
 6599SOL    HW120696   4.408   3.489   6.373
 6599SOL    HW220697   4.533   3.526   6.275
 6600SOL     OW20698   3.945   5.010   5.056
 6600SOL    HW120699   3.995   5.091   5.027
 6600SOL    HW220700   3.871   5.036   5.118
 6601SOL     OW20701   0.673   1.005   2.041
 6601SOL    HW120702   0.675   1.101   2.013
 6601SOL    HW220703   0.742   0.954   1.991
 6602SOL     OW20704   6.591   1.582   1.110
 6602SOL    HW120705   6.545   1.610   1.194
 6602SOL    HW220706   6.639   1.495   1.126
 6603SOL     OW20707   2.707   1.622   1.520
 6603SOL    HW120708   2.638   1.598   1.451
 6603SOL    HW220709   2.696   1.717   1.547
 6604SOL     OW20710   3.990   6.013   4.608
 6604SOL    HW120711   3.930   6.074   4.661
 6604SOL    HW220712   3.945   5.924   4.597
 6605SOL     OW20713   5.064   6.585   0.109
 6605SOL    HW120714   5.130   6.608   0.037
 6605SOL    HW220715   5.106   6.523   0.175
 6606SOL     OW20716   0.683   2.320   2.995
 6606SOL    HW120717   0.757   2.381   2.966
 6606SOL    HW220718   0.598   2.371   3.001
 6607SOL     OW20719   1.204   3.389   2.588
 6607SOL    HW120720   1.221   3.486   2.568
 6607SOL    HW220721   1.137   3.353   2.523
 6608SOL     OW20722   4.986   4.525   4.893
 6608SOL    HW120723   4.916   4.501   4.826
 6608SOL    HW220724   4.958   4.606   4.944
 6609SOL     OW20725   5.291   2.099   6.703
 6609SOL    HW120726   5.267   2.174   6.764
 6609SOL    HW220727   5.210   2.046   6.681
 6610SOL     OW20728   3.725   1.346   0.742
 6610SOL    HW120729   3.654   1.404   0.783
 6610SOL    HW220730   3.771   1.396   0.669
 6611SOL     OW20731   5.307   3.789   2.820
 6611SOL    HW120732   5.211   3.797   2.847
 6611SOL    HW220733   5.362   3.766   2.900
 6612SOL     OW20734   0.803   6.321   6.653
 6612SOL    HW120735   0.769   6.259   6.725
 6612SOL    HW220736   0.898   6.299   6.633
 6613SOL     OW20737   5.960   5.012   0.920
 6613SOL    HW120738   5.959   4.975   1.013
 6613SOL    HW220739   5.875   4.987   0.873
 6614SOL     OW20740   6.297   4.696   5.908
 6614SOL    HW120741   6.235   4.621   5.929
 6614SOL    HW220742   6.264   4.746   5.828
 6615SOL     OW20743   0.047   3.284   5.086
 6615SOL    HW120744   0.111   3.259   5.159
 6615SOL    HW220745   0.079   3.368   5.042
 6616SOL     OW20746   4.899   1.283   4.127
 6616SOL    HW120747   4.953   1.256   4.207
 6616SOL    HW220748   4.863   1.202   4.082
 6617SOL     OW20749   4.224   0.151   4.779
 6617SOL    HW120750   4.324   0.149   4.786
 6617SOL    HW220751   4.193   0.246   4.771
 6618SOL     OW20752   6.963   4.668   1.043
 6618SOL    HW120753   6.894   4.608   1.082
 6618SOL    HW220754   0.012   4.684   1.110
 6619SOL     OW20755   0.014   6.129   1.706
 6619SOL    HW120756   0.080   6.117   1.780
 6619SOL    HW220757   6.945   6.123   1.742
 6620SOL     OW20758   4.572   2.972   5.325
 6620SOL    HW120759   4.525   3.058   5.308
 6620SOL    HW220760   4.610   2.938   5.239
 6621SOL     OW20761   2.976   2.757   0.106
 6621SOL    HW120762   2.919   2.803   0.038
 6621SOL    HW220763   3.027   2.825   0.158
 6622SOL     OW20764   6.139   5.497   0.551
 6622SOL    HW120765   6.088   5.519   0.634
 6622SOL    HW220766   6.178   5.405   0.559
 6623SOL     OW20767   3.881   3.963   2.656
 6623SOL    HW120768   3.886   4.026   2.578
 6623SOL    HW220769   3.906   3.871   2.627
 6624SOL     OW20770   4.618   5.043   4.528
 6624SOL    HW120771   4.527   5.045   4.570
 6624SOL    HW220772   4.618   5.100   4.446
 6625SOL     OW20773   5.923   6.682   0.004
 6625SOL    HW120774   5.916   6.688   6.928
 6625SOL    HW220775   6.005   6.630   0.029
 6626SOL     OW20776   2.708   4.884   3.790
 6626SOL    HW120777   2.636   4.849   3.850
 6626SOL    HW220778   2.679   4.876   3.695
 6627SOL     OW20779   1.627   0.489   1.723
 6627SOL    HW120780   1.706   0.548   1.709
 6627SOL    HW220781   1.654   0.394   1.709
 6628SOL     OW20782   3.943   6.176   3.906
 6628SOL    HW120783   3.941   6.086   3.862
 6628SOL    HW220784   3.909   6.245   3.843
 6629SOL     OW20785   3.126   3.886   0.268
 6629SOL    HW120786   3.143   3.981   0.245
 6629SOL    HW220787   3.100   3.836   0.185
 6630SOL     OW20788   3.879   1.008   6.412
 6630SOL    HW120789   3.950   1.073   6.386
 6630SOL    HW220790   3.868   1.008   6.511
 6631SOL     OW20791   4.151   0.027   1.332
 6631SOL    HW120792   4.171   0.107   1.387
 6631SOL    HW220793   4.231   0.003   1.278
 6632SOL     OW20794   6.051   3.341   2.367
 6632SOL    HW120795   6.001   3.319   2.283
 6632SOL    HW220796   6.078   3.437   2.365
 6633SOL     OW20797   0.523   6.192   2.453
 6633SOL    HW120798   0.436   6.163   2.414
 6633SOL    HW220799   0.569   6.114   2.494
 6634SOL     OW20800   6.647   2.327   6.040
 6634SOL    HW120801   6.635   2.397   6.110
 6634SOL    HW220802   6.624   2.238   6.078
 6635SOL     OW20803   4.379   5.112   3.413
 6635SOL    HW120804   4.443   5.187   3.395
 6635SOL    HW220805   4.315   5.140   3.484
 6636SOL     OW20806   1.775   3.544   3.305
 6636SOL    HW120807   1.723   3.488   3.370
 6636SOL    HW220808   1.871   3.550   3.334
 6637SOL     OW20809   6.556   2.943   1.576
 6637SOL    HW120810   6.457   2.937   1.589
 6637SOL    HW220811   6.582   3.039   1.565
 6638SOL     OW20812   1.965   0.940   6.635
 6638SOL    HW120813   1.925   1.031   6.637
 6638SOL    HW220814   1.893   0.872   6.648
 6639SOL     OW20815   3.979   5.303   5.953
 6639SOL    HW120816   4.015   5.242   6.023
 6639SOL    HW220817   3.971   5.253   5.867
 6640SOL     OW20818   5.715   3.772   2.923
 6640SOL    HW120819   5.723   3.789   2.825
 6640SOL    HW220820   5.630   3.721   2.941
 6641SOL     OW20821   2.188   5.163   6.906
 6641SOL    HW120822   2.232   5.245   6.942
 6641SOL    HW220823   2.145   5.113   6.981
 6642SOL     OW20824   6.736   5.874   5.788
 6642SOL    HW120825   6.792   5.842   5.864
 6642SOL    HW220826   6.647   5.904   5.821
 6643SOL     OW20827   3.956   5.385   0.167
 6643SOL    HW120828   3.989   5.296   0.135
 6643SOL    HW220829   3.910   5.374   0.255
 6644SOL     OW20830   0.605   3.691   1.830
 6644SOL    HW120831   0.641   3.771   1.782
 6644SOL    HW220832   0.673   3.657   1.894
 6645SOL     OW20833   6.988   4.757   5.657
 6645SOL    HW120834   6.931   4.682   5.623
 6645SOL    HW220835   0.018   4.795   5.581
 6646SOL     OW20836   1.719   5.440   3.511
 6646SOL    HW120837   1.777   5.520   3.525
 6646SOL    HW220838   1.708   5.424   3.413
 6647SOL     OW20839   4.281   1.916   1.890
 6647SOL    HW120840   4.314   1.887   1.980
 6647SOL    HW220841   4.205   1.857   1.862
 6648SOL     OW20842   4.174   5.549   2.042
 6648SOL    HW120843   4.168   5.590   1.951
 6648SOL    HW220844   4.217   5.459   2.036
 6649SOL     OW20845   4.549   1.222   6.286
 6649SOL    HW120846   4.567   1.169   6.369
 6649SOL    HW220847   4.586   1.173   6.207
 6650SOL     OW20848   3.189   1.342   3.668
 6650SOL    HW120849   3.254   1.347   3.744
 6650SOL    HW220850   3.201   1.255   3.619
 6651SOL     OW20851   0.560   1.783   0.601
 6651SOL    HW120852   0.484   1.745   0.548
 6651SOL    HW220853   0.612   1.709   0.643
 6652SOL     OW20854   0.854   5.137   2.972
 6652SOL    HW120855   0.888   5.169   3.060
 6652SOL    HW220856   0.761   5.171   2.958
 6653SOL     OW20857   3.747   3.717   3.217
 6653SOL    HW120858   3.684   3.736   3.292
 6653SOL    HW220859   3.794   3.801   3.190
 6654SOL     OW20860   1.496   3.881   1.420
 6654SOL    HW120861   1.592   3.891   1.395
 6654SOL    HW220862   1.454   3.971   1.427
 6655SOL     OW20863   1.524   0.574   6.827
 6655SOL    HW120864   1.448   0.613   6.879
 6655SOL    HW220865   1.607   0.626   6.844
 6656SOL     OW20866   6.570   2.396   1.996
 6656SOL    HW120867   6.659   2.441   2.009
 6656SOL    HW220868   6.506   2.430   2.065
 6657SOL     OW20869   3.024   5.310   5.380
 6657SOL    HW120870   2.948   5.258   5.418
 6657SOL    HW220871   3.041   5.281   5.286
 6658SOL     OW20872   6.924   6.906   5.864
 6658SOL    HW120873   6.941   6.809   5.848
 6658SOL    HW220874   6.837   6.918   5.912
 6659SOL     OW20875   1.914   2.812   6.622
 6659SOL    HW120876   1.898   2.717   6.649
 6659SOL    HW220877   1.831   2.866   6.638
 6660SOL     OW20878   0.641   6.372   2.809
 6660SOL    HW120879   0.628   6.384   2.711
 6660SOL    HW220880   0.737   6.387   2.832
 6661SOL     OW20881   6.817   6.758   3.937
 6661SOL    HW120882   6.876   6.800   4.006
 6661SOL    HW220883   6.781   6.829   3.876
 6662SOL     OW20884   0.994   3.908   5.744
 6662SOL    HW120885   0.904   3.934   5.779
 6662SOL    HW220886   1.064   3.955   5.798
 6663SOL     OW20887   0.546   5.022   2.097
 6663SOL    HW120888   0.558   5.006   1.999
 6663SOL    HW220889   0.457   5.063   2.114
 6664SOL     OW20890   0.017   2.201   2.042
 6664SOL    HW120891   0.107   2.183   2.082
 6664SOL    HW220892   6.985   2.253   2.107
 6665SOL     OW20893   2.079   6.734   2.796
 6665SOL    HW120894   2.045   6.743   2.889
 6665SOL    HW220895   2.173   6.701   2.797
 6666SOL     OW20896   5.182   1.221   0.377
 6666SOL    HW120897   5.256   1.232   0.444
 6666SOL    HW220898   5.180   1.299   0.316
 6667SOL     OW20899   5.967   4.856   5.167
 6667SOL    HW120900   5.943   4.759   5.156
 6667SOL    HW220901   5.889   4.912   5.139
 6668SOL     OW20902   6.529   6.159   1.052
 6668SOL    HW120903   6.563   6.139   0.960
 6668SOL    HW220904   6.435   6.193   1.046
 6669SOL     OW20905   0.955   4.854   2.785
 6669SOL    HW120906   0.974   4.869   2.882
 6669SOL    HW220907   0.877   4.910   2.757
 6670SOL     OW20908   4.702   4.437   6.963
 6670SOL    HW120909   4.615   4.413   7.005
 6670SOL    HW220910   4.702   4.534   6.939
 6671SOL     OW20911   0.725   2.582   5.339
 6671SOL    HW120912   0.696   2.674   5.363
 6671SOL    HW220913   0.671   2.550   5.260
 6672SOL     OW20914   6.912   0.874   5.250
 6672SOL    HW120915   6.955   0.846   5.164
 6672SOL    HW220916   6.968   0.944   5.294
 6673SOL     OW20917   4.369   5.935   1.536
 6673SOL    HW120918   4.468   5.943   1.524
 6673SOL    HW220919   4.331   6.025   1.559
 6674SOL     OW20920   0.642   6.306   5.376
 6674SOL    HW120921   0.643   6.354   5.289
 6674SOL    HW220922   0.582   6.226   5.370
 6675SOL     OW20923   6.580   6.152   6.811
 6675SOL    HW120924   6.509   6.176   6.745
 6675SOL    HW220925   6.619   6.235   6.850
 6676SOL     OW20926   0.060   1.829   0.504
 6676SOL    HW120927   0.128   1.881   0.555
 6676SOL    HW220928   0.100   1.745   0.469
 6677SOL     OW20929   0.384   4.705   0.566
 6677SOL    HW120930   0.483   4.710   0.574
 6677SOL    HW220931   0.344   4.790   0.601
 6678SOL     OW20932   0.746   2.943   4.273
 6678SOL    HW120933   0.688   2.942   4.191
 6678SOL    HW220934   0.775   2.849   4.294
 6679SOL     OW20935   1.854   0.976   4.875
 6679SOL    HW120936   1.953   0.990   4.866
 6679SOL    HW220937   1.836   0.886   4.913
 6680SOL     OW20938   2.951   0.506   6.412
 6680SOL    HW120939   2.914   0.581   6.357
 6680SOL    HW220940   2.999   0.441   6.353
 6681SOL     OW20941   5.363   5.810   6.391
 6681SOL    HW120942   5.430   5.740   6.415
 6681SOL    HW220943   5.389   5.897   6.433
 6682SOL     OW20944   6.547   5.197   2.319
 6682SOL    HW120945   6.531   5.098   2.310
 6682SOL    HW220946   6.632   5.221   2.273
 6683SOL     OW20947   4.532   2.509   4.570
 6683SOL    HW120948   4.553   2.595   4.524
 6683SOL    HW220949   4.459   2.462   4.520
 6684SOL     OW20950   1.538   1.520   2.373
 6684SOL    HW120951   1.526   1.619   2.379
 6684SOL    HW220952   1.489   1.476   2.448
 6685SOL     OW20953   5.778   2.799   6.761
 6685SOL    HW120954   5.734   2.751   6.836
 6685SOL    HW220955   5.718   2.798   6.681
 6686SOL     OW20956   5.699   3.978   3.766
 6686SOL    HW120957   5.735   3.890   3.734
 6686SOL    HW220958   5.762   4.051   3.741
 6687SOL     OW20959   0.829   0.356   0.424
 6687SOL    HW120960   0.866   0.425   0.362
 6687SOL    HW220961   0.791   0.280   0.372
 6688SOL     OW20962   0.752   5.049   2.724
 6688SOL    HW120963   0.753   5.085   2.817
 6688SOL    HW220964   0.803   5.111   2.664
 6689SOL     OW20965   4.888   4.064   6.995
 6689SOL    HW120966   4.790   4.049   7.007
 6689SOL    HW220967   4.936   3.976   7.002
 6690SOL     OW20968   0.280   1.648   0.494
 6690SOL    HW120969   0.286   1.640   0.593
 6690SOL    HW220970   0.256   1.559   0.455
 6691SOL     OW20971   1.198   5.462   0.861
 6691SOL    HW120972   1.237   5.387   0.807
 6691SOL    HW220973   1.150   5.425   0.940
 6692SOL     OW20974   4.455   3.660   6.731
 6692SOL    HW120975   4.433   3.750   6.693
 6692SOL    HW220976   4.532   3.621   6.681
 6693SOL     OW20977   4.358   3.749   6.145
 6693SOL    HW120978   4.292   3.787   6.080
 6693SOL    HW220979   4.399   3.666   6.106
 6694SOL     OW20980   2.931   6.131   6.892
 6694SOL    HW120981   2.974   6.150   6.804
 6694SOL    HW220982   2.888   6.214   6.927
 6695SOL     OW20983   1.414   1.425   0.117
 6695SOL    HW120984   1.493   1.435   0.057
 6695SOL    HW220985   1.399   1.510   0.167
 6696SOL     OW20986   1.479   2.525   1.398
 6696SOL    HW120987   1.495   2.456   1.327
 6696SOL    HW220988   1.507   2.488   1.487
 6697SOL     OW20989   5.339   3.177   4.163
 6697SOL    HW120990   5.300   3.088   4.142
 6697SOL    HW220991   5.423   3.190   4.111
 6698SOL     OW20992   2.396   4.135   6.202
 6698SOL    HW120993   2.417   4.091   6.289
 6698SOL    HW220994   2.327   4.206   6.217
 6699SOL     OW20995   1.871   3.236   6.799
 6699SOL    HW120996   1.776   3.219   6.825
 6699SOL    HW220997   1.932   3.180   6.856
 6700SOL     OW20998   0.319   6.500   6.312
 6700SOL    HW120999   0.293   6.589   6.273
 6700SOL    HW221000   0.243   6.436   6.301
 6701SOL     OW21001   1.101   2.304   0.718
 6701SOL    HW121002   1.014   2.262   0.745
 6701SOL    HW221003   1.120   2.383   0.777
 6702SOL     OW21004   2.690   3.224   0.431
 6702SOL    HW121005   2.699   3.285   0.510
 6702SOL    HW221006   2.595   3.193   0.423
 6703SOL     OW21007   0.340   2.651   6.758
 6703SOL    HW121008   0.251   2.627   6.795
 6703SOL    HW221009   0.371   2.738   6.796
 6704SOL     OW21010   5.182   3.380   3.132
 6704SOL    HW121011   5.206   3.404   3.226
 6704SOL    HW221012   5.085   3.400   3.116
 6705SOL     OW21013   5.707   1.137   1.221
 6705SOL    HW121014   5.747   1.124   1.311
 6705SOL    HW221015   5.648   1.060   1.199
 6706SOL     OW21016   1.308   6.329   0.153
 6706SOL    HW121017   1.265   6.402   0.100
 6706SOL    HW221018   1.237   6.276   0.199
 6707SOL     OW21019   1.392   5.320   3.323
 6707SOL    HW121020   1.359   5.226   3.314
 6707SOL    HW221021   1.341   5.379   3.260
 6708SOL     OW21022   2.374   6.449   1.239
 6708SOL    HW121023   2.294   6.390   1.228
 6708SOL    HW221024   2.349   6.528   1.296
 6709SOL     OW21025   5.163   1.545   3.523
 6709SOL    HW121026   5.185   1.592   3.437
 6709SOL    HW221027   5.064   1.535   3.531
 6710SOL     OW21028   1.754   1.988   0.546
 6710SOL    HW121029   1.790   1.919   0.484
 6710SOL    HW221030   1.660   1.964   0.573
 6711SOL     OW21031   5.554   3.663   6.654
 6711SOL    HW121032   5.577   3.688   6.559
 6711SOL    HW221033   5.582   3.569   6.671
 6712SOL     OW21034   3.419   6.493   1.352
 6712SOL    HW121035   3.432   6.394   1.354
 6712SOL    HW221036   3.506   6.539   1.368
 6713SOL     OW21037   1.582   2.242   3.414
 6713SOL    HW121038   1.654   2.252   3.345
 6713SOL    HW221039   1.504   2.300   3.388
 6714SOL     OW21040   6.818   0.208   5.129
 6714SOL    HW121041   6.875   0.290   5.124
 6714SOL    HW221042   6.729   0.231   5.168
 6715SOL     OW21043   5.343   2.531   0.612
 6715SOL    HW121044   5.413   2.576   0.668
 6715SOL    HW221045   5.345   2.569   0.519
 6716SOL     OW21046   3.788   6.139   0.828
 6716SOL    HW121047   3.783   6.111   0.923
 6716SOL    HW221048   3.698   6.131   0.785
 6717SOL     OW21049   4.166   1.119   6.588
 6717SOL    HW121050   4.128   1.054   6.654
 6717SOL    HW221051   4.186   1.205   6.634
 6718SOL     OW21052   3.800   0.352   6.829
 6718SOL    HW121053   3.730   0.296   6.784
 6718SOL    HW221054   3.769   0.447   6.833
 6719SOL     OW21055   0.537   2.243   5.175
 6719SOL    HW121056   0.531   2.334   5.134
 6719SOL    HW221057   0.581   2.248   5.264
 6720SOL     OW21058   1.409   4.596   0.975
 6720SOL    HW121059   1.471   4.580   1.051
 6720SOL    HW221060   1.314   4.585   1.007
 6721SOL     OW21061   6.305   6.346   3.051
 6721SOL    HW121062   6.290   6.327   2.954
 6721SOL    HW221063   6.390   6.302   3.080
 6722SOL     OW21064   4.399   4.611   0.072
 6722SOL    HW121065   4.320   4.555   0.047
 6722SOL    HW221066   4.452   4.564   0.143
 6723SOL     OW21067   3.852   1.444   2.587
 6723SOL    HW121068   3.791   1.474   2.513
 6723SOL    HW221069   3.923   1.513   2.601
 6724SOL     OW21070   3.471   4.497   5.286
 6724SOL    HW121071   3.447   4.401   5.298
 6724SOL    HW221072   3.566   4.511   5.312
 6725SOL     OW21073   0.750   5.418   1.536
 6725SOL    HW121074   0.688   5.394   1.612
 6725SOL    HW221075   0.839   5.445   1.573
 6726SOL     OW21076   2.409   2.811   1.595
 6726SOL    HW121077   2.466   2.750   1.541
 6726SOL    HW221078   2.441   2.905   1.585
 6727SOL     OW21079   2.755   4.436   0.838
 6727SOL    HW121080   2.695   4.360   0.862
 6727SOL    HW221081   2.807   4.414   0.756
 6728SOL     OW21082   5.047   1.213   4.352
 6728SOL    HW121083   5.086   1.263   4.430
 6728SOL    HW221084   4.995   1.135   4.385
 6729SOL     OW21085   4.889   6.318   3.541
 6729SOL    HW121086   4.820   6.256   3.579
 6729SOL    HW221087   4.950   6.268   3.481
 6730SOL     OW21088   1.306   6.856   2.492
 6730SOL    HW121089   1.352   6.892   2.411
 6730SOL    HW221090   1.238   6.922   2.524
 6731SOL     OW21091   2.081   3.823   1.483
 6731SOL    HW121092   2.062   3.779   1.571
 6731SOL    HW221093   2.036   3.912   1.479
 6732SOL     OW21094   3.019   5.670   0.661
 6732SOL    HW121095   3.077   5.638   0.586
 6732SOL    HW221096   3.077   5.697   0.738
 6733SOL     OW21097   6.058   5.766   4.455
 6733SOL    HW121098   6.044   5.670   4.428
 6733SOL    HW221099   5.986   5.822   4.414
 6734SOL     OW21100   2.174   3.605   6.458
 6734SOL    HW121101   2.147   3.623   6.363
 6734SOL    HW221102   2.272   3.585   6.460
 6735SOL     OW21103   0.676   6.579   6.110
 6735SOL    HW121104   0.642   6.641   6.181
 6735SOL    HW221105   0.609   6.574   6.036
 6736SOL     OW21106   2.469   4.388   1.736
 6736SOL    HW121107   2.522   4.445   1.800
 6736SOL    HW221108   2.414   4.323   1.787
 6737SOL     OW21109   1.614   6.577   1.226
 6737SOL    HW121110   1.610   6.651   1.293
 6737SOL    HW221111   1.701   6.529   1.234
 6738SOL     OW21112   4.783   1.731   1.541
 6738SOL    HW121113   4.873   1.686   1.534
 6738SOL    HW221114   4.739   1.731   1.451
 6739SOL     OW21115   3.866   6.481   5.552
 6739SOL    HW121116   3.962   6.454   5.563
 6739SOL    HW221117   3.812   6.402   5.524
 6740SOL     OW21118   5.567   1.976   5.977
 6740SOL    HW121119   5.519   2.027   6.048
 6740SOL    HW221120   5.563   2.027   5.891
 6741SOL     OW21121   0.319   0.758   5.468
 6741SOL    HW121122   0.302   0.824   5.394
 6741SOL    HW221123   0.341   0.669   5.429
 6742SOL     OW21124   6.192   5.782   4.672
 6742SOL    HW121125   6.282   5.740   4.656
 6742SOL    HW221126   6.148   5.799   4.584
 6743SOL     OW21127   5.725   2.405   1.330
 6743SOL    HW121128   5.670   2.484   1.357
 6743SOL    HW221129   5.767   2.422   1.241
 6744SOL     OW21130   4.713   0.565   4.115
 6744SOL    HW121131   4.735   0.618   4.197
 6744SOL    HW221132   4.724   0.468   4.133
 6745SOL     OW21133   0.630   3.569   3.347
 6745SOL    HW121134   0.568   3.604   3.277
 6745SOL    HW221135   0.602   3.478   3.375
 6746SOL     OW21136   6.246   1.151   0.489
 6746SOL    HW121137   6.154   1.159   0.452
 6746SOL    HW221138   6.277   1.056   0.482
 6747SOL     OW21139   4.851   5.480   6.881
 6747SOL    HW121140   4.913   5.502   6.805
 6747SOL    HW221141   4.760   5.462   6.844
 6748SOL     OW21142   6.583   6.295   2.085
 6748SOL    HW121143   6.542   6.206   2.064
 6748SOL    HW221144   6.511   6.361   2.107
 6749SOL     OW21145   2.718   5.155   1.164
 6749SOL    HW121146   2.795   5.107   1.123
 6749SOL    HW221147   2.748   5.200   1.248
 6750SOL     OW21148   2.305   3.198   5.360
 6750SOL    HW121149   2.230   3.134   5.346
 6750SOL    HW221150   2.383   3.171   5.303
 6751SOL     OW21151   4.329   2.080   5.811
 6751SOL    HW121152   4.299   2.056   5.904
 6751SOL    HW221153   4.283   2.164   5.782
 6752SOL     OW21154   0.027   1.578   0.170
 6752SOL    HW121155   0.023   1.527   0.256
 6752SOL    HW221156   6.959   1.589   0.133
 6753SOL     OW21157   6.482   0.965   6.761
 6753SOL    HW121158   6.551   0.994   6.828
 6753SOL    HW221159   6.483   0.865   6.753
 6754SOL     OW21160   4.610   0.750   6.828
 6754SOL    HW121161   4.700   0.795   6.830
 6754SOL    HW221162   4.539   0.818   6.844
 6755SOL     OW21163   5.162   1.754   3.314
 6755SOL    HW121164   5.117   1.779   3.400
 6755SOL    HW221165   5.259   1.778   3.320
 6756SOL     OW21166   4.631   4.730   3.671
 6756SOL    HW121167   4.652   4.755   3.576
 6756SOL    HW221168   4.678   4.792   3.733
 6757SOL     OW21169   6.082   4.421   1.264
 6757SOL    HW121170   5.986   4.427   1.234
 6757SOL    HW221171   6.111   4.509   1.300
 6758SOL     OW21172   6.785   2.108   2.596
 6758SOL    HW121173   6.759   2.193   2.549
 6758SOL    HW221174   6.707   2.045   2.596
 6759SOL     OW21175   0.775   5.125   3.656
 6759SOL    HW121176   0.788   5.028   3.677
 6759SOL    HW221177   0.682   5.153   3.681
 6760SOL     OW21178   0.118   3.538   4.995
 6760SOL    HW121179   0.067   3.614   5.035
 6760SOL    HW221180   0.125   3.551   4.896
 6761SOL     OW21181   6.351   2.999   6.732
 6761SOL    HW121182   6.443   2.961   6.741
 6761SOL    HW221183   6.284   2.933   6.765
 6762SOL     OW21184   0.569   3.157   4.437
 6762SOL    HW121185   0.591   3.082   4.374
 6762SOL    HW221186   0.541   3.237   4.384
 6763SOL     OW21187   6.221   6.471   5.793
 6763SOL    HW121188   6.136   6.438   5.751
 6763SOL    HW221189   6.265   6.536   5.731
 6764SOL     OW21190   1.699   3.736   0.268
 6764SOL    HW121191   1.621   3.751   0.329
 6764SOL    HW221192   1.782   3.721   0.322
 6765SOL     OW21193   5.000   4.918   2.215
 6765SOL    HW121194   4.945   4.999   2.199
 6765SOL    HW221195   5.017   4.909   2.313
 6766SOL     OW21196   2.901   2.623   5.641
 6766SOL    HW121197   2.974   2.657   5.582
 6766SOL    HW221198   2.812   2.647   5.601
 6767SOL     OW21199   0.571   2.853   5.706
 6767SOL    HW121200   0.649   2.891   5.757
 6767SOL    HW221201   0.513   2.801   5.768
 6768SOL     OW21202   7.008   0.893   5.835
 6768SOL    HW121203   6.948   0.969   5.857
 6768SOL    HW221204   6.961   0.806   5.853
 6769SOL     OW21205   1.273   2.256   5.997
 6769SOL    HW121206   1.217   2.174   5.990
 6769SOL    HW221207   1.260   2.298   6.087
 6770SOL     OW21208   0.547   1.495   3.332
 6770SOL    HW121209   0.570   1.462   3.240
 6770SOL    HW221210   0.597   1.580   3.350
 6771SOL     OW21211   5.569   2.474   2.565
 6771SOL    HW121212   5.664   2.506   2.571
 6771SOL    HW221213   5.507   2.552   2.570
 6772SOL     OW21214   1.016   0.640   1.804
 6772SOL    HW121215   1.109   0.669   1.825
 6772SOL    HW221216   0.965   0.716   1.763
 6773SOL     OW21217   1.858   0.965   3.038
 6773SOL    HW121218   1.905   1.053   3.029
 6773SOL    HW221219   1.762   0.976   3.010
 6774SOL     OW21220   4.007   1.539   5.330
 6774SOL    HW121221   3.981   1.484   5.251
 6774SOL    HW221222   3.963   1.503   5.412
 6775SOL     OW21223   1.671   2.393   4.773
 6775SOL    HW121224   1.603   2.457   4.736
 6775SOL    HW221225   1.683   2.410   4.871
 6776SOL     OW21226   3.371   3.833   4.051
 6776SOL    HW121227   3.346   3.775   4.129
 6776SOL    HW221228   3.307   3.909   4.044
 6777SOL     OW21229   0.334   0.431   5.643
 6777SOL    HW121230   0.248   0.380   5.644
 6777SOL    HW221231   0.389   0.403   5.564
 6778SOL     OW21232   6.476   5.961   1.819
 6778SOL    HW121233   6.537   5.915   1.754
 6778SOL    HW221234   6.388   5.913   1.821
 6779SOL     OW21235   5.288   3.948   6.053
 6779SOL    HW121236   5.337   3.977   6.136
 6779SOL    HW221237   5.247   3.858   6.069
 6780SOL     OW21238   4.836   1.048   2.629
 6780SOL    HW121239   4.927   1.019   2.659
 6780SOL    HW221240   4.771   0.974   2.645
 6781SOL     OW21241   5.826   3.933   3.312
 6781SOL    HW121242   5.802   3.837   3.327
 6781SOL    HW221243   5.872   3.969   3.393
 6782SOL     OW21244   0.379   1.835   2.907
 6782SOL    HW121245   0.329   1.756   2.870
 6782SOL    HW221246   0.385   1.826   3.007
 6783SOL     OW21247   0.453   6.169   6.861
 6783SOL    HW121248   0.406   6.185   6.948
 6783SOL    HW221249   0.411   6.092   6.814
 6784SOL     OW21250   1.984   5.047   6.502
 6784SOL    HW121251   1.891   5.021   6.529
 6784SOL    HW221252   2.013   5.125   6.558
 6785SOL     OW21253   5.409   4.160   2.086
 6785SOL    HW121254   5.482   4.126   2.144
 6785SOL    HW221255   5.337   4.201   2.143
 6786SOL     OW21256   6.288   1.336   5.881
 6786SOL    HW121257   6.383   1.353   5.854
 6786SOL    HW221258   6.250   1.418   5.922
 6787SOL     OW21259   4.205   2.557   1.100
 6787SOL    HW121260   4.137   2.528   1.168
 6787SOL    HW221261   4.179   2.646   1.063
 6788SOL     OW21262   1.442   4.364   0.810
 6788SOL    HW121263   1.434   4.462   0.831
 6788SOL    HW221264   1.447   4.312   0.895
 6789SOL     OW21265   6.190   2.498   2.558
 6789SOL    HW121266   6.135   2.563   2.506
 6789SOL    HW221267   6.131   2.442   2.616
 6790SOL     OW21268   0.850   5.785   0.415
 6790SOL    HW121269   0.877   5.869   0.368
 6790SOL    HW221270   0.750   5.783   0.423
 6791SOL     OW21271   1.828   6.232   3.643
 6791SOL    HW121272   1.805   6.216   3.548
 6791SOL    HW221273   1.760   6.188   3.702
 6792SOL     OW21274   3.416   5.865   0.013
 6792SOL    HW121275   3.344   5.896   0.076
 6792SOL    HW221276   3.488   5.819   0.065
 6793SOL     OW21277   1.841   3.783   6.694
 6793SOL    HW121278   1.784   3.821   6.767
 6793SOL    HW221279   1.916   3.730   6.733
 6794SOL     OW21280   4.779   2.508   4.166
 6794SOL    HW121281   4.734   2.561   4.094
 6794SOL    HW221282   4.738   2.417   4.171
 6795SOL     OW21283   0.767   0.576   2.196
 6795SOL    HW121284   0.799   0.640   2.266
 6795SOL    HW221285   0.752   0.625   2.110
 6796SOL     OW21286   6.725   2.874   2.040
 6796SOL    HW121287   6.674   2.806   1.987
 6796SOL    HW221288   6.817   2.840   2.059
 6797SOL     OW21289   1.705   3.503   0.614
 6797SOL    HW121290   1.615   3.523   0.577
 6797SOL    HW221291   1.722   3.562   0.694
 6798SOL     OW21292   5.130   1.960   1.768
 6798SOL    HW121293   5.040   1.944   1.728
 6798SOL    HW221294   5.196   1.978   1.694
 6799SOL     OW21295   4.943   6.884   2.851
 6799SOL    HW121296   5.017   6.874   2.918
 6799SOL    HW221297   4.894   6.969   2.868
 6800SOL     OW21298   6.259   2.778   2.197
 6800SOL    HW121299   6.192   2.853   2.190
 6800SOL    HW221300   6.329   2.803   2.264
 6801SOL     OW21301   2.220   5.073   5.273
 6801SOL    HW121302   2.319   5.055   5.278
 6801SOL    HW221303   2.180   5.022   5.197
 6802SOL     OW21304   2.766   4.488   1.610
 6802SOL    HW121305   2.701   4.412   1.602
 6802SOL    HW221306   2.798   4.495   1.704
 6803SOL     OW21307   6.085   5.465   6.317
 6803SOL    HW121308   6.165   5.469   6.376
 6803SOL    HW221309   6.114   5.454   6.222
 6804SOL     OW21310   3.331   5.026   1.843
 6804SOL    HW121311   3.389   4.983   1.912
 6804SOL    HW221312   3.374   5.110   1.810
 6805SOL     OW21313   0.448   3.737   4.213
 6805SOL    HW121314   0.390   3.689   4.147
 6805SOL    HW221315   0.434   3.836   4.204
 6806SOL     OW21316   6.113   3.653   2.069
 6806SOL    HW121317   6.190   3.593   2.046
 6806SOL    HW221318   6.031   3.621   2.022
 6807SOL     OW21319   4.081   3.189   2.562
 6807SOL    HW121320   4.060   3.206   2.465
 6807SOL    HW221321   4.171   3.148   2.570
 6808SOL     OW21322   3.266   6.120   3.935
 6808SOL    HW121323   3.201   6.175   3.986
 6808SOL    HW221324   3.359   6.147   3.959
 6809SOL     OW21325   6.105   3.034   0.807
 6809SOL    HW121326   6.196   3.054   0.844
 6809SOL    HW221327   6.089   2.935   0.811
 6810SOL     OW21328   3.122   0.201   4.572
 6810SOL    HW121329   3.102   0.175   4.478
 6810SOL    HW221330   3.155   0.122   4.623
 6811SOL     OW21331   6.605   1.914   1.226
 6811SOL    HW121332   6.613   1.815   1.220
 6811SOL    HW221333   6.686   1.957   1.185
 6812SOL     OW21334   3.269   4.441   5.508
 6812SOL    HW121335   3.199   4.408   5.445
 6812SOL    HW221336   3.355   4.452   5.458
 6813SOL     OW21337   6.964   4.103   2.210
 6813SOL    HW121338   6.995   4.118   2.116
 6813SOL    HW221339   6.971   4.005   2.232
 6814SOL     OW21340   4.573   2.459   1.389
 6814SOL    HW121341   4.576   2.520   1.468
 6814SOL    HW221342   4.659   2.408   1.384
 6815SOL     OW21343   1.536   5.616   0.904
 6815SOL    HW121344   1.452   5.662   0.876
 6815SOL    HW221345   1.609   5.684   0.912
 6816SOL     OW21346   5.625   0.097   3.477
 6816SOL    HW121347   5.565   0.173   3.455
 6816SOL    HW221348   5.571   0.019   3.508
 6817SOL     OW21349   5.894   0.504   1.470
 6817SOL    HW121350   5.874   0.412   1.436
 6817SOL    HW221351   5.973   0.500   1.531
 6818SOL     OW21352   0.023   0.422   5.387
 6818SOL    HW121353   6.958   0.395   5.349
 6818SOL    HW221354   0.022   0.519   5.409
 6819SOL     OW21355   5.756   3.500   0.487
 6819SOL    HW121356   5.700   3.422   0.511
 6819SOL    HW221357   5.823   3.474   0.417
 6820SOL     OW21358   2.163   4.527   0.608
 6820SOL    HW121359   2.246   4.496   0.561
 6820SOL    HW221360   2.180   4.531   0.706
 6821SOL     OW21361   2.636   3.333   5.885
 6821SOL    HW121362   2.575   3.408   5.912
 6821SOL    HW221363   2.610   3.250   5.935
 6822SOL     OW21364   0.023   4.277   5.191
 6822SOL    HW121365   6.956   4.283   5.150
 6822SOL    HW221366   0.052   4.181   5.194
 6823SOL     OW21367   6.613   3.340   5.764
 6823SOL    HW121368   6.546   3.374   5.697
 6823SOL    HW221369   6.692   3.303   5.716
 6824SOL     OW21370   0.527   0.323   3.940
 6824SOL    HW121371   0.474   0.370   3.869
 6824SOL    HW221372   0.591   0.259   3.897
 6825SOL     OW21373   5.056   4.679   1.800
 6825SOL    HW121374   4.988   4.617   1.839
 6825SOL    HW221375   5.032   4.773   1.823
 6826SOL     OW21376   5.735   0.942   4.023
 6826SOL    HW121377   5.648   0.952   4.071
 6826SOL    HW221378   5.724   0.968   3.927
 6827SOL     OW21379   5.201   4.808   5.285
 6827SOL    HW121380   5.202   4.857   5.372
 6827SOL    HW221381   5.182   4.712   5.302
 6828SOL     OW21382   2.569   2.026   2.446
 6828SOL    HW121383   2.525   2.083   2.377
 6828SOL    HW221384   2.639   1.969   2.403
 6829SOL     OW21385   5.557   0.067   4.388
 6829SOL    HW121386   5.624   0.093   4.458
 6829SOL    HW221387   5.465   0.076   4.425
 6830SOL     OW21388   3.656   6.274   2.363
 6830SOL    HW121389   3.713   6.233   2.292
 6830SOL    HW221390   3.562   6.284   2.330
 6831SOL     OW21391   2.324   0.350   0.257
 6831SOL    HW121392   2.255   0.421   0.268
 6831SOL    HW221393   2.404   0.388   0.212
 6832SOL     OW21394   3.486   3.421   0.367
 6832SOL    HW121395   3.528   3.432   0.457
 6832SOL    HW221396   3.388   3.440   0.374
 6833SOL     OW21397   4.610   5.246   0.292
 6833SOL    HW121398   4.623   5.189   0.373
 6833SOL    HW221399   4.686   5.311   0.284
 6834SOL     OW21400   6.449   5.555   5.130
 6834SOL    HW121401   6.519   5.511   5.185
 6834SOL    HW221402   6.371   5.493   5.120
 6835SOL     OW21403   4.377   0.146   2.986
 6835SOL    HW121404   4.421   0.070   2.937
 6835SOL    HW221405   4.282   0.152   2.958
 6836SOL     OW21406   0.804   4.950   6.666
 6836SOL    HW121407   0.761   4.961   6.577
 6836SOL    HW221408   0.898   4.983   6.662
 6837SOL     OW21409   6.476   2.605   1.766
 6837SOL    HW121410   6.455   2.510   1.744
 6837SOL    HW221411   6.393   2.660   1.761
 6838SOL     OW21412   1.951   3.849   7.023
 6838SOL    HW121413   1.966   3.923   0.065
 6838SOL    HW221414   1.859   3.855   6.986
 6839SOL     OW21415   6.232   2.213   5.579
 6839SOL    HW121416   6.194   2.126   5.611
 6839SOL    HW221417   6.212   2.223   5.481
 6840SOL     OW21418   3.325   0.579   4.302
 6840SOL    HW121419   3.281   0.545   4.219
 6840SOL    HW221420   3.270   0.553   4.381
 6841SOL     OW21421   4.714   5.721   0.794
 6841SOL    HW121422   4.721   5.807   0.845
 6841SOL    HW221423   4.747   5.646   0.851
 6842SOL     OW21424   1.039   3.478   3.465
 6842SOL    HW121425   0.962   3.483   3.402
 6842SOL    HW221426   1.025   3.543   3.541
 6843SOL     OW21427   4.628   2.858   1.616
 6843SOL    HW121428   4.634   2.918   1.696
 6843SOL    HW221429   4.691   2.782   1.626
 6844SOL     OW21430   3.412   6.850   4.499
 6844SOL    HW121431   3.335   6.828   4.439
 6844SOL    HW221432   3.467   6.924   4.459
 6845SOL     OW21433   3.402   3.881   6.941
 6845SOL    HW121434   3.395   3.787   6.907
 6845SOL    HW221435   3.417   3.881   0.016
 6846SOL     OW21436   3.589   2.980   4.179
 6846SOL    HW121437   3.524   2.906   4.198
 6846SOL    HW221438   3.538   3.063   4.155
 6847SOL     OW21439   5.301   3.545   2.163
 6847SOL    HW121440   5.218   3.558   2.109
 6847SOL    HW221441   5.279   3.553   2.260
 6848SOL     OW21442   0.592   5.833   4.643
 6848SOL    HW121443   0.646   5.748   4.641
 6848SOL    HW221444   0.496   5.812   4.626
 6849SOL     OW21445   3.156   0.378   5.037
 6849SOL    HW121446   3.216   0.315   4.988
 6849SOL    HW221447   3.065   0.337   5.046
 6850SOL     OW21448   6.672   3.336   2.010
 6850SOL    HW121449   6.630   3.395   1.941
 6850SOL    HW221450   6.614   3.334   2.092
 6851SOL     OW21451   1.557   5.576   0.530
 6851SOL    HW121452   1.508   5.551   0.447
 6851SOL    HW221453   1.556   5.675   0.541
 6852SOL     OW21454   5.473   4.819   2.326
 6852SOL    HW121455   5.559   4.868   2.334
 6852SOL    HW221456   5.398   4.877   2.360
 6853SOL     OW21457   6.508   4.249   4.363
 6853SOL    HW121458   6.441   4.308   4.408
 6853SOL    HW221459   6.508   4.159   4.408
 6854SOL     OW21460   6.121   1.228   6.565
 6854SOL    HW121461   6.191   1.234   6.636
 6854SOL    HW221462   6.032   1.255   6.603
 6855SOL     OW21463   2.952   6.745   2.015
 6855SOL    HW121464   2.908   6.835   2.022
 6855SOL    HW221465   3.024   6.738   2.084
 6856SOL     OW21466   0.831   5.172   5.344
 6856SOL    HW121467   0.738   5.206   5.334
 6856SOL    HW221468   0.887   5.200   5.266
 6857SOL     OW21469   4.649   0.867   0.148
 6857SOL    HW121470   4.565   0.904   0.108
 6857SOL    HW221471   4.723   0.932   0.136
 6858SOL     OW21472   3.278   2.704   6.304
 6858SOL    HW121473   3.325   2.619   6.326
 6858SOL    HW221474   3.204   2.685   6.239
 6859SOL     OW21475   4.455   0.542   1.174
 6859SOL    HW121476   4.356   0.539   1.189
 6859SOL    HW221477   4.489   0.634   1.191
 6860SOL     OW21478   4.628   2.822   0.042
 6860SOL    HW121479   4.657   2.850   0.133
 6860SOL    HW221480   4.674   2.878   6.997
 6861SOL     OW21481   6.187   3.791   6.970
 6861SOL    HW121482   6.280   3.785   6.936
 6861SOL    HW221483   6.181   3.747   0.036
 6862SOL     OW21484   2.397   4.561   4.823
 6862SOL    HW121485   2.312   4.612   4.821
 6862SOL    HW221486   2.380   4.468   4.854
 6863SOL     OW21487   1.029   3.505   3.905
 6863SOL    HW121488   1.042   3.440   3.980
 6863SOL    HW221489   0.941   3.551   3.915
 6864SOL     OW21490   3.236   5.360   6.022
 6864SOL    HW121491   3.188   5.315   6.098
 6864SOL    HW221492   3.294   5.294   5.975
 6865SOL     OW21493   1.272   2.598   5.280
 6865SOL    HW121494   1.264   2.674   5.344
 6865SOL    HW221495   1.210   2.524   5.308
 6866SOL     OW21496   0.768   3.923   2.357
 6866SOL    HW121497   0.701   3.904   2.429
 6866SOL    HW221498   0.734   3.997   2.299
 6867SOL     OW21499   2.362   5.395   3.532
 6867SOL    HW121500   2.263   5.406   3.525
 6867SOL    HW221501   2.393   5.424   3.622
 6868SOL     OW21502   1.933   5.605   4.707
 6868SOL    HW121503   1.958   5.539   4.637
 6868SOL    HW221504   1.994   5.596   4.785
 6869SOL     OW21505   0.473   3.010   4.898
 6869SOL    HW121506   0.455   3.082   4.964
 6869SOL    HW221507   0.417   2.930   4.919
 6870SOL     OW21508   5.735   4.227   2.924
 6870SOL    HW121509   5.714   4.131   2.943
 6870SOL    HW221510   5.817   4.253   2.975
 6871SOL     OW21511   4.065   5.682   1.830
 6871SOL    HW121512   3.987   5.675   1.891
 6871SOL    HW221513   4.098   5.776   1.827
 6872SOL     OW21514   3.189   4.368   0.714
 6872SOL    HW121515   3.226   4.451   0.757
 6872SOL    HW221516   3.094   4.385   0.687
 6873SOL     OW21517   5.696   5.044   5.389
 6873SOL    HW121518   5.689   5.021   5.292
 6873SOL    HW221519   5.710   4.960   5.442
 6874SOL     OW21520   0.970   1.910   6.405
 6874SOL    HW121521   1.045   1.975   6.417
 6874SOL    HW221522   1.000   1.819   6.433
 6875SOL     OW21523   3.908   0.402   5.186
 6875SOL    HW121524   3.870   0.493   5.204
 6875SOL    HW221525   3.857   0.358   5.112
 6876SOL     OW21526   3.271   6.165   4.249
 6876SOL    HW121527   3.198   6.102   4.275
 6876SOL    HW221528   3.268   6.245   4.309
 6877SOL     OW21529   2.332   3.562   6.803
 6877SOL    HW121530   2.364   3.638   6.747
 6877SOL    HW221531   2.248   3.524   6.762
 6878SOL     OW21532   1.532   1.624   5.018
 6878SOL    HW121533   1.620   1.653   5.055
 6878SOL    HW221534   1.547   1.574   4.933
 6879SOL     OW21535   6.367   1.450   5.418
 6879SOL    HW121536   6.284   1.494   5.451
 6879SOL    HW221537   6.391   1.375   5.480
 6880SOL     OW21538   1.067   4.579   4.559
 6880SOL    HW121539   1.160   4.608   4.581
 6880SOL    HW221540   1.022   4.650   4.505
 6881SOL     OW21541   5.240   5.809   1.219
 6881SOL    HW121542   5.172   5.761   1.164
 6881SOL    HW221543   5.208   5.901   1.241
 6882SOL     OW21544   2.513   6.064   5.390
 6882SOL    HW121545   2.520   6.139   5.324
 6882SOL    HW221546   2.551   6.093   5.477
 6883SOL     OW21547   2.712   6.209   1.899
 6883SOL    HW121548   2.725   6.282   1.832
 6883SOL    HW221549   2.796   6.196   1.951
 6884SOL     OW21550   1.940   4.494   2.643
 6884SOL    HW121551   1.955   4.591   2.624
 6884SOL    HW221552   1.980   4.471   2.732
 6885SOL     OW21553   4.349   4.790   4.889
 6885SOL    HW121554   4.278   4.859   4.901
 6885SOL    HW221555   4.318   4.703   4.929
 6886SOL     OW21556   5.308   0.231   1.230
 6886SOL    HW121557   5.337   0.286   1.309
 6886SOL    HW221558   5.380   0.166   1.207
 6887SOL     OW21559   6.144   1.136   4.576
 6887SOL    HW121560   6.209   1.091   4.514
 6887SOL    HW221561   6.070   1.178   4.523
 6888SOL     OW21562   6.436   0.253   3.758
 6888SOL    HW121563   6.386   0.340   3.757
 6888SOL    HW221564   6.393   0.190   3.822
 6889SOL     OW21565   2.122   3.913   6.501
 6889SOL    HW121566   2.105   3.881   6.408
 6889SOL    HW221567   2.220   3.911   6.520
 6890SOL     OW21568   1.060   0.475   1.292
 6890SOL    HW121569   1.057   0.377   1.274
 6890SOL    HW221570   1.066   0.525   1.205
 6891SOL     OW21571   4.265   4.771   5.918
 6891SOL    HW121572   4.254   4.837   5.993
 6891SOL    HW221573   4.335   4.803   5.855
 6892SOL     OW21574   3.476   2.122   4.083
 6892SOL    HW121575   3.506   2.096   4.175
 6892SOL    HW221576   3.555   2.153   4.030
 6893SOL     OW21577   5.129   6.791   1.329
 6893SOL    HW121578   5.131   6.698   1.291
 6893SOL    HW221579   5.198   6.847   1.282
 6894SOL     OW21580   6.123   4.843   5.706
 6894SOL    HW121581   6.143   4.940   5.725
 6894SOL    HW221582   6.124   4.828   5.607
 6895SOL     OW21583   4.461   5.076   5.416
 6895SOL    HW121584   4.510   5.127   5.488
 6895SOL    HW221585   4.474   5.122   5.328
 6896SOL     OW21586   5.314   2.142   2.216
 6896SOL    HW121587   5.393   2.159   2.157
 6896SOL    HW221588   5.345   2.105   2.303
 6897SOL     OW21589   3.887   0.961   1.480
 6897SOL    HW121590   3.947   1.007   1.544
 6897SOL    HW221591   3.892   1.007   1.391
 6898SOL     OW21592   3.365   1.218   2.009
 6898SOL    HW121593   3.428   1.201   1.933
 6898SOL    HW221594   3.299   1.289   1.983
 6899SOL     OW21595   5.809   4.845   6.095
 6899SOL    HW121596   5.845   4.877   6.007
 6899SOL    HW221597   5.877   4.860   6.166
 6900SOL     OW21598   4.108   0.080   6.220
 6900SOL    HW121599   4.026   0.134   6.199
 6900SOL    HW221600   4.105   7.018   6.169
 6901SOL     OW21601   1.990   0.366   0.327
 6901SOL    HW121602   2.019   0.449   0.279
 6901SOL    HW221603   1.983   0.290   0.262
 6902SOL     OW21604   6.590   5.784   2.570
 6902SOL    HW121605   6.522   5.817   2.636
 6902SOL    HW221606   6.640   5.862   2.533
 6903SOL     OW21607   5.688   4.478   0.152
 6903SOL    HW121608   5.773   4.428   0.137
 6903SOL    HW221609   5.635   4.432   0.225
 6904SOL     OW21610   0.650   1.232   3.050
 6904SOL    HW121611   0.647   1.241   2.951
 6904SOL    HW221612   0.684   1.317   3.090
 6905SOL     OW21613   3.673   5.392   0.663
 6905SOL    HW121614   3.623   5.348   0.589
 6905SOL    HW221615   3.767   5.360   0.663
 6906SOL     OW21616   5.636   6.516   2.556
 6906SOL    HW121617   5.637   6.506   2.656
 6906SOL    HW221618   5.669   6.607   2.531
 6907SOL     OW21619   3.521   0.419   1.494
 6907SOL    HW121620   3.451   0.470   1.543
 6907SOL    HW221621   3.480   0.373   1.416
 6908SOL     OW21622   5.263   6.643   6.978
 6908SOL    HW121623   5.301   6.726   6.938
 6908SOL    HW221624   5.338   6.585   7.012
 6909SOL     OW21625   2.334   1.994   0.096
 6909SOL    HW121626   2.374   2.029   0.011
 6909SOL    HW221627   2.406   1.986   0.166
 6910SOL     OW21628   4.932   1.172   0.915
 6910SOL    HW121629   4.917   1.086   0.963
 6910SOL    HW221630   4.849   1.198   0.866
 6911SOL     OW21631   3.652   7.019   4.734
 6911SOL    HW121632   3.734   0.050   4.752
 6911SOL    HW221633   3.591   7.023   4.812
 6912SOL     OW21634   4.016   5.302   1.816
 6912SOL    HW121635   3.924   5.262   1.814
 6912SOL    HW221636   4.075   5.246   1.874
 6913SOL     OW21637   4.760   5.555   5.773
 6913SOL    HW121638   4.664   5.578   5.788
 6913SOL    HW221639   4.808   5.633   5.734
 6914SOL     OW21640   6.899   4.797   0.279
 6914SOL    HW121641   6.881   4.895   0.276
 6914SOL    HW221642   6.968   4.774   0.211
 6915SOL     OW21643   0.576   6.748   0.718
 6915SOL    HW121644   0.563   6.847   0.706
 6915SOL    HW221645   0.499   6.710   0.770
 6916SOL     OW21646   6.142   1.202   5.402
 6916SOL    HW121647   6.200   1.133   5.446
 6916SOL    HW221648   6.110   1.266   5.471
 6917SOL     OW21649   4.534   6.329   5.652
 6917SOL    HW121650   4.511   6.423   5.625
 6917SOL    HW221651   4.466   6.296   5.718
 6918SOL     OW21652   2.174   2.544   3.477
 6918SOL    HW121653   2.151   2.588   3.564
 6918SOL    HW221654   2.228   2.608   3.421
 6919SOL     OW21655   1.442   5.885   3.225
 6919SOL    HW121656   1.484   5.815   3.283
 6919SOL    HW221657   1.357   5.917   3.267
 6920SOL     OW21658   5.524   5.428   4.323
 6920SOL    HW121659   5.448   5.493   4.330
 6920SOL    HW221660   5.562   5.430   4.230
 6921SOL     OW21661   1.565   4.990   3.102
 6921SOL    HW121662   1.519   5.063   3.051
 6921SOL    HW221663   1.497   4.930   3.143
 6922SOL     OW21664   2.300   6.436   1.582
 6922SOL    HW121665   2.295   6.451   1.680
 6922SOL    HW221666   2.208   6.424   1.545
 6923SOL     OW21667   5.030   5.206   3.895
 6923SOL    HW121668   4.936   5.198   3.928
 6923SOL    HW221669   5.090   5.149   3.951
 6924SOL     OW21670   5.717   5.904   1.951
 6924SOL    HW121671   5.815   5.917   1.931
 6924SOL    HW221672   5.694   5.807   1.941
 6925SOL     OW21673   4.817   5.517   2.539
 6925SOL    HW121674   4.877   5.593   2.513
 6925SOL    HW221675   4.844   5.435   2.488
 6926SOL     OW21676   2.886   3.860   5.456
 6926SOL    HW121677   2.932   3.925   5.517
 6926SOL    HW221678   2.867   3.905   5.369
 6927SOL     OW21679   3.742   3.944   0.619
 6927SOL    HW121680   3.742   4.044   0.615
 6927SOL    HW221681   3.744   3.914   0.714
 6928SOL     OW21682   6.762   0.489   6.942
 6928SOL    HW121683   6.742   0.471   6.846
 6928SOL    HW221684   6.696   0.440   7.000
 6929SOL     OW21685   3.584   5.605   1.639
 6929SOL    HW121686   3.664   5.635   1.587
 6929SOL    HW221687   3.552   5.517   1.604
 6930SOL     OW21688   0.627   0.669   2.757
 6930SOL    HW121689   0.621   0.579   2.801
 6930SOL    HW221690   0.623   0.658   2.658
 6931SOL     OW21691   3.025   0.042   0.740
 6931SOL    HW121692   2.964   0.117   0.712
 6931SOL    HW221693   3.030   0.039   0.840
 6932SOL     OW21694   2.967   2.133   0.448
 6932SOL    HW121695   3.019   2.176   0.522
 6932SOL    HW221696   3.022   2.135   0.364
 6933SOL     OW21697   2.875   6.287   5.167
 6933SOL    HW121698   2.950   6.333   5.216
 6933SOL    HW221699   2.794   6.285   5.225
 6934SOL     OW21700   5.202   4.675   6.382
 6934SOL    HW121701   5.295   4.639   6.384
 6934SOL    HW221702   5.186   4.732   6.463
 6935SOL     OW21703   4.348   5.749   3.340
 6935SOL    HW121704   4.355   5.668   3.281
 6935SOL    HW221705   4.423   5.811   3.319
 6936SOL     OW21706   0.714   4.499   0.984
 6936SOL    HW121707   0.752   4.583   1.022
 6936SOL    HW221708   0.706   4.507   0.885
 6937SOL     OW21709   4.463   5.737   6.144
 6937SOL    HW121710   4.421   5.809   6.200
 6937SOL    HW221711   4.466   5.767   6.049
 6938SOL     OW21712   6.437   2.519   5.632
 6938SOL    HW121713   6.534   2.513   5.609
 6938SOL    HW221714   6.388   2.567   5.559
 6939SOL     OW21715   6.609   4.924   1.461
 6939SOL    HW121716   6.664   4.881   1.533
 6939SOL    HW221717   6.550   4.856   1.419
 6940SOL     OW21718   4.253   0.629   4.252
 6940SOL    HW121719   4.316   0.600   4.324
 6940SOL    HW221720   4.304   0.642   4.167
 6941SOL     OW21721   3.268   2.863   5.095
 6941SOL    HW121722   3.254   2.877   4.997
 6941SOL    HW221723   3.247   2.947   5.144
 6942SOL     OW21724   6.257   1.782   6.736
 6942SOL    HW121725   6.217   1.752   6.649
 6942SOL    HW221726   6.335   1.724   6.758
 6943SOL     OW21727   6.357   5.232   6.896
 6943SOL    HW121728   6.303   5.316   6.885
 6943SOL    HW221729   6.299   5.153   6.876
 6944SOL     OW21730   1.211   6.891   0.571
 6944SOL    HW121731   1.272   6.957   0.528
 6944SOL    HW221732   1.217   6.804   0.523
 6945SOL     OW21733   4.304   1.509   6.515
 6945SOL    HW121734   4.404   1.510   6.512
 6945SOL    HW221735   4.270   1.603   6.528
 6946SOL     OW21736   6.254   4.264   2.467
 6946SOL    HW121737   6.333   4.306   2.422
 6946SOL    HW221738   6.252   4.291   2.563
 6947SOL     OW21739   3.964   6.522   1.053
 6947SOL    HW121740   3.962   6.619   1.030
 6947SOL    HW221741   3.985   6.469   0.971
 6948SOL     OW21742   3.289   1.732   5.408
 6948SOL    HW121743   3.247   1.787   5.335
 6948SOL    HW221744   3.236   1.648   5.421
 6949SOL     OW21745   5.158   0.633   2.334
 6949SOL    HW121746   5.073   0.668   2.294
 6949SOL    HW221747   5.234   0.690   2.304
 6950SOL     OW21748   3.648   1.692   2.909
 6950SOL    HW121749   3.724   1.629   2.892
 6950SOL    HW221750   3.634   1.701   3.007
 6951SOL     OW21751   5.172   4.053   5.501
 6951SOL    HW121752   5.079   4.087   5.488
 6951SOL    HW221753   5.207   4.087   5.588
 6952SOL     OW21754   0.255   3.852   6.336
 6952SOL    HW121755   0.172   3.907   6.335
 6952SOL    HW221756   0.238   3.766   6.385
 6953SOL     OW21757   5.484   2.494   4.840
 6953SOL    HW121758   5.571   2.494   4.889
 6953SOL    HW221759   5.473   2.407   4.791
 6954SOL     OW21760   0.006   4.437   2.173
 6954SOL    HW121761   0.098   4.474   2.190
 6954SOL    HW221762   0.013   4.341   2.144
 6955SOL     OW21763   6.746   0.424   3.851
 6955SOL    HW121764   6.678   0.485   3.810
 6955SOL    HW221765   6.791   0.371   3.779
 6956SOL     OW21766   2.997   3.999   1.493
 6956SOL    HW121767   2.980   3.900   1.501
 6956SOL    HW221768   2.910   4.048   1.496
 6957SOL     OW21769   0.735   4.814   0.100
 6957SOL    HW121770   0.791   4.734   0.078
 6957SOL    HW221771   0.731   4.875   0.021
 6958SOL     OW21772   2.252   3.801   5.447
 6958SOL    HW121773   2.214   3.826   5.358
 6958SOL    HW221774   2.178   3.779   5.510
 6959SOL     OW21775   4.049   0.897   5.298
 6959SOL    HW121776   4.093   0.975   5.254
 6959SOL    HW221777   4.042   0.914   5.397
 6960SOL     OW21778   1.078   6.029   6.997
 6960SOL    HW121779   1.125   6.039   0.062
 6960SOL    HW221780   0.986   5.994   7.012
 6961SOL     OW21781   6.336   1.204   3.451
 6961SOL    HW121782   6.325   1.108   3.425
 6961SOL    HW221783   6.315   1.215   3.548
 6962SOL     OW21784   2.954   3.844   1.144
 6962SOL    HW121785   3.050   3.869   1.133
 6962SOL    HW221786   2.947   3.761   1.199
 6963SOL     OW21787   5.945   5.789   1.650
 6963SOL    HW121788   5.933   5.863   1.584
 6963SOL    HW221789   5.965   5.704   1.602
 6964SOL     OW21790   3.507   5.490   5.676
 6964SOL    HW121791   3.470   5.407   5.717
 6964SOL    HW221792   3.432   5.546   5.640
 6965SOL     OW21793   6.468   1.903   6.032
 6965SOL    HW121794   6.404   1.901   5.955
 6965SOL    HW221795   6.454   1.823   6.089
 6966SOL     OW21796   4.795   1.470   3.952
 6966SOL    HW121797   4.849   1.554   3.962
 6966SOL    HW221798   4.841   1.395   4.000
 6967SOL     OW21799   3.082   2.619   6.118
 6967SOL    HW121800   2.994   2.622   6.166
 6967SOL    HW221801   3.070   2.650   6.024
 6968SOL     OW21802   4.268   0.405   4.036
 6968SOL    HW121803   4.270   0.502   4.014
 6968SOL    HW221804   4.328   0.355   3.974
 6969SOL     OW21805   3.419   3.386   1.053
 6969SOL    HW121806   3.518   3.387   1.036
 6969SOL    HW221807   3.374   3.328   0.986
 6970SOL     OW21808   5.287   4.264   0.633
 6970SOL    HW121809   5.349   4.211   0.576
 6970SOL    HW221810   5.194   4.255   0.599
 6971SOL     OW21811   6.341   1.717   2.482
 6971SOL    HW121812   6.358   1.629   2.526
 6971SOL    HW221813   6.326   1.787   2.552
 6972SOL     OW21814   5.074   5.131   4.280
 6972SOL    HW121815   5.018   5.210   4.305
 6972SOL    HW221816   5.022   5.047   4.297
 6973SOL     OW21817   1.028   4.443   4.065
 6973SOL    HW121818   1.035   4.344   4.056
 6973SOL    HW221819   1.094   4.475   4.133
 6974SOL     OW21820   3.616   4.223   5.150
 6974SOL    HW121821   3.579   4.198   5.239
 6974SOL    HW221822   3.715   4.232   5.156
 6975SOL     OW21823   2.133   0.085   6.182
 6975SOL    HW121824   2.082   0.155   6.231
 6975SOL    HW221825   2.132   7.023   6.233
 6976SOL     OW21826   1.073   5.911   0.860
 6976SOL    HW121827   0.997   5.929   0.922
 6976SOL    HW221828   1.039   5.871   0.775
 6977SOL     OW21829   4.930   2.879   1.774
 6977SOL    HW121830   4.911   2.955   1.837
 6977SOL    HW221831   4.872   2.801   1.796
 6978SOL     OW21832   4.278   2.259   3.342
 6978SOL    HW121833   4.279   2.303   3.431
 6978SOL    HW221834   4.298   2.326   3.270
 6979SOL     OW21835   0.132   3.604   4.700
 6979SOL    HW121836   0.207   3.538   4.711
 6979SOL    HW221837   0.105   3.609   4.604
 6980SOL     OW21838   4.829   1.635   4.936
 6980SOL    HW121839   4.814   1.536   4.944
 6980SOL    HW221840   4.926   1.655   4.950
 6981SOL     OW21841   3.174   3.935   6.673
 6981SOL    HW121842   3.088   3.960   6.628
 6981SOL    HW221843   3.241   4.007   6.659
 6982SOL     OW21844   0.259   6.901   4.856
 6982SOL    HW121845   0.252   6.921   4.758
 6982SOL    HW221846   0.336   6.952   4.895
 6983SOL     OW21847   6.102   1.059   3.036
 6983SOL    HW121848   6.041   1.068   3.115
 6983SOL    HW221849   6.051   1.020   2.959
 6984SOL     OW21850   1.732   1.400   6.259
 6984SOL    HW121851   1.783   1.390   6.174
 6984SOL    HW221852   1.666   1.325   6.267
 6985SOL     OW21853   5.144   6.433   3.920
 6985SOL    HW121854   5.055   6.392   3.938
 6985SOL    HW221855   5.156   6.443   3.821
 6986SOL     OW21856   1.628   6.366   5.410
 6986SOL    HW121857   1.559   6.349   5.339
 6986SOL    HW221858   1.588   6.420   5.483
 6987SOL     OW21859   6.967   3.882   6.526
 6987SOL    HW121860   6.954   3.791   6.486
 6987SOL    HW221861   7.012   3.873   6.615
 6988SOL     OW21862   5.909   1.110   5.937
 6988SOL    HW121863   5.940   1.064   6.020
 6988SOL    HW221864   5.810   1.099   5.927
 6989SOL     OW21865   1.615   3.316   4.515
 6989SOL    HW121866   1.536   3.291   4.572
 6989SOL    HW221867   1.596   3.403   4.468
 6990SOL     OW21868   4.146   3.301   1.547
 6990SOL    HW121869   4.155   3.224   1.483
 6990SOL    HW221870   4.209   3.289   1.623
 6991SOL     OW21871   4.131   4.792   5.152
 6991SOL    HW121872   4.083   4.820   5.235
 6991SOL    HW221873   4.111   4.858   5.079
 6992SOL     OW21874   6.282   6.146   5.082
 6992SOL    HW121875   6.225   6.067   5.106
 6992SOL    HW221876   6.233   6.230   5.103
 6993SOL     OW21877   0.270   0.141   2.890
 6993SOL    HW121878   0.282   0.180   2.798
 6993SOL    HW221879   0.302   0.046   2.889
 6994SOL     OW21880   1.366   2.360   0.304
 6994SOL    HW121881   1.283   2.373   0.250
 6994SOL    HW221882   1.446   2.364   0.245
 6995SOL     OW21883   0.787   5.537   3.951
 6995SOL    HW121884   0.794   5.443   3.981
 6995SOL    HW221885   0.850   5.552   3.874
 6996SOL     OW21886   1.823   6.841   5.763
 6996SOL    HW121887   1.750   6.802   5.708
 6996SOL    HW221888   1.815   6.941   5.764
 6997SOL     OW21889   4.714   5.567   4.550
 6997SOL    HW121890   4.641   5.527   4.495
 6997SOL    HW221891   4.720   5.666   4.532
 6998SOL     OW21892   2.583   1.790   2.194
 6998SOL    HW121893   2.513   1.794   2.124
 6998SOL    HW221894   2.540   1.792   2.284
 6999SOL     OW21895   5.103   1.692   6.785
 6999SOL    HW121896   5.145   1.764   6.729
 6999SOL    HW221897   5.007   1.682   6.759
 7000SOL     OW21898   0.110   0.344   1.573
 7000SOL    HW121899   0.150   0.405   1.641
 7000SOL    HW221900   0.013   0.330   1.593
 7001SOL     OW21901   2.778   1.247   6.654
 7001SOL    HW121902   2.804   1.154   6.679
 7001SOL    HW221903   2.860   1.303   6.640
 7002SOL     OW21904   2.411   4.623   2.497
 7002SOL    HW121905   2.419   4.700   2.433
 7002SOL    HW221906   2.345   4.645   2.568
 7003SOL     OW21907   2.010   6.641   5.846
 7003SOL    HW121908   2.068   6.689   5.911
 7003SOL    HW221909   1.926   6.692   5.832
 7004SOL     OW21910   1.716   3.882   6.910
 7004SOL    HW121911   1.671   3.966   6.880
 7004SOL    HW221912   1.647   3.821   6.950
 7005SOL     OW21913   6.714   6.946   5.580
 7005SOL    HW121914   6.648   6.899   5.639
 7005SOL    HW221915   6.779   6.879   5.543
 7006SOL     OW21916   4.636   5.223   4.322
 7006SOL    HW121917   4.677   5.223   4.231
 7006SOL    HW221918   4.588   5.309   4.337
 7007SOL     OW21919   5.073   4.999   1.844
 7007SOL    HW121920   4.974   5.010   1.838
 7007SOL    HW221921   5.111   5.073   1.899
 7008SOL     OW21922   0.634   5.814   4.237
 7008SOL    HW121923   0.555   5.858   4.281
 7008SOL    HW221924   0.646   5.852   4.146
 7009SOL     OW21925   0.019   4.350   1.665
 7009SOL    HW121926   0.042   4.282   1.595
 7009SOL    HW221927   0.099   4.368   1.722
 7010SOL     OW21928   5.710   4.231   5.712
 7010SOL    HW121929   5.621   4.187   5.703
 7010SOL    HW221930   5.755   4.196   5.795
 7011SOL     OW21931   0.822   0.561   5.493
 7011SOL    HW121932   0.907   0.527   5.533
 7011SOL    HW221933   0.836   0.579   5.396
 7012SOL     OW21934   1.072   1.232   1.551
 7012SOL    HW121935   1.012   1.252   1.474
 7012SOL    HW221936   1.066   1.306   1.618
 7013SOL     OW21937   6.392   2.349   1.721
 7013SOL    HW121938   6.431   2.273   1.669
 7013SOL    HW221939   6.327   2.314   1.788
 7014SOL     OW21940   2.417   5.210   0.847
 7014SOL    HW121941   2.406   5.155   0.930
 7014SOL    HW221942   2.502   5.184   0.801
 7015SOL     OW21943   4.438   1.815   2.096
 7015SOL    HW121944   4.427   1.716   2.085
 7015SOL    HW221945   4.535   1.838   2.101
 7016SOL     OW21946   4.255   4.313   1.292
 7016SOL    HW121947   4.220   4.345   1.204
 7016SOL    HW221948   4.223   4.374   1.365
 7017SOL     OW21949   5.318   1.724   5.174
 7017SOL    HW121950   5.276   1.739   5.263
 7017SOL    HW221951   5.344   1.813   5.135
 7018SOL     OW21952   0.624   3.304   3.270
 7018SOL    HW121953   0.531   3.278   3.245
 7018SOL    HW221954   0.650   3.259   3.356
 7019SOL     OW21955   0.025   6.438   2.012
 7019SOL    HW121956   6.971   6.398   2.060
 7019SOL    HW221957   0.100   6.372   2.007
 7020SOL     OW21958   0.324   5.384   6.640
 7020SOL    HW121959   0.286   5.368   6.731
 7020SOL    HW221960   0.422   5.403   6.647
 7021SOL     OW21961   3.239   6.448   5.662
 7021SOL    HW121962   3.338   6.452   5.651
 7021SOL    HW221963   3.210   6.353   5.672
 7022SOL     OW21964   4.153   5.363   5.548
 7022SOL    HW121965   4.213   5.330   5.621
 7022SOL    HW221966   4.124   5.285   5.492
 7023SOL     OW21967   4.452   4.884   2.610
 7023SOL    HW121968   4.507   4.962   2.580
 7023SOL    HW221969   4.387   4.913   2.680
 7024SOL     OW21970   5.863   6.596   1.972
 7024SOL    HW121971   5.816   6.617   1.886
 7024SOL    HW221972   5.821   6.516   2.015
 7025SOL     OW21973   2.583   0.307   0.990
 7025SOL    HW121974   2.614   0.359   1.069
 7025SOL    HW221975   2.514   0.240   1.020
 7026SOL     OW21976   4.110   2.290   1.170
 7026SOL    HW121977   4.066   2.259   1.254
 7026SOL    HW221978   4.207   2.308   1.187
 7027SOL     OW21979   5.590   5.757   4.319
 7027SOL    HW121980   5.595   5.658   4.309
 7027SOL    HW221981   5.530   5.780   4.395
 7028SOL     OW21982   2.686   1.087   4.748
 7028SOL    HW121983   2.709   1.118   4.840
 7028SOL    HW221984   2.724   1.150   4.680
 7029SOL     OW21985   3.842   0.978   4.369
 7029SOL    HW121986   3.765   0.915   4.354
 7029SOL    HW221987   3.924   0.941   4.327
 7030SOL     OW21988   1.480   3.305   3.850
 7030SOL    HW121989   1.429   3.222   3.829
 7030SOL    HW221990   1.578   3.289   3.835
 7031SOL     OW21991   1.080   1.095   4.723
 7031SOL    HW121992   1.096   1.136   4.634
 7031SOL    HW221993   1.160   1.109   4.782
 7032SOL     OW21994   5.926   2.635   3.410
 7032SOL    HW121995   5.892   2.541   3.401
 7032SOL    HW221996   5.857   2.697   3.373
 7033SOL     OW21997   0.573   0.728   5.078
 7033SOL    HW121998   0.560   0.822   5.047
 7033SOL    HW221999   0.592   0.669   5.000
 7034SOL     OW22000   0.271   5.328   3.589
 7034SOL    HW122001   0.234   5.392   3.522
 7034SOL    HW222002   0.298   5.377   3.672
 7035SOL     OW22003   6.538   4.528   1.972
 7035SOL    HW122004   6.457   4.470   1.983
 7035SOL    HW222005   6.541   4.563   1.879
 7036SOL     OW22006   6.058   4.546   0.876
 7036SOL    HW122007   6.082   4.454   0.846
 7036SOL    HW222008   6.133   4.585   0.929
 7037SOL     OW22009   1.263   0.680   6.550
 7037SOL    HW122010   1.334   0.736   6.593
 7037SOL    HW222011   1.174   0.707   6.584
 7038SOL     OW22012   2.236   3.168   4.252
 7038SOL    HW122013   2.264   3.075   4.276
 7038SOL    HW222014   2.140   3.181   4.278
 7039SOL     OW22015   3.847   2.041   6.754
 7039SOL    HW122016   3.848   2.091   6.841
 7039SOL    HW222017   3.826   2.105   6.680
 7040SOL     OW22018   5.613   2.410   6.843
 7040SOL    HW122019   5.619   2.481   6.913
 7040SOL    HW222020   5.533   2.425   6.786
 7041SOL     OW22021   2.109   1.571   3.447
 7041SOL    HW122022   2.062   1.640   3.392
 7041SOL    HW222023   2.076   1.576   3.541
 7042SOL     OW22024   1.825   1.190   6.612
 7042SOL    HW122025   1.784   1.120   6.553
 7042SOL    HW222026   1.753   1.240   6.660
 7043SOL     OW22027   1.376   2.806   2.234
 7043SOL    HW122028   1.455   2.804   2.295
 7043SOL    HW222029   1.393   2.872   2.161
 7044SOL     OW22030   6.842   5.992   0.964
 7044SOL    HW122031   6.918   5.995   0.900
 7044SOL    HW222032   6.777   6.065   0.942
 7045SOL     OW22033   0.408   4.875   0.354
 7045SOL    HW122034   0.390   4.819   0.435
 7045SOL    HW222035   0.357   4.837   0.276
 7046SOL     OW22036   3.151   1.782   3.702
 7046SOL    HW122037   3.102   1.711   3.652
 7046SOL    HW222038   3.168   1.751   3.795
 7047SOL     OW22039   1.441   0.246   3.115
 7047SOL    HW122040   1.392   0.268   3.199
 7047SOL    HW222041   1.537   0.228   3.136
 7048SOL     OW22042   6.562   5.710   0.119
 7048SOL    HW122043   6.490   5.725   0.051
 7048SOL    HW222044   6.531   5.643   0.186
 7049SOL     OW22045   2.357   0.910   6.786
 7049SOL    HW122046   2.374   0.868   6.875
 7049SOL    HW222047   2.309   0.845   6.727
 7050SOL     OW22048   4.336   3.589   5.404
 7050SOL    HW122049   4.411   3.529   5.379
 7050SOL    HW222050   4.372   3.676   5.436
 7051SOL     OW22051   5.860   6.539   2.890
 7051SOL    HW122052   5.764   6.514   2.882
 7051SOL    HW222053   5.915   6.456   2.902
 7052SOL     OW22054   6.904   0.044   5.362
 7052SOL    HW122055   6.883   0.108   5.288
 7052SOL    HW222056   6.824   0.032   5.420
 7053SOL     OW22057   6.690   3.744   6.379
 7053SOL    HW122058   6.777   3.696   6.390
 7053SOL    HW222059   6.694   3.831   6.428
 7054SOL     OW22060   6.365   2.164   2.512
 7054SOL    HW122061   6.268   2.169   2.535
 7054SOL    HW222062   6.375   2.175   2.413
 7055SOL     OW22063   4.539   1.737   3.996
 7055SOL    HW122064   4.504   1.644   3.988
 7055SOL    HW222065   4.535   1.782   3.906
 7056SOL     OW22066   4.824   5.620   4.235
 7056SOL    HW122067   4.920   5.618   4.264
 7056SOL    HW222068   4.785   5.710   4.255
 7057SOL     OW22069   5.662   5.916   2.604
 7057SOL    HW122070   5.730   5.916   2.678
 7057SOL    HW222071   5.592   5.848   2.623
 7058SOL     OW22072   0.279   4.279   4.333
 7058SOL    HW122073   0.368   4.278   4.288
 7058SOL    HW222074   0.290   4.253   4.429
 7059SOL     OW22075   1.770   1.195   2.411
 7059SOL    HW122076   1.770   1.288   2.374
 7059SOL    HW222077   1.680   1.153   2.396
 7060SOL     OW22078   3.071   6.795   0.670
 7060SOL    HW122079   3.027   6.880   0.698
 7060SOL    HW222080   3.016   6.717   0.701
 7061SOL     OW22081   0.275   0.830   3.070
 7061SOL    HW122082   0.261   0.904   3.135
 7061SOL    HW222083   0.371   0.803   3.070
 7062SOL     OW22084   6.536   1.396   5.852
 7062SOL    HW122085   6.519   1.475   5.793
 7062SOL    HW222086   6.560   1.427   5.943
 7063SOL     OW22087   1.934   6.456   2.072
 7063SOL    HW122088   1.935   6.514   1.990
 7063SOL    HW222089   1.938   6.360   2.044
 7064SOL     OW22090   3.749   2.374   0.107
 7064SOL    HW122091   3.792   2.452   0.063
 7064SOL    HW222092   3.693   2.405   0.183
 7065SOL     OW22093   3.221   3.582   2.741
 7065SOL    HW122094   3.269   3.570   2.654
 7065SOL    HW222095   3.268   3.653   2.794
 7066SOL     OW22096   2.489   4.945   1.717
 7066SOL    HW122097   2.424   5.014   1.685
 7066SOL    HW222098   2.492   4.946   1.817
 7067SOL     OW22099   1.057   4.152   4.844
 7067SOL    HW122100   1.062   4.055   4.867
 7067SOL    HW222101   0.971   4.171   4.797
 7068SOL     OW22102   0.374   0.777   2.796
 7068SOL    HW122103   0.453   0.719   2.814
 7068SOL    HW222104   0.299   0.753   2.859
 7069SOL     OW22105   1.955   4.724   4.968
 7069SOL    HW122106   1.899   4.711   5.049
 7069SOL    HW222107   1.912   4.679   4.889
 7070SOL     OW22108   5.587   5.245   3.651
 7070SOL    HW122109   5.580   5.152   3.685
 7070SOL    HW222110   5.667   5.290   3.691
 7071SOL     OW22111   1.720   6.613   5.310
 7071SOL    HW122112   1.806   6.585   5.268
 7071SOL    HW222113   1.683   6.538   5.365
 7072SOL     OW22114   0.510   0.268   6.339
 7072SOL    HW122115   0.595   0.264   6.286
 7072SOL    HW222116   0.527   0.318   6.424
 7073SOL     OW22117   1.944   2.302   6.824
 7073SOL    HW122118   1.962   2.309   6.922
 7073SOL    HW222119   2.030   2.286   6.775
 7074SOL     OW22120   3.619   1.276   6.968
 7074SOL    HW122121   3.628   1.328   6.883
 7074SOL    HW222122   3.599   1.180   6.947
 7075SOL     OW22123   0.638   6.083   3.039
 7075SOL    HW122124   0.615   6.180   3.040
 7075SOL    HW222125   0.554   6.029   3.045
 7076SOL     OW22126   3.604   1.228   6.180
 7076SOL    HW122127   3.600   1.147   6.238
 7076SOL    HW222128   3.516   1.244   6.137
 7077SOL     OW22129   1.472   5.714   6.509
 7077SOL    HW122130   1.427   5.790   6.461
 7077SOL    HW222131   1.408   5.671   6.572
 7078SOL     OW22132   0.132   1.141   2.082
 7078SOL    HW122133   0.170   1.065   2.135
 7078SOL    HW222134   0.204   1.182   2.027
 7079SOL     OW22135   5.382   6.398   4.418
 7079SOL    HW122136   5.445   6.450   4.360
 7079SOL    HW222137   5.430   6.368   4.500
 7080SOL     OW22138   5.644   0.330   3.951
 7080SOL    HW122139   5.615   0.306   3.857
 7080SOL    HW222140   5.596   0.413   3.980
 7081SOL     OW22141   4.842   0.765   4.944
 7081SOL    HW122142   4.777   0.841   4.935
 7081SOL    HW222143   4.914   0.774   4.875
 7082SOL     OW22144   6.096   1.469   0.122
 7082SOL    HW122145   6.148   1.524   0.188
 7082SOL    HW222146   6.140   1.474   0.032
 7083SOL     OW22147   4.249   0.292   5.327
 7083SOL    HW122148   4.230   0.293   5.425
 7083SOL    HW222149   4.183   0.233   5.281
 7084SOL     OW22150   6.176   5.906   0.545
 7084SOL    HW122151   6.128   5.858   0.471
 7084SOL    HW222152   6.258   5.855   0.569
 7085SOL     OW22153   4.352   1.186   1.664
 7085SOL    HW122154   4.355   1.176   1.565
 7085SOL    HW222155   4.440   1.218   1.698
 7086SOL     OW22156   1.130   0.992   6.087
 7086SOL    HW122157   1.221   0.958   6.062
 7086SOL    HW222158   1.070   0.990   6.007
 7087SOL     OW22159   2.337   2.754   5.231
 7087SOL    HW122160   2.375   2.834   5.184
 7087SOL    HW222161   2.401   2.678   5.223
 7088SOL     OW22162   0.002   2.502   4.636
 7088SOL    HW122163   7.014   2.555   4.720
 7088SOL    HW222164   6.989   2.410   4.650
 7089SOL     OW22165   3.169   1.825   1.629
 7089SOL    HW122166   3.085   1.824   1.575
 7089SOL    HW222167   3.175   1.910   1.681
 7090SOL     OW22168   2.674   1.804   4.893
 7090SOL    HW122169   2.585   1.841   4.865
 7090SOL    HW222170   2.747   1.859   4.851
 7091SOL     OW22171   6.928   6.403   0.768
 7091SOL    HW122172   7.011   6.398   0.823
 7091SOL    HW222173   6.857   6.452   0.818
 7092SOL     OW22174   3.428   2.096   0.822
 7092SOL    HW122175   3.446   2.164   0.751
 7092SOL    HW222176   3.501   2.029   0.824
 7093SOL     OW22177   4.058   2.952   6.434
 7093SOL    HW122178   4.126   3.013   6.394
 7093SOL    HW222179   4.041   2.978   6.529
 7094SOL     OW22180   6.598   1.127   6.555
 7094SOL    HW122181   6.547   1.064   6.613
 7094SOL    HW222182   6.686   1.148   6.599
 7095SOL     OW22183   0.258   4.029   0.814
 7095SOL    HW122184   0.221   3.946   0.772
 7095SOL    HW222185   0.314   4.005   0.893
 7096SOL     OW22186   4.038   6.729   2.693
 7096SOL    HW122187   4.107   6.752   2.625
 7096SOL    HW222188   3.960   6.792   2.684
 7097SOL     OW22189   2.344   1.085   1.665
 7097SOL    HW122190   2.335   1.089   1.565
 7097SOL    HW222191   2.440   1.068   1.689
 7098SOL     OW22192   1.187   0.574   6.184
 7098SOL    HW122193   1.261   0.576   6.117
 7098SOL    HW222194   1.206   0.502   6.251
 7099SOL     OW22195   6.891   1.358   5.275
 7099SOL    HW122196   6.908   1.287   5.207
 7099SOL    HW222197   6.792   1.369   5.287
 7100SOL     OW22198   5.268   1.609   1.077
 7100SOL    HW122199   5.361   1.639   1.053
 7100SOL    HW222200   5.272   1.553   1.160
 7101SOL     OW22201   1.338   0.372   4.163
 7101SOL    HW122202   1.311   0.327   4.248
 7101SOL    HW222203   1.286   0.457   4.151
 7102SOL     OW22204   4.203   2.942   0.783
 7102SOL    HW122205   4.239   3.036   0.780
 7102SOL    HW222206   4.277   2.878   0.761
 7103SOL     OW22207   2.204   0.094   5.884
 7103SOL    HW122208   2.150   0.040   5.949
 7103SOL    HW222209   2.300   0.092   5.912
 7104SOL     OW22210   0.913   3.019   1.860
 7104SOL    HW122211   0.930   2.944   1.797
 7104SOL    HW222212   0.814   3.031   1.871
 7105SOL     OW22213   1.935   2.926   5.449
 7105SOL    HW122214   1.847   2.901   5.408
 7105SOL    HW222215   1.959   3.019   5.421
 7106SOL     OW22216   3.046   2.753   5.424
 7106SOL    HW122217   3.009   2.826   5.365
 7106SOL    HW222218   3.145   2.748   5.412
 7107SOL     OW22219   1.188   1.234   0.470
 7107SOL    HW122220   1.183   1.220   0.569
 7107SOL    HW222221   1.276   1.203   0.436
 7108SOL     OW22222   4.733   6.721   2.009
 7108SOL    HW122223   4.699   6.642   1.958
 7108SOL    HW222224   4.761   6.692   2.101
 7109SOL     OW22225   4.391   5.844   6.518
 7109SOL    HW122226   4.412   5.941   6.534
 7109SOL    HW222227   4.323   5.836   6.445
 7110SOL     OW22228   4.027   4.954   4.578
 7110SOL    HW122229   4.049   4.864   4.540
 7110SOL    HW222230   3.962   4.944   4.654
 7111SOL     OW22231   1.686   2.523   3.482
 7111SOL    HW122232   1.766   2.502   3.426
 7111SOL    HW222233   1.703   2.607   3.533
 7112SOL     OW22234   1.705   6.357   3.054
 7112SOL    HW122235   1.649   6.315   3.126
 7112SOL    HW222236   1.786   6.301   3.038
 7113SOL     OW22237   3.917   3.271   5.626
 7113SOL    HW122238   3.845   3.329   5.589
 7113SOL    HW222239   4.006   3.307   5.599
 7114SOL     OW22240   3.862   6.438   0.631
 7114SOL    HW122241   3.894   6.409   0.721
 7114SOL    HW222242   3.938   6.438   0.567
 7115SOL     OW22243   3.964   2.586   1.278
 7115SOL    HW122244   3.957   2.504   1.336
 7115SOL    HW222245   4.018   2.655   1.325
 7116SOL     OW22246   6.118   4.298   3.105
 7116SOL    HW122247   6.045   4.298   3.174
 7116SOL    HW222248   6.206   4.310   3.150
 7117SOL     OW22249   5.595   6.748   2.415
 7117SOL    HW122250   5.668   6.807   2.380
 7117SOL    HW222251   5.510   6.800   2.420
 7118SOL     OW22252   6.597   3.407   3.310
 7118SOL    HW122253   6.586   3.359   3.397
 7118SOL    HW222254   6.542   3.361   3.240
 7119SOL     OW22255   1.341   2.337   3.299
 7119SOL    HW122256   1.348   2.436   3.284
 7119SOL    HW222257   1.355   2.289   3.212
 7120SOL     OW22258   4.368   6.666   3.636
 7120SOL    HW122259   4.378   6.594   3.567
 7120SOL    HW222260   4.271   6.684   3.652
 7121SOL     OW22261   2.319   6.543   0.923
 7121SOL    HW122262   2.239   6.560   0.981
 7121SOL    HW222263   2.402   6.548   0.979
 7122SOL     OW22264   6.917   6.106   0.550
 7122SOL    HW122265   6.952   6.111   0.643
 7122SOL    HW222266   6.910   6.199   0.512
 7123SOL     OW22267   2.726   5.494   0.908
 7123SOL    HW122268   2.732   5.574   0.967
 7123SOL    HW222269   2.635   5.489   0.867
 7124SOL     OW22270   7.013   6.434   6.437
 7124SOL    HW122271   6.938   6.403   6.495
 7124SOL    HW222272   0.025   6.357   6.384
 7125SOL     OW22273   0.859   5.887   3.406
 7125SOL    HW122274   0.765   5.874   3.374
 7125SOL    HW222275   0.909   5.943   3.339
 7126SOL     OW22276   1.450   3.648   1.551
 7126SOL    HW122277   1.467   3.729   1.495
 7126SOL    HW222278   1.373   3.664   1.611
 7127SOL     OW22279   2.167   0.495   5.134
 7127SOL    HW122280   2.162   0.437   5.053
 7127SOL    HW222281   2.155   0.591   5.107
 7128SOL     OW22282   2.973   3.504   2.255
 7128SOL    HW122283   2.885   3.495   2.209
 7128SOL    HW222284   2.996   3.601   2.265
 7129SOL     OW22285   2.752   1.677   0.894
 7129SOL    HW122286   2.713   1.673   0.986
 7129SOL    HW222287   2.701   1.616   0.833
 7130SOL     OW22288   1.711   0.427   2.965
 7130SOL    HW122289   1.682   0.401   3.058
 7130SOL    HW222290   1.743   0.521   2.966
 7131SOL     OW22291   2.558   1.291   3.513
 7131SOL    HW122292   2.541   1.272   3.610
 7131SOL    HW222293   2.472   1.283   3.463
 7132SOL     OW22294   2.988   3.791   2.259
 7132SOL    HW122295   3.016   3.853   2.186
 7132SOL    HW222296   2.920   3.836   2.316
 7133SOL     OW22297   6.175   4.219   1.618
 7133SOL    HW122298   6.134   4.262   1.699
 7133SOL    HW222299   6.104   4.202   1.550
 7134SOL     OW22300   5.298   5.009   2.477
 7134SOL    HW122301   5.205   4.975   2.487
 7134SOL    HW222302   5.329   5.049   2.564
 7135SOL     OW22303   0.367   2.263   6.191
 7135SOL    HW122304   0.355   2.301   6.282
 7135SOL    HW222305   0.449   2.205   6.189
 7136SOL     OW22306   1.654   1.717   6.859
 7136SOL    HW122307   1.748   1.739   6.835
 7136SOL    HW222308   1.593   1.792   6.833
 7137SOL     OW22309   4.791   2.298   4.887
 7137SOL    HW122310   4.747   2.248   4.812
 7137SOL    HW222311   4.890   2.293   4.876
 7138SOL     OW22312   2.249   2.214   6.806
 7138SOL    HW122313   2.287   2.224   6.899
 7138SOL    HW222314   2.298   2.275   6.744
 7139SOL     OW22315   2.838   1.471   0.368
 7139SOL    HW122316   2.838   1.395   0.304
 7139SOL    HW222317   2.860   1.556   0.320
 7140SOL     OW22318   0.004   4.409   4.555
 7140SOL    HW122319   0.001   4.310   4.547
 7140SOL    HW222320   6.946   4.448   4.513
 7141SOL     OW22321   0.562   6.997   1.937
 7141SOL    HW122322   0.470   6.963   1.916
 7141SOL    HW222323   0.615   7.005   1.853
 7142SOL     OW22324   3.371   6.706   3.724
 7142SOL    HW122325   3.292   6.661   3.765
 7142SOL    HW222326   3.454   6.652   3.741
 7143SOL     OW22327   2.083   2.173   3.431
 7143SOL    HW122328   2.173   2.216   3.428
 7143SOL    HW222329   2.034   2.204   3.512
 7144SOL     OW22330   1.335   3.529   3.335
 7144SOL    HW122331   1.250   3.553   3.381
 7144SOL    HW222332   1.364   3.438   3.364
 7145SOL     OW22333   4.065   5.675   6.121
 7145SOL    HW122334   3.978   5.628   6.109
 7145SOL    HW222335   4.140   5.609   6.107
 7146SOL     OW22336   3.531   4.968   1.635
 7146SOL    HW122337   3.462   4.970   1.707
 7146SOL    HW222338   3.539   5.058   1.593
 7147SOL     OW22339   7.021   0.926   3.614
 7147SOL    HW122340   0.075   0.985   3.635
 7147SOL    HW222341   7.004   0.927   3.516
 7148SOL     OW22342   6.852   1.838   0.962
 7148SOL    HW122343   6.782   1.864   0.896
 7148SOL    HW222344   6.907   1.919   0.984
 7149SOL     OW22345   0.851   0.695   4.588
 7149SOL    HW122346   0.939   0.726   4.624
 7149SOL    HW222347   0.835   0.600   4.615
 7150SOL     OW22348   5.756   3.416   6.059
 7150SOL    HW122349   5.700   3.411   6.142
 7150SOL    HW222350   5.796   3.326   6.041
 7151SOL     OW22351   2.163   6.490   0.126
 7151SOL    HW122352   2.129   6.497   0.032
 7151SOL    HW222353   2.233   6.560   0.141
 7152SOL     OW22354   1.116   2.438   4.687
 7152SOL    HW122355   1.194   2.376   4.690
 7152SOL    HW222356   1.051   2.414   4.760
 7153SOL     OW22357   4.008   1.839   2.885
 7153SOL    HW122358   3.913   1.846   2.914
 7153SOL    HW222359   4.012   1.826   2.786
 7154SOL     OW22360   3.366   0.226   4.877
 7154SOL    HW122361   3.433   0.177   4.933
 7154SOL    HW222362   3.368   0.190   4.784
 7155SOL     OW22363   2.342   1.535   3.557
 7155SOL    HW122364   2.258   1.539   3.503
 7155SOL    HW222365   2.415   1.583   3.508
 7156SOL     OW22366   2.067   5.839   5.660
 7156SOL    HW122367   2.098   5.887   5.741
 7156SOL    HW222368   1.967   5.841   5.656
 7157SOL     OW22369   4.795   4.184   0.441
 7157SOL    HW122370   4.867   4.206   0.505
 7157SOL    HW222371   4.828   4.116   0.375
 7158SOL     OW22372   4.157   0.126   3.555
 7158SOL    HW122373   4.178   0.219   3.525
 7158SOL    HW222374   4.237   0.088   3.602
 7159SOL     OW22375   1.180   6.151   6.776
 7159SOL    HW122376   1.146   6.245   6.776
 7159SOL    HW222377   1.149   6.105   6.859
 7160SOL     OW22378   6.692   0.868   1.582
 7160SOL    HW122379   6.616   0.903   1.637
 7160SOL    HW222380   6.657   0.825   1.500
 7161SOL     OW22381   3.860   4.124   4.914
 7161SOL    HW122382   3.913   4.064   4.855
 7161SOL    HW222383   3.875   4.219   4.887
 7162SOL     OW22384   3.704   5.052   4.165
 7162SOL    HW122385   3.731   5.098   4.250
 7162SOL    HW222386   3.609   5.077   4.143
 7163SOL     OW22387   1.075   6.490   3.390
 7163SOL    HW122388   1.114   6.413   3.341
 7163SOL    HW222389   1.038   6.557   3.324
 7164SOL     OW22390   2.427   1.946   4.871
 7164SOL    HW122391   2.435   2.000   4.954
 7164SOL    HW222392   2.461   2.000   4.793
 7165SOL     OW22393   4.907   5.165   2.146
 7165SOL    HW122394   4.848   5.141   2.069
 7165SOL    HW222395   4.901   5.263   2.163
 7166SOL     OW22396   3.879   6.202   2.212
 7166SOL    HW122397   3.884   6.111   2.171
 7166SOL    HW222398   3.916   6.198   2.305
 7167SOL     OW22399   5.049   3.420   7.015
 7167SOL    HW122400   5.111   3.342   7.006
 7167SOL    HW222401   5.103   3.504   0.008
 7168SOL     OW22402   0.318   1.588   3.921
 7168SOL    HW122403   0.270   1.676   3.922
 7168SOL    HW222404   0.362   1.573   4.009
 7169SOL     OW22405   2.401   2.383   6.651
 7169SOL    HW122406   2.383   2.476   6.618
 7169SOL    HW222407   2.469   2.339   6.592
 7170SOL     OW22408   5.252   4.471   3.956
 7170SOL    HW122409   5.229   4.568   3.959
 7170SOL    HW222410   5.194   4.425   3.889
 7171SOL     OW22411   3.810   3.849   5.628
 7171SOL    HW122412   3.760   3.763   5.638
 7171SOL    HW222413   3.833   3.886   5.718
 7172SOL     OW22414   0.113   6.156   1.045
 7172SOL    HW122415   0.063   6.243   1.044
 7172SOL    HW222416   0.094   6.107   1.129
 7173SOL     OW22417   6.156   6.486   4.791
 7173SOL    HW122418   6.201   6.397   4.797
 7173SOL    HW222419   6.123   6.501   4.697
 7174SOL     OW22420   1.197   6.081   6.085
 7174SOL    HW122421   1.284   6.090   6.133
 7174SOL    HW222422   1.186   5.987   6.053
 7175SOL     OW22423   5.993   3.471   5.581
 7175SOL    HW122424   6.060   3.431   5.644
 7175SOL    HW222425   5.993   3.419   5.495
 7176SOL     OW22426   0.908   3.027   1.494
 7176SOL    HW122427   0.952   3.117   1.486
 7176SOL    HW222428   0.817   3.038   1.533
 7177SOL     OW22429   0.772   4.758   1.970
 7177SOL    HW122430   0.841   4.830   1.961
 7177SOL    HW222431   0.803   4.691   2.038
 7178SOL     OW22432   6.194   0.872   6.791
 7178SOL    HW122433   6.181   0.968   6.765
 7178SOL    HW222434   6.228   0.820   6.713
 7179SOL     OW22435   0.732   3.962   5.830
 7179SOL    HW122436   0.727   3.892   5.902
 7179SOL    HW222437   0.661   3.945   5.762
 7180SOL     OW22438   6.910   7.005   2.368
 7180SOL    HW122439   6.939   6.912   2.347
 7180SOL    HW222440   6.894   7.014   2.466
 7181SOL     OW22441   5.469   6.138   2.457
 7181SOL    HW122442   5.536   6.090   2.401
 7181SOL    HW222443   5.379   6.133   2.414
 7182SOL     OW22444   4.578   3.537   6.099
 7182SOL    HW122445   4.591   3.443   6.070
 7182SOL    HW222446   4.598   3.599   6.023
 7183SOL     OW22447   2.202   3.133   3.167
 7183SOL    HW122448   2.151   3.065   3.220
 7183SOL    HW222449   2.241   3.201   3.230
 7184SOL     OW22450   2.493   5.739   3.564
 7184SOL    HW122451   2.533   5.654   3.597
 7184SOL    HW222452   2.405   5.754   3.609
 7185SOL     OW22453   4.830   2.152   0.010
 7185SOL    HW122454   4.781   2.233   7.000
 7185SOL    HW222455   4.785   2.118   0.092
 7186SOL     OW22456   0.903   6.243   4.776
 7186SOL    HW122457   0.988   6.262   4.726
 7186SOL    HW222458   0.833   6.211   4.711
 7187SOL     OW22459   1.733   5.436   1.218
 7187SOL    HW122460   1.798   5.424   1.144
 7187SOL    HW222461   1.645   5.465   1.182
 7188SOL     OW22462   5.563   7.005   1.786
 7188SOL    HW122463   5.556   6.915   1.829
 7188SOL    HW222464   5.580   0.051   1.856
 7189SOL     OW22465   6.196   0.844   5.348
 7189SOL    HW122466   6.214   0.879   5.440
 7189SOL    HW222467   6.190   0.744   5.351
 7190SOL     OW22468   4.354   5.390   2.941
 7190SOL    HW122469   4.350   5.302   2.989
 7190SOL    HW222470   4.450   5.419   2.932
 7191SOL     OW22471   0.656   3.095   1.624
 7191SOL    HW122472   0.609   3.124   1.707
 7191SOL    HW222473   0.599   3.114   1.544
 7192SOL     OW22474   3.276   4.100   6.401
 7192SOL    HW122475   3.239   4.184   6.361
 7192SOL    HW222476   3.373   4.091   6.376
 7193SOL     OW22477   5.718   2.273   4.870
 7193SOL    HW122478   5.643   2.212   4.846
 7193SOL    HW222479   5.798   2.219   4.896
 7194SOL     OW22480   2.950   1.099   2.014
 7194SOL    HW122481   2.969   1.011   2.056
 7194SOL    HW222482   2.925   1.165   2.084
 7195SOL     OW22483   0.483   0.007   2.469
 7195SOL    HW122484   0.496   7.014   2.371
 7195SOL    HW222485   0.410   0.074   2.483
 7196SOL     OW22486   3.632   3.461   1.771
 7196SOL    HW122487   3.700   3.407   1.721
 7196SOL    HW222488   3.587   3.402   1.839
 7197SOL     OW22489   1.418   1.107   4.483
 7197SOL    HW122490   1.398   1.040   4.554
 7197SOL    HW222491   1.474   1.064   4.412
 7198SOL     OW22492   0.582   6.839   6.005
 7198SOL    HW122493   0.483   6.843   5.993
 7198SOL    HW222494   0.605   6.858   6.100
 7199SOL     OW22495   5.880   5.838   2.268
 7199SOL    HW122496   5.808   5.866   2.205
 7199SOL    HW222497   5.930   5.919   2.299
 7200SOL     OW22498   1.504   2.219   2.708
 7200SOL    HW122499   1.509   2.302   2.763
 7200SOL    HW222500   1.580   2.158   2.731
 7201SOL     OW22501   2.138   4.406   4.101
 7201SOL    HW122502   2.050   4.386   4.143
 7201SOL    HW222503   2.126   4.422   4.003
 7202SOL     OW22504   2.467   0.036   6.004
 7202SOL    HW122505   2.447   6.964   6.024
 7202SOL    HW222506   2.537   0.042   5.932
 7203SOL     OW22507   5.948   0.118   0.102
 7203SOL    HW122508   5.896   0.038   0.131
 7203SOL    HW222509   6.004   0.151   0.178
 7204SOL     OW22510   6.534   2.181   3.180
 7204SOL    HW122511   6.604   2.252   3.177
 7204SOL    HW222512   6.449   2.216   3.141
 7205SOL     OW22513   1.362   4.115   1.499
 7205SOL    HW122514   1.411   4.202   1.508
 7205SOL    HW222515   1.290   4.111   1.569
 7206SOL     OW22516   6.174   1.007   1.537
 7206SOL    HW122517   6.203   1.091   1.583
 7206SOL    HW222518   6.229   0.994   1.455
 7207SOL     OW22519   4.231   0.410   1.760
 7207SOL    HW122520   4.150   0.404   1.818
 7207SOL    HW222521   4.205   0.447   1.670
 7208SOL     OW22522   2.409   0.669   5.544
 7208SOL    HW122523   2.391   0.595   5.608
 7208SOL    HW222524   2.419   0.755   5.594
 7209SOL     OW22525   3.296   3.624   4.993
 7209SOL    HW122526   3.376   3.586   5.039
 7209SOL    HW222527   3.304   3.724   4.990
 7210SOL     OW22528   4.008   6.795   4.241
 7210SOL    HW122529   3.984   6.859   4.314
 7210SOL    HW222530   4.107   6.794   4.228
 7211SOL     OW22531   0.697   5.095   2.321
 7211SOL    HW122532   0.656   5.063   2.236
 7211SOL    HW222533   0.797   5.094   2.312
 7212SOL     OW22534   5.427   6.890   3.260
 7212SOL    HW122535   5.466   6.846   3.178
 7212SOL    HW222536   5.427   6.989   3.247
 7213SOL     OW22537   5.320   6.499   5.138
 7213SOL    HW122538   5.319   6.480   5.237
 7213SOL    HW222539   5.309   6.597   5.122
 7214SOL     OW22540   1.094   4.791   5.770
 7214SOL    HW122541   1.067   4.697   5.794
 7214SOL    HW222542   1.191   4.803   5.787
 7215SOL     OW22543   1.225   3.216   1.618
 7215SOL    HW122544   1.192   3.143   1.559
 7215SOL    HW222545   1.276   3.283   1.563
 7216SOL     OW22546   2.924   2.219   2.431
 7216SOL    HW122547   2.841   2.254   2.387
 7216SOL    HW222548   2.992   2.197   2.362
 7217SOL     OW22549   0.309   3.344   1.778
 7217SOL    HW122550   0.249   3.416   1.814
 7217SOL    HW222551   0.349   3.294   1.855
 7218SOL     OW22552   6.473   2.618   4.224
 7218SOL    HW122553   6.566   2.607   4.259
 7218SOL    HW222554   6.460   2.556   4.146
 7219SOL     OW22555   3.092   1.256   0.809
 7219SOL    HW122556   3.020   1.324   0.794
 7219SOL    HW222557   3.061   1.189   0.876
 7220SOL     OW22558   6.863   1.842   3.070
 7220SOL    HW122559   6.922   1.763   3.091
 7220SOL    HW222560   6.809   1.865   3.151
 7221SOL     OW22561   6.516   3.844   5.294
 7221SOL    HW122562   6.446   3.867   5.363
 7221SOL    HW222563   6.592   3.908   5.302
 7222SOL     OW22564   6.852   0.121   3.056
 7222SOL    HW122565   6.916   0.123   2.979
 7222SOL    HW222566   6.794   0.040   3.049
 7223SOL     OW22567   4.653   1.065   4.588
 7223SOL    HW122568   4.574   1.004   4.594
 7223SOL    HW222569   4.711   1.036   4.511
 7224SOL     OW22570   5.359   1.534   3.072
 7224SOL    HW122571   5.364   1.573   3.163
 7224SOL    HW222572   5.432   1.467   3.061
 7225SOL     OW22573   2.701   0.200   1.662
 7225SOL    HW122574   2.771   0.208   1.734
 7225SOL    HW222575   2.722   0.121   1.605
 7226SOL     OW22576   6.087   6.410   5.372
 7226SOL    HW122577   6.034   6.495   5.372
 7226SOL    HW222578   6.125   6.395   5.280
 7227SOL     OW22579   0.005   2.833   6.010
 7227SOL    HW122580   0.001   2.877   5.920
 7227SOL    HW222581   0.080   2.873   6.063
 7228SOL     OW22582   1.971   0.505   2.697
 7228SOL    HW122583   2.006   0.532   2.787
 7228SOL    HW222584   1.927   0.584   2.653
 7229SOL     OW22585   0.141   0.462   3.216
 7229SOL    HW122586   0.084   0.381   3.231
 7229SOL    HW222587   0.224   0.434   3.168
 7230SOL     OW22588   6.537   5.217   1.244
 7230SOL    HW122589   6.470   5.287   1.217
 7230SOL    HW222590   6.532   5.141   1.180
 7231SOL     OW22591   6.033   0.963   0.314
 7231SOL    HW122592   6.009   1.004   0.226
 7231SOL    HW222593   6.132   0.949   0.317
 7232SOL     OW22594   3.095   3.990   0.795
 7232SOL    HW122595   3.118   4.079   0.834
 7232SOL    HW222596   3.136   3.982   0.704
 7233SOL     OW22597   1.224   2.179   5.453
 7233SOL    HW122598   1.277   2.203   5.534
 7233SOL    HW222599   1.164   2.256   5.428
 7234SOL     OW22600   5.230   2.512   3.681
 7234SOL    HW122601   5.259   2.517   3.586
 7234SOL    HW222602   5.308   2.485   3.738
 7235SOL     OW22603   6.120   2.657   4.951
 7235SOL    HW122604   6.108   2.614   4.861
 7235SOL    HW222605   6.054   2.731   4.962
 7236SOL     OW22606   1.283   1.636   3.203
 7236SOL    HW122607   1.298   1.710   3.138
 7236SOL    HW222608   1.338   1.652   3.285
 7237SOL     OW22609   5.782   5.918   4.669
 7237SOL    HW122610   5.802   5.930   4.767
 7237SOL    HW222611   5.865   5.936   4.616
 7238SOL     OW22612   1.447   0.042   1.837
 7238SOL    HW122613   1.532   0.077   1.874
 7238SOL    HW222614   1.422   0.093   1.755
 7239SOL     OW22615   4.714   1.567   1.983
 7239SOL    HW122616   4.764   1.651   2.004
 7239SOL    HW222617   4.722   1.547   1.885
 7240SOL     OW22618   3.269   3.968   3.021
 7240SOL    HW122619   3.196   3.903   2.998
 7240SOL    HW222620   3.252   4.055   2.976
 7241SOL     OW22621   4.769   6.754   4.034
 7241SOL    HW122622   4.749   6.813   3.956
 7241SOL    HW222623   4.721   6.789   4.115
 7242SOL     OW22624   6.914   5.744   0.750
 7242SOL    HW122625   6.900   5.704   0.659
 7242SOL    HW222626   6.940   5.840   0.740
 7243SOL     OW22627   0.737   5.669   1.283
 7243SOL    HW122628   0.795   5.629   1.211
 7243SOL    HW222629   0.649   5.622   1.284
 7244SOL     OW22630   5.890   1.847   1.378
 7244SOL    HW122631   5.906   1.946   1.371
 7244SOL    HW222632   5.794   1.830   1.397
 7245SOL     OW22633   5.622   1.676   3.823
 7245SOL    HW122634   5.713   1.712   3.806
 7245SOL    HW222635   5.618   1.637   3.915
 7246SOL     OW22636   1.196   5.493   5.559
 7246SOL    HW122637   1.292   5.475   5.578
 7246SOL    HW222638   1.139   5.447   5.626
 7247SOL     OW22639   4.138   5.888   3.912
 7247SOL    HW122640   4.214   5.824   3.905
 7247SOL    HW222641   4.096   5.880   4.003
 7248SOL     OW22642   3.168   1.290   4.994
 7248SOL    HW122643   3.240   1.357   4.972
 7248SOL    HW222644   3.187   1.205   4.946
 7249SOL     OW22645   4.606   3.324   5.634
 7249SOL    HW122646   4.526   3.367   5.676
 7249SOL    HW222647   4.594   3.224   5.633
 7250SOL     OW22648   3.147   3.127   0.036
 7250SOL    HW122649   3.060   3.174   0.022
 7250SOL    HW222650   3.206   3.183   0.095
 7251SOL     OW22651   5.893   1.290   5.211
 7251SOL    HW122652   5.848   1.350   5.276
 7251SOL    HW222653   5.985   1.268   5.244
 7252SOL     OW22654   4.559   3.406   5.352
 7252SOL    HW122655   4.603   3.453   5.276
 7252SOL    HW222656   4.615   3.415   5.434
 7253SOL     OW22657   4.825   4.819   0.073
 7253SOL    HW122658   4.758   4.777   0.011
 7253SOL    HW222659   4.914   4.823   0.028
 7254SOL     OW22660   4.990   6.516   5.543
 7254SOL    HW122661   4.996   6.611   5.512
 7254SOL    HW222662   5.081   6.483   5.566
 7255SOL     OW22663   3.639   3.046   3.526
 7255SOL    HW122664   3.668   3.140   3.508
 7255SOL    HW222665   3.710   2.982   3.495
 7256SOL     OW22666   3.082   5.528   3.799
 7256SOL    HW122667   3.142   5.491   3.870
 7256SOL    HW222668   2.988   5.529   3.833
 7257SOL     OW22669   5.984   5.017   2.740
 7257SOL    HW122670   5.946   4.944   2.683
 7257SOL    HW222671   5.909   5.070   2.780
 7258SOL     OW22672   2.204   0.019   5.594
 7258SOL    HW122673   2.178   0.098   5.650
 7258SOL    HW222674   2.146   6.965   5.619
 7259SOL     OW22675   3.247   3.910   6.079
 7259SOL    HW122676   3.308   3.946   6.149
 7259SOL    HW222677   3.238   3.811   6.089
 7260SOL     OW22678   4.578   2.553   2.729
 7260SOL    HW122679   4.631   2.583   2.650
 7260SOL    HW222680   4.628   2.574   2.813
 7261SOL     OW22681   2.582   4.889   1.463
 7261SOL    HW122682   2.492   4.903   1.420
 7261SOL    HW222683   2.575   4.908   1.561
 7262SOL     OW22684   6.448   0.822   4.710
 7262SOL    HW122685   6.546   0.825   4.694
 7262SOL    HW222686   6.407   0.751   4.653
 7263SOL     OW22687   5.472   4.950   1.533
 7263SOL    HW122688   5.404   5.020   1.515
 7263SOL    HW222689   5.427   4.863   1.553
 7264SOL     OW22690   0.185   6.544   4.597
 7264SOL    HW122691   0.108   6.607   4.589
 7264SOL    HW222692   0.228   6.531   4.508
 7265SOL     OW22693   4.625   3.213   0.158
 7265SOL    HW122694   4.670   3.124   0.168
 7265SOL    HW222695   4.687   3.276   0.110
 7266SOL     OW22696   4.539   1.664   2.858
 7266SOL    HW122697   4.468   1.666   2.928
 7266SOL    HW222698   4.584   1.753   2.853
 7267SOL     OW22699   4.926   1.764   3.169
 7267SOL    HW122700   4.916   1.863   3.184
 7267SOL    HW222701   5.022   1.738   3.185
 7268SOL     OW22702   4.079   6.875   0.069
 7268SOL    HW122703   4.066   6.959   0.017
 7268SOL    HW222704   4.135   6.894   0.150
 7269SOL     OW22705   1.759   0.147   2.323
 7269SOL    HW122706   1.748   0.072   2.257
 7269SOL    HW222707   1.753   0.235   2.275
 7270SOL     OW22708   3.224   2.452   1.727
 7270SOL    HW122709   3.150   2.497   1.776
 7270SOL    HW222710   3.312   2.490   1.757
 7271SOL     OW22711   5.860   5.128   3.716
 7271SOL    HW122712   5.801   5.168   3.787
 7271SOL    HW222713   5.933   5.192   3.693
 7272SOL     OW22714   5.950   1.398   1.653
 7272SOL    HW122715   5.966   1.356   1.563
 7272SOL    HW222716   6.038   1.419   1.696
 7273SOL     OW22717   5.939   5.319   5.132
 7273SOL    HW122718   5.954   5.220   5.142
 7273SOL    HW222719   5.896   5.338   5.045
 7274SOL     OW22720   5.445   4.907   3.864
 7274SOL    HW122721   5.531   4.955   3.883
 7274SOL    HW222722   5.395   4.956   3.793
 7275SOL     OW22723   5.787   6.899   1.645
 7275SOL    HW122724   5.718   6.970   1.652
 7275SOL    HW222725   5.743   6.809   1.644
 7276SOL     OW22726   3.718   1.428   3.183
 7276SOL    HW122727   3.720   1.396   3.088
 7276SOL    HW222728   3.690   1.524   3.185
 7277SOL     OW22729   6.047   2.052   4.214
 7277SOL    HW122730   5.959   2.098   4.215
 7277SOL    HW222731   6.120   2.119   4.226
 7278SOL     OW22732   3.527   0.825   3.293
 7278SOL    HW122733   3.498   0.920   3.285
 7278SOL    HW222734   3.581   0.799   3.213
 7279SOL     OW22735   3.471   3.677   1.676
 7279SOL    HW122736   3.526   3.597   1.700
 7279SOL    HW222737   3.429   3.662   1.586
 7280SOL     OW22738   6.679   1.412   5.531
 7280SOL    HW122739   6.721   1.339   5.585
 7280SOL    HW222740   6.641   1.481   5.593
 7281SOL     OW22741   3.262   6.808   3.106
 7281SOL    HW122742   3.170   6.815   3.068
 7281SOL    HW222743   3.267   6.860   3.191
 7282SOL     OW22744   7.007   3.740   1.149
 7282SOL    HW122745   0.037   3.708   1.227
 7282SOL    HW222746   6.931   3.678   1.133
 7283SOL     OW22747   3.234   6.392   2.966
 7283SOL    HW122748   3.210   6.422   2.874
 7283SOL    HW222749   3.190   6.305   2.986
 7284SOL     OW22750   0.727   0.348   3.693
 7284SOL    HW122751   0.758   0.264   3.738
 7284SOL    HW222752   0.727   0.423   3.759
 7285SOL     OW22753   5.092   2.800   1.594
 7285SOL    HW122754   5.025   2.850   1.649
 7285SOL    HW222755   5.045   2.731   1.539
 7286SOL     OW22756   6.592   1.062   4.528
 7286SOL    HW122757   6.546   1.150   4.517
 7286SOL    HW222758   6.601   1.041   4.625
 7287SOL     OW22759   3.110   1.878   4.106
 7287SOL    HW122760   3.142   1.971   4.089
 7287SOL    HW222761   3.095   1.866   4.204
 7288SOL     OW22762   3.125   1.961   1.884
 7288SOL    HW122763   3.208   2.009   1.913
 7288SOL    HW222764   3.051   2.027   1.870
 7289SOL     OW22765   6.688   2.403   1.120
 7289SOL    HW122766   6.626   2.416   1.043
 7289SOL    HW222767   6.637   2.406   1.206
 7290SOL     OW22768   3.331   1.941   4.707
 7290SOL    HW122769   3.428   1.918   4.721
 7290SOL    HW222770   3.303   1.913   4.615
 7291SOL     OW22771   1.031   1.050   0.625
 7291SOL    HW122772   1.079   1.108   0.691
 7291SOL    HW222773   0.948   1.096   0.594
 7292SOL     OW22774   4.050   1.146   2.075
 7292SOL    HW122775   4.003   1.113   2.157
 7292SOL    HW222776   4.021   1.240   2.056
 7293SOL     OW22777   6.580   1.184   4.205
 7293SOL    HW122778   6.670   1.216   4.179
 7293SOL    HW222779   6.585   1.139   4.294
 7294SOL     OW22780   2.994   0.990   2.880
 7294SOL    HW122781   2.971   1.009   2.975
 7294SOL    HW222782   3.091   1.007   2.865
 7295SOL     OW22783   5.581   4.146   1.780
 7295SOL    HW122784   5.590   4.097   1.693
 7295SOL    HW222785   5.595   4.082   1.856
 7296SOL     OW22786   3.179   6.924   2.257
 7296SOL    HW122787   3.198   6.874   2.173
 7296SOL    HW222788   3.088   6.898   2.291
 7297SOL     OW22789   4.115   0.378   0.130
 7297SOL    HW122790   4.191   0.443   0.125
 7297SOL    HW222791   4.147   0.292   0.169
 7298SOL     OW22792   3.876   4.411   1.062
 7298SOL    HW122793   3.913   4.497   1.099
 7298SOL    HW222794   3.939   4.337   1.080
 7299SOL     OW22795   0.213   3.131   0.076
 7299SOL    HW122796   0.158   3.070   0.133
 7299SOL    HW222797   0.274   3.078   0.018
 7300SOL     OW22798   0.775   4.094   1.514
 7300SOL    HW122799   0.754   4.061   1.422
 7300SOL    HW222800   0.776   4.194   1.514
 7301SOL     OW22801   4.570   1.520   0.065
 7301SOL    HW122802   4.567   1.509   0.164
 7301SOL    HW222803   4.655   1.566   0.039
 7302SOL     OW22804   5.698   1.613   6.249
 7302SOL    HW122805   5.652   1.529   6.220
 7302SOL    HW222806   5.680   1.686   6.182
 7303SOL     OW22807   3.429   2.124   1.568
 7303SOL    HW122808   3.448   2.215   1.530
 7303SOL    HW222809   3.335   2.121   1.602
 7304SOL     OW22810   2.221   6.938   0.316
 7304SOL    HW122811   2.299   6.963   0.373
 7304SOL    HW222812   2.137   6.942   0.370
 7305SOL     OW22813   0.039   6.903   6.404
 7305SOL    HW122814   6.992   6.973   6.399
 7305SOL    HW222815   0.099   6.921   6.481
 7306SOL     OW22816   1.873   3.724   0.481
 7306SOL    HW122817   1.811   3.800   0.504
 7306SOL    HW222818   1.828   3.637   0.501
 7307SOL     OW22819   4.257   6.275   2.121
 7307SOL    HW122820   4.218   6.311   2.206
 7307SOL    HW222821   4.291   6.351   2.066
 7308SOL     OW22822   3.408   1.723   2.712
 7308SOL    HW122823   3.483   1.697   2.773
 7308SOL    HW222824   3.406   1.662   2.633
 7309SOL     OW22825   2.699   4.773   4.427
 7309SOL    HW122826   2.623   4.725   4.470
 7309SOL    HW222827   2.710   4.740   4.333
 7310SOL     OW22828   3.967   3.241   0.283
 7310SOL    HW122829   3.884   3.295   0.301
 7310SOL    HW222830   3.950   3.176   0.210
 7311SOL     OW22831   1.308   6.451   5.486
 7311SOL    HW122832   1.400   6.487   5.495
 7311SOL    HW222833   1.260   6.458   5.573
 7312SOL     OW22834   6.578   2.162   4.443
 7312SOL    HW122835   6.495   2.137   4.393
 7312SOL    HW222836   6.577   2.115   4.532
 7313SOL     OW22837   3.366   1.233   3.172
 7313SOL    HW122838   3.431   1.200   3.103
 7313SOL    HW222839   3.283   1.265   3.127
 7314SOL     OW22840   2.309   5.748   4.752
 7314SOL    HW122841   2.235   5.681   4.752
 7314SOL    HW222842   2.294   5.814   4.679
 7315SOL     OW22843   2.268   5.010   2.770
 7315SOL    HW122844   2.353   5.058   2.792
 7315SOL    HW222845   2.228   5.050   2.688
 7316SOL     OW22846   3.804   1.008   1.848
 7316SOL    HW122847   3.858   1.071   1.792
 7316SOL    HW222848   3.859   0.927   1.867
 7317SOL     OW22849   6.455   1.594   1.753
 7317SOL    HW122850   6.409   1.675   1.789
 7317SOL    HW222851   6.545   1.619   1.718
 7318SOL     OW22852   4.809   5.967   1.699
 7318SOL    HW122853   4.884   6.017   1.656
 7318SOL    HW222854   4.836   5.872   1.715
 7319SOL     OW22855   4.522   5.058   5.952
 7319SOL    HW122856   4.470   5.025   5.873
 7319SOL    HW222857   4.620   5.050   5.932
 7320SOL     OW22858   1.461   2.970   0.328
 7320SOL    HW122859   1.401   3.037   0.372
 7320SOL    HW222860   1.424   2.879   0.341
 7321SOL     OW22861   2.138   2.276   5.481
 7321SOL    HW122862   2.123   2.361   5.430
 7321SOL    HW222863   2.183   2.297   5.568
 7322SOL     OW22864   2.319   2.147   4.259
 7322SOL    HW122865   2.324   2.215   4.331
 7322SOL    HW222866   2.248   2.173   4.193
 7323SOL     OW22867   2.622   1.498   0.718
 7323SOL    HW122868   2.527   1.514   0.692
 7323SOL    HW222869   2.662   1.430   0.657
 7324SOL     OW22870   5.217   3.734   4.466
 7324SOL    HW122871   5.274   3.659   4.434
 7324SOL    HW222872   5.240   3.817   4.416
 7325SOL     OW22873   3.432   0.481   6.541
 7325SOL    HW122874   3.360   0.543   6.574
 7325SOL    HW222875   3.423   0.393   6.588
 7326SOL     OW22876   3.843   6.184   0.051
 7326SOL    HW122877   3.758   6.133   0.060
 7326SOL    HW222878   3.866   6.195   6.977
 7327SOL     OW22879   1.107   4.641   3.368
 7327SOL    HW122880   1.032   4.636   3.302
 7327SOL    HW222881   1.084   4.590   3.450
 7328SOL     OW22882   4.363   5.408   6.934
 7328SOL    HW122883   4.314   5.323   6.913
 7328SOL    HW222884   4.334   5.442   7.023
 7329SOL     OW22885   2.894   3.742   6.559
 7329SOL    HW122886   2.897   3.840   6.536
 7329SOL    HW222887   2.952   3.691   6.495
 7330SOL     OW22888   2.314   3.490   0.984
 7330SOL    HW122889   2.283   3.419   0.922
 7330SOL    HW222890   2.339   3.450   1.072
 7331SOL     OW22891   5.355   1.347   2.629
 7331SOL    HW122892   5.308   1.258   2.627
 7331SOL    HW222893   5.287   1.419   2.643
 7332SOL     OW22894   2.589   6.879   5.103
 7332SOL    HW122895   2.666   6.940   5.127
 7332SOL    HW222896   2.613   6.826   5.022
 7333SOL     OW22897   6.520   1.080   1.764
 7333SOL    HW122898   6.518   1.127   1.676
 7333SOL    HW222899   6.588   1.124   1.823
 7334SOL     OW22900   1.099   4.962   4.564
 7334SOL    HW122901   1.076   4.928   4.655
 7334SOL    HW222902   1.091   5.062   4.562
 7335SOL     OW22903   0.167   3.180   2.480
 7335SOL    HW122904   0.078   3.179   2.525
 7335SOL    HW222905   0.238   3.152   2.545
 7336SOL     OW22906   2.616   6.934   1.176
 7336SOL    HW122907   2.564   6.853   1.200
 7336SOL    HW222908   2.693   6.945   1.239
 7337SOL     OW22909   3.291   1.927   2.389
 7337SOL    HW122910   3.292   2.001   2.321
 7337SOL    HW222911   3.339   1.848   2.352
 7338SOL     OW22912   5.490   2.866   0.313
 7338SOL    HW122913   5.395   2.847   0.286
 7338SOL    HW222914   5.496   2.958   0.352
 7339SOL     OW22915   6.824   0.325   4.334
 7339SOL    HW122916   6.845   0.262   4.259
 7339SOL    HW222917   6.737   0.371   4.315
 7340SOL     OW22918   3.231   6.343   0.774
 7340SOL    HW122919   3.301   6.414   0.782
 7340SOL    HW222920   3.201   6.336   0.679
 7341SOL     OW22921   6.568   5.446   3.316
 7341SOL    HW122922   6.604   5.353   3.304
 7341SOL    HW222923   6.472   5.448   3.286
 7342SOL     OW22924   0.258   5.352   6.906
 7342SOL    HW122925   0.195   5.278   6.929
 7342SOL    HW222926   0.335   5.351   6.969
 7343SOL     OW22927   0.522   2.522   2.701
 7343SOL    HW122928   0.617   2.492   2.705
 7343SOL    HW222929   0.462   2.448   2.730
 7344SOL     OW22930   2.197   1.208   6.008
 7344SOL    HW122931   2.187   1.117   6.049
 7344SOL    HW222932   2.255   1.265   6.067
 7345SOL     OW22933   1.328   6.829   6.871
 7345SOL    HW122934   1.243   6.849   6.920
 7345SOL    HW222935   1.383   6.912   6.866
 7346SOL     OW22936   3.569   5.236   3.454
 7346SOL    HW122937   3.532   5.167   3.516
 7346SOL    HW222938   3.521   5.231   3.366
 7347SOL     OW22939   5.673   3.214   3.728
 7347SOL    HW122940   5.587   3.257   3.756
 7347SOL    HW222941   5.682   3.218   3.629
 7348SOL     OW22942   5.635   0.127   6.613
 7348SOL    HW122943   5.646   0.042   6.562
 7348SOL    HW222944   5.723   0.176   6.615
 7349SOL     OW22945   3.413   2.228   1.081
 7349SOL    HW122946   3.452   2.320   1.077
 7349SOL    HW222947   3.401   2.193   0.988
 7350SOL     OW22948   1.773   1.340   2.957
 7350SOL    HW122949   1.702   1.278   2.991
 7350SOL    HW222950   1.791   1.410   3.026
 7351SOL     OW22951   5.819   4.697   0.283
 7351SOL    HW122952   5.791   4.604   0.261
 7351SOL    HW222953   5.770   4.761   0.224
 7352SOL     OW22954   6.673   1.318   3.022
 7352SOL    HW122955   6.612   1.326   2.944
 7352SOL    HW222956   6.706   1.408   3.048
 7353SOL     OW22957   5.598   1.814   5.236
 7353SOL    HW122958   5.532   1.867   5.184
 7353SOL    HW222959   5.636   1.741   5.178
 7354SOL     OW22960   5.331   4.402   5.160
 7354SOL    HW122961   5.312   4.422   5.064
 7354SOL    HW222962   5.322   4.303   5.176
 7355SOL     OW22963   0.339   5.399   0.486
 7355SOL    HW122964   0.373   5.311   0.516
 7355SOL    HW222965   0.303   5.391   0.393
 7356SOL     OW22966   0.117   1.793   6.119
 7356SOL    HW122967   0.018   1.793   6.134
 7356SOL    HW222968   0.151   1.887   6.119
 7357SOL     OW22969   0.242   1.389   0.661
 7357SOL    HW122970   0.258   1.475   0.710
 7357SOL    HW222971   0.144   1.374   0.649
 7358SOL     OW22972   3.185   1.075   3.327
 7358SOL    HW122973   3.094   1.116   3.332
 7358SOL    HW222974   3.242   1.128   3.264
 7359SOL     OW22975   3.407   3.737   4.347
 7359SOL    HW122976   3.360   3.760   4.432
 7359SOL    HW222977   3.481   3.802   4.332
 7360SOL     OW22978   1.465   4.350   6.206
 7360SOL    HW122979   1.484   4.446   6.225
 7360SOL    HW222980   1.540   4.293   6.240
 7361SOL     OW22981   4.874   6.941   1.858
 7361SOL    HW122982   4.828   6.950   1.769
 7361SOL    HW222983   4.841   6.858   1.903
 7362SOL     OW22984   1.202   5.655   6.648
 7362SOL    HW122985   1.175   5.751   6.649
 7362SOL    HW222986   1.135   5.601   6.699
 7363SOL     OW22987   4.567   1.858   6.035
 7363SOL    HW122988   4.557   1.841   5.937
 7363SOL    HW222989   4.654   1.821   6.067
 7364SOL     OW22990   5.233   0.039   0.859
 7364SOL    HW122991   5.136   0.034   0.879
 7364SOL    HW222992   5.252   7.016   0.773
 7365SOL     OW22993   5.355   6.943   1.234
 7365SOL    HW122994   5.414   6.937   1.153
 7365SOL    HW222995   5.411   6.928   1.316
 7366SOL     OW22996   2.453   0.012   0.438
 7366SOL    HW122997   2.479   0.053   0.350
 7366SOL    HW222998   2.535   0.001   0.494
 7367SOL     OW22999   4.470   3.050   6.544
 7367SOL    HW123000   4.433   3.091   6.628
 7367SOL    HW223001   4.543   2.986   6.568
 7368SOL     OW23002   2.944   3.255   4.778
 7368SOL    HW123003   2.852   3.221   4.794
 7368SOL    HW223004   2.973   3.311   4.856
 7369SOL     OW23005   6.785   6.962   6.446
 7369SOL    HW123006   6.793   6.935   6.542
 7369SOL    HW223007   6.719   0.013   6.438
 7370SOL     OW23008   0.553   6.017   1.232
 7370SOL    HW123009   0.550   6.006   1.133
 7370SOL    HW223010   0.642   5.986   1.265
 7371SOL     OW23011   1.969   4.809   3.750
 7371SOL    HW123012   1.935   4.763   3.668
 7371SOL    HW223013   1.895   4.860   3.793
 7372SOL     OW23014   2.668   0.485   5.414
 7372SOL    HW123015   2.708   0.431   5.340
 7372SOL    HW223016   2.603   0.429   5.465
 7373SOL     OW23017   3.944   1.608   1.064
 7373SOL    HW123018   3.845   1.603   1.060
 7373SOL    HW223019   3.975   1.608   1.159
 7374SOL     OW23020   2.376   3.455   0.642
 7374SOL    HW123021   2.412   3.476   0.551
 7374SOL    HW223022   2.281   3.424   0.634
 7375SOL     OW23023   2.461   5.901   2.982
 7375SOL    HW123024   2.483   5.925   3.076
 7375SOL    HW223025   2.512   5.960   2.919
 7376SOL     OW23026   3.394   4.114   6.820
 7376SOL    HW123027   3.400   4.034   6.880
 7376SOL    HW223028   3.348   4.188   6.869
 7377SOL     OW23029   5.999   5.903   1.242
 7377SOL    HW123030   6.011   5.978   1.177
 7377SOL    HW223031   6.085   5.853   1.249
 7378SOL     OW23032   0.920   1.743   5.760
 7378SOL    HW123033   0.834   1.773   5.718
 7378SOL    HW223034   0.906   1.654   5.804
 7379SOL     OW23035   4.480   0.568   0.374
 7379SOL    HW123036   4.399   0.519   0.405
 7379SOL    HW223037   4.481   0.660   0.415
 7380SOL     OW23038   0.077   2.694   6.853
 7380SOL    HW123039   0.040   2.602   6.864
 7380SOL    HW223040   0.002   2.760   6.847
 7381SOL     OW23041   4.992   2.565   0.669
 7381SOL    HW123042   5.054   2.638   0.698
 7381SOL    HW223043   5.031   2.477   0.695
 7382SOL     OW23044   1.370   5.429   3.893
 7382SOL    HW123045   1.361   5.515   3.844
 7382SOL    HW223046   1.417   5.362   3.836
 7383SOL     OW23047   1.551   4.504   2.667
 7383SOL    HW123048   1.587   4.508   2.574
 7383SOL    HW223049   1.548   4.409   2.698
 7384SOL     OW23050   6.119   1.717   1.294
 7384SOL    HW123051   6.165   1.788   1.241
 7384SOL    HW223052   6.026   1.745   1.315
 7385SOL     OW23053   5.786   0.559   2.065
 7385SOL    HW123054   5.729   0.477   2.057
 7385SOL    HW223055   5.822   0.584   1.976
 7386SOL     OW23056   6.537   1.606   5.685
 7386SOL    HW123057   6.456   1.654   5.719
 7386SOL    HW223058   6.618   1.660   5.704
 7387SOL     OW23059   4.690   6.118   3.572
 7387SOL    HW123060   4.713   6.028   3.535
 7387SOL    HW223061   4.607   6.111   3.628
 7388SOL     OW23062   5.131   3.558   4.671
 7388SOL    HW123063   5.042   3.594   4.697
 7388SOL    HW223064   5.171   3.615   4.600
 7389SOL     OW23065   1.684   2.784   5.374
 7389SOL    HW123066   1.611   2.812   5.436
 7389SOL    HW223067   1.649   2.780   5.280
 7390SOL     OW23068   4.455   6.371   0.510
 7390SOL    HW123069   4.506   6.345   0.428
 7390SOL    HW223070   4.472   6.467   0.531
 7391SOL     OW23071   0.004   4.978   0.526
 7391SOL    HW123072   0.088   4.939   0.564
 7391SOL    HW223073   0.021   5.009   0.432
 7392SOL     OW23074   1.842   4.319   2.258
 7392SOL    HW123075   1.789   4.403   2.269
 7392SOL    HW223076   1.912   4.313   2.330
 7393SOL     OW23077   1.092   3.788   0.526
 7393SOL    HW123078   1.150   3.707   0.534
 7393SOL    HW223079   1.147   3.864   0.490
 7394SOL     OW23080   2.905   3.426   6.830
 7394SOL    HW123081   2.850   3.411   6.747
 7394SOL    HW223082   2.934   3.338   6.866
 7395SOL     OW23083   2.635   0.565   0.409
 7395SOL    HW123084   2.636   0.465   0.402
 7395SOL    HW223085   2.718   0.597   0.455
 7396SOL     OW23086   6.579   6.606   2.386
 7396SOL    HW123087   6.571   6.526   2.444
 7396SOL    HW223088   6.524   6.681   2.423
 7397SOL     OW23089   6.542   4.334   4.027
 7397SOL    HW123090   6.613   4.404   4.025
 7397SOL    HW223091   6.546   4.284   4.114
 7398SOL     OW23092   4.452   6.529   2.550
 7398SOL    HW123093   4.430   6.493   2.641
 7398SOL    HW223094   4.502   6.459   2.498
 7399SOL     OW23095   5.116   6.101   3.981
 7399SOL    HW123096   5.046   6.035   3.955
 7399SOL    HW223097   5.193   6.095   3.916
 7400SOL     OW23098   2.463   4.268   6.828
 7400SOL    HW123099   2.389   4.228   6.882
 7400SOL    HW223100   2.548   4.219   6.847
 7401SOL     OW23101   6.642   3.026   4.018
 7401SOL    HW123102   6.545   3.048   4.009
 7401SOL    HW223103   6.656   2.929   4.000
 7402SOL     OW23104   1.841   6.494   4.411
 7402SOL    HW123105   1.764   6.517   4.351
 7402SOL    HW223106   1.868   6.575   4.463
 7403SOL     OW23107   2.288   3.218   1.691
 7403SOL    HW123108   2.298   3.307   1.736
 7403SOL    HW223109   2.240   3.156   1.752
 7404SOL     OW23110   1.345   2.960   2.966
 7404SOL    HW123111   1.269   2.972   3.030
 7404SOL    HW223112   1.367   3.048   2.924
 7405SOL     OW23113   3.617   4.470   6.155
 7405SOL    HW123114   3.547   4.487   6.086
 7405SOL    HW223115   3.667   4.554   6.173
 7406SOL     OW23116   6.553   6.228   3.048
 7406SOL    HW123117   6.597   6.143   3.076
 7406SOL    HW223118   6.606   6.271   2.975
 7407SOL     OW23119   3.495   1.470   5.854
 7407SOL    HW123120   3.566   1.494   5.919
 7407SOL    HW223121   3.467   1.551   5.803
 7408SOL     OW23122   1.517   3.656   5.335
 7408SOL    HW123123   1.441   3.713   5.366
 7408SOL    HW223124   1.551   3.690   5.247
 7409SOL     OW23125   2.179   0.443   4.347
 7409SOL    HW123126   2.214   0.535   4.369
 7409SOL    HW223127   2.144   0.443   4.253
 7410SOL     OW23128   4.873   5.830   6.099
 7410SOL    HW123129   4.800   5.883   6.055
 7410SOL    HW223130   4.837   5.785   6.181
 7411SOL     OW23131   5.774   3.920   5.486
 7411SOL    HW123132   5.803   3.824   5.481
 7411SOL    HW223133   5.827   3.967   5.556
 7412SOL     OW23134   1.105   0.935   0.381
 7412SOL    HW123135   1.144   0.976   0.299
 7412SOL    HW223136   1.109   1.000   0.457
 7413SOL     OW23137   6.513   3.694   3.848
 7413SOL    HW123138   6.558   3.607   3.826
 7413SOL    HW223139   6.491   3.696   3.946
 7414SOL     OW23140   0.481   5.934   1.959
 7414SOL    HW123141   0.513   6.004   1.895
 7414SOL    HW223142   0.521   5.952   2.049
 7415SOL     OW23143   3.212   1.695   3.048
 7415SOL    HW123144   3.275   1.618   3.044
 7415SOL    HW223145   3.168   1.707   2.959
 7416SOL     OW23146   6.195   0.059   2.656
 7416SOL    HW123147   6.225   0.149   2.687
 7416SOL    HW223148   6.098   0.046   2.679
 7417SOL     OW23149   0.311   4.992   1.607
 7417SOL    HW123150   0.374   5.064   1.582
 7417SOL    HW223151   0.351   4.903   1.584
 7418SOL     OW23152   2.029   3.709   0.839
 7418SOL    HW123153   2.057   3.617   0.863
 7418SOL    HW223154   1.932   3.721   0.857
 7419SOL     OW23155   6.308   2.181   5.958
 7419SOL    HW123156   6.389   2.136   5.994
 7419SOL    HW223157   6.261   2.229   6.032
 7420SOL     OW23158   0.346   5.611   2.305
 7420SOL    HW123159   0.386   5.643   2.220
 7420SOL    HW223160   0.247   5.624   2.302
 7421SOL     OW23161   4.314   2.149   1.487
 7421SOL    HW123162   4.218   2.166   1.508
 7421SOL    HW223163   4.332   2.175   1.392
 7422SOL     OW23164   1.229   2.193   1.014
 7422SOL    HW123165   1.257   2.288   1.031
 7422SOL    HW223166   1.286   2.154   0.941
 7423SOL     OW23167   2.845   4.227   0.443
 7423SOL    HW123168   2.837   4.138   0.397
 7423SOL    HW223169   2.917   4.281   0.399
 7424SOL     OW23170   5.160   0.616   3.751
 7424SOL    HW123171   5.152   0.646   3.846
 7424SOL    HW223172   5.257   0.618   3.724
 7425SOL     OW23173   3.446   0.775   4.583
 7425SOL    HW123174   3.372   0.810   4.526
 7425SOL    HW223175   3.485   0.693   4.539
 7426SOL     OW23176   0.288   0.654   6.338
 7426SOL    HW123177   0.350   0.731   6.355
 7426SOL    HW223178   0.200   0.689   6.304
 7427SOL     OW23179   5.485   5.171   5.505
 7427SOL    HW123180   5.566   5.133   5.461
 7427SOL    HW223181   5.467   5.263   5.469
 7428SOL     OW23182   4.913   1.340   5.550
 7428SOL    HW123183   4.829   1.307   5.594
 7428SOL    HW223184   4.949   1.269   5.490
 7429SOL     OW23185   6.117   6.383   3.960
 7429SOL    HW123186   6.058   6.302   3.961
 7429SOL    HW223187   6.144   6.406   4.053
 7430SOL     OW23188   0.400   4.008   4.240
 7430SOL    HW123189   0.458   4.090   4.230
 7430SOL    HW223190   0.390   3.986   4.337
 7431SOL     OW23191   0.020   3.810   2.944
 7431SOL    HW123192   0.081   3.842   3.016
 7431SOL    HW223193   0.038   3.860   2.860
 7432SOL     OW23194   2.045   6.016   5.897
 7432SOL    HW123195   1.960   6.041   5.851
 7432SOL    HW223196   2.057   6.072   5.979
 7433SOL     OW23197   0.552   7.022   0.723
 7433SOL    HW123198   0.570   0.034   0.631
 7433SOL    HW223199   0.506   0.068   0.778
 7434SOL     OW23200   4.491   6.646   0.431
 7434SOL    HW123201   4.537   6.646   0.343
 7434SOL    HW223202   4.452   6.736   0.448
 7435SOL     OW23203   0.994   5.042   0.019
 7435SOL    HW123204   0.912   5.012   6.994
 7435SOL    HW223205   1.073   4.990   7.012
 7436SOL     OW23206   5.119   3.468   6.595
 7436SOL    HW123207   5.084   3.443   6.504
 7436SOL    HW223208   5.042   3.492   6.654
 7437SOL     OW23209   0.082   6.111   5.554
 7437SOL    HW123210   0.126   6.089   5.641
 7437SOL    HW223211   0.140   6.175   5.503
 7438SOL     OW23212   5.415   3.912   0.626
 7438SOL    HW123213   5.495   3.930   0.684
 7438SOL    HW223214   5.333   3.945   0.672
 7439SOL     OW23215   0.876   6.392   2.930
 7439SOL    HW123216   0.960   6.442   2.907
 7439SOL    HW223217   0.866   6.386   3.029
 7440SOL     OW23218   0.610   1.166   4.296
 7440SOL    HW123219   0.588   1.151   4.199
 7440SOL    HW223220   0.709   1.153   4.309
 7441SOL     OW23221   6.389   0.377   4.140
 7441SOL    HW123222   6.340   0.309   4.086
 7441SOL    HW223223   6.329   0.409   4.214
 7442SOL     OW23224   1.636   0.970   6.845
 7442SOL    HW123225   1.540   0.944   6.831
 7442SOL    HW223226   1.646   1.069   6.830
 7443SOL     OW23227   6.767   1.790   1.908
 7443SOL    HW123228   6.742   1.741   1.824
 7443SOL    HW223229   6.818   1.872   1.884
 7444SOL     OW23230   1.486   2.520   5.458
 7444SOL    HW123231   1.455   2.583   5.387
 7444SOL    HW223232   1.436   2.539   5.543
 7445SOL     OW23233   5.764   3.059   2.022
 7445SOL    HW123234   5.854   3.074   1.982
 7445SOL    HW223235   5.756   2.963   2.050
 7446SOL     OW23236   4.836   4.192   2.808
 7446SOL    HW123237   4.760   4.240   2.764
 7446SOL    HW223238   4.805   4.155   2.895
 7447SOL     OW23239   1.178   3.977   6.395
 7447SOL    HW123240   1.181   3.890   6.345
 7447SOL    HW223241   1.214   4.049   6.336
 7448SOL     OW23242   0.481   1.185   5.895
 7448SOL    HW123243   0.553   1.127   5.857
 7448SOL    HW223244   0.521   1.249   5.961
 7449SOL     OW23245   3.462   0.478   2.853
 7449SOL    HW123246   3.533   0.408   2.851
 7449SOL    HW223247   3.372   0.435   2.853
 7450SOL     OW23248   3.801   1.919   1.624
 7450SOL    HW123249   3.726   1.967   1.669
 7450SOL    HW223250   3.830   1.842   1.680
 7451SOL     OW23251   1.355   0.919   2.042
 7451SOL    HW123252   1.356   0.890   2.138
 7451SOL    HW223253   1.389   1.013   2.036
 7452SOL     OW23254   1.683   5.752   2.994
 7452SOL    HW123255   1.772   5.723   2.959
 7452SOL    HW223256   1.633   5.801   2.923
 7453SOL     OW23257   6.584   4.455   4.805
 7453SOL    HW123258   6.596   4.485   4.710
 7453SOL    HW223259   6.649   4.382   4.825
 7454SOL     OW23260   2.946   2.133   6.989
 7454SOL    HW123261   2.973   2.220   6.948
 7454SOL    HW223262   3.001   2.059   6.950
 7455SOL     OW23263   5.062   6.771   0.858
 7455SOL    HW123264   4.969   6.738   0.875
 7455SOL    HW223265   5.089   6.833   0.932
 7456SOL     OW23266   1.336   3.831   5.740
 7456SOL    HW123267   1.290   3.850   5.827
 7456SOL    HW223268   1.435   3.842   5.751
 7457SOL     OW23269   0.365   5.964   5.968
 7457SOL    HW123270   0.424   6.029   5.920
 7457SOL    HW223271   0.313   5.910   5.901
 7458SOL     OW23272   2.821   0.439   1.539
 7458SOL    HW123273   2.760   0.370   1.578
 7458SOL    HW223274   2.856   0.406   1.451
 7459SOL     OW23275   3.886   6.167   3.566
 7459SOL    HW123276   3.872   6.122   3.478
 7459SOL    HW223277   3.861   6.105   3.640
 7460SOL     OW23278   0.787   5.543   6.514
 7460SOL    HW123279   0.761   5.509   6.605
 7460SOL    HW223280   0.768   5.641   6.509
 7461SOL     OW23281   4.190   1.301   3.322
 7461SOL    HW123282   4.275   1.323   3.274
 7461SOL    HW223283   4.113   1.345   3.275
 7462SOL     OW23284   1.911   1.575   4.032
 7462SOL    HW123285   1.944   1.658   3.987
 7462SOL    HW223286   1.967   1.497   4.002
 7463SOL     OW23287   3.995   3.688   2.641
 7463SOL    HW123288   4.044   3.674   2.727
 7463SOL    HW223289   4.042   3.638   2.568
 7464SOL     OW23290   4.538   5.668   0.309
 7464SOL    HW123291   4.576   5.633   0.395
 7464SOL    HW223292   4.599   5.739   0.272
 7465SOL     OW23293   3.811   1.489   2.870
 7465SOL    HW123294   3.898   1.459   2.908
 7465SOL    HW223295   3.814   1.480   2.770
 7466SOL     OW23296   6.546   0.183   0.457
 7466SOL    HW123297   6.547   0.139   0.546
 7466SOL    HW223298   6.596   0.270   0.462
 7467SOL     OW23299   4.419   2.526   0.925
 7467SOL    HW123300   4.348   2.554   0.990
 7467SOL    HW223301   4.509   2.542   0.965
 7468SOL     OW23302   5.625   4.466   4.560
 7468SOL    HW123303   5.567   4.506   4.631
 7468SOL    HW223304   5.572   4.400   4.507
 7469SOL     OW23305   5.669   1.976   1.534
 7469SOL    HW123306   5.696   1.890   1.578
 7469SOL    HW223307   5.578   1.967   1.494
 7470SOL     OW23308   0.318   3.420   3.328
 7470SOL    HW123309   0.318   3.511   3.288
 7470SOL    HW223310   0.327   3.352   3.256
 7471SOL     OW23311   6.675   4.390   5.383
 7471SOL    HW123312   6.740   4.407   5.309
 7471SOL    HW223313   6.697   4.303   5.427
 7472SOL     OW23314   4.162   5.561   3.150
 7472SOL    HW123315   4.103   5.641   3.149
 7472SOL    HW223316   4.193   5.541   3.057
 7473SOL     OW23317   1.662   2.496   6.885
 7473SOL    HW123318   1.700   2.547   6.807
 7473SOL    HW223319   1.730   2.430   6.917
 7474SOL     OW23320   2.841   1.491   1.992
 7474SOL    HW123321   2.744   1.482   2.014
 7474SOL    HW223322   2.859   1.582   1.954
 7475SOL     OW23323   5.108   0.578   6.080
 7475SOL    HW123324   5.167   0.611   6.007
 7475SOL    HW223325   5.023   0.543   6.041
 7476SOL     OW23326   1.943   6.708   4.532
 7476SOL    HW123327   1.984   6.644   4.597
 7476SOL    HW223328   1.962   6.802   4.562
 7477SOL     OW23329   4.806   4.316   4.421
 7477SOL    HW123330   4.751   4.368   4.356
 7477SOL    HW223331   4.819   4.223   4.387
 7478SOL     OW23332   0.274   4.553   1.496
 7478SOL    HW123333   0.217   4.588   1.421
 7478SOL    HW223334   0.227   4.568   1.583
 7479SOL     OW23335   3.727   0.712   4.989
 7479SOL    HW123336   3.712   0.788   4.926
 7479SOL    HW223337   3.639   0.671   5.014
 7480SOL     OW23338   5.721   5.392   0.316
 7480SOL    HW123339   5.661   5.352   0.246
 7480SOL    HW223340   5.755   5.319   0.375
 7481SOL     OW23341   6.083   6.419   0.323
 7481SOL    HW123342   5.991   6.399   0.356
 7481SOL    HW223343   6.087   6.404   0.224
 7482SOL     OW23344   4.606   0.154   4.823
 7482SOL    HW123345   4.574   0.222   4.757
 7482SOL    HW223346   4.605   0.064   4.781
 7483SOL     OW23347   3.336   6.817   6.735
 7483SOL    HW123348   3.404   6.789   6.667
 7483SOL    HW223349   3.318   6.915   6.725
 7484SOL     OW23350   3.745   6.850   1.258
 7484SOL    HW123351   3.752   6.864   1.159
 7484SOL    HW223352   3.834   6.866   1.301
 7485SOL     OW23353   0.599   6.504   5.146
 7485SOL    HW123354   0.510   6.462   5.132
 7485SOL    HW223355   0.664   6.469   5.078
 7486SOL     OW23356   1.417   2.142   4.975
 7486SOL    HW123357   1.487   2.206   5.009
 7486SOL    HW223358   1.355   2.119   5.050
 7487SOL     OW23359   3.382   5.285   2.828
 7487SOL    HW123360   3.286   5.256   2.820
 7487SOL    HW223361   3.386   5.368   2.884
 7488SOL     OW23362   4.529   1.306   5.090
 7488SOL    HW123363   4.505   1.398   5.123
 7488SOL    HW223364   4.449   1.264   5.047
 7489SOL     OW23365   0.383   3.201   3.176
 7489SOL    HW123366   0.347   3.124   3.229
 7489SOL    HW223367   0.390   3.176   3.080
 7490SOL     OW23368   5.588   6.804   2.784
 7490SOL    HW123369   5.537   6.805   2.698
 7490SOL    HW223370   5.681   6.837   2.768
 7491SOL     OW23371   0.822   6.998   0.837
 7491SOL    HW123372   0.733   7.000   0.792
 7491SOL    HW223373   0.816   6.940   0.919
 7492SOL     OW23374   2.007   1.843   2.800
 7492SOL    HW123375   2.080   1.880   2.857
 7492SOL    HW223376   2.025   1.746   2.781
 7493SOL     OW23377   5.437   4.394   6.707
 7493SOL    HW123378   5.428   4.365   6.612
 7493SOL    HW223379   5.476   4.486   6.711
 7494SOL     OW23380   4.945   1.911   0.862
 7494SOL    HW123381   5.009   1.835   0.864
 7494SOL    HW223382   4.905   1.923   0.953
 7495SOL     OW23383   1.702   1.681   3.115
 7495SOL    HW123384   1.741   1.597   3.152
 7495SOL    HW223385   1.634   1.658   3.045
 7496SOL     OW23386   0.733   4.876   6.075
 7496SOL    HW123387   0.769   4.876   5.981
 7496SOL    HW223388   0.749   4.965   6.117
 7497SOL     OW23389   1.212   4.815   2.996
 7497SOL    HW123390   1.241   4.910   3.007
 7497SOL    HW223391   1.270   4.771   2.927
 7498SOL     OW23392   5.443   1.887   4.516
 7498SOL    HW123393   5.533   1.876   4.558
 7498SOL    HW223394   5.450   1.949   4.437
 7499SOL     OW23395   3.732   4.997   3.704
 7499SOL    HW123396   3.792   4.972   3.628
 7499SOL    HW223397   3.776   4.971   3.791
 7500SOL     OW23398   4.879   3.693   1.634
 7500SOL    HW123399   4.866   3.724   1.539
 7500SOL    HW223400   4.963   3.732   1.670
 7501SOL     OW23401   0.890   4.209   3.802
 7501SOL    HW123402   0.975   4.223   3.750
 7501SOL    HW223403   0.876   4.286   3.863
 7502SOL     OW23404   1.585   1.987   3.962
 7502SOL    HW123405   1.542   2.070   3.999
 7502SOL    HW223406   1.679   1.981   3.993
 7503SOL     OW23407   2.848   1.800   6.934
 7503SOL    HW123408   2.864   1.820   0.008
 7503SOL    HW223409   2.785   1.867   6.897
 7504SOL     OW23410   4.864   5.540   5.101
 7504SOL    HW123411   4.882   5.611   5.033
 7504SOL    HW223412   4.775   5.557   5.144
 7505SOL     OW23413   1.922   1.932   3.609
 7505SOL    HW123414   1.974   2.017   3.623
 7505SOL    HW223415   1.826   1.948   3.635
 7506SOL     OW23416   3.665   0.774   3.061
 7506SOL    HW123417   3.718   0.689   3.065
 7506SOL    HW223418   3.645   0.797   2.966
 7507SOL     OW23419   1.334   0.089   5.088
 7507SOL    HW123420   1.309   0.006   5.038
 7507SOL    HW223421   1.381   0.153   5.026
 7508SOL     OW23422   5.070   6.078   3.155
 7508SOL    HW123423   5.155   6.034   3.126
 7508SOL    HW223424   5.083   6.120   3.245
 7509SOL     OW23425   3.904   4.182   5.863
 7509SOL    HW123426   3.867   4.204   5.773
 7509SOL    HW223427   3.862   4.242   5.931
 7510SOL     OW23428   3.796   3.312   4.885
 7510SOL    HW123429   3.773   3.215   4.888
 7510SOL    HW223430   3.783   3.346   4.792
 7511SOL     OW23431   1.337   1.626   2.738
 7511SOL    HW123432   1.244   1.593   2.755
 7511SOL    HW223433   1.334   1.703   2.674
 7512SOL     OW23434   2.214   2.891   2.329
 7512SOL    HW123435   2.270   2.817   2.368
 7512SOL    HW223436   2.216   2.970   2.391
 7513SOL     OW23437   2.191   3.304   6.593
 7513SOL    HW123438   2.253   3.336   6.521
 7513SOL    HW223439   2.097   3.325   6.569
 7514SOL     OW23440   3.147   5.324   3.575
 7514SOL    HW123441   3.145   5.266   3.656
 7514SOL    HW223442   3.240   5.358   3.561
 7515SOL     OW23443   0.308   4.885   3.111
 7515SOL    HW123444   0.398   4.901   3.069
 7515SOL    HW223445   0.260   4.971   3.120
 7516SOL     OW23446   1.895   3.089   1.285
 7516SOL    HW123447   1.916   3.177   1.327
 7516SOL    HW223448   1.801   3.091   1.250
 7517SOL     OW23449   1.261   4.869   2.471
 7517SOL    HW123450   1.310   4.895   2.555
 7517SOL    HW223451   1.201   4.791   2.491
 7518SOL     OW23452   4.904   3.972   2.694
 7518SOL    HW123453   4.864   3.970   2.602
 7518SOL    HW223454   4.886   4.062   2.735
 7519SOL     OW23455   1.946   6.975   4.632
 7519SOL    HW123456   1.929   0.042   4.594
 7519SOL    HW223457   1.869   6.949   4.691
 7520SOL     OW23458   1.806   0.267   3.833
 7520SOL    HW123459   1.727   0.206   3.828
 7520SOL    HW223460   1.888   0.219   3.804
 7521SOL     OW23461   4.544   3.072   5.733
 7521SOL    HW123462   4.580   2.992   5.685
 7521SOL    HW223463   4.459   3.047   5.780
 7522SOL     OW23464   1.981   6.838   2.567
 7522SOL    HW123465   1.882   6.831   2.578
 7522SOL    HW223466   2.026   6.807   2.650
 7523SOL     OW23467   6.917   6.611   6.802
 7523SOL    HW123468   6.920   6.632   6.900
 7523SOL    HW223469   7.004   6.569   6.775
 7524SOL     OW23470   6.584   1.146   5.047
 7524SOL    HW123471   6.583   1.214   4.975
 7524SOL    HW223472   6.619   1.187   5.131
 7525SOL     OW23473   0.703   0.608   0.767
 7525SOL    HW123474   0.764   0.573   0.839
 7525SOL    HW223475   0.751   0.677   0.713
 7526SOL     OW23476   3.909   3.079   5.828
 7526SOL    HW123477   3.953   2.990   5.814
 7526SOL    HW223478   3.924   3.137   5.747
 7527SOL     OW23479   3.410   6.437   1.770
 7527SOL    HW123480   3.327   6.490   1.784
 7527SOL    HW223481   3.387   6.351   1.725
 7528SOL     OW23482   6.227   3.229   0.006
 7528SOL    HW123483   6.152   3.277   6.984
 7528SOL    HW223484   6.225   3.132   7.004
 7529SOL     OW23485   1.693   6.845   4.231
 7529SOL    HW123486   1.740   6.818   4.148
 7529SOL    HW223487   1.637   6.926   4.214
 7530SOL     OW23488   0.001   3.025   2.687
 7530SOL    HW123489   7.022   3.110   2.740
 7530SOL    HW223490   6.932   2.989   2.678
 7531SOL     OW23491   2.284   1.781   4.042
 7531SOL    HW123492   2.369   1.758   4.088
 7531SOL    HW223493   2.303   1.836   3.961
 7532SOL     OW23494   4.744   4.335   2.193
 7532SOL    HW123495   4.831   4.355   2.148
 7532SOL    HW223496   4.679   4.299   2.126
 7533SOL     OW23497   3.262   0.690   4.918
 7533SOL    HW123498   3.214   0.638   4.989
 7533SOL    HW223499   3.336   0.634   4.880
 7534SOL     OW23500   3.806   6.676   3.781
 7534SOL    HW123501   3.824   6.746   3.712
 7534SOL    HW223502   3.871   6.685   3.856
 7535SOL     OW23503   3.027   5.225   0.188
 7535SOL    HW123504   2.942   5.200   0.235
 7535SOL    HW223505   3.019   5.319   0.155
 7536SOL     OW23506   4.681   5.443   6.418
 7536SOL    HW123507   4.687   5.353   6.376
 7536SOL    HW223508   4.661   5.511   6.348
 7537SOL     OW23509   2.321   4.705   5.137
 7537SOL    HW123510   2.306   4.735   5.043
 7537SOL    HW223511   2.401   4.750   5.175
 7538SOL     OW23512   3.616   3.821   5.162
 7538SOL    HW123513   3.658   3.777   5.241
 7538SOL    HW223514   3.528   3.861   5.189
 7539SOL     OW23515   0.517   2.418   4.832
 7539SOL    HW123516   0.424   2.456   4.824
 7539SOL    HW223517   0.549   2.392   4.741
 7540SOL     OW23518   2.566   0.817   0.449
 7540SOL    HW123519   2.569   0.722   0.417
 7540SOL    HW223520   2.634   0.871   0.399
 7541SOL     OW23521   0.023   2.435   5.898
 7541SOL    HW123522   7.004   2.345   5.884
 7541SOL    HW223523   0.041   2.477   5.809
 7542SOL     OW23524   1.347   0.267   4.837
 7542SOL    HW123525   1.431   0.321   4.824
 7542SOL    HW223526   1.278   0.324   4.882
 7543SOL     OW23527   2.525   2.488   1.226
 7543SOL    HW123528   2.433   2.450   1.233
 7543SOL    HW223529   2.589   2.416   1.199
 7544SOL     OW23530   1.288   2.221   2.483
 7544SOL    HW123531   1.312   2.173   2.399
 7544SOL    HW223532   1.367   2.221   2.545
 7545SOL     OW23533   4.514   0.602   3.366
 7545SOL    HW123534   4.567   0.613   3.450
 7545SOL    HW223535   4.540   0.516   3.321
 7546SOL     OW23536   5.558   0.307   5.493
 7546SOL    HW123537   5.469   0.353   5.498
 7546SOL    HW223538   5.546   0.214   5.460
 7547SOL     OW23539   2.683   0.276   0.372
 7547SOL    HW123540   2.610   0.212   0.347
 7547SOL    HW223541   2.758   0.268   0.306
 7548SOL     OW23542   2.148   3.551   1.228
 7548SOL    HW123543   2.194   3.519   1.145
 7548SOL    HW223544   2.217   3.582   1.295
 7549SOL     OW23545   5.800   0.276   2.420
 7549SOL    HW123546   5.848   0.360   2.446
 7549SOL    HW223547   5.853   0.229   2.349
 7550SOL     OW23548   1.044   5.315   1.027
 7550SOL    HW123549   1.020   5.332   1.123
 7550SOL    HW223550   1.078   5.222   1.016
 7551SOL     OW23551   5.202   3.681   6.112
 7551SOL    HW123552   5.148   3.601   6.084
 7551SOL    HW223553   5.161   3.722   6.193
 7552SOL     OW23554   3.661   5.824   3.879
 7552SOL    HW123555   3.734   5.776   3.928
 7552SOL    HW223556   3.663   5.798   3.783
 7553SOL     OW23557   4.500   3.993   6.227
 7553SOL    HW123558   4.469   3.909   6.182
 7553SOL    HW223559   4.425   4.031   6.282
 7554SOL     OW23560   0.440   1.843   1.125
 7554SOL    HW123561   0.521   1.791   1.152
 7554SOL    HW223562   0.441   1.858   1.026
 7555SOL     OW23563   1.621   6.774   6.048
 7555SOL    HW123564   1.606   6.750   6.145
 7555SOL    HW223565   1.656   6.867   6.042
 7556SOL     OW23566   6.791   3.701   2.870
 7556SOL    HW123567   6.714   3.761   2.893
 7556SOL    HW223568   6.876   3.743   2.902
 7557SOL     OW23569   4.127   4.040   0.611
 7557SOL    HW123570   4.062   3.964   0.610
 7557SOL    HW223571   4.167   4.051   0.520
 7558SOL     OW23572   1.619   3.339   3.438
 7558SOL    HW123573   1.678   3.304   3.365
 7558SOL    HW223574   1.547   3.273   3.457
 7559SOL     OW23575   1.035   4.428   6.792
 7559SOL    HW123576   1.065   4.475   6.875
 7559SOL    HW223577   0.963   4.481   6.748
 7560SOL     OW23578   4.477   0.458   5.532
 7560SOL    HW123579   4.396   0.429   5.584
 7560SOL    HW223580   4.474   0.557   5.518
 7561SOL     OW23581   0.735   3.533   0.091
 7561SOL    HW123582   0.790   3.614   0.113
 7561SOL    HW223583   0.735   3.518   7.016
 7562SOL     OW23584   4.437   6.270   5.145
 7562SOL    HW123585   4.526   6.313   5.161
 7562SOL    HW223586   4.427   6.251   5.048
 7563SOL     OW23587   2.199   1.088   3.743
 7563SOL    HW123588   2.171   1.110   3.837
 7563SOL    HW223589   2.167   0.996   3.721
 7564SOL     OW23590   6.193   5.337   4.193
 7564SOL    HW123591   6.291   5.322   4.207
 7564SOL    HW223592   6.171   5.432   4.212
 7565SOL     OW23593   5.080   5.085   6.647
 7565SOL    HW123594   5.071   5.154   6.719
 7565SOL    HW223595   5.090   5.131   6.558
 7566SOL     OW23596   2.007   5.540   4.126
 7566SOL    HW123597   1.916   5.500   4.132
 7566SOL    HW223598   2.019   5.584   4.036
 7567SOL     OW23599   2.685   3.544   6.962
 7567SOL    HW123600   2.615   3.473   6.960
 7567SOL    HW223601   2.773   3.504   6.936
 7568SOL     OW23602   4.191   4.873   3.619
 7568SOL    HW123603   4.267   4.809   3.628
 7568SOL    HW223604   4.200   4.946   3.686
 7569SOL     OW23605   3.938   0.213   2.410
 7569SOL    HW123606   3.974   0.273   2.338
 7569SOL    HW223607   3.943   0.260   2.498
 7570SOL     OW23608   5.828   4.617   5.411
 7570SOL    HW123609   5.778   4.536   5.440
 7570SOL    HW223610   5.810   4.635   5.314
 7571SOL     OW23611   6.520   4.160   7.009
 7571SOL    HW123612   6.586   4.234   6.998
 7571SOL    HW223613   6.563   4.085   0.036
 7572SOL     OW23614   6.595   1.518   3.357
 7572SOL    HW123615   6.506   1.481   3.331
 7572SOL    HW223616   6.631   1.467   3.435
 7573SOL     OW23617   3.450   5.130   4.092
 7573SOL    HW123618   3.417   5.216   4.131
 7573SOL    HW223619   3.446   5.135   3.993
 7574SOL     OW23620   4.367   5.616   1.539
 7574SOL    HW123621   4.377   5.714   1.560
 7574SOL    HW223622   4.318   5.571   1.613
 7575SOL     OW23623   4.786   3.035   4.518
 7575SOL    HW123624   4.694   3.010   4.550
 7575SOL    HW223625   4.838   3.077   4.592
 7576SOL     OW23626   0.029   3.851   1.626
 7576SOL    HW123627   0.014   3.770   1.682
 7576SOL    HW223628   0.098   3.831   1.557
 7577SOL     OW23629   4.091   1.393   4.071
 7577SOL    HW123630   4.116   1.329   4.144
 7577SOL    HW223631   3.993   1.412   4.076
 7578SOL     OW23632   2.122   5.573   4.892
 7578SOL    HW123633   2.127   5.660   4.942
 7578SOL    HW223634   2.160   5.500   4.949
 7579SOL     OW23635   4.458   2.099   4.368
 7579SOL    HW123636   4.475   2.026   4.434
 7579SOL    HW223637   4.401   2.064   4.294
 7580SOL     OW23638   2.017   3.326   2.111
 7580SOL    HW123639   2.089   3.389   2.082
 7580SOL    HW223640   2.049   3.232   2.103
 7581SOL     OW23641   5.843   1.109   0.907
 7581SOL    HW123642   5.853   1.196   0.954
 7581SOL    HW223643   5.747   1.079   0.913
 7582SOL     OW23644   4.107   2.719   1.454
 7582SOL    HW123645   4.201   2.686   1.447
 7582SOL    HW223646   4.068   2.691   1.541
 7583SOL     OW23647   6.894   4.261   3.029
 7583SOL    HW123648   6.848   4.303   2.951
 7583SOL    HW223649   6.832   4.194   3.071
 7584SOL     OW23650   2.108   2.231   1.711
 7584SOL    HW123651   2.195   2.186   1.694
 7584SOL    HW223652   2.123   2.329   1.724
 7585SOL     OW23653   2.417   4.398   0.552
 7585SOL    HW123654   2.439   4.330   0.621
 7585SOL    HW223655   2.457   4.370   0.464
 7586SOL     OW23656   1.669   2.306   3.670
 7586SOL    HW123657   1.624   2.263   3.592
 7586SOL    HW223658   1.670   2.405   3.658
 7587SOL     OW23659   2.300   1.081   5.494
 7587SOL    HW123660   2.320   1.062   5.398
 7587SOL    HW223661   2.334   1.172   5.518
 7588SOL     OW23662   0.426   4.427   2.056
 7588SOL    HW123663   0.429   4.436   1.957
 7588SOL    HW223664   0.415   4.331   2.080
 7589SOL     OW23665   4.997   5.445   6.235
 7589SOL    HW123666   5.063   5.520   6.226
 7589SOL    HW223667   4.909   5.474   6.199
 7590SOL     OW23668   1.539   0.881   5.262
 7590SOL    HW123669   1.622   0.929   5.288
 7590SOL    HW223670   1.497   0.840   5.343
 7591SOL     OW23671   6.328   6.191   6.689
 7591SOL    HW123672   6.303   6.286   6.701
 7591SOL    HW223673   6.257   6.143   6.637
 7592SOL     OW23674   4.238   4.571   6.139
 7592SOL    HW123675   4.202   4.483   6.111
 7592SOL    HW223676   4.254   4.628   6.058
 7593SOL     OW23677   6.331   4.396   0.132
 7593SOL    HW123678   6.262   4.352   0.075
 7593SOL    HW223679   6.396   4.327   0.165
 7594SOL     OW23680   0.909   6.419   3.862
 7594SOL    HW123681   0.865   6.404   3.950
 7594SOL    HW223682   0.840   6.425   3.790
 7595SOL     OW23683   6.794   3.336   6.486
 7595SOL    HW123684   6.746   3.291   6.561
 7595SOL    HW223685   6.892   3.326   6.498
 7596SOL     OW23686   5.028   5.657   2.231
 7596SOL    HW123687   5.016   5.576   2.175
 7596SOL    HW223688   5.037   5.738   2.172
 7597SOL     OW23689   2.312   5.236   1.795
 7597SOL    HW123690   2.250   5.313   1.784
 7597SOL    HW223691   2.259   5.151   1.805
 7598SOL     OW23692   5.802   0.834   2.880
 7598SOL    HW123693   5.893   0.856   2.847
 7598SOL    HW223694   5.805   0.747   2.931
 7599SOL     OW23695   5.491   3.239   2.388
 7599SOL    HW123696   5.469   3.335   2.405
 7599SOL    HW223697   5.541   3.232   2.302
 7600SOL     OW23698   2.340   2.681   2.552
 7600SOL    HW123699   2.354   2.693   2.650
 7600SOL    HW223700   2.415   2.626   2.514
 7601SOL     OW23701   1.447   0.453   5.199
 7601SOL    HW123702   1.357   0.423   5.230
 7601SOL    HW223703   1.491   0.379   5.149
 7602SOL     OW23704   2.175   3.110   5.143
 7602SOL    HW123705   2.136   3.019   5.125
 7602SOL    HW223706   2.275   3.104   5.144
 7603SOL     OW23707   6.447   1.455   2.000
 7603SOL    HW123708   6.461   1.520   2.075
 7603SOL    HW223709   6.480   1.495   1.915
 7604SOL     OW23710   5.459   5.541   6.439
 7604SOL    HW123711   5.374   5.492   6.463
 7604SOL    HW223712   5.513   5.484   6.377
 7605SOL     OW23713   5.726   3.412   6.511
 7605SOL    HW123714   5.669   3.377   6.437
 7605SOL    HW223715   5.788   3.340   6.543
 7606SOL     OW23716   5.582   1.396   3.688
 7606SOL    HW123717   5.677   1.413   3.662
 7606SOL    HW223718   5.527   1.478   3.670
 7607SOL     OW23719   5.142   6.635   5.915
 7607SOL    HW123720   5.056   6.604   5.954
 7607SOL    HW223721   5.127   6.718   5.862
 7608SOL     OW23722   3.741   3.610   4.907
 7608SOL    HW123723   3.758   3.563   4.820
 7608SOL    HW223724   3.737   3.708   4.892
 7609SOL     OW23725   1.199   2.757   3.405
 7609SOL    HW123726   1.243   2.833   3.454
 7609SOL    HW223727   1.186   2.680   3.468
 7610SOL     OW23728   5.345   0.790   2.208
 7610SOL    HW123729   5.344   0.881   2.250
 7610SOL    HW223730   5.323   0.798   2.110
 7611SOL     OW23731   1.768   1.758   1.394
 7611SOL    HW123732   1.703   1.821   1.437
 7611SOL    HW223733   1.828   1.808   1.332
 7612SOL     OW23734   4.487   1.998   2.861
 7612SOL    HW123735   4.398   1.970   2.898
 7612SOL    HW223736   4.559   1.977   2.928
 7613SOL     OW23737   6.181   0.747   2.331
 7613SOL    HW123738   6.150   0.732   2.424
 7613SOL    HW223739   6.107   0.728   2.267
 7614SOL     OW23740   4.757   0.948   0.638
 7614SOL    HW123741   4.698   1.016   0.681
 7614SOL    HW223742   4.836   0.993   0.597
 7615SOL     OW23743   3.451   5.047   5.593
 7615SOL    HW123744   3.452   5.073   5.497
 7615SOL    HW223745   3.361   5.010   5.617
 7616SOL     OW23746   0.026   5.888   3.047
 7616SOL    HW123747   0.046   5.844   2.959
 7616SOL    HW223748   0.068   5.836   3.121
 7617SOL     OW23749   4.001   5.510   3.837
 7617SOL    HW123750   3.978   5.416   3.812
 7617SOL    HW223751   4.032   5.559   3.756
 7618SOL     OW23752   3.293   2.350   0.051
 7618SOL    HW123753   3.316   2.254   0.040
 7618SOL    HW223754   3.376   2.405   0.048
 7619SOL     OW23755   5.593   2.894   6.043
 7619SOL    HW123756   5.644   2.878   5.959
 7619SOL    HW223757   5.505   2.936   6.021
 7620SOL     OW23758   3.491   5.856   1.734
 7620SOL    HW123759   3.491   5.757   1.720
 7620SOL    HW223760   3.584   5.890   1.730
 7621SOL     OW23761   2.495   2.444   0.871
 7621SOL    HW123762   2.593   2.449   0.856
 7621SOL    HW223763   2.460   2.533   0.901
 7622SOL     OW23764   4.734   2.600   0.759
 7622SOL    HW123765   4.697   2.628   0.671
 7622SOL    HW223766   4.833   2.605   0.757
 7623SOL     OW23767   6.549   6.368   5.259
 7623SOL    HW123768   6.472   6.369   5.323
 7623SOL    HW223769   6.630   6.407   5.302
 7624SOL     OW23770   6.965   0.704   4.634
 7624SOL    HW123771   0.029   0.693   4.587
 7624SOL    HW223772   6.938   0.617   4.676
 7625SOL     OW23773   2.877   5.258   0.957
 7625SOL    HW123774   2.793   5.297   0.921
 7625SOL    HW223775   2.933   5.224   0.882
 7626SOL     OW23776   2.527   4.358   5.252
 7626SOL    HW123777   2.585   4.355   5.333
 7626SOL    HW223778   2.583   4.380   5.172
 7627SOL     OW23779   6.879   0.922   0.428
 7627SOL    HW123780   6.953   0.938   0.494
 7627SOL    HW223781   6.893   0.980   0.348
 7628SOL     OW23782   4.868   1.956   1.112
 7628SOL    HW123783   4.916   2.015   1.176
 7628SOL    HW223784   4.798   1.904   1.161
 7629SOL     OW23785   5.948   5.855   3.207
 7629SOL    HW123786   6.033   5.801   3.204
 7629SOL    HW223787   5.969   5.951   3.188
 7630SOL     OW23788   6.290   1.795   2.042
 7630SOL    HW123789   6.375   1.823   1.996
 7630SOL    HW223790   6.311   1.731   2.116
 7631SOL     OW23791   1.365   0.856   3.552
 7631SOL    HW123792   1.310   0.940   3.553
 7631SOL    HW223793   1.401   0.839   3.644
 7632SOL     OW23794   4.468   0.797   4.625
 7632SOL    HW123795   4.487   0.746   4.541
 7632SOL    HW223796   4.461   0.733   4.702
 7633SOL     OW23797   6.197   3.774   6.150
 7633SOL    HW123798   6.164   3.680   6.144
 7633SOL    HW223799   6.237   3.801   6.063
 7634SOL     OW23800   1.227   2.619   2.537
 7634SOL    HW123801   1.185   2.669   2.461
 7634SOL    HW223802   1.231   2.522   2.514
 7635SOL     OW23803   2.375   4.813   5.795
 7635SOL    HW123804   2.416   4.732   5.754
 7635SOL    HW223805   2.277   4.814   5.778
 7636SOL     OW23806   0.825   0.883   3.667
 7636SOL    HW123807   0.858   0.976   3.653
 7636SOL    HW223808   0.775   0.853   3.586
 7637SOL     OW23809   2.730   6.292   4.146
 7637SOL    HW123810   2.745   6.193   4.134
 7637SOL    HW223811   2.641   6.317   4.109
 7638SOL     OW23812   4.851   4.432   1.795
 7638SOL    HW123813   4.784   4.382   1.849
 7638SOL    HW223814   4.918   4.368   1.758
 7639SOL     OW23815   0.563   2.244   4.088
 7639SOL    HW123816   0.623   2.321   4.067
 7639SOL    HW223817   0.587   2.166   4.029
 7640SOL     OW23818   2.385   3.461   5.893
 7640SOL    HW123819   2.352   3.367   5.882
 7640SOL    HW223820   2.345   3.502   5.975
 7641SOL     OW23821   5.759   3.418   2.728
 7641SOL    HW123822   5.758   3.488   2.799
 7641SOL    HW223823   5.669   3.414   2.684
 7642SOL     OW23824   1.653   2.085   2.941
 7642SOL    HW123825   1.695   2.026   3.009
 7642SOL    HW223826   1.722   2.110   2.872
 7643SOL     OW23827   5.352   3.790   3.282
 7643SOL    HW123828   5.290   3.856   3.239
 7643SOL    HW223829   5.303   3.741   3.354
 7644SOL     OW23830   6.465   3.333   4.033
 7644SOL    HW123831   6.507   3.252   3.993
 7644SOL    HW223832   6.500   3.346   4.126
 7645SOL     OW23833   3.789   3.059   0.896
 7645SOL    HW123834   3.787   3.116   0.979
 7645SOL    HW223835   3.757   3.113   0.818
 7646SOL     OW23836   0.834   0.200   1.907
 7646SOL    HW123837   0.842   0.218   2.005
 7646SOL    HW223838   0.744   0.162   1.887
 7647SOL     OW23839   2.129   4.883   0.026
 7647SOL    HW123840   2.198   4.906   0.094
 7647SOL    HW223841   2.041   4.921   0.054
 7648SOL     OW23842   2.701   0.881   3.496
 7648SOL    HW123843   2.636   0.913   3.566
 7648SOL    HW223844   2.790   0.922   3.512
 7649SOL     OW23845   3.054   1.686   1.137
 7649SOL    HW123846   3.097   1.679   1.048
 7649SOL    HW223847   3.119   1.658   1.208
 7650SOL     OW23848   6.643   4.649   0.806
 7650SOL    HW123849   6.652   4.691   0.896
 7650SOL    HW223850   6.717   4.679   0.747
 7651SOL     OW23851   5.885   1.376   5.886
 7651SOL    HW123852   5.914   1.286   5.921
 7651SOL    HW223853   5.820   1.363   5.811
 7652SOL     OW23854   0.875   3.396   2.760
 7652SOL    HW123855   0.962   3.366   2.799
 7652SOL    HW223856   0.842   3.476   2.810
 7653SOL     OW23857   4.985   2.616   2.009
 7653SOL    HW123858   4.930   2.539   1.975
 7653SOL    HW223859   4.934   2.666   2.078
 7654SOL     OW23860   5.470   3.540   4.970
 7654SOL    HW123861   5.384   3.500   5.002
 7654SOL    HW223862   5.546   3.482   4.998
 7655SOL     OW23863   4.796   5.179   6.740
 7655SOL    HW123864   4.866   5.228   6.688
 7655SOL    HW223865   4.707   5.194   6.697
 7656SOL     OW23866   0.578   0.269   5.212
 7656SOL    HW123867   0.543   0.286   5.120
 7656SOL    HW223868   0.654   0.205   5.208
 7657SOL     OW23869   4.167   1.842   3.545
 7657SOL    HW123870   4.068   1.827   3.544
 7657SOL    HW223871   4.189   1.916   3.608
 7658SOL     OW23872   4.062   0.692   5.600
 7658SOL    HW123873   4.155   0.686   5.636
 7658SOL    HW223874   4.046   0.785   5.567
 7659SOL     OW23875   5.100   5.973   6.196
 7659SOL    HW123876   5.041   5.909   6.146
 7659SOL    HW223877   5.195   5.959   6.168
 7660SOL     OW23878   5.315   5.423   3.922
 7660SOL    HW123879   5.280   5.329   3.924
 7660SOL    HW223880   5.269   5.473   3.848
 7661SOL     OW23881   6.144   3.776   4.118
 7661SOL    HW123882   6.107   3.690   4.081
 7661SOL    HW223883   6.228   3.757   4.168
 7662SOL     OW23884   6.592   5.502   3.585
 7662SOL    HW123885   6.569   5.489   3.489
 7662SOL    HW223886   6.509   5.515   3.638
 7663SOL     OW23887   0.924   6.312   0.616
 7663SOL    HW123888   0.895   6.407   0.627
 7663SOL    HW223889   0.984   6.287   0.692
 7664SOL     OW23890   3.673   5.425   4.663
 7664SOL    HW123891   3.732   5.486   4.610
 7664SOL    HW223892   3.729   5.353   4.705
 7665SOL     OW23893   2.008   5.923   3.617
 7665SOL    HW123894   1.973   5.954   3.529
 7665SOL    HW223895   1.942   5.943   3.689
 7666SOL     OW23896   2.109   0.513   2.470
 7666SOL    HW123897   2.070   0.526   2.562
 7666SOL    HW223898   2.066   0.577   2.407
 7667SOL     OW23899   6.041   6.914   5.319
 7667SOL    HW123900   6.105   6.893   5.244
 7667SOL    HW223901   5.986   6.994   5.295
 7668SOL     OW23902   3.172   3.413   2.103
 7668SOL    HW123903   3.073   3.431   2.101
 7668SOL    HW223904   3.206   3.408   2.009
 7669SOL     OW23905   4.474   6.568   4.959
 7669SOL    HW123906   4.504   6.513   4.881
 7669SOL    HW223907   4.554   6.610   5.002
 7670SOL     OW23908   1.752   5.778   0.935
 7670SOL    HW123909   1.764   5.842   0.859
 7670SOL    HW223910   1.753   5.827   1.022
 7671SOL     OW23911   4.774   2.337   4.491
 7671SOL    HW123912   4.853   2.395   4.512
 7671SOL    HW223913   4.693   2.373   4.538
 7672SOL     OW23914   6.290   0.189   1.934
 7672SOL    HW123915   6.261   0.160   1.843
 7672SOL    HW223916   6.332   0.280   1.929
 7673SOL     OW23917   1.217   3.568   0.410
 7673SOL    HW123918   1.221   3.508   0.330
 7673SOL    HW223919   1.159   3.525   0.480
 7674SOL     OW23920   6.381   1.032   5.318
 7674SOL    HW123921   6.298   0.977   5.310
 7674SOL    HW223922   6.414   1.055   5.226
 7675SOL     OW23923   5.030   0.311   3.225
 7675SOL    HW123924   5.022   0.341   3.320
 7675SOL    HW223925   5.085   0.378   3.174
 7676SOL     OW23926   1.614   6.983   1.186
 7676SOL    HW123927   1.647   0.053   1.199
 7676SOL    HW223928   1.517   6.978   1.210
 7677SOL     OW23929   1.918   3.091   2.571
 7677SOL    HW123930   1.897   3.159   2.641
 7677SOL    HW223931   1.835   3.065   2.523
 7678SOL     OW23932   5.113   6.915   6.036
 7678SOL    HW123933   5.178   6.991   6.026
 7678SOL    HW223934   5.093   6.900   6.132
 7679SOL     OW23935   1.418   5.011   4.132
 7679SOL    HW123936   1.347   4.953   4.172
 7679SOL    HW223937   1.495   4.954   4.102
 7680SOL     OW23938   4.884   0.497   0.637
 7680SOL    HW123939   4.974   0.458   0.616
 7680SOL    HW223940   4.815   0.454   0.579
 7681SOL     OW23941   4.163   2.243   5.680
 7681SOL    HW123942   4.068   2.274   5.689
 7681SOL    HW223943   4.185   2.231   5.583
 7682SOL     OW23944   3.072   0.551   0.505
 7682SOL    HW123945   3.100   0.644   0.529
 7682SOL    HW223946   2.989   0.554   0.449
 7683SOL     OW23947   6.794   3.500   3.702
 7683SOL    HW123948   6.872   3.545   3.745
 7683SOL    HW223949   6.808   3.401   3.706
 7684SOL     OW23950   3.743   1.835   5.449
 7684SOL    HW123951   3.820   1.872   5.501
 7684SOL    HW223952   3.772   1.816   5.355
 7685SOL     OW23953   3.836   3.941   1.730
 7685SOL    HW123954   3.872   3.848   1.727
 7685SOL    HW223955   3.815   3.967   1.824
 7686SOL     OW23956   2.574   1.126   2.364
 7686SOL    HW123957   2.476   1.140   2.373
 7686SOL    HW223958   2.622   1.206   2.402
 7687SOL     OW23959   4.711   3.893   5.777
 7687SOL    HW123960   4.781   3.883   5.848
 7687SOL    HW223961   4.732   3.973   5.720
 7688SOL     OW23962   6.639   0.946   3.036
 7688SOL    HW123963   6.695   0.981   2.961
 7688SOL    HW223964   6.591   1.023   3.080
 7689SOL     OW23965   3.584   0.075   5.011
 7689SOL    HW123966   3.519   0.088   5.087
 7689SOL    HW223967   3.636   7.015   5.027
 7690SOL     OW23968   1.084   5.196   2.833
 7690SOL    HW123969   1.006   5.180   2.893
 7690SOL    HW223970   1.054   5.189   2.737
 7691SOL     OW23971   6.512   3.743   5.632
 7691SOL    HW123972   6.503   3.839   5.608
 7691SOL    HW223973   6.441   3.690   5.585
 7692SOL     OW23974   1.571   6.115   1.246
 7692SOL    HW123975   1.524   6.041   1.293
 7692SOL    HW223976   1.511   6.195   1.240
 7693SOL     OW23977   5.360   1.171   0.582
 7693SOL    HW123978   5.427   1.097   0.586
 7693SOL    HW223979   5.291   1.158   0.652
 7694SOL     OW23980   5.829   4.940   3.523
 7694SOL    HW123981   5.907   4.878   3.528
 7694SOL    HW223982   5.834   5.006   3.599
 7695SOL     OW23983   4.452   0.482   6.826
 7695SOL    HW123984   4.411   0.502   6.915
 7695SOL    HW223985   4.515   0.556   6.801
 7696SOL     OW23986   1.322   3.835   5.438
 7696SOL    HW123987   1.302   3.842   5.535
 7696SOL    HW223988   1.237   3.820   5.387
 7697SOL     OW23989   4.737   1.428   2.442
 7697SOL    HW123990   4.675   1.355   2.411
 7697SOL    HW223991   4.709   1.459   2.532
 7698SOL     OW23992   0.112   2.083   6.176
 7698SOL    HW123993   0.195   2.137   6.193
 7698SOL    HW223994   0.045   2.101   6.247
 7699SOL     OW23995   3.254   3.283   0.869
 7699SOL    HW123996   3.170   3.336   0.881
 7699SOL    HW223997   3.233   3.185   0.877
 7700SOL     OW23998   5.333   0.056   4.863
 7700SOL    HW123999   5.402   7.013   4.892
 7700SOL    HW224000   5.375   0.147   4.858
 7701SOL     OW24001   6.504   2.241   5.709
 7701SOL    HW124002   6.487   2.175   5.636
 7701SOL    HW224003   6.602   2.258   5.716
 7702SOL     OW24004   1.506   6.618   6.864
 7702SOL    HW124005   1.447   6.699   6.862
 7702SOL    HW224006   1.494   6.571   6.952
 7703SOL     OW24007   0.903   1.908   6.115
 7703SOL    HW124008   0.977   1.942   6.057
 7703SOL    HW224009   0.930   1.916   6.211
 7704SOL     OW24010   2.904   3.276   1.245
 7704SOL    HW124011   2.969   3.208   1.280
 7704SOL    HW224012   2.865   3.327   1.322
 7705SOL     OW24013   3.966   3.562   4.327
 7705SOL    HW124014   3.867   3.578   4.329
 7705SOL    HW224015   3.990   3.518   4.241
 7706SOL     OW24016   6.519   0.705   5.417
 7706SOL    HW124017   6.512   0.802   5.390
 7706SOL    HW224018   6.516   0.698   5.516
 7707SOL     OW24019   6.805   6.036   6.671
 7707SOL    HW124020   6.724   6.054   6.727
 7707SOL    HW224021   6.887   6.055   6.725
 7708SOL     OW24022   5.120   1.354   4.963
 7708SOL    HW124023   5.034   1.382   5.004
 7708SOL    HW224024   5.124   1.254   4.958
 7709SOL     OW24025   3.722   2.268   1.544
 7709SOL    HW124026   3.758   2.250   1.636
 7709SOL    HW224027   3.623   2.261   1.546
 7710SOL     OW24028   3.440   2.103   6.877
 7710SOL    HW124029   3.387   2.035   6.826
 7710SOL    HW224030   3.418   2.095   6.974
 7711SOL     OW24031   4.592   6.050   4.810
 7711SOL    HW124032   4.494   6.065   4.796
 7711SOL    HW224033   4.606   5.982   4.882
 7712SOL     OW24034   5.808   3.926   6.337
 7712SOL    HW124035   5.904   3.902   6.354
 7712SOL    HW224036   5.784   4.005   6.393
 7713SOL     OW24037   0.203   5.483   6.418
 7713SOL    HW124038   0.245   5.453   6.503
 7713SOL    HW224039   0.112   5.521   6.436
 7714SOL     OW24040   5.325   4.195   4.584
 7714SOL    HW124041   5.275   4.276   4.615
 7714SOL    HW224042   5.260   4.120   4.567
 7715SOL     OW24043   3.904   2.299   1.782
 7715SOL    HW124044   3.811   2.331   1.803
 7715SOL    HW224045   3.930   2.228   1.848
 7716SOL     OW24046   4.301   2.319   4.470
 7716SOL    HW124047   4.257   2.286   4.553
 7716SOL    HW224048   4.345   2.243   4.422
 7717SOL     OW24049   2.885   0.196   6.685
 7717SOL    HW124050   2.899   0.140   6.604
 7717SOL    HW224051   2.842   0.141   6.757
 7718SOL     OW24052   2.507   6.357   3.561
 7718SOL    HW124053   2.589   6.414   3.561
 7718SOL    HW224054   2.516   6.287   3.490
 7719SOL     OW24055   5.803   2.464   5.298
 7719SOL    HW124056   5.728   2.508   5.348
 7719SOL    HW224057   5.883   2.524   5.298
 7720SOL     OW24058   4.808   6.274   1.441
 7720SOL    HW124059   4.714   6.307   1.453
 7720SOL    HW224060   4.826   6.262   1.343
 7721SOL     OW24061   0.726   4.631   2.848
 7721SOL    HW124062   0.782   4.561   2.804
 7721SOL    HW224063   0.733   4.622   2.948
 7722SOL     OW24064   0.700   6.002   4.036
 7722SOL    HW124065   0.752   6.062   3.976
 7722SOL    HW224066   0.613   5.978   3.994
 7723SOL     OW24067   6.421   1.831   0.192
 7723SOL    HW124068   6.404   1.732   0.186
 7723SOL    HW224069   6.520   1.847   0.203
 7724SOL     OW24070   2.637   6.280   6.844
 7724SOL    HW124071   2.544   6.247   6.862
 7724SOL    HW224072   2.644   6.309   6.749
 7725SOL     OW24073   5.114   3.827   4.169
 7725SOL    HW124074   5.118   3.868   4.078
 7725SOL    HW224075   5.187   3.865   4.226
 7726SOL     OW24076   5.163   5.644   3.143
 7726SOL    HW124077   5.166   5.546   3.160
 7726SOL    HW224078   5.234   5.690   3.197
 7727SOL     OW24079   5.878   3.565   1.969
 7727SOL    HW124080   5.838   3.570   2.061
 7727SOL    HW224081   5.840   3.486   1.921
 7728SOL     OW24082   2.058   2.665   2.881
 7728SOL    HW124083   2.057   2.705   2.790
 7728SOL    HW224084   2.124   2.715   2.938
 7729SOL     OW24085   5.399   1.509   5.992
 7729SOL    HW124086   5.355   1.475   6.075
 7729SOL    HW224087   5.484   1.555   6.015
 7730SOL     OW24088   4.516   6.989   2.839
 7730SOL    HW124089   4.542   0.024   2.762
 7730SOL    HW224090   4.529   6.893   2.814
 7731SOL     OW24091   6.410   1.599   3.679
 7731SOL    HW124092   6.370   1.544   3.752
 7731SOL    HW224093   6.416   1.694   3.708
 7732SOL     OW24094   4.504   4.897   0.905
 7732SOL    HW124095   4.467   4.863   0.992
 7732SOL    HW224096   4.586   4.846   0.881
 7733SOL     OW24097   3.209   5.743   0.837
 7733SOL    HW124098   3.196   5.657   0.886
 7733SOL    HW224099   3.296   5.741   0.789
 7734SOL     OW24100   1.371   3.113   2.336
 7734SOL    HW124101   1.390   3.211   2.346
 7734SOL    HW224102   1.306   3.085   2.407
 7735SOL     OW24103   5.344   4.268   0.906
 7735SOL    HW124104   5.266   4.215   0.938
 7735SOL    HW224105   5.351   4.262   0.806
 7736SOL     OW24106   5.751   4.555   6.934
 7736SOL    HW124107   5.704   4.544   7.022
 7736SOL    HW224108   5.843   4.590   6.949
 7737SOL     OW24109   4.884   2.602   0.015
 7737SOL    HW124110   4.852   2.624   6.947
 7737SOL    HW224111   4.891   2.685   0.070
 7738SOL     OW24112   2.036   5.194   0.134
 7738SOL    HW124113   1.965   5.246   0.087
 7738SOL    HW224114   2.000   5.160   0.221
 7739SOL     OW24115   5.370   3.994   2.398
 7739SOL    HW124116   5.452   4.005   2.342
 7739SOL    HW224117   5.302   3.940   2.346
 7740SOL     OW24118   6.752   6.322   3.615
 7740SOL    HW124119   6.785   6.347   3.524
 7740SOL    HW224120   6.829   6.295   3.672
 7741SOL     OW24121   2.855   5.154   3.650
 7741SOL    HW124122   2.846   5.116   3.742
 7741SOL    HW224123   2.922   5.228   3.650
 7742SOL     OW24124   6.821   0.306   4.621
 7742SOL    HW124125   6.844   0.397   4.656
 7742SOL    HW224126   6.808   0.311   4.522
 7743SOL     OW24127   4.889   3.232   2.425
 7743SOL    HW124128   4.988   3.235   2.443
 7743SOL    HW224129   4.869   3.161   2.358
 7744SOL     OW24130   0.474   6.242   4.833
 7744SOL    HW124131   0.377   6.221   4.847
 7744SOL    HW224132   0.506   6.301   4.907
 7745SOL     OW24133   5.362   2.963   5.894
 7745SOL    HW124134   5.386   3.008   5.808
 7745SOL    HW224135   5.330   2.870   5.875
 7746SOL     OW24136   1.995   0.637   6.457
 7746SOL    HW124137   1.937   0.604   6.531
 7746SOL    HW224138   1.940   0.655   6.376
 7747SOL     OW24139   4.645   5.067   0.490
 7747SOL    HW124140   4.705   5.107   0.559
 7747SOL    HW224141   4.700   5.036   0.413
 7748SOL     OW24142   2.049   3.977   6.805
 7748SOL    HW124143   2.044   3.929   6.718
 7748SOL    HW224144   2.025   3.914   6.879
 7749SOL     OW24145   5.890   3.140   6.672
 7749SOL    HW124146   5.804   3.092   6.655
 7749SOL    HW224147   5.945   3.139   6.588
 7750SOL     OW24148   4.777   5.068   3.543
 7750SOL    HW124149   4.839   5.116   3.482
 7750SOL    HW224150   4.828   5.001   3.597
 7751SOL     OW24151   0.570   2.453   1.008
 7751SOL    HW124152   0.516   2.471   1.090
 7751SOL    HW224153   0.510   2.425   0.933
 7752SOL     OW24154   3.517   1.211   2.953
 7752SOL    HW124155   3.612   1.203   2.984
 7752SOL    HW224156   3.496   1.135   2.892
 7753SOL     OW24157   4.001   0.956   5.554
 7753SOL    HW124158   3.940   0.947   5.633
 7753SOL    HW224159   3.982   1.043   5.508
 7754SOL     OW24160   4.612   5.290   1.319
 7754SOL    HW124161   4.552   5.360   1.357
 7754SOL    HW224162   4.600   5.204   1.369
 7755SOL     OW24163   0.438   4.779   6.430
 7755SOL    HW124164   0.392   4.859   6.392
 7755SOL    HW224165   0.504   4.809   6.499
 7756SOL     OW24166   2.214   3.947   2.244
 7756SOL    HW124167   2.297   3.930   2.297
 7756SOL    HW224168   2.176   3.860   2.213
 7757SOL     OW24169   0.605   4.451   0.221
 7757SOL    HW124170   0.654   4.511   0.284
 7757SOL    HW224171   0.668   4.383   0.184
 7758SOL     OW24172   0.792   0.918   5.504
 7758SOL    HW124173   0.742   0.944   5.587
 7758SOL    HW224174   0.851   0.840   5.525
 7759SOL     OW24175   3.648   0.977   2.414
 7759SOL    HW124176   3.707   0.918   2.470
 7759SOL    HW224177   3.586   0.921   2.360
 7760SOL     OW24178   4.122   3.103   0.455
 7760SOL    HW124179   4.054   3.064   0.517
 7760SOL    HW224180   4.077   3.154   0.382
 7761SOL     OW24181   5.795   5.466   3.368
 7761SOL    HW124182   5.698   5.465   3.394
 7761SOL    HW224183   5.844   5.396   3.420
 7762SOL     OW24184   4.638   2.132   1.206
 7762SOL    HW124185   4.607   2.047   1.163
 7762SOL    HW224186   4.647   2.117   1.305
 7763SOL     OW24187   2.004   0.406   3.489
 7763SOL    HW124188   1.921   0.420   3.542
 7763SOL    HW224189   2.008   0.473   3.415
 7764SOL     OW24190   3.758   5.044   5.318
 7764SOL    HW124191   3.792   5.107   5.388
 7764SOL    HW224192   3.719   4.964   5.363
 7765SOL     OW24193   6.238   4.107   4.776
 7765SOL    HW124194   6.225   4.104   4.875
 7765SOL    HW224195   6.293   4.187   4.752
 7766SOL     OW24196   6.861   2.262   6.230
 7766SOL    HW124197   6.883   2.300   6.140
 7766SOL    HW224198   6.772   2.217   6.226
 7767SOL     OW24199   4.254   0.121   4.125
 7767SOL    HW124200   4.258   0.069   4.040
 7767SOL    HW224201   4.200   0.204   4.112
 7768SOL     OW24202   3.388   5.448   3.505
 7768SOL    HW124203   3.386   5.540   3.544
 7768SOL    HW224204   3.480   5.410   3.517
 7769SOL     OW24205   3.880   2.762   6.362
 7769SOL    HW124206   3.955   2.826   6.381
 7769SOL    HW224207   3.823   2.753   6.443
 7770SOL     OW24208   0.799   3.627   3.982
 7770SOL    HW124209   0.804   3.720   4.018
 7770SOL    HW224210   0.719   3.618   3.924
 7771SOL     OW24211   0.854   3.925   5.237
 7771SOL    HW124212   0.782   3.949   5.302
 7771SOL    HW224213   0.819   3.857   5.173
 7772SOL     OW24214   4.978   5.448   2.060
 7772SOL    HW124215   4.909   5.426   1.992
 7772SOL    HW224216   5.068   5.448   2.017
 7773SOL     OW24217   2.738   6.576   6.876
 7773SOL    HW124218   2.812   6.517   6.908
 7773SOL    HW224219   2.653   6.523   6.870
 7774SOL     OW24220   5.140   1.472   2.739
 7774SOL    HW124221   5.078   1.420   2.798
 7774SOL    HW224222   5.166   1.557   2.784
 7775SOL     OW24223   3.213   1.915   0.961
 7775SOL    HW124224   3.241   1.989   0.900
 7775SOL    HW224225   3.270   1.916   1.043
 7776SOL     OW24226   2.740   1.606   3.813
 7776SOL    HW124227   2.816   1.645   3.865
 7776SOL    HW224228   2.767   1.515   3.779
 7777SOL     OW24229   4.968   5.184   3.329
 7777SOL    HW124230   5.034   5.258   3.320
 7777SOL    HW224231   4.883   5.210   3.284
 7778SOL     OW24232   1.119   3.745   2.034
 7778SOL    HW124233   1.026   3.771   2.057
 7778SOL    HW224234   1.151   3.799   1.956
 7779SOL     OW24235   2.688   0.584   3.092
 7779SOL    HW124236   2.758   0.589   3.163
 7779SOL    HW224237   2.685   0.671   3.043
 7780SOL     OW24238   6.422   5.531   4.049
 7780SOL    HW124239   6.496   5.592   4.019
 7780SOL    HW224240   6.349   5.585   4.091
 7781SOL     OW24241   3.189   2.988   0.884
 7781SOL    HW124242   3.142   2.905   0.916
 7781SOL    HW224243   3.138   3.026   0.806
 7782SOL     OW24244   5.727   4.331   4.211
 7782SOL    HW124245   5.819   4.312   4.245
 7782SOL    HW224246   5.661   4.321   4.285
 7783SOL     OW24247   0.892   6.181   3.674
 7783SOL    HW124248   0.800   6.177   3.713
 7783SOL    HW224249   0.909   6.273   3.637
 7784SOL     OW24250   1.504   2.755   2.796
 7784SOL    HW124251   1.590   2.804   2.814
 7784SOL    HW224252   1.432   2.790   2.855
 7785SOL     OW24253   5.842   6.888   2.689
 7785SOL    HW124254   5.889   6.968   2.727
 7785SOL    HW224255   5.910   6.826   2.650
 7786SOL     OW24256   5.439   0.876   0.018
 7786SOL    HW124257   5.372   0.927   6.988
 7786SOL    HW224258   5.391   0.815   0.082
 7787SOL     OW24259   1.009   2.594   1.135
 7787SOL    HW124260   1.098   2.625   1.169
 7787SOL    HW224261   0.939   2.612   1.205
 7788SOL     OW24262   1.195   4.130   2.158
 7788SOL    HW124263   1.175   4.140   2.256
 7788SOL    HW224264   1.254   4.051   2.144
 7789SOL     OW24265   3.168   0.077   6.402
 7789SOL    HW124266   3.199   7.012   6.366
 7789SOL    HW224267   3.072   0.070   6.429
 7790SOL     OW24268   4.309   5.325   4.518
 7790SOL    HW124269   4.324   5.231   4.548
 7790SOL    HW224270   4.250   5.373   4.583
 7791SOL     OW24271   2.683   6.174   1.634
 7791SOL    HW124272   2.667   6.190   1.731
 7791SOL    HW224273   2.780   6.152   1.619
 7792SOL     OW24274   1.072   1.413   2.017
 7792SOL    HW124275   1.125   1.374   2.092
 7792SOL    HW224276   1.044   1.506   2.041
 7793SOL     OW24277   4.821   1.882   0.316
 7793SOL    HW124278   4.836   1.907   0.411
 7793SOL    HW224279   4.730   1.842   0.306
 7794SOL     OW24280   1.284   0.959   2.663
 7794SOL    HW124281   1.295   0.958   2.763
 7794SOL    HW224282   1.337   0.885   2.623
 7795SOL     OW24283   4.007   3.528   1.668
 7795SOL    HW124284   4.019   3.581   1.752
 7795SOL    HW224285   4.092   3.481   1.646
 7796SOL     OW24286   4.400   1.598   0.982
 7796SOL    HW124287   4.478   1.536   0.974
 7796SOL    HW224288   4.316   1.545   0.991
 7797SOL     OW24289   1.365   6.105   2.869
 7797SOL    HW124290   1.282   6.085   2.817
 7797SOL    HW224291   1.360   6.199   2.903
 7798SOL     OW24292   1.789   3.517   1.060
 7798SOL    HW124293   1.864   3.508   0.995
 7798SOL    HW224294   1.708   3.472   1.024
 7799SOL     OW24295   2.084   6.157   3.872
 7799SOL    HW124296   2.154   6.085   3.863
 7799SOL    HW224297   2.121   6.244   3.839
 7800SOL     OW24298   0.825   0.864   2.270
 7800SOL    HW124299   0.808   0.843   2.174
 7800SOL    HW224300   0.889   0.941   2.277
 7801SOL     OW24301   1.515   1.899   0.645
 7801SOL    HW124302   1.487   1.808   0.613
 7801SOL    HW224303   1.490   1.910   0.741
 7802SOL     OW24304   6.349   5.255   3.920
 7802SOL    HW124305   6.284   5.241   3.995
 7802SOL    HW224306   6.349   5.351   3.893
 7803SOL     OW24307   3.405   2.072   6.032
 7803SOL    HW124308   3.334   2.004   6.049
 7803SOL    HW224309   3.460   2.043   5.953
 7804SOL     OW24310   3.182   1.131   5.674
 7804SOL    HW124311   3.189   1.231   5.682
 7804SOL    HW224312   3.108   1.099   5.733
 7805SOL     OW24313   6.221   2.030   6.644
 7805SOL    HW124314   6.303   2.086   6.658
 7805SOL    HW224315   6.244   1.934   6.654
 7806SOL     OW24316   6.480   2.237   5.146
 7806SOL    HW124317   6.515   2.170   5.211
 7806SOL    HW224318   6.482   2.328   5.188
 7807SOL     OW24319   1.842   5.641   5.499
 7807SOL    HW124320   1.798   5.730   5.514
 7807SOL    HW224321   1.882   5.610   5.586
 7808SOL     OW24322   0.350   2.949   4.486
 7808SOL    HW124323   0.335   2.879   4.417
 7808SOL    HW224324   0.443   2.941   4.522
 7809SOL     OW24325   3.427   0.120   2.978
 7809SOL    HW124326   3.444   0.037   2.924
 7809SOL    HW224327   3.405   0.094   3.072
 7810SOL     OW24328   2.330   6.649   6.420
 7810SOL    HW124329   2.368   6.586   6.353
 7810SOL    HW224330   2.350   6.616   6.512
 7811SOL     OW24331   1.491   5.213   2.913
 7811SOL    HW124332   1.404   5.164   2.920
 7811SOL    HW224333   1.481   5.291   2.852
 7812SOL     OW24334   3.035   1.063   6.257
 7812SOL    HW124335   2.991   1.000   6.193
 7812SOL    HW224336   2.972   1.138   6.278
 7813SOL     OW24337   5.946   1.109   0.638
 7813SOL    HW124338   5.866   1.114   0.577
 7813SOL    HW224339   5.917   1.126   0.732
 7814SOL     OW24340   0.196   2.572   2.074
 7814SOL    HW124341   0.235   2.494   2.027
 7814SOL    HW224342   0.269   2.634   2.104
 7815SOL     OW24343   4.712   5.889   2.959
 7815SOL    HW124344   4.633   5.861   2.905
 7815SOL    HW224345   4.728   5.987   2.948
 7816SOL     OW24346   1.276   1.403   5.736
 7816SOL    HW124347   1.233   1.491   5.716
 7816SOL    HW224348   1.273   1.345   5.654
 7817SOL     OW24349   4.905   0.870   5.736
 7817SOL    HW124350   4.854   0.955   5.721
 7817SOL    HW224351   4.916   0.855   5.834
 7818SOL     OW24352   5.075   1.053   2.992
 7818SOL    HW124353   5.018   1.125   2.952
 7818SOL    HW224354   5.170   1.084   2.997
 7819SOL     OW24355   2.326   2.698   4.618
 7819SOL    HW124356   2.367   2.785   4.646
 7819SOL    HW224357   2.398   2.631   4.602
 7820SOL     OW24358   1.652   0.904   6.210
 7820SOL    HW124359   1.749   0.880   6.222
 7820SOL    HW224360   1.645   0.991   6.162
 7821SOL     OW24361   3.820   5.434   6.711
 7821SOL    HW124362   3.915   5.407   6.725
 7821SOL    HW224363   3.761   5.379   6.770
 7822SOL     OW24364   0.448   1.505   4.752
 7822SOL    HW124365   0.525   1.441   4.757
 7822SOL    HW224366   0.483   1.599   4.750
 7823SOL     OW24367   2.627   2.881   5.944
 7823SOL    HW124368   2.614   2.832   5.858
 7823SOL    HW224369   2.584   2.830   6.018
 7824SOL     OW24370   5.924   4.344   2.619
 7824SOL    HW124371   6.009   4.384   2.652
 7824SOL    HW224372   5.854   4.353   2.690
 7825SOL     OW24373   3.303   3.266   3.522
 7825SOL    HW124374   3.381   3.323   3.497
 7825SOL    HW224375   3.246   3.250   3.442
 7826SOL     OW24376   6.469   6.855   1.067
 7826SOL    HW124377   6.405   6.923   1.102
 7826SOL    HW224378   6.419   6.776   1.032
 7827SOL     OW24379   5.104   3.848   0.451
 7827SOL    HW124380   5.163   3.774   0.421
 7827SOL    HW224381   5.069   3.898   0.371
 7828SOL     OW24382   1.232   6.432   0.952
 7828SOL    HW124383   1.185   6.379   0.882
 7828SOL    HW224384   1.330   6.412   0.949
 7829SOL     OW24385   3.795   4.061   2.903
 7829SOL    HW124386   3.832   4.040   2.812
 7829SOL    HW224387   3.695   4.063   2.899
 7830SOL     OW24388   6.706   4.379   6.980
 7830SOL    HW124389   6.773   4.444   6.944
 7830SOL    HW224390   6.705   4.386   0.056
 7831SOL     OW24391   2.832   2.875   0.372
 7831SOL    HW124392   2.742   2.870   0.416
 7831SOL    HW224393   2.820   2.868   0.273
 7832SOL     OW24394   3.998   2.820   5.859
 7832SOL    HW124395   3.961   2.728   5.871
 7832SOL    HW224396   4.055   2.844   5.938
 7833SOL     OW24397   6.254   0.054   1.688
 7833SOL    HW124398   6.240   0.072   1.591
 7833SOL    HW224399   6.181   7.017   1.721
 7834SOL     OW24400   5.365   1.494   1.327
 7834SOL    HW124401   5.336   1.403   1.356
 7834SOL    HW224402   5.460   1.490   1.297
 7835SOL     OW24403   2.538   2.456   4.169
 7835SOL    HW124404   2.483   2.389   4.219
 7835SOL    HW224405   2.562   2.532   4.230
 7836SOL     OW24406   2.583   0.681   6.905
 7836SOL    HW124407   2.648   0.756   6.890
 7836SOL    HW224408   2.582   0.657   7.002
 7837SOL     OW24409   5.336   6.241   1.779
 7837SOL    HW124410   5.427   6.203   1.790
 7837SOL    HW224411   5.270   6.187   1.830
 7838SOL     OW24412   3.492   5.518   3.849
 7838SOL    HW124413   3.561   5.509   3.921
 7838SOL    HW224414   3.513   5.599   3.793
 7839SOL     OW24415   6.888   5.588   3.593
 7839SOL    HW124416   6.927   5.522   3.657
 7839SOL    HW224417   6.792   5.567   3.577
 7840SOL     OW24418   4.210   2.709   6.479
 7840SOL    HW124419   4.226   2.661   6.392
 7840SOL    HW224420   4.147   2.785   6.464
 7841SOL     OW24421   1.090   2.063   5.944
 7841SOL    HW124422   1.083   2.045   5.846
 7841SOL    HW224423   1.037   2.144   5.967
 7842SOL     OW24424   1.818   0.702   2.953
 7842SOL    HW124425   1.882   0.779   2.963
 7842SOL    HW224426   1.731   0.724   2.997
 7843SOL     OW24427   0.313   2.313   1.899
 7843SOL    HW124428   0.381   2.328   1.828
 7843SOL    HW224429   0.359   2.297   1.987
 7844SOL     OW24430   3.280   2.136   3.309
 7844SOL    HW124431   3.278   2.036   3.308
 7844SOL    HW224432   3.328   2.169   3.227
 7845SOL     OW24433   0.543   0.650   4.301
 7845SOL    HW124434   0.558   0.654   4.400
 7845SOL    HW224435   0.596   0.575   4.262
 7846SOL     OW24436   4.641   0.465   2.250
 7846SOL    HW124437   4.621   0.552   2.205
 7846SOL    HW224438   4.688   0.483   2.337
 7847SOL     OW24439   0.415   6.787   6.649
 7847SOL    HW124440   0.431   6.870   6.595
 7847SOL    HW224441   0.482   6.782   6.723
 7848SOL     OW24442   4.066   3.754   1.829
 7848SOL    HW124443   4.122   3.786   1.752
 7848SOL    HW224444   4.093   3.803   1.912
 7849SOL     OW24445   5.127   4.008   4.612
 7849SOL    HW124446   5.047   4.068   4.606
 7849SOL    HW224447   5.108   3.922   4.564
 7850SOL     OW24448   1.209   2.745   5.038
 7850SOL    HW124449   1.271   2.800   4.981
 7850SOL    HW224450   1.252   2.729   5.127
 7851SOL     OW24451   3.833   6.878   0.370
 7851SOL    HW124452   3.750   6.872   0.425
 7851SOL    HW224453   3.860   6.786   0.341
 7852SOL     OW24454   2.673   6.958   0.642
 7852SOL    HW124455   2.705   6.875   0.594
 7852SOL    HW224456   2.649   6.935   0.736
 7853SOL     OW24457   2.391   1.396   0.319
 7853SOL    HW124458   2.314   1.371   0.259
 7853SOL    HW224459   2.385   1.344   0.404
 7854SOL     OW24460   4.068   3.735   4.013
 7854SOL    HW124461   4.091   3.644   4.046
 7854SOL    HW224462   4.095   3.743   3.917
 7855SOL     OW24463   2.880   0.418   4.957
 7855SOL    HW124464   2.920   0.350   4.896
 7855SOL    HW224465   2.784   0.432   4.933
 7856SOL     OW24466   3.402   2.876   6.666
 7856SOL    HW124467   3.494   2.903   6.638
 7856SOL    HW224468   3.367   2.942   6.733
 7857SOL     OW24469   0.317   2.824   5.041
 7857SOL    HW124470   0.300   2.916   5.075
 7857SOL    HW224471   0.379   2.776   5.103
 7858SOL     OW24472   5.235   3.424   3.396
 7858SOL    HW124473   5.253   3.349   3.460
 7858SOL    HW224474   5.160   3.480   3.432
 7859SOL     OW24475   0.410   0.155   0.484
 7859SOL    HW124476   0.425   0.253   0.492
 7859SOL    HW224477   0.331   0.128   0.539
 7860SOL     OW24478   4.993   6.465   1.085
 7860SOL    HW124479   4.917   6.527   1.066
 7860SOL    HW224480   5.039   6.441   1.000
 7861SOL     OW24481   6.233   3.420   0.258
 7861SOL    HW124482   6.328   3.447   0.273
 7861SOL    HW224483   6.230   3.349   0.188
 7862SOL     OW24484   2.575   4.621   1.859
 7862SOL    HW124485   2.655   4.590   1.911
 7862SOL    HW224486   2.600   4.699   1.802
 7863SOL     OW24487   4.142   6.058   2.829
 7863SOL    HW124488   4.079   5.986   2.859
 7863SOL    HW224489   4.127   6.140   2.884
 7864SOL     OW24490   1.677   5.664   5.067
 7864SOL    HW124491   1.611   5.636   5.137
 7864SOL    HW224492   1.629   5.716   4.995
 7865SOL     OW24493   4.281   0.712   3.117
 7865SOL    HW124494   4.283   0.812   3.129
 7865SOL    HW224495   4.340   0.670   3.185
 7866SOL     OW24496   2.709   0.990   5.613
 7866SOL    HW124497   2.800   1.026   5.590
 7866SOL    HW224498   2.667   1.047   5.683
 7867SOL     OW24499   6.068   3.178   1.044
 7867SOL    HW124500   6.072   3.137   0.953
 7867SOL    HW224501   5.985   3.232   1.053
 7868SOL     OW24502   4.325   6.542   0.738
 7868SOL    HW124503   4.291   6.451   0.718
 7868SOL    HW224504   4.259   6.592   0.794
 7869SOL     OW24505   6.308   1.994   3.950
 7869SOL    HW124506   6.215   1.979   3.916
 7869SOL    HW224507   6.321   1.941   4.034
 7870SOL     OW24508   6.665   0.179   3.276
 7870SOL    HW124509   6.702   0.194   3.367
 7870SOL    HW224510   6.739   0.156   3.213
 7871SOL     OW24511   5.884   3.108   3.884
 7871SOL    HW124512   5.936   3.184   3.923
 7871SOL    HW224513   5.826   3.142   3.810
 7872SOL     OW24514   6.774   4.294   4.461
 7872SOL    HW124515   6.823   4.210   4.484
 7872SOL    HW224516   6.688   4.271   4.415
 7873SOL     OW24517   0.020   5.721   4.313
 7873SOL    HW124518   0.096   5.660   4.335
 7873SOL    HW224519   0.004   5.719   4.214
 7874SOL     OW24520   6.043   0.071   6.889
 7874SOL    HW124521   6.013   0.082   6.984
 7874SOL    HW224522   6.140   0.046   6.887
 7875SOL     OW24523   5.187   3.165   0.075
 7875SOL    HW124524   5.272   3.137   0.118
 7875SOL    HW224525   5.132   3.084   0.053
 7876SOL     OW24526   0.397   1.782   4.716
 7876SOL    HW124527   0.303   1.748   4.726
 7876SOL    HW224528   0.407   1.825   4.626
 7877SOL     OW24529   5.674   3.831   2.068
 7877SOL    HW124530   5.594   3.772   2.057
 7877SOL    HW224531   5.744   3.783   2.120
 7878SOL     OW24532   3.631   3.707   1.931
 7878SOL    HW124533   3.541   3.707   1.976
 7878SOL    HW224534   3.636   3.630   1.868
 7879SOL     OW24535   6.913   1.187   5.040
 7879SOL    HW124536   7.006   1.150   5.040
 7879SOL    HW224537   6.893   1.226   4.950
 7880SOL     OW24538   1.855   6.153   6.662
 7880SOL    HW124539   1.840   6.232   6.721
 7880SOL    HW224540   1.786   6.152   6.589
 7881SOL     OW24541   0.635   5.310   4.562
 7881SOL    HW124542   0.681   5.384   4.515
 7881SOL    HW224543   0.701   5.262   4.620
 7882SOL     OW24544   1.866   4.880   1.348
 7882SOL    HW124545   1.787   4.941   1.340
 7882SOL    HW224546   1.839   4.797   1.397
 7883SOL     OW24547   3.345   2.121   2.198
 7883SOL    HW124548   3.294   2.207   2.205
 7883SOL    HW224549   3.339   2.086   2.104
 7884SOL     OW24550   1.118   2.530   5.736
 7884SOL    HW124551   1.032   2.545   5.686
 7884SOL    HW224552   1.104   2.552   5.832
 7885SOL     OW24553   5.944   5.439   2.535
 7885SOL    HW124554   6.006   5.516   2.521
 7885SOL    HW224555   5.898   5.417   2.450
 7886SOL     OW24556   3.914   4.802   2.987
 7886SOL    HW124557   3.841   4.828   2.924
 7886SOL    HW224558   3.882   4.811   3.081
 7887SOL     OW24559   0.750   3.249   0.673
 7887SOL    HW124560   0.787   3.337   0.642
 7887SOL    HW224561   0.703   3.204   0.597
 7888SOL     OW24562   0.109   1.935   5.416
 7888SOL    HW124563   0.144   1.884   5.337
 7888SOL    HW224564   0.176   2.005   5.443
 7889SOL     OW24565   5.423   4.899   0.271
 7889SOL    HW124566   5.376   4.836   0.332
 7889SOL    HW224567   5.357   4.935   0.204
 7890SOL     OW24568   2.078   3.019   2.126
 7890SOL    HW124569   2.150   2.985   2.187
 7890SOL    HW224570   2.003   2.953   2.123
 7891SOL     OW24571   6.035   1.425   4.298
 7891SOL    HW124572   6.018   1.477   4.214
 7891SOL    HW224573   5.991   1.335   4.291
 7892SOL     OW24574   1.188   2.051   4.154
 7892SOL    HW124575   1.106   2.103   4.178
 7892SOL    HW224576   1.268   2.109   4.167
 7893SOL     OW24577   5.507   6.059   1.282
 7893SOL    HW124578   5.504   6.155   1.307
 7893SOL    HW224579   5.414   6.022   1.278
 7894SOL     OW24580   3.291   0.285   6.783
 7894SOL    HW124581   3.241   0.346   6.722
 7894SOL    HW224582   3.262   0.301   6.878
 7895SOL     OW24583   5.414   6.358   3.091
 7895SOL    HW124584   5.382   6.431   3.152
 7895SOL    HW224585   5.417   6.392   2.997
 7896SOL     OW24586   2.750   1.942   0.441
 7896SOL    HW124587   2.746   1.871   0.511
 7896SOL    HW224588   2.781   2.028   0.483
 7897SOL     OW24589   4.603   1.293   1.743
 7897SOL    HW124590   4.664   1.235   1.690
 7897SOL    HW224591   4.654   1.374   1.774
 7898SOL     OW24592   4.498   6.319   3.136
 7898SOL    HW124593   4.412   6.368   3.123
 7898SOL    HW224594   4.573   6.374   3.099
 7899SOL     OW24595   6.035   4.959   3.032
 7899SOL    HW124596   6.053   4.981   2.936
 7899SOL    HW224597   6.071   4.869   3.052
 7900SOL     OW24598   0.543   3.283   0.840
 7900SOL    HW124599   0.593   3.274   0.754
 7900SOL    HW224600   0.518   3.379   0.855
 7901SOL     OW24601   0.739   2.382   0.112
 7901SOL    HW124602   0.639   2.384   0.114
 7901SOL    HW224603   0.771   2.296   0.152
 7902SOL     OW24604   1.747   0.211   1.155
 7902SOL    HW124605   1.824   0.173   1.103
 7902SOL    HW224606   1.779   0.236   1.247
 7903SOL     OW24607   2.892   1.927   5.429
 7903SOL    HW124608   2.823   1.906   5.360
 7903SOL    HW224609   2.862   2.004   5.485
 7904SOL     OW24610   5.278   3.450   2.878
 7904SOL    HW124611   5.275   3.418   2.972
 7904SOL    HW224612   5.185   3.469   2.846
 7905SOL     OW24613   6.066   1.928   1.564
 7905SOL    HW124614   6.029   1.877   1.487
 7905SOL    HW224615   6.099   1.865   1.634
 7906SOL     OW24616   0.247   5.852   6.212
 7906SOL    HW124617   0.262   5.869   6.114
 7906SOL    HW224618   0.332   5.822   6.254
 7907SOL     OW24619   5.771   5.956   3.581
 7907SOL    HW124620   5.832   6.028   3.616
 7907SOL    HW224621   5.824   5.875   3.559
 7908SOL     OW24622   1.907   0.168   5.519
 7908SOL    HW124623   1.944   0.107   5.449
 7908SOL    HW224624   1.823   0.210   5.485
 7909SOL     OW24625   6.545   3.524   1.849
 7909SOL    HW124626   6.523   3.467   1.769
 7909SOL    HW224627   6.493   3.609   1.844
 7910SOL     OW24628   1.596   4.184   4.817
 7910SOL    HW124629   1.535   4.198   4.896
 7910SOL    HW224630   1.685   4.223   4.837
 7911SOL     OW24631   5.978   4.040   5.632
 7911SOL    HW124632   6.029   4.118   5.668
 7911SOL    HW224633   6.003   3.958   5.685
 7912SOL     OW24634   5.652   6.010   1.549
 7912SOL    HW124635   5.645   5.911   1.558
 7912SOL    HW224636   5.601   6.040   1.468
 7913SOL     OW24637   1.300   5.078   6.193
 7913SOL    HW124638   1.233   5.043   6.259
 7913SOL    HW224639   1.360   5.003   6.165
 7914SOL     OW24640   1.031   6.909   4.681
 7914SOL    HW124641   1.066   7.003   4.679
 7914SOL    HW224642   0.958   6.898   4.613
 7915SOL     OW24643   3.347   5.583   1.999
 7915SOL    HW124644   3.283   5.571   2.075
 7915SOL    HW224645   3.403   5.501   1.989
 7916SOL     OW24646   1.308   0.997   4.202
 7916SOL    HW124647   1.397   1.038   4.178
 7916SOL    HW224648   1.319   0.937   4.280
 7917SOL     OW24649   5.167   2.175   2.705
 7917SOL    HW124650   5.140   2.115   2.631
 7917SOL    HW224651   5.163   2.270   2.674
 7918SOL     OW24652   1.703   2.541   2.424
 7918SOL    HW124653   1.752   2.524   2.509
 7918SOL    HW224654   1.627   2.603   2.441
 7919SOL     OW24655   0.363   6.632   4.828
 7919SOL    HW124656   0.437   6.667   4.885
 7919SOL    HW224657   0.308   6.708   4.793
 7920SOL     OW24658   5.172   6.569   0.662
 7920SOL    HW124659   5.157   6.651   0.716
 7920SOL    HW224660   5.242   6.587   0.593
 7921SOL     OW24661   5.284   3.243   0.602
 7921SOL    HW124662   5.213   3.312   0.584
 7921SOL    HW224663   5.271   3.165   0.540
 7922SOL     OW24664   2.249   6.608   3.376
 7922SOL    HW124665   2.151   6.596   3.364
 7922SOL    HW224666   2.266   6.695   3.423
 7923SOL     OW24667   5.097   7.008   1.132
 7923SOL    HW124668   5.196   7.006   1.145
 7923SOL    HW224669   5.069   0.077   1.108
 7924SOL     OW24670   5.722   5.898   6.909
 7924SOL    HW124671   5.678   5.858   6.829
 7924SOL    HW224672   5.715   5.835   6.986
 7925SOL     OW24673   1.860   4.877   5.924
 7925SOL    HW124674   1.874   4.880   6.023
 7925SOL    HW224675   1.947   4.886   5.877
 7926SOL     OW24676   4.484   5.558   5.853
 7926SOL    HW124677   4.386   5.557   5.837
 7926SOL    HW224678   4.506   5.498   5.930
 7927SOL     OW24679   4.854   0.478   3.416
 7927SOL    HW124680   4.797   0.517   3.488
 7927SOL    HW224681   4.949   0.505   3.430
 7928SOL     OW24682   5.541   1.982   4.246
 7928SOL    HW124683   5.639   1.964   4.254
 7928SOL    HW224684   5.494   1.898   4.220
 7929SOL     OW24685   4.730   3.797   5.449
 7929SOL    HW124686   4.671   3.726   5.411
 7929SOL    HW224687   4.790   3.832   5.377
 7930SOL     OW24688   4.072   5.359   0.549
 7930SOL    HW124689   4.144   5.292   0.530
 7930SOL    HW224690   4.045   5.354   0.645
 7931SOL     OW24691   4.949   0.748   0.701
 7931SOL    HW124692   4.871   0.810   0.686
 7931SOL    HW224693   4.917   0.654   0.696
 7932SOL     OW24694   1.021   3.393   1.048
 7932SOL    HW124695   1.018   3.330   1.126
 7932SOL    HW224696   0.934   3.389   0.999
 7933SOL     OW24697   1.406   1.664   0.560
 7933SOL    HW124698   1.449   1.603   0.493
 7933SOL    HW224699   1.415   1.625   0.652
 7934SOL     OW24700   6.897   5.361   1.174
 7934SOL    HW124701   6.867   5.278   1.222
 7934SOL    HW224702   6.953   5.336   1.095
 7935SOL     OW24703   6.069   3.467   3.518
 7935SOL    HW124704   6.144   3.533   3.530
 7935SOL    HW224705   6.023   3.453   3.605
 7936SOL     OW24706   2.231   6.132   3.310
 7936SOL    HW124707   2.324   6.141   3.344
 7936SOL    HW224708   2.169   6.183   3.369
 7937SOL     OW24709   4.069   1.650   1.336
 7937SOL    HW124710   4.139   1.721   1.331
 7937SOL    HW224711   3.988   1.685   1.382
 7938SOL     OW24712   2.214   6.826   3.601
 7938SOL    HW124713   2.287   6.876   3.648
 7938SOL    HW224714   2.196   6.740   3.650
 7939SOL     OW24715   1.422   0.167   2.618
 7939SOL    HW124716   1.499   0.103   2.619
 7939SOL    HW224717   1.455   0.258   2.645
 7940SOL     OW24718   6.535   1.836   5.395
 7940SOL    HW124719   6.550   1.929   5.359
 7940SOL    HW224720   6.568   1.769   5.329
 7941SOL     OW24721   3.475   6.993   0.665
 7941SOL    HW124722   3.402   0.016   0.615
 7941SOL    HW224723   3.511   0.030   0.736
 7942SOL     OW24724   0.888   3.902   1.063
 7942SOL    HW124725   0.811   3.951   1.022
 7942SOL    HW224726   0.944   3.967   1.115
 7943SOL     OW24727   1.792   5.696   0.244
 7943SOL    HW124728   1.714   5.694   0.306
 7943SOL    HW224729   1.782   5.772   0.180
 7944SOL     OW24730   1.241   1.808   0.992
 7944SOL    HW124731   1.316   1.861   0.954
 7944SOL    HW224732   1.267   1.773   1.082
 7945SOL     OW24733   6.441   4.031   3.228
 7945SOL    HW124734   6.415   3.937   3.252
 7945SOL    HW224735   6.403   4.094   3.296
 7946SOL     OW24736   4.470   1.486   6.205
 7946SOL    HW124737   4.523   1.503   6.122
 7946SOL    HW224738   4.494   1.397   6.242
 7947SOL     OW24739   0.601   3.900   6.513
 7947SOL    HW124740   0.510   3.882   6.551
 7947SOL    HW224741   0.658   3.943   6.583
 7948SOL     OW24742   1.386   5.505   1.368
 7948SOL    HW124743   1.334   5.590   1.369
 7948SOL    HW224744   1.421   5.488   1.276
 7949SOL     OW24745   2.983   5.581   5.387
 7949SOL    HW124746   2.969   5.482   5.390
 7949SOL    HW224747   3.081   5.600   5.374
 7950SOL     OW24748   6.184   3.234   5.632
 7950SOL    HW124749   6.248   3.208   5.704
 7950SOL    HW224750   6.232   3.241   5.545
 7951SOL     OW24751   3.962   0.306   3.015
 7951SOL    HW124752   4.032   0.360   2.969
 7951SOL    HW224753   3.939   0.226   2.960
 7952SOL     OW24754   6.527   3.244   5.196
 7952SOL    HW124755   6.582   3.327   5.196
 7952SOL    HW224756   6.570   3.175   5.254
 7953SOL     OW24757   2.027   6.913   0.531
 7953SOL    HW124758   2.073   6.995   0.567
 7953SOL    HW224759   2.042   6.837   0.595
 7954SOL     OW24760   3.318   2.728   6.919
 7954SOL    HW124761   3.362   2.700   7.004
 7954SOL    HW224762   3.356   2.815   6.889
 7955SOL     OW24763   6.834   0.803   6.772
 7955SOL    HW124764   6.839   0.882   6.711
 7955SOL    HW224765   6.926   0.782   6.807
 7956SOL     OW24766   0.179   0.122   0.598
 7956SOL    HW124767   0.154   0.214   0.629
 7956SOL    HW224768   0.130   0.054   0.653
 7957SOL     OW24769   5.563   1.185   5.569
 7957SOL    HW124770   5.473   1.227   5.585
 7957SOL    HW224771   5.592   1.203   5.475
 7958SOL     OW24772   4.864   2.333   6.705
 7958SOL    HW124773   4.807   2.410   6.733
 7958SOL    HW224774   4.814   2.247   6.718
 7959SOL     OW24775   4.814   2.948   6.908
 7959SOL    HW124776   4.810   3.035   6.859
 7959SOL    HW224777   4.801   2.873   6.844
 7960SOL     OW24778   0.687   1.892   4.911
 7960SOL    HW124779   0.646   1.967   4.859
 7960SOL    HW224780   0.615   1.828   4.940
 7961SOL     OW24781   6.293   0.358   6.674
 7961SOL    HW124782   6.217   0.293   6.674
 7961SOL    HW224783   6.302   0.398   6.583
 7962SOL     OW24784   5.548   6.939   4.911
 7962SOL    HW124785   5.641   6.972   4.895
 7962SOL    HW224786   5.544   6.841   4.892
 7963SOL     OW24787   5.378   6.215   2.719
 7963SOL    HW124788   5.414   6.162   2.642
 7963SOL    HW224789   5.417   6.180   2.804
 7964SOL     OW24790   6.713   3.927   1.600
 7964SOL    HW124791   6.627   3.975   1.612
 7964SOL    HW224792   6.695   3.829   1.592
 7965SOL     OW24793   4.460   1.824   6.472
 7965SOL    HW124794   4.449   1.858   6.565
 7965SOL    HW224795   4.507   1.736   6.473
 7966SOL     OW24796   5.691   3.344   5.037
 7966SOL    HW124797   5.676   3.257   4.989
 7966SOL    HW224798   5.669   3.333   5.134
 7967SOL     OW24799   1.667   4.184   1.403
 7967SOL    HW124800   1.603   4.252   1.367
 7967SOL    HW224801   1.713   4.139   1.327
 7968SOL     OW24802   2.368   2.635   3.670
 7968SOL    HW124803   2.346   2.542   3.698
 7968SOL    HW224804   2.332   2.699   3.739
 7969SOL     OW24805   3.464   4.525   6.732
 7969SOL    HW124806   3.533   4.468   6.775
 7969SOL    HW224807   3.501   4.616   6.715
 7970SOL     OW24808   6.384   2.989   3.096
 7970SOL    HW124809   6.457   2.978   3.164
 7970SOL    HW224810   6.419   2.965   3.005
 7971SOL     OW24811   3.228   0.154   0.028
 7971SOL    HW124812   3.232   0.251   0.051
 7971SOL    HW224813   3.280   0.101   0.095
 7972SOL     OW24814   4.172   3.500   4.745
 7972SOL    HW124815   4.139   3.583   4.790
 7972SOL    HW224816   4.269   3.488   4.764
 7973SOL     OW24817   0.303   5.158   2.131
 7973SOL    HW124818   0.257   5.135   2.045
 7973SOL    HW224819   0.251   5.122   2.208
 7974SOL     OW24820   6.862   2.915   4.583
 7974SOL    HW124821   6.837   2.948   4.492
 7974SOL    HW224822   6.948   2.957   4.612
 7975SOL     OW24823   3.864   0.013   6.747
 7975SOL    HW124824   3.798   6.962   6.752
 7975SOL    HW224825   3.879   0.051   6.838
 7976SOL     OW24826   0.823   0.787   0.290
 7976SOL    HW124827   0.847   0.800   0.386
 7976SOL    HW224828   0.869   0.705   0.254
 7977SOL     OW24829   4.777   5.279   3.149
 7977SOL    HW124830   4.796   5.369   3.112
 7977SOL    HW224831   4.722   5.227   3.084
 7978SOL     OW24832   0.231   3.800   1.345
 7978SOL    HW124833   0.296   3.769   1.274
 7978SOL    HW224834   0.239   3.899   1.355
 7979SOL     OW24835   3.132   2.425   5.569
 7979SOL    HW124836   3.055   2.427   5.506
 7979SOL    HW224837   3.169   2.332   5.573
 7980SOL     OW24838   3.703   5.971   2.495
 7980SOL    HW124839   3.745   6.049   2.543
 7980SOL    HW224840   3.767   5.895   2.493
 7981SOL     OW24841   1.421   3.263   5.084
 7981SOL    HW124842   1.342   3.303   5.036
 7981SOL    HW224843   1.500   3.264   5.023
 7982SOL     OW24844   6.788   0.017   0.748
 7982SOL    HW124845   6.705   0.072   0.737
 7982SOL    HW224846   6.827   7.020   0.659
 7983SOL     OW24847   3.414   1.265   1.547
 7983SOL    HW124848   3.458   1.279   1.458
 7983SOL    HW224849   3.396   1.168   1.560
 7984SOL     OW24850   6.152   2.755   2.937
 7984SOL    HW124851   6.122   2.840   2.979
 7984SOL    HW224852   6.138   2.679   3.002
 7985SOL     OW24853   3.098   3.487   5.773
 7985SOL    HW124854   3.128   3.473   5.867
 7985SOL    HW224855   2.999   3.473   5.767
 7986SOL     OW24856   3.223   0.776   3.729
 7986SOL    HW124857   3.320   0.765   3.749
 7986SOL    HW224858   3.210   0.789   3.631
 7987SOL     OW24859   1.711   2.981   5.746
 7987SOL    HW124860   1.704   3.035   5.830
 7987SOL    HW224861   1.805   2.984   5.712
 7988SOL     OW24862   6.625   0.677   1.343
 7988SOL    HW124863   6.724   0.671   1.357
 7988SOL    HW224864   6.605   0.670   1.245
 7989SOL     OW24865   0.697   4.545   1.315
 7989SOL    HW124866   0.786   4.586   1.292
 7989SOL    HW224867   0.624   4.605   1.283
 7990SOL     OW24868   4.288   5.346   5.238
 7990SOL    HW124869   4.221   5.287   5.283
 7990SOL    HW224870   4.354   5.290   5.188
 7991SOL     OW24871   5.333   0.968   4.514
 7991SOL    HW124872   5.341   0.900   4.586
 7991SOL    HW224873   5.290   1.051   4.551
 7992SOL     OW24874   1.888   0.436   6.973
 7992SOL    HW124875   1.972   0.382   6.961
 7992SOL    HW224876   1.809   0.382   6.946
 7993SOL     OW24877   6.361   6.363   0.942
 7993SOL    HW124878   6.297   6.291   0.917
 7993SOL    HW224879   6.431   6.373   0.870
 7994SOL     OW24880   0.729   1.510   4.610
 7994SOL    HW124881   0.746   1.609   4.610
 7994SOL    HW224882   0.676   1.485   4.529
 7995SOL     OW24883   0.568   6.551   1.552
 7995SOL    HW124884   0.553   6.453   1.565
 7995SOL    HW224885   0.643   6.565   1.489
 7996SOL     OW24886   2.130   6.581   3.792
 7996SOL    HW124887   2.044   6.535   3.767
 7996SOL    HW224888   2.203   6.513   3.799
 7997SOL     OW24889   2.544   1.105   5.795
 7997SOL    HW124890   2.466   1.139   5.743
 7997SOL    HW224891   2.533   1.131   5.891
 7998SOL     OW24892   2.078   0.941   1.463
 7998SOL    HW124893   2.097   0.854   1.417
 7998SOL    HW224894   2.157   1.001   1.454
 7999SOL     OW24895   0.067   1.170   2.458
 7999SOL    HW124896   0.097   1.198   2.549
 7999SOL    HW224897   0.127   1.097   2.424
 8000SOL     OW24898   4.755   5.491   1.004
 8000SOL    HW124899   4.797   5.423   1.064
 8000SOL    HW224900   4.662   5.510   1.036
 8001SOL     OW24901   5.216   4.319   2.220
 8001SOL    HW124902   5.155   4.310   2.299
 8001SOL    HW224903   5.293   4.378   2.244
 8002SOL     OW24904   1.059   0.835   4.705
 8002SOL    HW124905   1.098   0.790   4.785
 8002SOL    HW224906   1.083   0.932   4.706
 8003SOL     OW24907   2.691   6.048   2.881
 8003SOL    HW124908   2.691   6.129   2.939
 8003SOL    HW224909   2.785   6.015   2.869
 8004SOL     OW24910   2.138   3.739   3.806
 8004SOL    HW124911   2.124   3.643   3.783
 8004SOL    HW224912   2.200   3.780   3.739
 8005SOL     OW24913   3.163   0.489   4.519
 8005SOL    HW124914   3.065   0.511   4.524
 8005SOL    HW224915   3.174   0.390   4.508
 8006SOL     OW24916   4.691   5.202   6.263
 8006SOL    HW124917   4.779   5.192   6.216
 8006SOL    HW224918   4.686   5.137   6.340
 8007SOL     OW24919   0.359   0.788   1.315
 8007SOL    HW124920   0.293   0.725   1.357
 8007SOL    HW224921   0.376   0.864   1.377
 8008SOL     OW24922   5.516   5.059   0.610
 8008SOL    HW124923   5.551   5.118   0.683
 8008SOL    HW224924   5.548   4.966   0.625
 8009SOL     OW24925   6.379   1.010   1.302
 8009SOL    HW124926   6.319   1.022   1.223
 8009SOL    HW224927   6.475   1.020   1.273
 8010SOL     OW24928   2.753   0.095   6.124
 8010SOL    HW124929   2.721   0.089   6.030
 8010SOL    HW224930   2.675   0.105   6.185
 8011SOL     OW24931   3.643   2.087   2.591
 8011SOL    HW124932   3.742   2.099   2.590
 8011SOL    HW224933   3.608   2.082   2.498
 8012SOL     OW24934   6.459   0.543   5.179
 8012SOL    HW124935   6.500   0.603   5.111
 8012SOL    HW224936   6.470   0.583   5.270
 8013SOL     OW24937   3.775   0.554   3.159
 8013SOL    HW124938   3.797   0.515   3.249
 8013SOL    HW224939   3.803   0.489   3.088
 8014SOL     OW24940   2.145   2.881   3.255
 8014SOL    HW124941   2.209   2.880   3.332
 8014SOL    HW224942   2.056   2.846   3.285
 8015SOL     OW24943   3.533   6.173   4.822
 8015SOL    HW124944   3.530   6.091   4.764
 8015SOL    HW224945   3.468   6.240   4.787
 8016SOL     OW24946   2.984   2.988   5.255
 8016SOL    HW124947   3.053   3.059   5.246
 8016SOL    HW224948   2.899   3.019   5.211
 8017SOL     OW24949   5.453   6.513   1.809
 8017SOL    HW124950   5.399   6.544   1.887
 8017SOL    HW224951   5.413   6.429   1.772
 8018SOL     OW24952   2.853   3.019   0.845
 8018SOL    HW124953   2.861   3.117   0.827
 8018SOL    HW224954   2.918   2.969   0.789
 8019SOL     OW24955   2.677   3.555   1.104
 8019SOL    HW124956   2.775   3.569   1.089
 8019SOL    HW224957   2.625   3.629   1.061
 8020SOL     OW24958   0.640   0.146   0.275
 8020SOL    HW124959   0.558   0.146   0.331
 8020SOL    HW224960   0.697   0.067   0.297
 8021SOL     OW24961   0.859   2.691   0.757
 8021SOL    HW124962   0.843   2.614   0.819
 8021SOL    HW224963   0.951   2.727   0.774
 8022SOL     OW24964   4.091   0.468   2.434
 8022SOL    HW124965   4.082   0.392   2.498
 8022SOL    HW224966   4.186   0.478   2.407
 8023SOL     OW24967   3.861   4.856   2.017
 8023SOL    HW124968   3.845   4.846   2.116
 8023SOL    HW224969   3.782   4.821   1.967
 8024SOL     OW24970   2.399   0.836   6.132
 8024SOL    HW124971   2.342   0.839   6.215
 8024SOL    HW224972   2.433   0.928   6.112
 8025SOL     OW24973   1.242   6.664   1.228
 8025SOL    HW124974   1.253   6.710   1.140
 8025SOL    HW224975   1.146   6.642   1.243
 8026SOL     OW24976   0.474   6.930   5.495
 8026SOL    HW124977   0.408   6.858   5.519
 8026SOL    HW224978   0.439   7.019   5.526
 8027SOL     OW24979   4.568   0.148   6.351
 8027SOL    HW124980   4.472   0.139   6.381
 8027SOL    HW224981   4.621   0.189   6.424
 8028SOL     OW24982   4.045   5.726   6.494
 8028SOL    HW124983   3.999   5.665   6.430
 8028SOL    HW224984   4.047   5.819   6.456
 8029SOL     OW24985   1.141   0.121   1.765
 8029SOL    HW124986   1.071   0.112   1.836
 8029SOL    HW224987   1.097   0.118   1.675
 8030SOL     OW24988   0.417   3.975   1.038
 8030SOL    HW124989   0.389   3.889   1.079
 8030SOL    HW224990   0.430   4.044   1.109
 8031SOL     OW24991   6.868   0.610   3.502
 8031SOL    HW124992   6.816   0.662   3.434
 8031SOL    HW224993   6.966   0.620   3.484
 8032SOL     OW24994   7.003   3.016   1.165
 8032SOL    HW124995   0.063   2.975   1.128
 8032SOL    HW224996   6.991   2.986   1.260
 8033SOL     OW24997   4.026   5.162   1.068
 8033SOL    HW124998   4.073   5.149   1.156
 8033SOL    HW224999   4.090   5.142   0.993
 8034SOL     OW25000   1.229   1.320   5.460
 8034SOL    HW125001   1.265   1.262   5.388
 8034SOL    HW225002   1.175   1.394   5.419
 8035SOL     OW25003   5.381   0.535   4.921
 8035SOL    HW125004   5.337   0.574   5.003
 8035SOL    HW225005   5.457   0.593   4.894
 8036SOL     OW25006   4.907   4.417   4.132
 8036SOL    HW125007   4.917   4.322   4.101
 8036SOL    HW225008   4.811   4.434   4.155
 8037SOL     OW25009   2.689   1.655   6.479
 8037SOL    HW125010   2.641   1.568   6.466
 8037SOL    HW225011   2.737   1.654   6.567
 8038SOL     OW25012   6.620   5.399   1.937
 8038SOL    HW125013   6.607   5.471   1.869
 8038SOL    HW225014   6.628   5.311   1.890
 8039SOL     OW25015   2.085   2.650   5.001
 8039SOL    HW125016   2.129   2.564   5.027
 8039SOL    HW225017   2.078   2.709   5.082
 8040SOL     OW25018   0.909   6.626   5.645
 8040SOL    HW125019   0.914   6.577   5.558
 8040SOL    HW225020   0.897   6.560   5.719
 8041SOL     OW25021   3.138   1.759   2.778
 8041SOL    HW125022   3.237   1.758   2.762
 8041SOL    HW225023   3.090   1.758   2.691
 8042SOL     OW25024   4.280   4.125   6.302
 8042SOL    HW125025   4.213   4.082   6.241
 8042SOL    HW225026   4.231   4.176   6.373
 8043SOL     OW25027   5.405   5.186   6.867
 8043SOL    HW125028   5.493   5.233   6.857
 8043SOL    HW225029   5.376   5.151   6.778
 8044SOL     OW25030   1.129   2.853   1.493
 8044SOL    HW125031   1.049   2.913   1.491
 8044SOL    HW225032   1.197   2.885   1.427
 8045SOL     OW25033   5.928   3.432   4.914
 8045SOL    HW125034   5.840   3.403   4.952
 8045SOL    HW225035   5.998   3.424   4.985
 8046SOL     OW25036   0.326   4.302   0.759
 8046SOL    HW125037   0.300   4.294   0.663
 8046SOL    HW225038   0.309   4.215   0.805
 8047SOL     OW25039   3.282   6.285   6.395
 8047SOL    HW125040   3.298   6.318   6.488
 8047SOL    HW225041   3.313   6.190   6.387
 8048SOL     OW25042   4.298   1.991   6.317
 8048SOL    HW125043   4.199   1.979   6.314
 8048SOL    HW225044   4.337   1.927   6.384
 8049SOL     OW25045   2.037   1.414   1.020
 8049SOL    HW125046   2.115   1.353   1.037
 8049SOL    HW225047   1.986   1.380   0.941
 8050SOL     OW25048   0.406   5.385   5.943
 8050SOL    HW125049   0.413   5.302   5.998
 8050SOL    HW225050   0.433   5.464   5.998
 8051SOL     OW25051   4.248   6.512   3.106
 8051SOL    HW125052   4.285   6.563   3.184
 8051SOL    HW225053   4.220   6.575   3.034
 8052SOL     OW25054   2.630   1.420   3.089
 8052SOL    HW125055   2.641   1.360   3.168
 8052SOL    HW225056   2.669   1.510   3.109
 8053SOL     OW25057   1.420   2.131   6.533
 8053SOL    HW125058   1.391   2.111   6.440
 8053SOL    HW225059   1.463   2.050   6.573
 8054SOL     OW25060   5.151   3.575   5.168
 8054SOL    HW125061   5.230   3.583   5.229
 8054SOL    HW225062   5.168   3.628   5.085
 8055SOL     OW25063   6.859   0.226   6.522
 8055SOL    HW125064   6.930   0.294   6.506
 8055SOL    HW225065   6.870   0.150   6.457
 8056SOL     OW25066   2.243   2.480   3.018
 8056SOL    HW125067   2.290   2.530   3.090
 8056SOL    HW225068   2.192   2.544   2.960
 8057SOL     OW25069   3.371   2.076   1.925
 8057SOL    HW125070   3.342   2.112   1.836
 8057SOL    HW225071   3.471   2.078   1.931
 8058SOL     OW25072   3.798   6.470   1.677
 8058SOL    HW125073   3.837   6.496   1.765
 8058SOL    HW225074   3.751   6.382   1.686
 8059SOL     OW25075   4.384   3.723   5.654
 8059SOL    HW125076   4.421   3.781   5.727
 8059SOL    HW225077   4.359   3.634   5.690
 8060SOL     OW25078   0.208   1.397   5.430
 8060SOL    HW125079   0.280   1.430   5.368
 8060SOL    HW225080   0.248   1.339   5.500
 8061SOL     OW25081   6.883   1.005   1.324
 8061SOL    HW125082   6.878   0.906   1.341
 8061SOL    HW225083   6.951   1.045   1.386
 8062SOL     OW25084   3.889   4.665   6.470
 8062SOL    HW125085   3.904   4.763   6.481
 8062SOL    HW225086   3.975   4.620   6.446
 8063SOL     OW25087   2.358   4.849   3.053
 8063SOL    HW125088   2.399   4.770   3.007
 8063SOL    HW225089   2.378   4.932   3.000
 8064SOL     OW25090   6.925   2.889   0.701
 8064SOL    HW125091   6.968   2.978   0.717
 8064SOL    HW225092   6.992   2.816   0.712
 8065SOL     OW25093   4.763   0.276   6.812
 8065SOL    HW125094   4.778   0.370   6.780
 8065SOL    HW225095   4.695   0.275   6.884
 8066SOL     OW25096   6.651   0.961   6.112
 8066SOL    HW125097   6.716   0.887   6.127
 8066SOL    HW225098   6.597   0.942   6.030
 8067SOL     OW25099   5.075   0.831   4.231
 8067SOL    HW125100   5.066   0.890   4.150
 8067SOL    HW225101   5.172   0.814   4.248
 8068SOL     OW25102   6.773   4.641   1.327
 8068SOL    HW125103   6.680   4.628   1.362
 8068SOL    HW225104   6.815   4.552   1.310
 8069SOL     OW25105   1.311   2.540   2.266
 8069SOL    HW125106   1.403   2.502   2.253
 8069SOL    HW225107   1.315   2.640   2.261
 8070SOL     OW25108   5.368   4.324   1.863
 8070SOL    HW125109   5.353   4.266   1.943
 8070SOL    HW225110   5.442   4.286   1.808
 8071SOL     OW25111   2.146   0.337   6.004
 8071SOL    HW125112   2.215   0.380   6.063
 8071SOL    HW225113   2.188   0.260   5.955
 8072SOL     OW25114   2.408   2.433   5.635
 8072SOL    HW125115   2.366   2.360   5.689
 8072SOL    HW225116   2.336   2.491   5.596
 8073SOL     OW25117   5.650   6.921   6.498
 8073SOL    HW125118   5.710   6.866   6.440
 8073SOL    HW225119   5.637   6.875   6.585
 8074SOL     OW25120   6.679   0.829   0.986
 8074SOL    HW125121   6.636   0.746   1.020
 8074SOL    HW225122   6.645   0.850   0.895
 8075SOL     OW25123   0.448   0.633   1.128
 8075SOL    HW125124   0.392   0.698   1.180
 8075SOL    HW225125   0.545   0.654   1.142
 8076SOL     OW25126   6.963   5.608   0.498
 8076SOL    HW125127   6.912   5.620   0.413
 8076SOL    HW225128   0.036   5.599   0.478
 8077SOL     OW25129   6.145   4.058   1.173
 8077SOL    HW125130   6.053   4.025   1.194
 8077SOL    HW225131   6.140   4.153   1.141
 8078SOL     OW25132   6.047   1.752   1.843
 8078SOL    HW125133   6.131   1.707   1.875
 8078SOL    HW225134   6.039   1.841   1.888
 8079SOL     OW25135   0.249   1.036   6.778
 8079SOL    HW125136   0.299   0.987   6.706
 8079SOL    HW225137   0.166   1.077   6.740
 8080SOL     OW25138   0.241   3.617   4.038
 8080SOL    HW125139   0.223   3.684   3.966
 8080SOL    HW225140   0.275   3.532   3.996
 8081SOL     OW25141   6.222   0.656   5.646
 8081SOL    HW125142   6.205   0.559   5.666
 8081SOL    HW225143   6.168   0.713   5.708
 8082SOL     OW25144   5.067   2.343   4.854
 8082SOL    HW125145   5.068   2.439   4.882
 8082SOL    HW225146   5.123   2.289   4.916
 8083SOL     OW25147   6.756   2.981   4.335
 8083SOL    HW125148   6.673   2.937   4.368
 8083SOL    HW225149   6.761   2.972   4.235
 8084SOL     OW25150   5.296   1.760   7.019
 8084SOL    HW125151   5.371   1.748   6.955
 8084SOL    HW225152   5.209   1.748   6.971
 8085SOL     OW25153   1.529   6.407   4.501
 8085SOL    HW125154   1.566   6.417   4.408
 8085SOL    HW225155   1.489   6.494   4.530
 8086SOL     OW25156   0.552   2.673   2.440
 8086SOL    HW125157   0.642   2.704   2.407
 8086SOL    HW225158   0.562   2.633   2.531
 8087SOL     OW25159   6.623   0.677   6.391
 8087SOL    HW125160   6.619   0.654   6.293
 8087SOL    HW225161   6.573   0.762   6.407
 8088SOL     OW25162   0.128   6.974   5.264
 8088SOL    HW125163   0.037   7.001   5.298
 8088SOL    HW225164   0.180   0.033   5.240
 8089SOL     OW25165   6.438   1.301   0.110
 8089SOL    HW125166   6.474   1.224   0.163
 8089SOL    HW225167   6.501   1.323   0.036
 8090SOL     OW25168   4.724   2.119   4.668
 8090SOL    HW125169   4.746   2.171   4.586
 8090SOL    HW225170   4.768   2.029   4.664
 8091SOL     OW25171   0.842   3.702   5.059
 8091SOL    HW125172   0.760   3.662   5.098
 8091SOL    HW225173   0.918   3.638   5.069
 8092SOL     OW25174   4.699   0.022   5.591
 8092SOL    HW125175   4.654   0.037   5.502
 8092SOL    HW225176   4.794   0.051   5.585
 8093SOL     OW25177   3.477   6.926   3.362
 8093SOL    HW125178   3.455   7.017   3.397
 8093SOL    HW225179   3.573   6.923   3.335
 8094SOL     OW25180   1.927   4.219   3.777
 8094SOL    HW125181   1.898   4.208   3.681
 8094SOL    HW225182   2.011   4.167   3.792
 8095SOL     OW25183   1.404   5.656   4.473
 8095SOL    HW125184   1.442   5.741   4.438
 8095SOL    HW225185   1.450   5.578   4.431
 8096SOL     OW25186   0.842   4.748   1.036
 8096SOL    HW125187   0.893   4.769   1.120
 8096SOL    HW225188   0.833   4.831   0.981
 8097SOL     OW25189   4.873   6.539   0.686
 8097SOL    HW125190   4.965   6.507   0.663
 8097SOL    HW225191   4.843   6.608   0.620
 8098SOL     OW25192   2.586   6.350   4.470
 8098SOL    HW125193   2.676   6.386   4.443
 8098SOL    HW225194   2.558   6.280   4.404
 8099SOL     OW25195   2.162   3.738   2.704
 8099SOL    HW125196   2.133   3.654   2.750
 8099SOL    HW225197   2.180   3.720   2.608
 8100SOL     OW25198   6.943   6.688   0.474
 8100SOL    HW125199   6.921   6.617   0.407
 8100SOL    HW225200   7.000   6.758   0.431
 8101SOL     OW25201   2.391   4.907   0.187
 8101SOL    HW125202   2.449   4.976   0.229
 8101SOL    HW225203   2.434   4.874   0.103
 8102SOL     OW25204   1.381   4.402   3.820
 8102SOL    HW125205   1.390   4.483   3.878
 8102SOL    HW225206   1.369   4.321   3.877
 8103SOL     OW25207   4.357   0.652   1.474
 8103SOL    HW125208   4.438   0.593   1.482
 8103SOL    HW225209   4.276   0.602   1.504
 8104SOL     OW25210   0.728   6.118   6.849
 8104SOL    HW125211   0.634   6.150   6.847
 8104SOL    HW225212   0.753   6.093   6.943
 8105SOL     OW25213   6.863   6.989   2.644
 8105SOL    HW125214   6.799   7.002   2.719
 8105SOL    HW225215   6.945   6.942   2.678
 8106SOL     OW25216   3.017   6.193   6.636
 8106SOL    HW125217   2.975   6.271   6.590
 8106SOL    HW225218   2.997   6.109   6.586
 8107SOL     OW25219   1.083   6.479   0.353
 8107SOL    HW125220   1.058   6.413   0.283
 8107SOL    HW225221   1.073   6.437   0.443
 8108SOL     OW25222   1.784   1.040   0.820
 8108SOL    HW125223   1.708   1.099   0.849
 8108SOL    HW225224   1.835   1.009   0.900
 8109SOL     OW25225   0.240   3.986   2.241
 8109SOL    HW125226   0.229   3.927   2.321
 8109SOL    HW225227   0.160   3.975   2.181
 8110SOL     OW25228   4.525   4.202   0.176
 8110SOL    HW125229   4.481   4.167   0.258
 8110SOL    HW225230   4.582   4.131   0.136
 8111SOL     OW25231   5.644   2.047   2.302
 8111SOL    HW125232   5.679   1.963   2.345
 8111SOL    HW225233   5.621   2.114   2.373
 8112SOL     OW25234   2.155   4.654   6.656
 8112SOL    HW125235   2.067   4.697   6.635
 8112SOL    HW225236   2.195   4.617   6.572
 8113SOL     OW25237   5.502   5.211   6.559
 8113SOL    HW125238   5.454   5.216   6.471
 8113SOL    HW225239   5.511   5.115   6.587
 8114SOL     OW25240   2.036   3.480   2.741
 8114SOL    HW125241   2.078   3.394   2.773
 8114SOL    HW225242   1.997   3.529   2.819
 8115SOL     OW25243   2.477   1.747   6.058
 8115SOL    HW125244   2.458   1.742   6.156
 8115SOL    HW225245   2.575   1.735   6.042
 8116SOL     OW25246   4.052   3.185   2.278
 8116SOL    HW125247   3.956   3.206   2.257
 8116SOL    HW225248   4.102   3.171   2.193
 8117SOL     OW25249   1.069   0.367   3.954
 8117SOL    HW125250   0.979   0.410   3.956
 8117SOL    HW225251   1.073   0.300   3.880
 8118SOL     OW25252   6.692   2.390   6.582
 8118SOL    HW125253   6.717   2.363   6.675
 8118SOL    HW225254   6.756   2.348   6.517
 8119SOL     OW25255   5.366   4.961   6.205
 8119SOL    HW125256   5.426   4.881   6.205
 8119SOL    HW225257   5.288   4.945   6.144
 8120SOL     OW25258   2.067   6.459   2.331
 8120SOL    HW125259   2.042   6.393   2.401
 8120SOL    HW225260   2.035   6.427   2.242
 8121SOL     OW25261   1.917   2.496   2.637
 8121SOL    HW125262   2.014   2.478   2.627
 8121SOL    HW225263   1.901   2.595   2.636
 8122SOL     OW25264   0.924   4.768   1.550
 8122SOL    HW125265   0.933   4.867   1.563
 8122SOL    HW225266   0.835   4.738   1.583
 8123SOL     OW25267   6.870   1.833   6.425
 8123SOL    HW125268   6.839   1.907   6.485
 8123SOL    HW225269   6.872   1.747   6.476
 8124SOL     OW25270   6.353   5.737   5.314
 8124SOL    HW125271   6.402   5.672   5.256
 8124SOL    HW225272   6.405   5.754   5.398
 8125SOL     OW25273   0.792   6.379   2.113
 8125SOL    HW125274   0.860   6.451   2.129
 8125SOL    HW225275   0.835   6.304   2.063
 8126SOL     OW25276   3.675   5.622   4.379
 8126SOL    HW125277   3.716   5.532   4.365
 8126SOL    HW225278   3.610   5.642   4.305
 8127SOL     OW25279   4.257   1.221   6.193
 8127SOL    HW125280   4.317   1.232   6.114
 8127SOL    HW225281   4.221   1.311   6.220
 8128SOL     OW25282   3.268   3.361   1.262
 8128SOL    HW125283   3.277   3.267   1.295
 8128SOL    HW225284   3.332   3.375   1.186
 8129SOL     OW25285   6.990   2.629   3.651
 8129SOL    HW125286   7.000   2.579   3.565
 8129SOL    HW225287   0.032   2.595   3.718
 8130SOL     OW25288   6.968   6.657   0.064
 8130SOL    HW125289   0.041   6.644   0.086
 8130SOL    HW225290   6.942   6.752   0.081
 8131SOL     OW25291   2.040   2.586   0.776
 8131SOL    HW125292   2.097   2.634   0.842
 8131SOL    HW225293   2.069   2.490   0.771
 8132SOL     OW25294   6.592   1.619   4.598
 8132SOL    HW125295   6.581   1.618   4.498
 8132SOL    HW225296   6.560   1.707   4.633
 8133SOL     OW25297   3.714   5.232   1.717
 8133SOL    HW125298   3.722   5.191   1.808
 8133SOL    HW225299   3.745   5.166   1.648
 8134SOL     OW25300   5.734   1.767   6.483
 8134SOL    HW125301   5.824   1.727   6.502
 8134SOL    HW225302   5.692   1.721   6.405
 8135SOL     OW25303   2.459   6.164   1.453
 8135SOL    HW125304   2.529   6.142   1.520
 8135SOL    HW225305   2.415   6.251   1.478
 8136SOL     OW25306   4.578   5.072   2.442
 8136SOL    HW125307   4.539   5.156   2.403
 8136SOL    HW225308   4.657   5.096   2.498
 8137SOL     OW25309   4.284   0.762   5.780
 8137SOL    HW125310   4.348   0.816   5.725
 8137SOL    HW225311   4.334   0.696   5.835
 8138SOL     OW25312   5.747   0.858   2.240
 8138SOL    HW125313   5.738   0.856   2.141
 8138SOL    HW225314   5.813   0.789   2.269
 8139SOL     OW25315   0.577   1.119   4.594
 8139SOL    HW125316   0.653   1.066   4.632
 8139SOL    HW225317   0.581   1.116   4.494
 8140SOL     OW25318   5.102   2.906   3.029
 8140SOL    HW125319   5.025   2.967   3.012
 8140SOL    HW225320   5.083   2.850   3.110
 8141SOL     OW25321   6.024   3.945   3.840
 8141SOL    HW125322   6.062   3.856   3.815
 8141SOL    HW225323   5.938   3.932   3.888
 8142SOL     OW25324   0.278   6.451   0.650
 8142SOL    HW125325   0.317   6.499   0.571
 8142SOL    HW225326   0.272   6.353   0.628
 8143SOL     OW25327   6.413   2.806   5.751
 8143SOL    HW125328   6.412   2.711   5.783
 8143SOL    HW225329   6.487   2.855   5.797
 8144SOL     OW25330   5.034   5.980   0.054
 8144SOL    HW125331   4.987   5.936   7.001
 8144SOL    HW225332   4.983   6.061   0.083
 8145SOL     OW25333   4.641   6.231   4.012
 8145SOL    HW125334   4.589   6.200   4.091
 8145SOL    HW225335   4.583   6.229   3.931
 8146SOL     OW25336   3.513   1.698   3.653
 8146SOL    HW125337   3.593   1.757   3.652
 8146SOL    HW225338   3.446   1.730   3.586
 8147SOL     OW25339   4.799   1.241   3.372
 8147SOL    HW125340   4.826   1.249   3.277
 8147SOL    HW225341   4.881   1.242   3.430
 8148SOL     OW25342   6.850   3.878   3.197
 8148SOL    HW125343   6.859   3.810   3.269
 8148SOL    HW225344   6.899   3.846   3.115
 8149SOL     OW25345   4.164   5.447   4.090
 8149SOL    HW125346   4.262   5.453   4.071
 8149SOL    HW225347   4.112   5.485   4.014
 8150SOL     OW25348   1.129   6.345   1.435
 8150SOL    HW125349   1.103   6.409   1.508
 8150SOL    HW225350   1.228   6.340   1.429
 8151SOL     OW25351   0.516   2.055   4.785
 8151SOL    HW125352   0.446   2.015   4.726
 8151SOL    HW225353   0.473   2.091   4.868
 8152SOL     OW25354   1.045   0.647   3.679
 8152SOL    HW125355   0.955   0.665   3.718
 8152SOL    HW225356   1.113   0.705   3.725
 8153SOL     OW25357   2.224   6.205   0.470
 8153SOL    HW125358   2.249   6.182   0.564
 8153SOL    HW225359   2.199   6.302   0.464
 8154SOL     OW25360   1.768   6.200   3.357
 8154SOL    HW125361   1.868   6.204   3.352
 8154SOL    HW225362   1.733   6.155   3.275
 8155SOL     OW25363   3.115   3.889   4.805
 8155SOL    HW125364   3.142   3.976   4.845
 8155SOL    HW225365   3.195   3.844   4.765
 8156SOL     OW25366   0.080   6.821   5.041
 8156SOL    HW125367   0.161   6.842   4.987
 8156SOL    HW225368   0.085   6.869   5.129
 8157SOL     OW25369   5.599   2.142   6.791
 8157SOL    HW125370   5.626   2.230   6.829
 8157SOL    HW225371   5.500   2.139   6.778
 8158SOL     OW25372   1.455   5.424   2.756
 8158SOL    HW125373   1.525   5.482   2.714
 8158SOL    HW225374   1.373   5.478   2.773
 8159SOL     OW25375   0.339   5.974   0.181
 8159SOL    HW125376   0.379   5.993   0.271
 8159SOL    HW225377   0.240   5.975   0.187
 8160SOL     OW25378   4.878   1.983   1.637
 8160SOL    HW125379   4.824   2.003   1.719
 8160SOL    HW225380   4.871   1.885   1.617
 8161SOL     OW25381   3.923   3.063   1.564
 8161SOL    HW125382   3.878   2.991   1.617
 8161SOL    HW225383   4.014   3.032   1.536
 8162SOL     OW25384   6.282   0.931   2.664
 8162SOL    HW125385   6.245   1.021   2.639
 8162SOL    HW225386   6.357   0.908   2.602
 8163SOL     OW25387   2.343   2.842   5.502
 8163SOL    HW125388   2.319   2.842   5.405
 8163SOL    HW225389   2.442   2.825   5.511
 8164SOL     OW25390   5.099   3.838   1.742
 8164SOL    HW125391   5.188   3.858   1.700
 8164SOL    HW225392   5.113   3.805   1.835
 8165SOL     OW25393   1.524   3.933   1.717
 8165SOL    HW125394   1.570   3.844   1.710
 8165SOL    HW225395   1.497   3.963   1.626
 8166SOL     OW25396   3.132   6.974   1.361
 8166SOL    HW125397   3.152   6.917   1.440
 8166SOL    HW225398   3.132   0.047   1.388
 8167SOL     OW25399   5.546   2.810   4.739
 8167SOL    HW125400   5.487   2.761   4.676
 8167SOL    HW225401   5.505   2.809   4.831
 8168SOL     OW25402   2.437   1.734   2.920
 8168SOL    HW125403   2.486   1.772   2.998
 8168SOL    HW225404   2.488   1.753   2.836
 8169SOL     OW25405   5.259   3.972   4.870
 8169SOL    HW125406   5.245   3.880   4.906
 8169SOL    HW225407   5.193   3.991   4.797
 8170SOL     OW25408   1.682   5.582   3.825
 8170SOL    HW125409   1.780   5.568   3.843
 8170SOL    HW225410   1.630   5.557   3.907
 8171SOL     OW25411   1.863   0.924   0.001
 8171SOL    HW125412   1.904   0.836   6.999
 8171SOL    HW225413   1.777   0.936   6.975
 8172SOL     OW25414   0.469   6.532   1.962
 8172SOL    HW125415   0.547   6.561   1.907
 8172SOL    HW225416   0.481   6.436   1.988
 8173SOL     OW25417   6.719   2.851   0.522
 8173SOL    HW125418   6.682   2.936   0.485
 8173SOL    HW225419   6.798   2.871   0.579
 8174SOL     OW25420   4.817   6.664   2.308
 8174SOL    HW125421   4.893   6.699   2.255
 8174SOL    HW225422   4.808   6.565   2.293
 8175SOL     OW25423   1.485   2.819   3.883
 8175SOL    HW125424   1.449   2.910   3.904
 8175SOL    HW225425   1.578   2.811   3.919
 8176SOL     OW25426   4.016   5.606   3.541
 8176SOL    HW125427   4.069   5.548   3.479
 8176SOL    HW225428   4.024   5.701   3.514
 8177SOL     OW25429   1.531   6.438   6.614
 8177SOL    HW125430   1.491   6.510   6.670
 8177SOL    HW225431   1.532   6.353   6.666
 8178SOL     OW25432   2.086   6.635   6.598
 8178SOL    HW125433   2.111   6.566   6.666
 8178SOL    HW225434   2.151   6.632   6.522
 8179SOL     OW25435   3.855   0.660   6.804
 8179SOL    HW125436   3.786   0.638   6.735
 8179SOL    HW225437   3.843   0.754   6.834
 8180SOL     OW25438   5.337   4.748   4.954
 8180SOL    HW125439   5.258   4.810   4.955
 8180SOL    HW225440   5.396   4.767   5.033
 8181SOL     OW25441   2.487   2.062   1.876
 8181SOL    HW125442   2.533   1.973   1.878
 8181SOL    HW225443   2.554   2.134   1.858
 8182SOL     OW25444   5.551   2.559   5.418
 8182SOL    HW125445   5.579   2.589   5.509
 8182SOL    HW225446   5.502   2.472   5.425
 8183SOL     OW25447   2.035   3.419   3.169
 8183SOL    HW125448   2.066   3.452   3.258
 8183SOL    HW225449   2.073   3.477   3.097
 8184SOL     OW25450   6.209   6.204   4.446
 8184SOL    HW125451   6.168   6.254   4.370
 8184SOL    HW225452   6.305   6.232   4.456
 8185SOL     OW25453   0.907   2.094   3.623
 8185SOL    HW125454   0.930   2.181   3.666
 8185SOL    HW225455   0.919   2.102   3.524
 8186SOL     OW25456   4.323   3.978   6.847
 8186SOL    HW125457   4.251   4.019   6.792
 8186SOL    HW225458   4.411   4.017   6.821
 8187SOL     OW25459   2.354   1.363   6.240
 8187SOL    HW125460   2.275   1.422   6.257
 8187SOL    HW225461   2.357   1.290   6.309
 8188SOL     OW25462   4.812   3.091   2.682
 8188SOL    HW125463   4.843   3.014   2.626
 8188SOL    HW225464   4.767   3.159   2.623
 8189SOL     OW25465   6.641   5.109   3.536
 8189SOL    HW125466   6.611   5.031   3.481
 8189SOL    HW225467   6.565   5.144   3.590
 8190SOL     OW25468   5.960   3.616   2.693
 8190SOL    HW125469   5.981   3.623   2.791
 8190SOL    HW225470   5.920   3.527   2.673
 8191SOL     OW25471   5.711   4.794   1.659
 8191SOL    HW125472   5.651   4.868   1.689
 8191SOL    HW225473   5.676   4.707   1.694
 8192SOL     OW25474   1.483   2.420   1.132
 8192SOL    HW125475   1.563   2.461   1.089
 8192SOL    HW225476   1.502   2.325   1.155
 8193SOL     OW25477   4.132   6.394   5.694
 8193SOL    HW125478   4.199   6.455   5.651
 8193SOL    HW225479   4.109   6.429   5.785
 8194SOL     OW25480   1.532   0.762   2.813
 8194SOL    HW125481   1.471   0.714   2.750
 8194SOL    HW225482   1.544   0.707   2.896
 8195SOL     OW25483   5.676   0.909   1.643
 8195SOL    HW125484   5.756   0.958   1.677
 8195SOL    HW225485   5.595   0.967   1.650
 8196SOL     OW25486   2.187   1.082   1.103
 8196SOL    HW125487   2.101   1.083   1.153
 8196SOL    HW225488   2.193   0.999   1.048
 8197SOL     OW25489   0.680   0.103   1.076
 8197SOL    HW125490   0.639   0.136   0.991
 8197SOL    HW225491   0.618   0.122   1.152
 8198SOL     OW25492   3.210   0.989   2.641
 8198SOL    HW125493   3.125   0.994   2.588
 8198SOL    HW225494   3.248   0.896   2.634
 8199SOL     OW25495   5.427   4.461   1.518
 8199SOL    HW125496   5.488   4.493   1.446
 8199SOL    HW225497   5.348   4.522   1.525
 8200SOL     OW25498   4.041   4.152   1.673
 8200SOL    HW125499   3.981   4.084   1.713
 8200SOL    HW225500   4.037   4.146   1.573
 8201SOL     OW25501   0.790   1.174   5.058
 8201SOL    HW125502   0.870   1.231   5.072
 8201SOL    HW225503   0.715   1.230   5.021
 8202SOL     OW25504   1.643   3.573   3.866
 8202SOL    HW125505   1.566   3.530   3.818
 8202SOL    HW225506   1.671   3.514   3.942
 8203SOL     OW25507   6.701   4.606   6.311
 8203SOL    HW125508   6.664   4.547   6.238
 8203SOL    HW225509   6.735   4.548   6.386
 8204SOL     OW25510   3.693   0.200   0.819
 8204SOL    HW125511   3.712   0.285   0.868
 8204SOL    HW225512   3.760   0.130   0.846
 8205SOL     OW25513   4.099   0.064   3.147
 8205SOL    HW125514   4.013   0.081   3.100
 8205SOL    HW225515   4.129   0.147   3.195
 8206SOL     OW25516   3.626   2.124   4.534
 8206SOL    HW125517   3.638   2.222   4.554
 8206SOL    HW225518   3.633   2.072   4.618
 8207SOL     OW25519   2.869   5.750   0.101
 8207SOL    HW125520   2.828   5.760   0.192
 8207SOL    HW225521   2.809   5.695   0.043
 8208SOL     OW25522   1.473   5.434   1.126
 8208SOL    HW125523   1.440   5.341   1.108
 8208SOL    HW225524   1.488   5.481   1.039
 8209SOL     OW25525   1.267   5.837   5.215
 8209SOL    HW125526   1.187   5.837   5.155
 8209SOL    HW225527   1.238   5.817   5.309
 8210SOL     OW25528   2.446   0.682   1.045
 8210SOL    HW125529   2.542   0.696   1.069
 8210SOL    HW225530   2.440   0.647   0.951
 8211SOL     OW25531   3.695   4.102   3.785
 8211SOL    HW125532   3.774   4.114   3.726
 8211SOL    HW225533   3.725   4.070   3.875
 8212SOL     OW25534   4.264   4.793   6.660
 8212SOL    HW125535   4.235   4.786   6.564
 8212SOL    HW225536   4.184   4.791   6.719
 8213SOL     OW25537   4.769   4.106   1.937
 8213SOL    HW125538   4.699   4.174   1.954
 8213SOL    HW225539   4.730   4.029   1.887
 8214SOL     OW25540   4.243   5.472   3.415
 8214SOL    HW125541   4.337   5.439   3.424
 8214SOL    HW225542   4.225   5.496   3.320
 8215SOL     OW25543   2.785   6.355   5.792
 8215SOL    HW125544   2.690   6.344   5.822
 8215SOL    HW225545   2.840   6.393   5.866
 8216SOL     OW25546   5.990   5.287   0.916
 8216SOL    HW125547   5.998   5.188   0.923
 8216SOL    HW225548   5.904   5.317   0.957
 8217SOL     OW25549   2.993   6.379   3.766
 8217SOL    HW125550   2.971   6.307   3.833
 8217SOL    HW225551   3.057   6.343   3.699
 8218SOL     OW25552   1.800   6.691   4.026
 8218SOL    HW125553   1.872   6.746   3.983
 8218SOL    HW225554   1.711   6.721   3.991
 8219SOL     OW25555   3.885   3.500   3.695
 8219SOL    HW125556   3.848   3.523   3.785
 8219SOL    HW225557   3.917   3.583   3.650
 8220SOL     OW25558   4.577   4.196   5.810
 8220SOL    HW125559   4.586   4.202   5.909
 8220SOL    HW225560   4.480   4.205   5.785
 8221SOL     OW25561   0.079   3.914   3.663
 8221SOL    HW125562   0.115   3.821   3.659
 8221SOL    HW225563   0.011   3.927   3.591
 8222SOL     OW25564   4.998   1.992   5.893
 8222SOL    HW125565   4.903   2.022   5.888
 8222SOL    HW225566   5.016   1.953   5.983
 8223SOL     OW25567   1.245   6.161   5.661
 8223SOL    HW125568   1.261   6.259   5.668
 8223SOL    HW225569   1.308   6.121   5.596
 8224SOL     OW25570   6.133   0.780   5.873
 8224SOL    HW125571   6.109   0.870   5.838
 8224SOL    HW225572   6.079   0.760   5.955
 8225SOL     OW25573   6.141   2.637   0.123
 8225SOL    HW125574   6.054   2.609   0.162
 8225SOL    HW225575   6.208   2.649   0.197
 8226SOL     OW25576   4.093   0.885   6.755
 8226SOL    HW125577   4.001   0.905   6.790
 8226SOL    HW225578   4.153   0.861   6.831
 8227SOL     OW25579   5.601   4.046   2.281
 8227SOL    HW125580   5.640   4.107   2.350
 8227SOL    HW225581   5.674   4.007   2.226
 8228SOL     OW25582   2.602   1.685   4.627
 8228SOL    HW125583   2.556   1.744   4.560
 8228SOL    HW225584   2.667   1.738   4.679
 8229SOL     OW25585   3.847   4.600   0.463
 8229SOL    HW125586   3.876   4.562   0.375
 8229SOL    HW225587   3.759   4.559   0.489
 8230SOL     OW25588   6.326   0.750   6.594
 8230SOL    HW125589   6.338   0.779   6.499
 8230SOL    HW225590   6.410   0.709   6.627
 8231SOL     OW25591   3.379   1.568   2.040
 8231SOL    HW125592   3.336   1.622   1.967
 8231SOL    HW225593   3.447   1.507   2.000
 8232SOL     OW25594   3.736   6.558   3.434
 8232SOL    HW125595   3.822   6.520   3.399
 8232SOL    HW225596   3.711   6.512   3.519
 8233SOL     OW25597   2.697   0.739   6.225
 8233SOL    HW125598   2.763   0.674   6.188
 8233SOL    HW225599   2.623   0.689   6.271
 8234SOL     OW25600   0.814   2.947   6.990
 8234SOL    HW125601   0.910   2.929   7.011
 8234SOL    HW225602   0.763   2.862   6.992
 8235SOL     OW25603   0.757   6.267   0.411
 8235SOL    HW125604   0.825   6.268   0.485
 8235SOL    HW225605   0.761   6.354   0.361
 8236SOL     OW25606   1.297   7.012   0.796
 8236SOL    HW125607   1.249   6.971   0.718
 8236SOL    HW225608   1.395   6.993   0.789
 8237SOL     OW25609   4.093   5.175   5.343
 8237SOL    HW125610   4.094   5.076   5.335
 8237SOL    HW225611   4.000   5.206   5.364
 8238SOL     OW25612   6.695   5.310   0.290
 8238SOL    HW125613   6.698   5.304   0.390
 8238SOL    HW225614   6.600   5.316   0.260
 8239SOL     OW25615   4.530   1.920   3.786
 8239SOL    HW125616   4.594   1.884   3.718
 8239SOL    HW225617   4.575   1.992   3.839
 8240SOL     OW25618   3.923   3.453   5.218
 8240SOL    HW125619   3.957   3.532   5.270
 8240SOL    HW225620   3.970   3.370   5.250
 8241SOL     OW25621   0.895   3.285   5.514
 8241SOL    HW125622   0.932   3.275   5.607
 8241SOL    HW225623   0.891   3.195   5.471
 8242SOL     OW25624   0.411   3.100   3.667
 8242SOL    HW125625   0.487   3.134   3.722
 8242SOL    HW225626   0.384   3.010   3.699
 8243SOL     OW25627   1.510   5.988   3.536
 8243SOL    HW125628   1.492   6.063   3.472
 8243SOL    HW225629   1.429   5.971   3.592
 8244SOL     OW25630   5.422   0.600   4.403
 8244SOL    HW125631   5.397   0.517   4.352
 8244SOL    HW225632   5.349   0.622   4.467
 8245SOL     OW25633   5.846   4.457   2.352
 8245SOL    HW125634   5.843   4.390   2.427
 8245SOL    HW225635   5.795   4.539   2.379
 8246SOL     OW25636   1.876   4.196   6.875
 8246SOL    HW125637   1.849   4.291   6.857
 8246SOL    HW225638   1.890   4.149   6.788
 8247SOL     OW25639   1.890   4.768   3.286
 8247SOL    HW125640   1.855   4.857   3.315
 8247SOL    HW225641   1.833   4.732   3.213
 8248SOL     OW25642   6.279   6.767   2.805
 8248SOL    HW125643   6.256   6.691   2.867
 8248SOL    HW225644   6.199   6.791   2.751
 8249SOL     OW25645   3.596   0.471   6.334
 8249SOL    HW125646   3.540   0.473   6.417
 8249SOL    HW225647   3.544   0.512   6.259
 8250SOL     OW25648   1.010   1.409   0.298
 8250SOL    HW125649   0.959   1.467   0.361
 8250SOL    HW225650   1.077   1.355   0.349
 8251SOL     OW25651   1.558   1.970   6.800
 8251SOL    HW125652   1.551   2.022   6.885
 8251SOL    HW225653   1.625   2.014   6.740
 8252SOL     OW25654   0.836   1.446   6.514
 8252SOL    HW125655   0.843   1.462   6.613
 8252SOL    HW225656   0.869   1.354   6.493
 8253SOL     OW25657   6.748   4.546   5.860
 8253SOL    HW125658   6.809   4.472   5.887
 8253SOL    HW225659   6.658   4.533   5.902
 8254SOL     OW25660   5.200   4.342   0.094
 8254SOL    HW125661   5.271   4.368   0.159
 8254SOL    HW225662   5.163   4.425   0.051
 8255SOL     OW25663   1.539   6.557   5.598
 8255SOL    HW125664   1.585   6.560   5.686
 8255SOL    HW225665   1.518   6.650   5.567
 8256SOL     OW25666   1.635   5.610   2.672
 8256SOL    HW125667   1.721   5.564   2.650
 8256SOL    HW225668   1.653   5.703   2.702
 8257SOL     OW25669   4.794   4.501   3.713
 8257SOL    HW125670   4.726   4.573   3.705
 8257SOL    HW225671   4.866   4.530   3.776
 8258SOL     OW25672   0.437   3.195   4.692
 8258SOL    HW125673   0.485   3.178   4.606
 8258SOL    HW225674   0.448   3.115   4.752
 8259SOL     OW25675   5.901   2.895   4.034
 8259SOL    HW125676   5.898   2.973   3.971
 8259SOL    HW225677   5.830   2.907   4.104
 8260SOL     OW25678   5.035   1.740   6.415
 8260SOL    HW125679   4.958   1.697   6.368
 8260SOL    HW225680   5.118   1.731   6.359
 8261SOL     OW25681   5.808   2.676   2.814
 8261SOL    HW125682   5.835   2.640   2.725
 8261SOL    HW225683   5.710   2.695   2.814
 8262SOL     OW25684   4.932   4.019   2.149
 8262SOL    HW125685   4.871   4.057   2.080
 8262SOL    HW225686   5.000   4.087   2.175
 8263SOL     OW25687   6.597   1.743   6.605
 8263SOL    HW125688   6.637   1.708   6.520
 8263SOL    HW225689   6.643   1.827   6.632
 8264SOL     OW25690   3.343   0.998   1.672
 8264SOL    HW125691   3.251   1.031   1.697
 8264SOL    HW225692   3.409   1.031   1.738
 8265SOL     OW25693   4.821   5.457   0.254
 8265SOL    HW125694   4.921   5.463   0.261
 8265SOL    HW225695   4.788   5.519   0.183
 8266SOL     OW25696   4.955   2.752   3.215
 8266SOL    HW125697   4.970   2.653   3.212
 8266SOL    HW225698   4.857   2.770   3.224
 8267SOL     OW25699   1.808   3.269   3.233
 8267SOL    HW125700   1.886   3.321   3.198
 8267SOL    HW225701   1.733   3.272   3.168
 8268SOL     OW25702   2.971   5.338   1.710
 8268SOL    HW125703   2.989   5.285   1.627
 8268SOL    HW225704   2.911   5.286   1.770
 8269SOL     OW25705   6.838   1.807   3.826
 8269SOL    HW125706   6.860   1.710   3.837
 8269SOL    HW225707   6.770   1.834   3.894
 8270SOL     OW25708   4.085   4.667   0.621
 8270SOL    HW125709   3.997   4.620   0.612
 8270SOL    HW225710   4.134   4.661   0.534
 8271SOL     OW25711   2.784   0.016   5.289
 8271SOL    HW125712   2.858   7.004   5.233
 8271SOL    HW225713   2.789   7.000   5.381
 8272SOL     OW25714   0.942   0.870   1.999
 8272SOL    HW125715   1.025   0.814   1.993
 8272SOL    HW225716   0.966   0.966   1.990
 8273SOL     OW25717   5.013   0.256   6.069
 8273SOL    HW125718   4.978   0.171   6.108
 8273SOL    HW225719   4.946   0.329   6.083
 8274SOL     OW25720   5.046   0.250   4.308
 8274SOL    HW125721   4.996   0.280   4.389
 8274SOL    HW225722   5.098   0.167   4.330
 8275SOL     OW25723   4.436   0.574   4.445
 8275SOL    HW125724   4.380   0.504   4.488
 8275SOL    HW225725   4.533   0.551   4.456
 8276SOL     OW25726   5.709   2.955   0.691
 8276SOL    HW125727   5.611   2.958   0.711
 8276SOL    HW225728   5.744   2.863   0.711
 8277SOL     OW25729   1.420   6.679   2.132
 8277SOL    HW125730   1.517   6.658   2.132
 8277SOL    HW225731   1.372   6.617   2.195
 8278SOL     OW25732   1.298   0.608   1.335
 8278SOL    HW125733   1.216   0.554   1.353
 8278SOL    HW225734   1.275   0.705   1.329
 8279SOL     OW25735   6.445   5.070   5.913
 8279SOL    HW125736   6.373   5.017   5.959
 8279SOL    HW225737   6.403   5.149   5.867
 8280SOL     OW25738   0.046   4.316   6.731
 8280SOL    HW125739   0.015   4.236   6.783
 8280SOL    HW225740   0.084   4.384   6.794
 8281SOL     OW25741   3.254   4.990   6.982
 8281SOL    HW125742   3.234   4.981   0.055
 8281SOL    HW225743   3.255   5.086   6.956
 8282SOL     OW25744   3.941   2.867   0.788
 8282SOL    HW125745   4.039   2.890   0.788
 8282SOL    HW225746   3.889   2.946   0.819
 8283SOL     OW25747   0.567   1.194   3.568
 8283SOL    HW125748   0.502   1.146   3.510
 8283SOL    HW225749   0.610   1.130   3.631
 8284SOL     OW25750   5.008   2.293   1.225
 8284SOL    HW125751   4.915   2.292   1.187
 8284SOL    HW225752   5.074   2.306   1.151
 8285SOL     OW25753   0.520   4.645   0.049
 8285SOL    HW125754   0.586   4.718   0.069
 8285SOL    HW225755   0.552   4.559   0.089
 8286SOL     OW25756   6.518   2.127   6.458
 8286SOL    HW125757   6.498   2.224   6.444
 8286SOL    HW225758   6.485   2.097   6.547
 8287SOL     OW25759   0.206   1.017   3.256
 8287SOL    HW125760   0.239   1.064   3.338
 8287SOL    HW225761   0.171   1.085   3.191
 8288SOL     OW25762   2.698   6.953   2.295
 8288SOL    HW125763   2.626   7.015   2.265
 8288SOL    HW225764   2.691   6.940   2.394
 8289SOL     OW25765   6.417   6.879   0.229
 8289SOL    HW125766   6.466   6.794   0.211
 8289SOL    HW225767   6.480   6.946   0.267
 8290SOL     OW25768   4.694   2.751   1.902
 8290SOL    HW125769   4.603   2.715   1.879
 8290SOL    HW225770   4.687   2.850   1.916
 8291SOL     OW25771   5.636   5.621   5.534
 8291SOL    HW125772   5.734   5.615   5.552
 8291SOL    HW225773   5.599   5.704   5.577
 8292SOL     OW25774   6.786   3.696   5.580
 8292SOL    HW125775   6.703   3.717   5.631
 8292SOL    HW225776   6.799   3.597   5.579
 8293SOL     OW25777   2.805   5.459   4.408
 8293SOL    HW125778   2.707   5.471   4.394
 8293SOL    HW225779   2.841   5.534   4.462
 8294SOL     OW25780   6.536   3.786   6.114
 8294SOL    HW125781   6.508   3.711   6.053
 8294SOL    HW225782   6.558   3.748   6.204
 8295SOL     OW25783   4.194   4.528   1.485
 8295SOL    HW125784   4.137   4.610   1.491
 8295SOL    HW225785   4.214   4.494   1.576
 8296SOL     OW25786   3.228   0.714   1.844
 8296SOL    HW125787   3.210   0.807   1.874
 8296SOL    HW225788   3.186   0.650   1.908
 8297SOL     OW25789   6.097   4.483   2.024
 8297SOL    HW125790   6.063   4.405   1.971
 8297SOL    HW225791   6.101   4.458   2.121
 8298SOL     OW25792   6.834   6.781   0.926
 8298SOL    HW125793   6.790   6.866   0.897
 8298SOL    HW225794   6.900   6.753   0.856
 8299SOL     OW25795   1.051   2.404   6.629
 8299SOL    HW125796   0.966   2.393   6.681
 8299SOL    HW225797   1.105   2.320   6.636
 8300SOL     OW25798   4.885   5.925   4.124
 8300SOL    HW125799   4.805   5.904   4.179
 8300SOL    HW225800   4.859   5.930   4.027
 8301SOL     OW25801   6.452   5.554   0.293
 8301SOL    HW125802   6.427   5.468   0.248
 8301SOL    HW225803   6.460   5.540   0.391
 8302SOL     OW25804   3.607   6.233   5.613
 8302SOL    HW125805   3.664   6.205   5.691
 8302SOL    HW225806   3.651   6.205   5.528
 8303SOL     OW25807   0.656   5.028   3.939
 8303SOL    HW125808   0.602   4.984   3.868
 8303SOL    HW225809   0.662   4.968   4.019
 8304SOL     OW25810   5.592   2.673   3.599
 8304SOL    HW125811   5.539   2.682   3.683
 8304SOL    HW225812   5.637   2.760   3.578
 8305SOL     OW25813   4.575   6.007   5.233
 8305SOL    HW125814   4.626   6.045   5.310
 8305SOL    HW225815   4.499   6.068   5.210
 8306SOL     OW25816   5.229   1.271   4.151
 8306SOL    HW125817   5.194   1.199   4.210
 8306SOL    HW225818   5.221   1.359   4.197
 8307SOL     OW25819   6.916   4.871   4.346
 8307SOL    HW125820   6.973   4.951   4.368
 8307SOL    HW225821   6.829   4.902   4.307
 8308SOL     OW25822   2.062   5.520   0.507
 8308SOL    HW125823   1.986   5.454   0.502
 8308SOL    HW225824   2.112   5.519   0.421
 8309SOL     OW25825   5.737   5.334   2.716
 8309SOL    HW125826   5.692   5.423   2.725
 8309SOL    HW225827   5.816   5.343   2.655
 8310SOL     OW25828   1.766   5.870   2.736
 8310SOL    HW125829   1.856   5.891   2.697
 8310SOL    HW225830   1.747   5.933   2.811
 8311SOL     OW25831   4.341   6.438   1.891
 8311SOL    HW125832   4.368   6.528   1.926
 8311SOL    HW225833   4.258   6.447   1.836
 8312SOL     OW25834   6.575   0.817   0.686
 8312SOL    HW125835   6.621   0.728   0.691
 8312SOL    HW225836   6.601   0.862   0.601
 8313SOL     OW25837   4.953   2.451   5.899
 8313SOL    HW125838   4.993   2.423   5.812
 8313SOL    HW225839   5.017   2.431   5.973
 8314SOL     OW25840   5.069   5.971   4.636
 8314SOL    HW125841   4.983   5.976   4.586
 8314SOL    HW225842   5.138   6.027   4.589
 8315SOL     OW25843   3.549   1.817   0.537
 8315SOL    HW125844   3.532   1.747   0.607
 8315SOL    HW225845   3.631   1.793   0.485
 8316SOL     OW25846   1.588   1.522   4.768
 8316SOL    HW125847   1.543   1.452   4.713
 8316SOL    HW225848   1.559   1.612   4.738
 8317SOL     OW25849   2.087   1.790   6.540
 8317SOL    HW125850   2.067   1.880   6.580
 8317SOL    HW225851   2.026   1.774   6.462
 8318SOL     OW25852   4.318   6.056   5.620
 8318SOL    HW125853   4.244   5.989   5.620
 8318SOL    HW225854   4.306   6.120   5.545
 8319SOL     OW25855   2.789   5.644   6.417
 8319SOL    HW125856   2.878   5.689   6.409
 8319SOL    HW225857   2.788   5.562   6.360
 8320SOL     OW25858   4.029   4.898   5.389
 8320SOL    HW125859   3.957   4.831   5.407
 8320SOL    HW225860   4.094   4.898   5.465
 8321SOL     OW25861   0.479   0.492   0.871
 8321SOL    HW125862   0.458   0.565   0.936
 8321SOL    HW225863   0.565   0.513   0.825
 8322SOL     OW25864   2.405   0.487   1.554
 8322SOL    HW125865   2.475   0.554   1.573
 8322SOL    HW225866   2.340   0.483   1.630
 8323SOL     OW25867   5.926   5.213   6.840
 8323SOL    HW125868   5.848   5.247   6.894
 8323SOL    HW225869   5.958   5.286   6.780
 8324SOL     OW25870   5.807   6.317   6.257
 8324SOL    HW125871   5.768   6.244   6.313
 8324SOL    HW225872   5.752   6.327   6.173
 8325SOL     OW25873   1.662   6.243   4.687
 8325SOL    HW125874   1.658   6.145   4.667
 8325SOL    HW225875   1.617   6.294   4.614
 8326SOL     OW25876   2.439   1.215   6.746
 8326SOL    HW125877   2.506   1.240   6.676
 8326SOL    HW225878   2.347   1.240   6.715
 8327SOL     OW25879   0.776   5.539   5.309
 8327SOL    HW125880   0.875   5.530   5.317
 8327SOL    HW225881   0.748   5.631   5.337
 8328SOL     OW25882   1.194   0.508   0.363
 8328SOL    HW125883   1.280   0.530   0.318
 8328SOL    HW225884   1.207   0.430   0.425
 8329SOL     OW25885   1.912   2.610   5.470
 8329SOL    HW125886   1.859   2.683   5.427
 8329SOL    HW225887   1.919   2.533   5.407
 8330SOL     OW25888   3.193   6.537   0.275
 8330SOL    HW125889   3.254   6.552   0.352
 8330SOL    HW225890   3.186   6.620   0.220
 8331SOL     OW25891   2.262   2.011   5.859
 8331SOL    HW125892   2.190   1.947   5.834
 8331SOL    HW225893   2.287   1.997   5.955
 8332SOL     OW25894   5.427   3.908   0.958
 8332SOL    HW125895   5.353   3.975   0.966
 8332SOL    HW225896   5.427   3.848   1.038
 8333SOL     OW25897   2.661   4.567   6.371
 8333SOL    HW125898   2.605   4.576   6.454
 8333SOL    HW225899   2.627   4.629   6.301
 8334SOL     OW25900   3.307   2.740   5.403
 8334SOL    HW125901   3.334   2.644   5.393
 8334SOL    HW225902   3.334   2.791   5.322
 8335SOL     OW25903   5.564   3.381   6.283
 8335SOL    HW125904   5.524   3.472   6.270
 8335SOL    HW225905   5.494   3.319   6.316
 8336SOL     OW25906   1.362   4.661   3.942
 8336SOL    HW125907   1.352   4.683   4.039
 8336SOL    HW225908   1.311   4.727   3.887
 8337SOL     OW25909   5.891   0.442   4.173
 8337SOL    HW125910   5.817   0.496   4.134
 8337SOL    HW225911   5.966   0.435   4.108
 8338SOL     OW25912   2.906   5.597   1.410
 8338SOL    HW125913   3.002   5.612   1.432
 8338SOL    HW225914   2.892   5.502   1.382
 8339SOL     OW25915   6.980   0.529   1.997
 8339SOL    HW125916   6.881   0.536   2.002
 8339SOL    HW225917   7.013   0.473   2.074
 8340SOL     OW25918   5.925   2.652   6.357
 8340SOL    HW125919   5.920   2.660   6.457
 8340SOL    HW225920   5.930   2.743   6.317
 8341SOL     OW25921   3.288   6.935   1.140
 8341SOL    HW125922   3.240   6.974   1.218
 8341SOL    HW225923   3.293   6.836   1.150
 8342SOL     OW25924   3.942   1.007   1.147
 8342SOL    HW125925   3.863   1.064   1.122
 8342SOL    HW225926   3.935   0.918   1.102
 8343SOL     OW25927   4.425   6.165   2.828
 8343SOL    HW125928   4.357   6.093   2.843
 8343SOL    HW225929   4.452   6.165   2.731
 8344SOL     OW25930   1.910   4.659   5.552
 8344SOL    HW125931   1.994   4.692   5.508
 8344SOL    HW225932   1.931   4.577   5.606
 8345SOL     OW25933   6.168   0.229   4.324
 8345SOL    HW125934   6.166   0.158   4.253
 8345SOL    HW225935   6.082   0.227   4.375
 8346SOL     OW25936   5.967   4.072   3.564
 8346SOL    HW125937   5.977   4.034   3.656
 8346SOL    HW225938   6.005   4.165   3.562
 8347SOL     OW25939   1.254   1.603   6.296
 8347SOL    HW125940   1.318   1.666   6.341
 8347SOL    HW225941   1.306   1.542   6.235
 8348SOL     OW25942   3.789   5.986   1.090
 8348SOL    HW125943   3.791   5.942   1.180
 8348SOL    HW225944   3.697   5.984   1.053
 8349SOL     OW25945   4.374   5.456   1.332
 8349SOL    HW125946   4.359   5.481   1.428
 8349SOL    HW225947   4.390   5.538   1.278
 8350SOL     OW25948   2.035   0.368   6.693
 8350SOL    HW125949   2.003   0.462   6.676
 8350SOL    HW225950   2.127   0.371   6.732
 8351SOL     OW25951   6.702   3.139   3.069
 8351SOL    HW125952   6.706   3.239   3.058
 8351SOL    HW225953   6.789   3.106   3.105
 8352SOL     OW25954   2.406   6.439   6.250
 8352SOL    HW125955   2.312   6.423   6.222
 8352SOL    HW225956   2.451   6.352   6.268
 8353SOL     OW25957   0.490   5.806   2.467
 8353SOL    HW125958   0.465   5.736   2.401
 8353SOL    HW225959   0.436   5.889   2.450
 8354SOL     OW25960   4.649   2.622   3.634
 8354SOL    HW125961   4.679   2.717   3.635
 8354SOL    HW225962   4.687   2.574   3.714
 8355SOL     OW25963   3.443   4.746   6.033
 8355SOL    HW125964   3.528   4.755   5.980
 8355SOL    HW225965   3.401   4.658   6.015
 8356SOL     OW25966   3.044   2.895   1.538
 8356SOL    HW125967   3.054   2.944   1.451
 8356SOL    HW225968   2.966   2.832   1.532
 8357SOL     OW25969   2.632   6.975   4.457
 8357SOL    HW125970   2.620   6.877   4.476
 8357SOL    HW225971   2.547   7.023   4.473
 8358SOL     OW25972   6.994   0.541   4.322
 8358SOL    HW125973   6.924   0.472   4.340
 8358SOL    HW225974   6.993   0.565   4.225
 8359SOL     OW25975   4.967   2.211   5.127
 8359SOL    HW125976   5.066   2.208   5.119
 8359SOL    HW225977   4.941   2.199   5.223
 8360SOL     OW25978   2.833   0.335   2.229
 8360SOL    HW125979   2.929   0.338   2.203
 8360SOL    HW225980   2.790   0.423   2.210
 8361SOL     OW25981   4.704   1.155   0.354
 8361SOL    HW125982   4.746   1.236   0.314
 8361SOL    HW225983   4.774   1.098   0.395
 8362SOL     OW25984   0.646   4.429   1.741
 8362SOL    HW125985   0.718   4.386   1.795
 8362SOL    HW225986   0.571   4.364   1.727
 8363SOL     OW25987   2.205   2.032   0.981
 8363SOL    HW125988   2.196   2.132   0.979
 8363SOL    HW225989   2.174   1.994   0.894
 8364SOL     OW25990   0.296   1.131   3.471
 8364SOL    HW125991   0.315   1.229   3.471
 8364SOL    HW225992   0.274   1.101   3.564
 8365SOL     OW25993   1.993   2.841   1.065
 8365SOL    HW125994   2.052   2.913   1.100
 8365SOL    HW225995   1.930   2.880   0.997
 8366SOL     OW25996   5.154   5.806   1.761
 8366SOL    HW125997   5.253   5.794   1.771
 8366SOL    HW225998   5.130   5.804   1.664
 8367SOL     OW25999   1.985   4.476   3.550
 8367SOL    HW126000   1.923   4.554   3.546
 8367SOL    HW226001   2.013   4.460   3.644
 8368SOL     OW26002   0.938   3.095   6.339
 8368SOL    HW126003   0.885   3.175   6.364
 8368SOL    HW226004   0.877   3.017   6.324
 8369SOL     OW26005   1.062   0.162   0.419
 8369SOL    HW126006   1.112   0.231   0.471
 8369SOL    HW226007   1.008   0.105   0.480
 8370SOL     OW26008   3.165   2.723   0.494
 8370SOL    HW126009   3.129   2.668   0.420
 8370SOL    HW226010   3.179   2.666   0.575
 8371SOL     OW26011   2.717   4.344   5.649
 8371SOL    HW126012   2.808   4.381   5.632
 8371SOL    HW226013   2.687   4.291   5.570
 8372SOL     OW26014   1.600   6.803   2.564
 8372SOL    HW126015   1.501   6.797   2.577
 8372SOL    HW226016   1.629   6.898   2.571
 8373SOL     OW26017   5.329   0.834   4.272
 8373SOL    HW126018   5.361   0.744   4.301
 8373SOL    HW226019   5.322   0.894   4.352
 8374SOL     OW26020   1.047   1.746   3.290
 8374SOL    HW126021   1.121   1.692   3.251
 8374SOL    HW226022   1.064   1.843   3.274
 8375SOL     OW26023   1.906   2.748   5.891
 8375SOL    HW126024   1.873   2.693   5.815
 8375SOL    HW226025   1.944   2.834   5.857
 8376SOL     OW26026   0.687   1.576   3.813
 8376SOL    HW126027   0.743   1.640   3.761
 8376SOL    HW226028   0.599   1.564   3.768
 8377SOL     OW26029   3.450   4.862   1.173
 8377SOL    HW126030   3.408   4.937   1.223
 8377SOL    HW226031   3.414   4.859   1.080
 8378SOL     OW26032   4.630   5.642   4.918
 8378SOL    HW126033   4.671   5.733   4.927
 8378SOL    HW226034   4.547   5.637   4.973
 8379SOL     OW26035   5.568   2.714   1.970
 8379SOL    HW126036   5.618   2.688   1.888
 8379SOL    HW226037   5.485   2.764   1.945
 8380SOL     OW26038   1.650   5.414   3.261
 8380SOL    HW126039   1.577   5.357   3.297
 8380SOL    HW226040   1.610   5.493   3.213
 8381SOL     OW26041   1.468   2.280   3.054
 8381SOL    HW126042   1.505   2.355   2.999
 8381SOL    HW226043   1.531   2.203   3.053
 8382SOL     OW26044   1.226   0.250   1.515
 8382SOL    HW126045   1.179   0.320   1.568
 8382SOL    HW226046   1.163   0.175   1.494
 8383SOL     OW26047   2.507   0.267   4.788
 8383SOL    HW126048   2.545   0.343   4.841
 8383SOL    HW226049   2.572   0.239   4.718
 8384SOL     OW26050   0.390   3.422   3.607
 8384SOL    HW126051   0.464   3.355   3.611
 8384SOL    HW226052   0.358   3.430   3.512
 8385SOL     OW26053   4.437   2.413   2.102
 8385SOL    HW126054   4.401   2.420   2.195
 8385SOL    HW226055   4.370   2.365   2.045
 8386SOL     OW26056   7.023   5.382   1.653
 8386SOL    HW126057   0.047   5.469   1.650
 8386SOL    HW226058   6.925   5.398   1.636
 8387SOL     OW26059   0.325   1.694   3.424
 8387SOL    HW126060   0.364   1.613   3.468
 8387SOL    HW226061   0.248   1.728   3.478
 8388SOL     OW26062   3.839   5.492   1.783
 8388SOL    HW126063   3.921   5.437   1.803
 8388SOL    HW226064   3.763   5.431   1.761
 8389SOL     OW26065   1.701   2.546   4.457
 8389SOL    HW126066   1.656   2.603   4.388
 8389SOL    HW226067   1.781   2.594   4.492
 8390SOL     OW26068   2.051   0.245   6.394
 8390SOL    HW126069   1.965   0.296   6.391
 8390SOL    HW226070   2.096   0.260   6.482
 8391SOL     OW26071   4.873   6.167   0.943
 8391SOL    HW126072   4.790   6.209   0.906
 8391SOL    HW226073   4.952   6.199   0.891
 8392SOL     OW26074   3.953   5.069   0.147
 8392SOL    HW126075   3.969   5.054   0.244
 8392SOL    HW226076   4.038   5.097   0.103
 8393SOL     OW26077   1.371   6.300   2.010
 8393SOL    HW126078   1.459   6.278   2.052
 8393SOL    HW226079   1.350   6.233   1.939
 8394SOL     OW26080   1.922   1.225   3.805
 8394SOL    HW126081   1.949   1.207   3.711
 8394SOL    HW226082   1.855   1.298   3.808
 8395SOL     OW26083   2.377   5.877   6.337
 8395SOL    HW126084   2.300   5.916   6.387
 8395SOL    HW226085   2.345   5.797   6.286
 8396SOL     OW26086   4.436   2.097   0.931
 8396SOL    HW126087   4.373   2.171   0.906
 8396SOL    HW226088   4.515   2.100   0.870
 8397SOL     OW26089   0.505   4.414   3.382
 8397SOL    HW126090   0.564   4.488   3.349
 8397SOL    HW226091   0.456   4.374   3.305
 8398SOL     OW26092   5.374   1.241   0.096
 8398SOL    HW126093   5.352   1.179   0.021
 8398SOL    HW226094   5.291   1.258   0.150
 8399SOL     OW26095   5.759   6.466   5.233
 8399SOL    HW126096   5.806   6.552   5.252
 8399SOL    HW226097   5.825   6.391   5.231
 8400SOL     OW26098   6.088   6.296   3.620
 8400SOL    HW126099   6.173   6.271   3.667
 8400SOL    HW226100   6.095   6.390   3.588
 8401SOL     OW26101   2.987   3.661   5.118
 8401SOL    HW126102   3.001   3.586   5.054
 8401SOL    HW226103   2.969   3.746   5.067
 8402SOL     OW26104   5.015   0.831   5.315
 8402SOL    HW126105   4.967   0.759   5.366
 8402SOL    HW226106   4.994   0.823   5.218
 8403SOL     OW26107   0.919   2.285   5.953
 8403SOL    HW126108   0.852   2.284   5.879
 8403SOL    HW226109   0.872   2.304   6.040
 8404SOL     OW26110   4.681   4.833   5.516
 8404SOL    HW126111   4.716   4.807   5.606
 8404SOL    HW226112   4.615   4.763   5.485
 8405SOL     OW26113   1.097   2.911   5.805
 8405SOL    HW126114   1.040   2.984   5.843
 8405SOL    HW226115   1.193   2.933   5.817
 8406SOL     OW26116   5.596   3.734   1.386
 8406SOL    HW126117   5.589   3.674   1.466
 8406SOL    HW226118   5.673   3.797   1.397
 8407SOL     OW26119   4.883   3.734   2.350
 8407SOL    HW126120   4.845   3.826   2.349
 8407SOL    HW226121   4.894   3.701   2.256
 8408SOL     OW26122   4.630   4.358   3.948
 8408SOL    HW126123   4.650   4.270   3.905
 8408SOL    HW226124   4.641   4.431   3.881
 8409SOL     OW26125   2.123   2.126   3.842
 8409SOL    HW126126   2.122   2.187   3.763
 8409SOL    HW226127   2.200   2.062   3.834
 8410SOL     OW26128   2.057   5.015   2.468
 8410SOL    HW126129   2.059   5.099   2.522
 8410SOL    HW226130   2.008   5.032   2.382
 8411SOL     OW26131   1.669   3.419   2.968
 8411SOL    HW126132   1.612   3.475   3.027
 8411SOL    HW226133   1.633   3.421   2.875
 8412SOL     OW26134   6.042   2.691   2.389
 8412SOL    HW126135   5.956   2.744   2.387
 8412SOL    HW226136   6.095   2.712   2.307
 8413SOL     OW26137   2.402   5.575   1.223
 8413SOL    HW126138   2.439   5.609   1.309
 8413SOL    HW226139   2.474   5.531   1.170
 8414SOL     OW26140   5.738   0.672   4.072
 8414SOL    HW126141   5.681   0.671   4.153
 8414SOL    HW226142   5.742   0.765   4.036
 8415SOL     OW26143   0.358   5.010   0.889
 8415SOL    HW126144   0.349   5.046   0.981
 8415SOL    HW226145   0.452   4.979   0.873
 8416SOL     OW26146   4.527   4.515   3.066
 8416SOL    HW126147   4.514   4.529   3.165
 8416SOL    HW226148   4.587   4.586   3.030
 8417SOL     OW26149   1.193   5.212   0.224
 8417SOL    HW126150   1.165   5.259   0.140
 8417SOL    HW226151   1.111   5.181   0.273
 8418SOL     OW26152   5.393   5.741   2.632
 8418SOL    HW126153   5.324   5.795   2.681
 8418SOL    HW226154   5.355   5.712   2.544
 8419SOL     OW26155   3.508   1.107   3.367
 8419SOL    HW126156   3.445   1.153   3.305
 8419SOL    HW226157   3.602   1.137   3.348
 8420SOL     OW26158   4.795   1.912   5.521
 8420SOL    HW126159   4.809   1.985   5.453
 8420SOL    HW226160   4.883   1.891   5.564
 8421SOL     OW26161   0.453   0.913   0.796
 8421SOL    HW126162   0.481   1.009   0.805
 8421SOL    HW226163   0.530   0.860   0.759
 8422SOL     OW26164   2.582   0.668   1.910
 8422SOL    HW126165   2.608   0.711   1.997
 8422SOL    HW226166   2.559   0.572   1.925
 8423SOL     OW26167   2.185   4.510   0.878
 8423SOL    HW126168   2.105   4.520   0.936
 8423SOL    HW226169   2.242   4.435   0.913
 8424SOL     OW26170   2.904   2.338   1.652
 8424SOL    HW126171   2.937   2.364   1.743
 8424SOL    HW226172   2.957   2.259   1.619
 8425SOL     OW26173   0.585   4.259   5.902
 8425SOL    HW126174   0.639   4.240   5.820
 8425SOL    HW226175   0.546   4.173   5.936
 8426SOL     OW26176   3.605   3.281   2.431
 8426SOL    HW126177   3.562   3.240   2.350
 8426SOL    HW226178   3.554   3.254   2.513
 8427SOL     OW26179   2.427   1.727   6.810
 8427SOL    HW126180   2.508   1.780   6.784
 8427SOL    HW226181   2.455   1.647   6.862
 8428SOL     OW26182   6.596   3.781   0.383
 8428SOL    HW126183   6.619   3.771   0.479
 8428SOL    HW226184   6.629   3.702   0.332
 8429SOL     OW26185   1.114   6.530   2.939
 8429SOL    HW126186   1.161   6.592   2.877
 8429SOL    HW226187   1.123   6.564   3.033
 8430SOL     OW26188   3.675   5.995   2.861
 8430SOL    HW126189   3.616   6.037   2.930
 8430SOL    HW226190   3.664   5.896   2.864
 8431SOL     OW26191   2.916   3.357   2.538
 8431SOL    HW126192   2.837   3.359   2.477
 8431SOL    HW226193   2.984   3.424   2.508
 8432SOL     OW26194   4.621   6.304   0.023
 8432SOL    HW126195   4.716   6.293   0.052
 8432SOL    HW226196   4.598   6.233   6.980
 8433SOL     OW26197   6.875   1.513   3.843
 8433SOL    HW126198   6.946   1.492   3.775
 8433SOL    HW226199   6.896   1.467   3.929
 8434SOL     OW26200   5.639   6.692   6.748
 8434SOL    HW126201   5.654   6.596   6.769
 8434SOL    HW226202   5.711   6.747   6.791
 8435SOL     OW26203   4.589   2.928   0.702
 8435SOL    HW126204   4.681   2.903   0.671
 8435SOL    HW226205   4.522   2.866   0.662
 8436SOL     OW26206   2.973   4.315   1.707
 8436SOL    HW126207   2.951   4.399   1.756
 8436SOL    HW226208   2.963   4.237   1.769
 8437SOL     OW26209   6.925   2.532   1.098
 8437SOL    HW126210   6.842   2.486   1.069
 8437SOL    HW226211   6.906   2.588   1.179
 8438SOL     OW26212   2.102   5.711   1.241
 8438SOL    HW126213   2.200   5.723   1.253
 8438SOL    HW226214   2.065   5.788   1.190
 8439SOL     OW26215   5.427   0.505   1.759
 8439SOL    HW126216   5.525   0.519   1.774
 8439SOL    HW226217   5.393   0.438   1.824
 8440SOL     OW26218   1.347   3.203   4.132
 8440SOL    HW126219   1.282   3.193   4.208
 8440SOL    HW226220   1.381   3.297   4.129
 8441SOL     OW26221   4.263   5.891   1.273
 8441SOL    HW126222   4.271   5.905   1.371
 8441SOL    HW226223   4.215   5.968   1.231
 8442SOL     OW26224   2.228   2.326   0.947
 8442SOL    HW126225   2.323   2.357   0.940
 8442SOL    HW226226   2.183   2.336   0.858
 8443SOL     OW26227   0.124   2.362   1.655
 8443SOL    HW126228   0.154   2.284   1.600
 8443SOL    HW226229   0.146   2.345   1.751
 8444SOL     OW26230   4.946   2.032   3.244
 8444SOL    HW126231   5.040   2.047   3.277
 8444SOL    HW226232   4.884   2.024   3.322
 8445SOL     OW26233   4.722   5.476   2.200
 8445SOL    HW126234   4.794   5.491   2.269
 8445SOL    HW226235   4.674   5.562   2.183
 8446SOL     OW26236   6.575   3.613   3.118
 8446SOL    HW126237   6.639   3.603   3.042
 8446SOL    HW226238   6.571   3.528   3.171
 8447SOL     OW26239   4.884   4.420   1.359
 8447SOL    HW126240   4.836   4.409   1.271
 8447SOL    HW226241   4.818   4.445   1.430
 8448SOL     OW26242   1.762   4.305   5.497
 8448SOL    HW126243   1.824   4.341   5.567
 8448SOL    HW226244   1.802   4.316   5.407
 8449SOL     OW26245   0.960   0.337   5.112
 8449SOL    HW126246   1.034   0.374   5.054
 8449SOL    HW226247   0.920   0.412   5.165
 8450SOL     OW26248   1.767   5.126   0.648
 8450SOL    HW126249   1.799   5.032   0.645
 8450SOL    HW226250   1.740   5.150   0.741
 8451SOL     OW26251   2.838   4.369   1.184
 8451SOL    HW126252   2.767   4.301   1.168
 8451SOL    HW226253   2.869   4.363   1.279
 8452SOL     OW26254   6.605   5.956   2.128
 8452SOL    HW126255   6.590   5.865   2.091
 8452SOL    HW226256   6.524   6.012   2.113
 8453SOL     OW26257   0.230   5.017   5.243
 8453SOL    HW126258   0.325   4.991   5.255
 8453SOL    HW226259   0.207   5.018   5.145
 8454SOL     OW26260   2.102   0.329   4.895
 8454SOL    HW126261   2.143   0.255   4.948
 8454SOL    HW226262   2.122   0.315   4.798
 8455SOL     OW26263   6.336   2.797   0.732
 8455SOL    HW126264   6.404   2.757   0.670
 8455SOL    HW226265   6.383   2.848   0.804
 8456SOL     OW26266   5.575   4.789   3.495
 8456SOL    HW126267   5.672   4.802   3.512
 8456SOL    HW226268   5.530   4.759   3.579
 8457SOL     OW26269   6.100   6.118   6.294
 8457SOL    HW126270   6.069   6.163   6.210
 8457SOL    HW226271   6.070   6.023   6.293
 8458SOL     OW26272   1.609   1.748   1.074
 8458SOL    HW126273   1.532   1.737   1.137
 8458SOL    HW226274   1.624   1.846   1.057
 8459SOL     OW26275   2.816   5.057   3.157
 8459SOL    HW126276   2.863   4.970   3.169
 8459SOL    HW226277   2.802   5.100   3.247
 8460SOL     OW26278   3.633   1.205   1.375
 8460SOL    HW126279   3.720   1.217   1.328
 8460SOL    HW226280   3.628   1.112   1.412
 8461SOL     OW26281   5.570   4.167   3.233
 8461SOL    HW126282   5.667   4.184   3.219
 8461SOL    HW226283   5.558   4.088   3.293
 8462SOL     OW26284   1.868   3.993   0.931
 8462SOL    HW126285   1.935   3.926   0.963
 8462SOL    HW226286   1.914   4.069   0.887
 8463SOL     OW26287   0.294   6.669   1.409
 8463SOL    HW126288   0.277   6.733   1.334
 8463SOL    HW226289   0.224   6.680   1.479
 8464SOL     OW26290   0.295   3.114   6.529
 8464SOL    HW126291   0.225   3.047   6.508
 8464SOL    HW226292   0.313   3.114   6.628
 8465SOL     OW26293   5.413   4.512   0.673
 8465SOL    HW126294   5.359   4.429   0.665
 8465SOL    HW226295   5.476   4.504   0.751
 8466SOL     OW26296   0.619   1.408   5.004
 8466SOL    HW126297   0.541   1.470   5.016
 8466SOL    HW226298   0.704   1.459   5.014
 8467SOL     OW26299   3.102   1.469   0.463
 8467SOL    HW126300   3.004   1.490   0.455
 8467SOL    HW226301   3.115   1.370   0.459
 8468SOL     OW26302   6.300   4.117   0.702
 8468SOL    HW126303   6.267   4.090   0.611
 8468SOL    HW226304   6.344   4.039   0.747
 8469SOL     OW26305   3.567   2.762   5.219
 8469SOL    HW126306   3.641   2.777   5.153
 8469SOL    HW226307   3.479   2.770   5.173
 8470SOL     OW26308   2.186   5.376   1.277
 8470SOL    HW126309   2.166   5.355   1.181
 8470SOL    HW226310   2.266   5.436   1.282
 8471SOL     OW26311   4.202   1.468   3.524
 8471SOL    HW126312   4.215   1.395   3.457
 8471SOL    HW226313   4.178   1.428   3.613
 8472SOL     OW26314   5.948   1.571   6.542
 8472SOL    HW126315   5.930   1.566   6.640
 8472SOL    HW226316   5.873   1.525   6.493
 8473SOL     OW26317   4.775   4.680   5.979
 8473SOL    HW126318   4.767   4.729   6.066
 8473SOL    HW226319   4.788   4.582   5.998
 8474SOL     OW26320   3.574   3.336   5.714
 8474SOL    HW126321   3.542   3.247   5.682
 8474SOL    HW226322   3.595   3.332   5.811
 8475SOL     OW26323   0.633   2.147   2.648
 8475SOL    HW126324   0.610   2.066   2.701
 8475SOL    HW226325   0.632   2.227   2.709
 8476SOL     OW26326   6.534   0.881   2.512
 8476SOL    HW126327   6.506   0.977   2.514
 8476SOL    HW226328   6.596   0.866   2.435
 8477SOL     OW26329   5.478   7.006   0.997
 8477SOL    HW126330   5.551   0.015   0.937
 8477SOL    HW226331   5.390   7.019   0.953
 8478SOL     OW26332   1.680   6.883   6.979
 8478SOL    HW126333   1.739   6.880   6.899
 8478SOL    HW226334   1.586   6.900   6.950
 8479SOL     OW26335   1.017   2.783   0.069
 8479SOL    HW126336   1.054   2.844   0.139
 8479SOL    HW226337   0.979   2.701   0.113
 8480SOL     OW26338   3.251   4.363   1.667
 8480SOL    HW126339   3.262   4.462   1.658
 8480SOL    HW226340   3.153   4.341   1.666
 8481SOL     OW26341   4.927   3.518   2.497
 8481SOL    HW126342   4.860   3.451   2.465
 8481SOL    HW226343   4.906   3.607   2.457
 8482SOL     OW26344   4.658   0.697   5.478
 8482SOL    HW126345   4.741   0.686   5.422
 8482SOL    HW226346   4.641   0.794   5.493
 8483SOL     OW26347   4.506   5.364   3.426
 8483SOL    HW126348   4.570   5.410   3.364
 8483SOL    HW226349   4.523   5.394   3.520
 8484SOL     OW26350   6.686   6.725   5.049
 8484SOL    HW126351   6.691   6.735   5.148
 8484SOL    HW226352   6.667   6.629   5.026
 8485SOL     OW26353   3.728   0.542   5.597
 8485SOL    HW126354   3.678   0.628   5.593
 8485SOL    HW226355   3.780   0.537   5.682
 8486SOL     OW26356   5.033   2.423   4.313
 8486SOL    HW126357   5.021   2.429   4.412
 8486SOL    HW226358   4.948   2.451   4.268
 8487SOL     OW26359   0.012   2.110   5.914
 8487SOL    HW126360   6.993   2.023   5.887
 8487SOL    HW226361   0.044   2.103   6.009
 8488SOL     OW26362   4.001   5.124   3.079
 8488SOL    HW126363   3.978   5.103   2.984
 8488SOL    HW226364   4.100   5.115   3.091
 8489SOL     OW26365   6.552   1.932   2.018
 8489SOL    HW126366   6.638   1.888   1.990
 8489SOL    HW226367   6.540   1.920   2.117
 8490SOL     OW26368   3.714   6.410   0.404
 8490SOL    HW126369   3.751   6.320   0.382
 8490SOL    HW226370   3.732   6.430   0.501
 8491SOL     OW26371   3.440   6.056   2.565
 8491SOL    HW126372   3.441   6.153   2.590
 8491SOL    HW226373   3.534   6.023   2.558
 8492SOL     OW26374   5.302   6.862   4.108
 8492SOL    HW126375   5.227   6.802   4.080
 8492SOL    HW226376   5.331   6.918   4.030
 8493SOL     OW26377   5.297   0.353   5.291
 8493SOL    HW126378   5.226   0.423   5.281
 8493SOL    HW226379   5.256   0.268   5.324
 8494SOL     OW26380   0.095   3.414   2.307
 8494SOL    HW126381   0.009   3.380   2.268
 8494SOL    HW226382   0.158   3.337   2.320
 8495SOL     OW26383   5.273   5.909   5.150
 8495SOL    HW126384   5.350   5.959   5.112
 8495SOL    HW226385   5.305   5.846   5.221
 8496SOL     OW26386   3.924   2.125   2.595
 8496SOL    HW126387   3.919   2.150   2.498
 8496SOL    HW226388   3.982   2.191   2.642
 8497SOL     OW26389   6.290   0.704   3.280
 8497SOL    HW126390   6.315   0.761   3.202
 8497SOL    HW226391   6.342   0.619   3.278
 8498SOL     OW26392   4.700   6.490   4.219
 8498SOL    HW126393   4.748   6.567   4.176
 8498SOL    HW226394   4.756   6.452   4.292
 8499SOL     OW26395   6.345   6.843   5.346
 8499SOL    HW126396   6.362   6.852   5.248
 8499SOL    HW226397   6.330   6.934   5.386
 8500SOL     OW26398   1.403   0.503   6.397
 8500SOL    HW126399   1.329   0.546   6.449
 8500SOL    HW226400   1.398   0.404   6.407
 8501SOL     OW26401   3.286   0.888   5.215
 8501SOL    HW126402   3.231   0.969   5.235
 8501SOL    HW226403   3.323   0.852   5.301
 8502SOL     OW26404   6.919   2.984   0.083
 8502SOL    HW126405   6.870   3.026   0.159
 8502SOL    HW226406   6.982   2.916   0.118
 8503SOL     OW26407   4.524   1.805   5.500
 8503SOL    HW126408   4.591   1.732   5.485
 8503SOL    HW226409   4.552   1.887   5.450
 8504SOL     OW26410   1.279   0.554   3.212
 8504SOL    HW126411   1.195   0.580   3.258
 8504SOL    HW226412   1.260   0.484   3.144
 8505SOL     OW26413   6.100   2.200   2.483
 8505SOL    HW126414   6.038   2.174   2.558
 8505SOL    HW226415   6.068   2.286   2.442
 8506SOL     OW26416   1.760   0.722   4.908
 8506SOL    HW126417   1.689   0.792   4.904
 8506SOL    HW226418   1.754   0.673   4.995
 8507SOL     OW26419   4.417   5.040   6.211
 8507SOL    HW126420   4.444   5.061   6.117
 8507SOL    HW226421   4.499   5.038   6.269
 8508SOL     OW26422   3.850   0.467   6.282
 8508SOL    HW126423   3.896   0.485   6.369
 8508SOL    HW226424   3.751   0.461   6.297
 8509SOL     OW26425   4.520   2.085   2.272
 8509SOL    HW126426   4.448   2.034   2.320
 8509SOL    HW226427   4.511   2.182   2.293
 8510SOL     OW26428   0.943   2.039   4.681
 8510SOL    HW126429   0.942   2.061   4.778
 8510SOL    HW226430   1.010   1.966   4.664
 8511SOL     OW26431   5.707   2.207   4.035
 8511SOL    HW126432   5.742   2.177   4.124
 8511SOL    HW226433   5.611   2.182   4.027
 8512SOL     OW26434   1.847   6.433   5.835
 8512SOL    HW126435   1.761   6.481   5.823
 8512SOL    HW226436   1.921   6.500   5.846
 8513SOL     OW26437   4.039   5.206   6.679
 8513SOL    HW126438   4.079   5.298   6.670
 8513SOL    HW226439   4.113   5.139   6.689
 8514SOL     OW26440   3.790   5.794   4.577
 8514SOL    HW126441   3.862   5.737   4.618
 8514SOL    HW226442   3.736   5.738   4.514
 8515SOL     OW26443   5.276   3.106   1.346
 8515SOL    HW126444   5.216   3.111   1.426
 8515SOL    HW226445   5.267   3.190   1.292
 8516SOL     OW26446   6.947   2.143   1.438
 8516SOL    HW126447   6.900   2.065   1.395
 8516SOL    HW226448   6.923   2.146   1.535
 8517SOL     OW26449   1.361   3.875   4.405
 8517SOL    HW126450   1.316   3.920   4.482
 8517SOL    HW226451   1.420   3.940   4.357
 8518SOL     OW26452   3.489   5.750   0.806
 8518SOL    HW126453   3.569   5.808   0.821
 8518SOL    HW226454   3.475   5.737   0.708
 8519SOL     OW26455   2.625   5.537   3.687
 8519SOL    HW126456   2.689   5.485   3.744
 8519SOL    HW226457   2.602   5.484   3.605
 8520SOL     OW26458   3.633   5.866   6.514
 8520SOL    HW126459   3.653   5.813   6.432
 8520SOL    HW226460   3.704   5.851   6.582
 8521SOL     OW26461   1.020   0.783   2.450
 8521SOL    HW126462   0.929   0.776   2.409
 8521SOL    HW226463   1.014   0.836   2.535
 8522SOL     OW26464   1.933   6.480   4.138
 8522SOL    HW126465   1.882   6.513   4.058
 8522SOL    HW226466   1.873   6.480   4.217
 8523SOL     OW26467   1.726   6.313   6.895
 8523SOL    HW126468   1.721   6.291   6.993
 8523SOL    HW226469   1.640   6.287   6.851
 8524SOL     OW26470   1.682   1.428   0.107
 8524SOL    HW126471   1.743   1.374   0.165
 8524SOL    HW226472   1.723   1.438   0.016
 8525SOL     OW26473   5.475   4.843   4.123
 8525SOL    HW126474   5.467   4.932   4.168
 8525SOL    HW226475   5.460   4.854   4.024
 8526SOL     OW26476   0.409   3.234   2.025
 8526SOL    HW126477   0.431   3.294   2.102
 8526SOL    HW226478   0.311   3.217   2.023
 8527SOL     OW26479   4.699   0.553   4.540
 8527SOL    HW126480   4.757   0.571   4.619
 8527SOL    HW226481   4.748   0.577   4.456
 8528SOL     OW26482   5.369   0.528   0.447
 8528SOL    HW126483   5.422   0.443   0.447
 8528SOL    HW226484   5.351   0.556   0.541
 8529SOL     OW26485   6.972   6.940   4.778
 8529SOL    HW126486   6.915   6.923   4.858
 8529SOL    HW226487   0.042   6.908   4.796
 8530SOL     OW26488   2.066   4.486   6.024
 8530SOL    HW126489   2.140   4.501   5.958
 8530SOL    HW226490   2.072   4.554   6.096
 8531SOL     OW26491   3.911   5.807   2.503
 8531SOL    HW126492   3.972   5.839   2.576
 8531SOL    HW226493   3.868   5.721   2.531
 8532SOL     OW26494   1.424   4.091   6.993
 8532SOL    HW126495   1.494   4.097   0.040
 8532SOL    HW226496   1.467   4.075   6.904
 8533SOL     OW26497   3.099   6.958   5.778
 8533SOL    HW126498   3.162   6.888   5.744
 8533SOL    HW226499   3.052   6.924   5.860
 8534SOL     OW26500   2.524   2.067   0.738
 8534SOL    HW126501   2.591   2.130   0.778
 8534SOL    HW226502   2.473   2.022   0.811
 8535SOL     OW26503   0.254   2.899   6.142
 8535SOL    HW126504   0.321   2.828   6.166
 8535SOL    HW226505   0.280   2.940   6.054
 8536SOL     OW26506   6.341   0.414   5.980
 8536SOL    HW126507   6.393   0.416   5.894
 8536SOL    HW226508   6.244   0.431   5.961
 8537SOL     OW26509   3.958   6.481   3.283
 8537SOL    HW126510   4.047   6.494   3.326
 8537SOL    HW226511   3.948   6.385   3.256
 8538SOL     OW26512   4.184   1.108   5.176
 8538SOL    HW126513   4.237   1.141   5.098
 8538SOL    HW226514   4.245   1.095   5.254
 8539SOL     OW26515   0.674   3.177   3.508
 8539SOL    HW126516   0.674   3.173   3.608
 8539SOL    HW226517   0.758   3.134   3.473
 8540SOL     OW26518   5.072   6.189   6.041
 8540SOL    HW126519   5.062   6.123   6.115
 8540SOL    HW226520   5.144   6.255   6.064
 8541SOL     OW26521   3.228   6.231   5.390
 8541SOL    HW126522   3.281   6.284   5.323
 8541SOL    HW226523   3.288   6.163   5.433
 8542SOL     OW26524   2.121   4.716   6.206
 8542SOL    HW126525   2.061   4.777   6.257
 8542SOL    HW226526   2.178   4.770   6.144
 8543SOL     OW26527   3.632   1.550   5.483
 8543SOL    HW126528   3.590   1.554   5.574
 8543SOL    HW226529   3.676   1.638   5.464
 8544SOL     OW26530   5.379   3.447   5.568
 8544SOL    HW126531   5.317   3.488   5.501
 8544SOL    HW226532   5.393   3.350   5.546
 8545SOL     OW26533   1.972   0.551   5.887
 8545SOL    HW126534   1.970   0.547   5.788
 8545SOL    HW226535   2.040   0.487   5.922
 8546SOL     OW26536   2.981   1.572   4.066
 8546SOL    HW126537   2.963   1.659   4.021
 8546SOL    HW226538   2.923   1.563   4.147
 8547SOL     OW26539   5.891   5.530   5.421
 8547SOL    HW126540   5.896   5.433   5.442
 8547SOL    HW226541   5.816   5.546   5.356
 8548SOL     OW26542   1.542   4.074   4.314
 8548SOL    HW126543   1.590   4.098   4.398
 8548SOL    HW226544   1.476   4.145   4.292
 8549SOL     OW26545   3.272   0.500   3.459
 8549SOL    HW126546   3.360   0.520   3.502
 8549SOL    HW226547   3.283   0.494   3.360
 8550SOL     OW26548   0.411   3.602   5.146
 8550SOL    HW126549   0.335   3.538   5.153
 8550SOL    HW226550   0.379   3.694   5.169
 8551SOL     OW26551   3.705   1.426   3.616
 8551SOL    HW126552   3.648   1.506   3.597
 8551SOL    HW226553   3.650   1.358   3.665
 8552SOL     OW26554   4.174   1.494   2.029
 8552SOL    HW126555   4.102   1.563   2.021
 8552SOL    HW226556   4.240   1.506   1.955
 8553SOL     OW26557   5.183   3.635   0.242
 8553SOL    HW126558   5.259   3.571   0.244
 8553SOL    HW226559   5.112   3.604   0.305
 8554SOL     OW26560   1.034   1.222   6.741
 8554SOL    HW126561   1.128   1.241   6.771
 8554SOL    HW226562   0.982   1.307   6.743
 8555SOL     OW26563   3.367   1.520   3.265
 8555SOL    HW126564   3.295   1.507   3.333
 8555SOL    HW226565   3.411   1.432   3.245
 8556SOL     OW26566   0.316   4.303   5.200
 8556SOL    HW126567   0.273   4.357   5.271
 8556SOL    HW226568   0.246   4.266   5.139
 8557SOL     OW26569   6.331   0.870   0.863
 8557SOL    HW126570   6.411   0.835   0.815
 8557SOL    HW226571   6.334   0.970   0.866
 8558SOL     OW26572   2.514   6.182   3.320
 8558SOL    HW126573   2.564   6.109   3.366
 8558SOL    HW226574   2.567   6.215   3.242
 8559SOL     OW26575   1.302   3.299   3.494
 8559SOL    HW126576   1.258   3.348   3.569
 8559SOL    HW226577   1.232   3.256   3.437
 8560SOL     OW26578   3.438   4.317   1.426
 8560SOL    HW126579   3.533   4.339   1.446
 8560SOL    HW226580   3.382   4.329   1.508
 8561SOL     OW26581   3.942   1.084   2.342
 8561SOL    HW126582   3.941   1.134   2.429
 8561SOL    HW226583   3.993   0.999   2.353
 8562SOL     OW26584   5.099   2.636   6.425
 8562SOL    HW126585   5.083   2.707   6.493
 8562SOL    HW226586   5.196   2.631   6.404
 8563SOL     OW26587   0.920   4.467   2.715
 8563SOL    HW126588   0.982   4.545   2.721
 8563SOL    HW226589   0.965   4.385   2.751
 8564SOL     OW26590   4.232   6.399   6.957
 8564SOL    HW126591   4.244   6.490   6.996
 8564SOL    HW226592   4.145   6.395   6.907
 8565SOL     OW26593   1.201   4.810   1.511
 8565SOL    HW126594   1.105   4.825   1.532
 8565SOL    HW226595   1.231   4.879   1.445
 8566SOL     OW26596   2.278   0.971   3.244
 8566SOL    HW126597   2.329   0.885   3.244
 8566SOL    HW226598   2.268   1.003   3.339
 8567SOL     OW26599   1.615   3.402   0.896
 8567SOL    HW126600   1.522   3.367   0.888
 8567SOL    HW226601   1.680   3.331   0.869
 8568SOL     OW26602   5.514   6.805   6.051
 8568SOL    HW126603   5.494   6.872   6.123
 8568SOL    HW226604   5.606   6.768   6.065
 8569SOL     OW26605   4.827   1.399   6.410
 8569SOL    HW126606   4.819   1.422   6.313
 8569SOL    HW226607   4.919   1.424   6.443
 8570SOL     OW26608   1.785   2.393   4.144
 8570SOL    HW126609   1.801   2.323   4.214
 8570SOL    HW226610   1.797   2.354   4.053
 8571SOL     OW26611   1.220   1.001   3.774
 8571SOL    HW126612   1.202   0.997   3.676
 8571SOL    HW226613   1.269   1.085   3.796
 8572SOL     OW26614   2.511   3.836   5.672
 8572SOL    HW126615   2.571   3.851   5.750
 8572SOL    HW226616   2.543   3.889   5.594
 8573SOL     OW26617   1.680   6.130   6.450
 8573SOL    HW126618   1.694   6.126   6.351
 8573SOL    HW226619   1.598   6.078   6.474
 8574SOL     OW26620   5.820   2.246   5.662
 8574SOL    HW126621   5.868   2.322   5.706
 8574SOL    HW226622   5.729   2.236   5.703
 8575SOL     OW26623   2.367   6.208   4.568
 8575SOL    HW126624   2.460   6.238   4.547
 8575SOL    HW226625   2.302   6.280   4.542
 8576SOL     OW26626   1.600   3.783   5.074
 8576SOL    HW126627   1.515   3.830   5.049
 8576SOL    HW226628   1.662   3.849   5.117
 8577SOL     OW26629   1.718   0.879   0.597
 8577SOL    HW126630   1.737   0.940   0.674
 8577SOL    HW226631   1.762   0.791   0.614
 8578SOL     OW26632   1.410   0.203   5.601
 8578SOL    HW126633   1.486   0.158   5.553
 8578SOL    HW226634   1.344   0.134   5.631
 8579SOL     OW26635   3.262   6.743   2.057
 8579SOL    HW126636   3.239   6.669   1.994
 8579SOL    HW226637   3.297   6.821   2.005
 8580SOL     OW26638   1.578   0.809   1.951
 8580SOL    HW126639   1.501   0.868   1.974
 8580SOL    HW226640   1.553   0.713   1.965
 8581SOL     OW26641   3.960   3.553   3.292
 8581SOL    HW126642   3.868   3.571   3.257
 8581SOL    HW226643   4.027   3.602   3.236
 8582SOL     OW26644   4.560   5.203   5.638
 8582SOL    HW126645   4.549   5.299   5.613
 8582SOL    HW226646   4.657   5.183   5.647
 8583SOL     OW26647   3.244   0.273   2.851
 8583SOL    HW126648   3.325   0.231   2.892
 8583SOL    HW226649   3.192   0.320   2.923
 8584SOL     OW26650   5.872   2.227   5.384
 8584SOL    HW126651   5.827   2.316   5.379
 8584SOL    HW226652   5.864   2.191   5.476
 8585SOL     OW26653   4.868   2.401   2.789
 8585SOL    HW126654   4.858   2.304   2.769
 8585SOL    HW226655   4.798   2.429   2.854
 8586SOL     OW26656   6.698   6.762   5.299
 8586SOL    HW126657   6.774   6.763   5.364
 8586SOL    HW226658   6.611   6.761   5.350
 8587SOL     OW26659   6.981   0.214   0.841
 8587SOL    HW126660   6.904   0.153   0.857
 8587SOL    HW226661   6.971   0.259   0.753
 8588SOL     OW26662   1.526   1.266   5.864
 8588SOL    HW126663   1.602   1.298   5.807
 8588SOL    HW226664   1.453   1.334   5.862
 8589SOL     OW26665   5.635   3.011   6.565
 8589SOL    HW126666   5.605   2.916   6.562
 8589SOL    HW226667   5.556   3.072   6.564
 8590SOL     OW26668   1.210   0.718   2.964
 8590SOL    HW126669   1.172   0.810   2.974
 8590SOL    HW226670   1.257   0.693   3.049
 8591SOL     OW26671   1.078   4.068   5.535
 8591SOL    HW126672   1.166   4.097   5.573
 8591SOL    HW226673   1.036   4.000   5.596
 8592SOL     OW26674   0.235   2.487   4.839
 8592SOL    HW126675   0.182   2.529   4.912
 8592SOL    HW226676   0.226   2.541   4.756
 8593SOL     OW26677   6.586   1.065   0.231
 8593SOL    HW126678   6.564   0.991   0.167
 8593SOL    HW226679   6.611   1.025   0.320
 8594SOL     OW26680   5.867   3.910   6.659
 8594SOL    HW126681   5.879   3.890   6.756
 8594SOL    HW226682   5.771   3.899   6.634
 8595SOL     OW26683   5.214   6.556   2.258
 8595SOL    HW126684   5.278   6.504   2.314
 8595SOL    HW226685   5.170   6.626   2.314
 8596SOL     OW26686   0.445   2.391   5.940
 8596SOL    HW126687   0.533   2.408   5.985
 8596SOL    HW226688   0.376   2.370   6.009
 8597SOL     OW26689   6.138   2.522   5.844
 8597SOL    HW126690   6.196   2.592   5.885
 8597SOL    HW226691   6.043   2.538   5.870
 8598SOL     OW26692   0.046   0.523   5.901
 8598SOL    HW126693   0.026   0.425   5.904
 8598SOL    HW226694   0.099   0.543   5.819
 8599SOL     OW26695   5.490   4.174   4.823
 8599SOL    HW126696   5.464   4.170   4.727
 8599SOL    HW226697   5.443   4.101   4.873
 8600SOL     OW26698   4.069   2.965   1.839
 8600SOL    HW126699   4.123   2.992   1.919
 8600SOL    HW226700   4.130   2.946   1.762
 8601SOL     OW26701   4.602   5.267   2.076
 8601SOL    HW126702   4.640   5.199   2.138
 8601SOL    HW226703   4.649   5.354   2.089
 8602SOL     OW26704   1.925   6.171   4.672
 8602SOL    HW126705   1.984   6.173   4.753
 8602SOL    HW226706   1.838   6.216   4.693
 8603SOL     OW26707   1.004   1.618   0.119
 8603SOL    HW126708   1.016   1.544   0.186
 8603SOL    HW226709   1.077   1.686   0.132
 8604SOL     OW26710   1.494   5.697   6.148
 8604SOL    HW126711   1.564   5.702   6.219
 8604SOL    HW226712   1.418   5.641   6.179
 8605SOL     OW26713   6.413   4.586   4.380
 8605SOL    HW126714   6.492   4.538   4.419
 8605SOL    HW226715   6.377   4.650   4.448
 8606SOL     OW26716   1.167   0.427   6.828
 8606SOL    HW126717   1.250   0.480   6.811
 8606SOL    HW226718   1.096   0.455   6.763
 8607SOL     OW26719   2.689   2.945   1.269
 8607SOL    HW126720   2.764   2.960   1.204
 8607SOL    HW226721   2.715   2.871   1.332
 8608SOL     OW26722   2.165   5.482   1.697
 8608SOL    HW126723   2.123   5.414   1.637
 8608SOL    HW226724   2.161   5.572   1.653
 8609SOL     OW26725   4.641   2.050   4.005
 8609SOL    HW126726   4.618   2.114   4.079
 8609SOL    HW226727   4.678   1.966   4.044
 8610SOL     OW26728   6.970   5.382   2.614
 8610SOL    HW126729   6.921   5.307   2.658
 8610SOL    HW226730   6.910   5.461   2.606
 8611SOL     OW26731   1.964   1.275   5.580
 8611SOL    HW126732   1.998   1.330   5.504
 8611SOL    HW226733   1.951   1.180   5.550
 8612SOL     OW26734   3.154   3.255   5.626
 8612SOL    HW126735   3.081   3.252   5.558
 8612SOL    HW226736   3.151   3.342   5.676
 8613SOL     OW26737   2.875   3.496   3.227
 8613SOL    HW126738   2.887   3.397   3.219
 8613SOL    HW226739   2.789   3.523   3.185
 8614SOL     OW26740   0.312   2.671   3.856
 8614SOL    HW126741   0.251   2.692   3.932
 8614SOL    HW226742   0.276   2.713   3.772
 8615SOL     OW26743   3.712   0.998   5.289
 8615SOL    HW126744   3.672   0.961   5.205
 8615SOL    HW226745   3.811   1.006   5.278
 8616SOL     OW26746   6.064   4.081   5.361
 8616SOL    HW126747   6.001   4.150   5.327
 8616SOL    HW226748   6.047   4.064   5.458
 8617SOL     OW26749   0.950   0.030   3.472
 8617SOL    HW126750   0.925   0.097   3.401
 8617SOL    HW226751   0.884   6.978   3.471
 8618SOL     OW26752   6.482   4.824   0.604
 8618SOL    HW126753   6.508   4.736   0.643
 8618SOL    HW226754   6.419   4.809   0.527
 8619SOL     OW26755   5.562   5.429   6.148
 8619SOL    HW126756   5.490   5.479   6.100
 8619SOL    HW226757   5.574   5.339   6.107
 8620SOL     OW26758   1.217   6.440   4.096
 8620SOL    HW126759   1.198   6.445   3.998
 8620SOL    HW226760   1.157   6.504   4.145
 8621SOL     OW26761   6.055   3.438   1.309
 8621SOL    HW126762   6.080   3.342   1.317
 8621SOL    HW226763   5.958   3.450   1.331
 8622SOL     OW26764   0.923   5.659   1.777
 8622SOL    HW126765   1.005   5.716   1.780
 8622SOL    HW226766   0.863   5.692   1.704
 8623SOL     OW26767   2.201   1.914   2.973
 8623SOL    HW126768   2.182   1.986   3.041
 8623SOL    HW226769   2.294   1.880   2.987
 8624SOL     OW26770   3.230   3.616   5.576
 8624SOL    HW126771   3.167   3.649   5.505
 8624SOL    HW226772   3.178   3.587   5.656
 8625SOL     OW26773   4.274   3.122   5.852
 8625SOL    HW126774   4.240   3.126   5.758
 8625SOL    HW226775   4.340   3.196   5.867
 8626SOL     OW26776   5.348   2.123   0.785
 8626SOL    HW126777   5.280   2.195   0.775
 8626SOL    HW226778   5.388   2.128   0.877
 8627SOL     OW26779   0.117   6.832   2.515
 8627SOL    HW126780   0.108   6.795   2.423
 8627SOL    HW226781   0.167   6.918   2.512
 8628SOL     OW26782   1.503   6.575   0.989
 8628SOL    HW126783   1.423   6.634   1.001
 8628SOL    HW226784   1.546   6.557   1.077
 8629SOL     OW26785   0.217   0.698   4.462
 8629SOL    HW126786   0.278   0.776   4.450
 8629SOL    HW226787   0.262   0.628   4.518
 8630SOL     OW26788   4.969   3.122   1.373
 8630SOL    HW126789   4.894   3.058   1.358
 8630SOL    HW226790   4.985   3.173   1.289
 8631SOL     OW26791   1.483   6.183   6.777
 8631SOL    HW126792   1.517   6.098   6.818
 8631SOL    HW226793   1.383   6.183   6.777
 8632SOL     OW26794   6.286   5.953   4.198
 8632SOL    HW126795   6.373   5.957   4.149
 8632SOL    HW226796   6.268   6.041   4.243
 8633SOL     OW26797   6.606   3.541   5.256
 8633SOL    HW126798   6.645   3.632   5.240
 8633SOL    HW226799   6.506   3.548   5.261
 8634SOL     OW26800   5.029   4.931   6.297
 8634SOL    HW126801   4.961   4.867   6.262
 8634SOL    HW226802   5.074   4.892   6.376
 8635SOL     OW26803   5.284   1.660   6.332
 8635SOL    HW126804   5.297   1.572   6.286
 8635SOL    HW226805   5.353   1.670   6.404
 8636SOL     OW26806   4.038   6.003   0.813
 8636SOL    HW126807   4.087   6.065   0.874
 8636SOL    HW226808   3.953   6.046   0.783
 8637SOL     OW26809   2.962   2.393   0.779
 8637SOL    HW126810   2.994   2.376   0.872
 8637SOL    HW226811   2.884   2.456   0.781
 8638SOL     OW26812   5.382   2.246   4.731
 8638SOL    HW126813   5.401   2.304   4.651
 8638SOL    HW226814   5.283   2.240   4.745
 8639SOL     OW26815   3.586   4.024   0.156
 8639SOL    HW126816   3.559   4.096   0.221
 8639SOL    HW226817   3.529   3.943   0.171
 8640SOL     OW26818   3.370   2.042   6.548
 8640SOL    HW126819   3.318   2.096   6.482
 8640SOL    HW226820   3.456   2.090   6.569
 8641SOL     OW26821   3.588   4.912   3.392
 8641SOL    HW126822   3.688   4.906   3.386
 8641SOL    HW226823   3.560   4.912   3.488
 8642SOL     OW26824   2.046   6.480   3.118
 8642SOL    HW126825   2.075   6.498   3.212
 8642SOL    HW226826   2.120   6.503   3.055
 8643SOL     OW26827   3.756   6.407   1.188
 8643SOL    HW126828   3.835   6.454   1.148
 8643SOL    HW226829   3.684   6.398   1.119
 8644SOL     OW26830   5.495   2.066   6.398
 8644SOL    HW126831   5.588   2.099   6.384
 8644SOL    HW226832   5.485   2.033   6.492
 8645SOL     OW26833   4.812   5.333   2.786
 8645SOL    HW126834   4.899   5.357   2.829
 8645SOL    HW226835   4.783   5.406   2.725
 8646SOL     OW26836   0.031   2.093   4.354
 8646SOL    HW126837   0.002   2.180   4.313
 8646SOL    HW226838   6.974   2.036   4.371
 8647SOL     OW26839   1.997   4.781   1.824
 8647SOL    HW126840   1.900   4.806   1.827
 8647SOL    HW226841   2.006   4.684   1.803
 8648SOL     OW26842   5.699   5.679   6.145
 8648SOL    HW126843   5.648   5.596   6.168
 8648SOL    HW226844   5.724   5.676   6.048
 8649SOL     OW26845   5.640   2.403   2.275
 8649SOL    HW126846   5.565   2.399   2.341
 8649SOL    HW226847   5.603   2.396   2.182
 8650SOL     OW26848   1.053   0.700   4.976
 8650SOL    HW126849   1.120   0.735   5.041
 8650SOL    HW226850   0.966   0.748   4.988
 8651SOL     OW26851   4.570   1.596   1.681
 8651SOL    HW126852   4.589   1.687   1.645
 8651SOL    HW226853   4.558   1.532   1.606
 8652SOL     OW26854   6.340   2.919   4.788
 8652SOL    HW126855   6.384   2.984   4.726
 8652SOL    HW226856   6.242   2.914   4.768
 8653SOL     OW26857   5.352   0.636   0.940
 8653SOL    HW126858   5.371   0.675   0.850
 8653SOL    HW226859   5.254   0.616   0.948
 8654SOL     OW26860   0.223   4.536   2.659
 8654SOL    HW126861   0.234   4.609   2.591
 8654SOL    HW226862   0.267   4.563   2.745
 8655SOL     OW26863   1.303   6.867   4.978
 8655SOL    HW126864   1.325   6.805   5.054
 8655SOL    HW226865   1.211   6.848   4.945
 8656SOL     OW26866   4.177   6.210   0.998
 8656SOL    HW126867   4.263   6.161   0.981
 8656SOL    HW226868   4.138   6.179   1.085
 8657SOL     OW26869   3.060   1.831   2.497
 8657SOL    HW126870   3.150   1.864   2.469
 8657SOL    HW226871   2.994   1.848   2.425
 8658SOL     OW26872   6.612   4.063   0.630
 8658SOL    HW126873   6.518   4.075   0.600
 8658SOL    HW226874   6.652   4.152   0.652
 8659SOL     OW26875   3.462   0.276   3.403
 8659SOL    HW126876   3.496   0.368   3.423
 8659SOL    HW226877   3.410   0.242   3.482
 8660SOL     OW26878   0.005   4.102   1.521
 8660SOL    HW126879   0.093   4.096   1.475
 8660SOL    HW226880   7.009   4.015   1.567
 8661SOL     OW26881   5.955   3.298   2.133
 8661SOL    HW126882   5.894   3.322   2.059
 8661SOL    HW226883   6.020   3.227   2.102
 8662SOL     OW26884   1.870   2.226   2.805
 8662SOL    HW126885   1.968   2.222   2.788
 8662SOL    HW226886   1.829   2.296   2.745
 8663SOL     OW26887   3.277   5.026   2.544
 8663SOL    HW126888   3.244   5.057   2.454
 8663SOL    HW226889   3.199   5.009   2.604
 8664SOL     OW26890   3.353   5.819   3.973
 8664SOL    HW126891   3.318   5.912   3.980
 8664SOL    HW226892   3.315   5.775   3.892
 8665SOL     OW26893   0.630   3.510   6.542
 8665SOL    HW126894   0.697   3.570   6.586
 8665SOL    HW226895   0.568   3.565   6.486
 8666SOL     OW26896   4.532   0.101   2.500
 8666SOL    HW126897   4.569   0.125   2.411
 8666SOL    HW226898   4.537   0.180   2.561
 8667SOL     OW26899   4.934   2.307   2.091
 8667SOL    HW126900   5.000   2.330   2.163
 8667SOL    HW226901   4.909   2.211   2.098
 8668SOL     OW26902   3.582   2.017   3.238
 8668SOL    HW126903   3.529   2.083   3.184
 8668SOL    HW226904   3.630   2.065   3.311
 8669SOL     OW26905   0.547   5.815   5.739
 8669SOL    HW126906   0.588   5.724   5.744
 8669SOL    HW226907   0.457   5.815   5.782
 8670SOL     OW26908   0.375   5.284   5.171
 8670SOL    HW126909   0.404   5.278   5.076
 8670SOL    HW226910   0.455   5.299   5.229
 8671SOL     OW26911   0.340   3.394   3.910
 8671SOL    HW126912   0.352   3.324   3.980
 8671SOL    HW226913   0.282   3.359   3.837
 8672SOL     OW26914   6.343   1.345   2.338
 8672SOL    HW126915   6.333   1.268   2.275
 8672SOL    HW226916   6.260   1.401   2.335
 8673SOL     OW26917   0.771   1.477   1.719
 8673SOL    HW126918   0.704   1.543   1.687
 8673SOL    HW226919   0.736   1.430   1.800
 8674SOL     OW26920   0.551   3.376   4.285
 8674SOL    HW126921   0.472   3.367   4.225
 8674SOL    HW226922   0.595   3.465   4.270
 8675SOL     OW26923   5.079   2.626   4.957
 8675SOL    HW126924   5.151   2.646   5.024
 8675SOL    HW226925   4.990   2.634   5.001
 8676SOL     OW26926   4.697   2.616   0.461
 8676SOL    HW126927   4.653   2.615   0.371
 8676SOL    HW226928   4.739   2.705   0.477
 8677SOL     OW26929   3.202   0.997   0.067
 8677SOL    HW126930   3.230   1.093   0.058
 8677SOL    HW226931   3.261   0.951   0.134
 8678SOL     OW26932   3.374   2.054   0.132
 8678SOL    HW126933   3.432   2.095   0.203
 8678SOL    HW226934   3.390   1.956   0.128
 8679SOL     OW26935   1.691   2.203   6.929
 8679SOL    HW126936   1.731   2.210   6.838
 8679SOL    HW226937   1.727   2.122   6.975
 8680SOL     OW26938   0.161   0.070   1.290
 8680SOL    HW126939   0.084   0.133   1.286
 8680SOL    HW226940   0.190   0.058   1.385
 8681SOL     OW26941   5.416   5.534   1.060
 8681SOL    HW126942   5.454   5.601   1.124
 8681SOL    HW226943   5.399   5.578   0.972
 8682SOL     OW26944   1.870   1.700   2.436
 8682SOL    HW126945   1.848   1.702   2.534
 8682SOL    HW226946   1.841   1.786   2.394
 8683SOL     OW26947   2.413   4.490   4.134
 8683SOL    HW126948   2.316   4.480   4.158
 8683SOL    HW226949   2.427   4.462   4.039
 8684SOL     OW26950   2.376   4.274   3.582
 8684SOL    HW126951   2.335   4.201   3.527
 8684SOL    HW226952   2.448   4.318   3.529
 8685SOL     OW26953   4.915   3.006   5.541
 8685SOL    HW126954   4.903   3.071   5.617
 8685SOL    HW226955   4.912   3.055   5.454
 8686SOL     OW26956   1.392   4.698   2.795
 8686SOL    HW126957   1.408   4.791   2.764
 8686SOL    HW226958   1.455   4.636   2.749
 8687SOL     OW26959   6.249   4.309   5.633
 8687SOL    HW126960   6.315   4.383   5.637
 8687SOL    HW226961   6.157   4.346   5.627
 8688SOL     OW26962   0.347   3.885   5.197
 8688SOL    HW126963   0.365   3.879   5.295
 8688SOL    HW226964   0.417   3.942   5.153
 8689SOL     OW26965   5.215   3.311   0.872
 8689SOL    HW126966   5.240   3.297   0.776
 8689SOL    HW226967   5.271   3.385   0.910
 8690SOL     OW26968   1.575   2.392   2.220
 8690SOL    HW126969   1.565   2.308   2.274
 8690SOL    HW226970   1.606   2.467   2.279
 8691SOL     OW26971   3.220   1.239   6.909
 8691SOL    HW126972   3.258   1.276   6.993
 8691SOL    HW226973   3.274   1.269   6.831
 8692SOL     OW26974   5.427   2.383   4.509
 8692SOL    HW126975   5.445   2.464   4.454
 8692SOL    HW226976   5.384   2.313   4.451
 8693SOL     OW26977   0.720   6.922   5.393
 8693SOL    HW126978   0.652   6.911   5.466
 8693SOL    HW226979   0.803   6.962   5.431
 8694SOL     OW26980   4.241   3.911   5.277
 8694SOL    HW126981   4.252   3.905   5.178
 8694SOL    HW226982   4.172   3.981   5.299
 8695SOL     OW26983   4.059   3.878   1.163
 8695SOL    HW126984   4.019   3.796   1.203
 8695SOL    HW226985   4.159   3.870   1.163
 8696SOL     OW26986   2.808   5.431   6.602
 8696SOL    HW126987   2.742   5.359   6.623
 8696SOL    HW226988   2.772   5.489   6.529
 8697SOL     OW26989   1.004   3.224   4.825
 8697SOL    HW126990   1.052   3.140   4.850
 8697SOL    HW226991   1.012   3.238   4.726
 8698SOL     OW26992   5.840   4.320   6.827
 8698SOL    HW126993   5.807   4.399   6.879
 8698SOL    HW226994   5.894   4.261   6.887
 8699SOL     OW26995   2.746   2.308   1.268
 8699SOL    HW126996   2.708   2.250   1.196
 8699SOL    HW226997   2.816   2.258   1.319
 8700SOL     OW26998   0.245   1.969   4.210
 8700SOL    HW126999   0.252   1.880   4.255
 8700SOL    HW227000   0.158   2.012   4.233
 8701SOL     OW27001   2.400   2.973   6.865
 8701SOL    HW127002   2.326   2.921   6.822
 8701SOL    HW227003   2.387   3.070   6.848
 8702SOL     OW27004   5.369   3.756   1.220
 8702SOL    HW127005   5.303   3.767   1.294
 8702SOL    HW227006   5.459   3.737   1.259
 8703SOL     OW27007   2.185   4.974   1.861
 8703SOL    HW127008   2.262   4.950   1.919
 8703SOL    HW227009   2.127   4.894   1.847
 8704SOL     OW27010   6.392   0.929   3.419
 8704SOL    HW127011   6.469   0.890   3.472
 8704SOL    HW227012   6.355   0.859   3.358
 8705SOL     OW27013   3.680   2.025   0.193
 8705SOL    HW127014   3.688   1.926   0.188
 8705SOL    HW227015   3.688   2.064   0.101
 8706SOL     OW27016   4.656   2.912   5.085
 8706SOL    HW127017   4.611   2.863   5.010
 8706SOL    HW227018   4.746   2.944   5.054
 8707SOL     OW27019   1.081   1.142   4.163
 8707SOL    HW127020   1.155   1.082   4.192
 8707SOL    HW227021   1.105   1.237   4.184
 8708SOL     OW27022   5.730   2.687   0.735
 8708SOL    HW127023   5.643   2.708   0.780
 8708SOL    HW227024   5.788   2.633   0.796
 8709SOL     OW27025   6.271   6.438   4.216
 8709SOL    HW127026   6.327   6.371   4.166
 8709SOL    HW227027   6.305   6.530   4.198
 8710SOL     OW27028   2.107   3.158   3.473
 8710SOL    HW127029   2.132   3.118   3.562
 8710SOL    HW227030   2.029   3.109   3.435
 8711SOL     OW27031   0.952   1.925   2.294
 8711SOL    HW127032   0.940   2.004   2.355
 8711SOL    HW227033   0.995   1.850   2.345
 8712SOL     OW27034   1.095   3.894   4.187
 8712SOL    HW127035   1.063   3.821   4.127
 8712SOL    HW227036   1.127   3.856   4.274
 8713SOL     OW27037   0.132   5.130   3.722
 8713SOL    HW127038   0.151   5.154   3.817
 8713SOL    HW227039   0.130   5.213   3.666
 8714SOL     OW27040   0.541   4.574   6.287
 8714SOL    HW127041   0.468   4.509   6.264
 8714SOL    HW227042   0.505   4.644   6.349
 8715SOL     OW27043   2.396   5.081   1.346
 8715SOL    HW127044   2.437   5.063   1.257
 8715SOL    HW227045   2.309   5.032   1.353
 8716SOL     OW27046   5.379   0.212   2.616
 8716SOL    HW127047   5.410   0.303   2.643
 8716SOL    HW227048   5.450   0.169   2.559
 8717SOL     OW27049   3.642   2.628   6.470
 8717SOL    HW127050   3.618   2.535   6.500
 8717SOL    HW227051   3.596   2.694   6.530
 8718SOL     OW27052   2.955   5.285   5.759
 8718SOL    HW127053   3.030   5.332   5.805
 8718SOL    HW227054   2.888   5.352   5.726
 8719SOL     OW27055   3.116   2.179   4.397
 8719SOL    HW127056   3.091   2.196   4.492
 8719SOL    HW227057   3.210   2.145   4.393
 8720SOL     OW27058   0.162   6.423   4.894
 8720SOL    HW127059   0.249   6.465   4.867
 8720SOL    HW227060   0.088   6.489   4.879
 8721SOL     OW27061   0.992   0.710   1.409
 8721SOL    HW127062   1.010   0.612   1.402
 8721SOL    HW227063   0.917   0.726   1.473
 8722SOL     OW27064   4.183   1.506   0.187
 8722SOL    HW127065   4.241   1.435   0.147
 8722SOL    HW227066   4.090   1.472   0.198
 8723SOL     OW27067   3.780   6.889   2.705
 8723SOL    HW127068   3.759   6.832   2.785
 8723SOL    HW227069   3.710   6.960   2.696
 8724SOL     OW27070   4.040   0.116   5.236
 8724SOL    HW127071   3.962   0.178   5.247
 8724SOL    HW227072   4.009   0.030   5.195
 8725SOL     OW27073   6.559   0.614   2.651
 8725SOL    HW127074   6.552   0.643   2.747
 8725SOL    HW227075   6.555   0.695   2.592
 8726SOL     OW27076   6.997   1.348   0.626
 8726SOL    HW127077   6.954   1.274   0.678
 8726SOL    HW227078   6.943   1.432   0.636
 8727SOL     OW27079   5.020   5.759   6.416
 8727SOL    HW127080   4.963   5.833   6.382
 8727SOL    HW227081   5.086   5.732   6.346
 8728SOL     OW27082   5.810   7.018   4.243
 8728SOL    HW127083   5.821   0.025   4.149
 8728SOL    HW227084   5.713   7.016   4.267
 8729SOL     OW27085   5.796   6.761   6.004
 8729SOL    HW127086   5.856   6.840   5.990
 8729SOL    HW227087   5.849   6.685   6.042
 8730SOL     OW27088   4.161   4.682   1.763
 8730SOL    HW127089   4.080   4.661   1.818
 8730SOL    HW227090   4.242   4.646   1.809
 8731SOL     OW27091   6.942   2.226   3.918
 8731SOL    HW127092   0.001   2.222   3.975
 8731SOL    HW227093   6.872   2.280   3.965
 8732SOL     OW27094   4.932   5.985   5.372
 8732SOL    HW127095   4.844   6.027   5.395
 8732SOL    HW227096   4.998   6.005   5.444
 8733SOL     OW27097   5.629   4.613   2.429
 8733SOL    HW127098   5.584   4.697   2.397
 8733SOL    HW227099   5.672   4.631   2.517
 8734SOL     OW27100   0.785   5.761   1.560
 8734SOL    HW127101   0.697   5.766   1.607
 8734SOL    HW227102   0.779   5.694   1.486
 8735SOL     OW27103   1.383   2.468   6.855
 8735SOL    HW127104   1.476   2.478   6.892
 8735SOL    HW227105   1.330   2.550   6.875
 8736SOL     OW27106   1.050   5.929   4.080
 8736SOL    HW127107   1.036   5.843   4.131
 8736SOL    HW227108   1.090   5.997   4.141
 8737SOL     OW27109   0.452   5.390   0.070
 8737SOL    HW127110   0.448   5.489   0.085
 8737SOL    HW227111   0.473   5.345   0.157
 8738SOL     OW27112   2.179   2.452   2.545
 8738SOL    HW127113   2.216   2.544   2.557
 8738SOL    HW227114   2.235   2.386   2.595
 8739SOL     OW27115   4.496   4.621   3.344
 8739SOL    HW127116   4.487   4.554   3.418
 8739SOL    HW227117   4.565   4.688   3.367
 8740SOL     OW27118   2.532   0.947   3.720
 8740SOL    HW127119   2.519   1.045   3.731
 8740SOL    HW227120   2.447   0.899   3.743
 8741SOL     OW27121   2.335   2.283   2.666
 8741SOL    HW127122   2.428   2.307   2.635
 8741SOL    HW227123   2.328   2.184   2.675
 8742SOL     OW27124   1.272   3.634   1.167
 8742SOL    HW127125   1.357   3.685   1.159
 8742SOL    HW227126   1.292   3.537   1.180
 8743SOL     OW27127   1.613   3.030   0.086
 8743SOL    HW127128   1.632   2.946   0.034
 8743SOL    HW227129   1.549   3.009   0.160
 8744SOL     OW27130   2.388   4.256   5.934
 8744SOL    HW127131   2.354   4.223   5.846
 8744SOL    HW227132   2.371   4.186   6.004
 8745SOL     OW27133   5.743   1.379   6.464
 8745SOL    HW127134   5.808   1.327   6.520
 8745SOL    HW227135   5.653   1.375   6.507
 8746SOL     OW27136   4.870   4.710   4.624
 8746SOL    HW127137   4.806   4.654   4.677
 8746SOL    HW227138   4.910   4.655   4.551
 8747SOL     OW27139   0.430   6.789   1.680
 8747SOL    HW127140   0.529   6.797   1.695
 8747SOL    HW227141   0.413   6.731   1.600
 8748SOL     OW27142   5.929   1.133   4.796
 8748SOL    HW127143   5.991   1.120   4.718
 8748SOL    HW227144   5.912   1.045   4.840
 8749SOL     OW27145   2.479   1.684   3.788
 8749SOL    HW127146   2.421   1.619   3.739
 8749SOL    HW227147   2.574   1.670   3.763
 8750SOL     OW27148   3.867   3.221   2.000
 8750SOL    HW127149   3.851   3.253   1.907
 8750SOL    HW227150   3.834   3.290   2.065
 8751SOL     OW27151   2.125   6.867   6.893
 8751SOL    HW127152   2.149   6.906   6.981
 8751SOL    HW227153   2.025   6.868   6.882
 8752SOL     OW27154   0.814   3.324   6.470
 8752SOL    HW127155   0.766   3.406   6.501
 8752SOL    HW227156   0.825   3.260   6.546
 8753SOL     OW27157   1.947   1.727   0.669
 8753SOL    HW127158   1.877   1.755   0.604
 8753SOL    HW227159   1.913   1.653   0.726
 8754SOL     OW27160   1.245   6.275   6.306
 8754SOL    HW127161   1.328   6.222   6.287
 8754SOL    HW227162   1.266   6.372   6.300
 8755SOL     OW27163   0.298   2.028   1.914
 8755SOL    HW127164   0.272   1.981   1.830
 8755SOL    HW227165   0.270   2.124   1.909
 8756SOL     OW27166   1.537   1.800   2.349
 8756SOL    HW127167   1.470   1.874   2.342
 8756SOL    HW227168   1.625   1.832   2.313
 8757SOL     OW27169   5.434   5.783   4.531
 8757SOL    HW127170   5.492   5.725   4.588
 8757SOL    HW227171   5.404   5.862   4.584
 8758SOL     OW27172   3.487   4.769   6.308
 8758SOL    HW127173   3.450   4.778   6.216
 8758SOL    HW227174   3.447   4.838   6.367
 8759SOL     OW27175   6.747   1.361   1.663
 8759SOL    HW127176   6.761   1.314   1.750
 8759SOL    HW227177   6.662   1.328   1.620
 8760SOL     OW27178   1.565   2.855   4.519
 8760SOL    HW127179   1.636   2.900   4.574
 8760SOL    HW227180   1.505   2.924   4.479
 8761SOL     OW27181   5.157   3.058   3.343
 8761SOL    HW127182   5.072   3.069   3.293
 8761SOL    HW227183   5.224   3.125   3.311
 8762SOL     OW27184   4.021   6.141   2.470
 8762SOL    HW127185   3.961   6.155   2.549
 8762SOL    HW227186   4.083   6.219   2.461
 8763SOL     OW27187   6.854   1.918   5.278
 8763SOL    HW127188   6.814   1.867   5.202
 8763SOL    HW227189   6.935   1.870   5.312
 8764SOL     OW27190   2.794   5.644   6.044
 8764SOL    HW127191   2.730   5.703   6.095
 8764SOL    HW227192   2.834   5.577   6.106
 8765SOL     OW27193   4.387   0.012   3.711
 8765SOL    HW127194   4.455   0.010   3.638
 8765SOL    HW227195   4.410   6.967   3.780
 8766SOL     OW27196   6.048   7.009   4.663
 8766SOL    HW127197   6.081   6.940   4.728
 8766SOL    HW227198   6.104   0.068   4.671
 8767SOL     OW27199   1.864   1.344   4.501
 8767SOL    HW127200   1.889   1.441   4.509
 8767SOL    HW227201   1.774   1.337   4.458
 8768SOL     OW27202   0.118   2.201   1.248
 8768SOL    HW127203   0.208   2.233   1.277
 8768SOL    HW227204   0.068   2.166   1.327
 8769SOL     OW27205   6.904   6.918   6.735
 8769SOL    HW127206   6.961   6.999   6.744
 8769SOL    HW227207   6.961   6.837   6.721
 8770SOL     OW27208   4.636   1.823   0.682
 8770SOL    HW127209   4.548   1.839   0.727
 8770SOL    HW227210   4.660   1.727   0.689
 8771SOL     OW27211   1.225   2.938   6.812
 8771SOL    HW127212   1.151   2.958   6.748
 8771SOL    HW227213   1.209   2.986   6.899
 8772SOL     OW27214   0.609   6.489   3.471
 8772SOL    HW127215   0.572   6.401   3.442
 8772SOL    HW227216   0.561   6.562   3.423
 8773SOL     OW27217   6.786   1.680   4.201
 8773SOL    HW127218   6.772   1.774   4.230
 8773SOL    HW227219   6.704   1.626   4.221
 8774SOL     OW27220   1.583   2.398   0.101
 8774SOL    HW127221   1.596   2.458   0.021
 8774SOL    HW227222   1.590   2.303   0.072
 8775SOL     OW27223   4.941   2.225   2.389
 8775SOL    HW127224   4.994   2.302   2.353
 8775SOL    HW227225   4.855   2.259   2.428
 8776SOL     OW27226   5.162   3.560   1.481
 8776SOL    HW127227   5.141   3.570   1.578
 8776SOL    HW227228   5.242   3.502   1.470
 8777SOL     OW27229   6.211   2.258   4.154
 8777SOL    HW127230   6.123   2.290   4.119
 8777SOL    HW227231   6.282   2.274   4.085
 8778SOL     OW27232   1.599   4.245   6.499
 8778SOL    HW127233   1.679   4.232   6.441
 8778SOL    HW227234   1.619   4.314   6.568
 8779SOL     OW27235   3.948   6.481   2.613
 8779SOL    HW127236   3.926   6.428   2.694
 8779SOL    HW227237   3.993   6.567   2.639
 8780SOL     OW27238   0.869   3.627   4.745
 8780SOL    HW127239   0.787   3.591   4.790
 8780SOL    HW227240   0.951   3.591   4.791
 8781SOL     OW27241   4.058   1.745   1.948
 8781SOL    HW127242   3.983   1.716   1.889
 8781SOL    HW227243   4.035   1.832   1.991
 8782SOL     OW27244   6.500   2.681   6.986
 8782SOL    HW127245   6.415   2.630   6.976
 8782SOL    HW227246   6.493   2.743   0.041
 8783SOL     OW27247   3.937   3.917   5.878
 8783SOL    HW127248   3.857   3.892   5.932
 8783SOL    HW227249   3.930   4.013   5.849
 8784SOL     OW27250   4.465   1.170   5.919
 8784SOL    HW127251   4.412   1.094   5.882
 8784SOL    HW227252   4.441   1.254   5.870
 8785SOL     OW27253   6.830   6.365   6.631
 8785SOL    HW127254   6.741   6.319   6.634
 8785SOL    HW227255   6.822   6.454   6.677
 8786SOL     OW27256   5.784   2.214   3.029
 8786SOL    HW127257   5.780   2.124   2.985
 8786SOL    HW227258   5.693   2.256   3.028
 8787SOL     OW27259   3.475   5.215   2.556
 8787SOL    HW127260   3.409   5.141   2.544
 8787SOL    HW227261   3.467   5.252   2.649
 8788SOL     OW27262   0.187   6.868   3.685
 8788SOL    HW127263   0.103   6.902   3.642
 8788SOL    HW227264   0.163   6.804   3.758
 8789SOL     OW27265   2.011   3.184   0.173
 8789SOL    HW127266   2.081   3.147   0.234
 8789SOL    HW227267   1.995   3.121   0.098
 8790SOL     OW27268   4.971   3.105   5.252
 8790SOL    HW127269   5.043   3.173   5.241
 8790SOL    HW227270   4.930   3.084   5.163
 8791SOL     OW27271   4.086   6.360   5.201
 8791SOL    HW127272   4.097   6.394   5.294
 8791SOL    HW227273   4.131   6.422   5.137
 8792SOL     OW27274   5.550   4.530   0.894
 8792SOL    HW127275   5.649   4.541   0.895
 8792SOL    HW227276   5.516   4.518   0.987
 8793SOL     OW27277   6.747   0.379   5.649
 8793SOL    HW127278   6.807   0.309   5.688
 8793SOL    HW227279   6.800   0.459   5.625
 8794SOL     OW27280   0.024   2.918   3.596
 8794SOL    HW127281   7.013   2.976   3.523
 8794SOL    HW227282   6.986   2.840   3.609
 8795SOL     OW27283   1.293   0.639   6.958
 8795SOL    HW127284   1.295   0.737   6.942
 8795SOL    HW227285   1.198   0.607   6.961
 8796SOL     OW27286   5.599   5.278   4.544
 8796SOL    HW127287   5.593   5.178   4.535
 8796SOL    HW227288   5.562   5.320   4.461
 8797SOL     OW27289   5.611   5.814   5.116
 8797SOL    HW127290   5.636   5.856   5.029
 8797SOL    HW227291   5.532   5.754   5.104
 8798SOL     OW27292   1.732   5.466   6.908
 8798SOL    HW127293   1.702   5.387   6.854
 8798SOL    HW227294   1.770   5.434   6.995
 8799SOL     OW27295   1.626   6.258   2.077
 8799SOL    HW127296   1.669   6.175   2.113
 8799SOL    HW227297   1.641   6.334   2.140
 8800SOL     OW27298   6.485   6.293   4.157
 8800SOL    HW127299   6.548   6.229   4.201
 8800SOL    HW227300   6.536   6.351   4.093
 8801SOL     OW27301   4.788   3.175   5.838
 8801SOL    HW127302   4.794   3.275   5.847
 8801SOL    HW227303   4.700   3.150   5.799
 8802SOL     OW27304   1.110   6.853   0.231
 8802SOL    HW127305   1.189   6.810   0.275
 8802SOL    HW227306   1.129   6.951   0.217
 8803SOL     OW27307   4.653   4.635   5.278
 8803SOL    HW127308   4.647   4.688   5.193
 8803SOL    HW227309   4.740   4.585   5.279
 8804SOL     OW27310   2.159   6.322   1.881
 8804SOL    HW127311   2.200   6.370   1.959
 8804SOL    HW227312   2.159   6.223   1.900
 8805SOL     OW27313   4.379   4.897   1.153
 8805SOL    HW127314   4.386   4.996   1.162
 8805SOL    HW227315   4.437   4.853   1.221
 8806SOL     OW27316   1.564   1.618   1.954
 8806SOL    HW127317   1.657   1.586   1.938
 8806SOL    HW227318   1.565   1.717   1.972
 8807SOL     OW27319   5.909   2.193   1.729
 8807SOL    HW127320   5.926   2.120   1.795
 8807SOL    HW227321   5.866   2.154   1.647
 8808SOL     OW27322   1.654   1.393   0.745
 8808SOL    HW127323   1.669   1.324   0.675
 8808SOL    HW227324   1.609   1.350   0.824
 8809SOL     OW27325   0.648   3.118   2.882
 8809SOL    HW127326   0.694   3.085   2.965
 8809SOL    HW227327   0.716   3.148   2.816
 8810SOL     OW27328   5.964   2.320   4.027
 8810SOL    HW127329   5.871   2.291   4.007
 8810SOL    HW227330   6.013   2.337   3.941
 8811SOL     OW27331   3.985   5.549   2.708
 8811SOL    HW127332   4.074   5.504   2.706
 8811SOL    HW227333   3.922   5.503   2.645
 8812SOL     OW27334   5.493   0.899   0.349
 8812SOL    HW127335   5.474   0.879   0.445
 8812SOL    HW227336   5.423   0.855   0.291
 8813SOL     OW27337   1.308   2.847   1.941
 8813SOL    HW127338   1.375   2.862   1.868
 8813SOL    HW227339   1.280   2.751   1.941
 8814SOL     OW27340   6.162   6.389   5.092
 8814SOL    HW127341   6.214   6.454   5.035
 8814SOL    HW227342   6.067   6.388   5.062
 8815SOL     OW27343   4.916   0.585   1.136
 8815SOL    HW127344   4.929   0.523   1.213
 8815SOL    HW227345   4.830   0.564   1.090
 8816SOL     OW27346   0.343   1.004   2.658
 8816SOL    HW127347   0.278   1.069   2.697
 8816SOL    HW227348   0.352   0.926   2.719
 8817SOL     OW27349   0.956   2.196   4.218
 8817SOL    HW127350   0.886   2.184   4.148
 8817SOL    HW227351   0.914   2.228   4.303
 8818SOL     OW27352   1.146   5.942   6.606
 8818SOL    HW127353   1.177   5.996   6.684
 8818SOL    HW227354   1.046   5.943   6.602
 8819SOL     OW27355   5.278   6.368   6.153
 8819SOL    HW127356   5.315   6.450   6.111
 8819SOL    HW227357   5.341   6.335   6.224
 8820SOL     OW27358   3.517   6.474   5.692
 8820SOL    HW127359   3.576   6.499   5.768
 8820SOL    HW227360   3.563   6.407   5.634
 8821SOL     OW27361   1.585   5.554   5.456
 8821SOL    HW127362   1.682   5.576   5.461
 8821SOL    HW227363   1.553   5.565   5.361
 8822SOL     OW27364   6.696   0.465   4.945
 8822SOL    HW127365   6.742   0.377   4.955
 8822SOL    HW227366   6.602   0.458   4.980
 8823SOL     OW27367   3.988   2.226   3.387
 8823SOL    HW127368   3.978   2.141   3.334
 8823SOL    HW227369   4.077   2.267   3.368
 8824SOL     OW27370   1.837   0.417   4.393
 8824SOL    HW127371   1.899   0.434   4.316
 8824SOL    HW227372   1.812   0.505   4.434
 8825SOL     OW27373   1.579   6.691   0.746
 8825SOL    HW127374   1.532   6.665   0.831
 8825SOL    HW227375   1.580   6.791   0.739
 8826SOL     OW27376   0.502   3.959   0.109
 8826SOL    HW127377   0.505   3.924   0.202
 8826SOL    HW227378   0.463   3.891   0.048
 8827SOL     OW27379   5.107   5.727   4.050
 8827SOL    HW127380   5.039   5.797   4.073
 8827SOL    HW227381   5.102   5.653   4.116
 8828SOL     OW27382   5.327   2.379   5.786
 8828SOL    HW127383   5.287   2.293   5.817
 8828SOL    HW227384   5.310   2.391   5.688
 8829SOL     OW27385   6.543   0.716   2.912
 8829SOL    HW127386   6.532   0.634   2.969
 8829SOL    HW227387   6.565   0.794   2.970
 8830SOL     OW27388   2.706   0.947   2.515
 8830SOL    HW127389   2.720   0.982   2.607
 8830SOL    HW227390   2.656   1.014   2.460
 8831SOL     OW27391   1.094   2.460   3.062
 8831SOL    HW127392   1.008   2.492   3.102
 8831SOL    HW227393   1.171   2.505   3.107
 8832SOL     OW27394   5.700   0.165   4.587
 8832SOL    HW127395   5.753   0.106   4.648
 8832SOL    HW227396   5.762   0.209   4.521
 8833SOL     OW27397   4.743   3.287   1.001
 8833SOL    HW127398   4.683   3.280   1.080
 8833SOL    HW227399   4.744   3.200   0.952
 8834SOL     OW27400   6.444   4.553   5.650
 8834SOL    HW127401   6.516   4.619   5.631
 8834SOL    HW227402   6.444   4.531   5.748
 8835SOL     OW27403   6.829   1.056   5.604
 8835SOL    HW127404   6.895   1.057   5.679
 8835SOL    HW227405   6.736   1.059   5.640
 8836SOL     OW27406   4.569   1.884   1.124
 8836SOL    HW127407   4.582   1.856   1.028
 8836SOL    HW227408   4.472   1.903   1.140
 8837SOL     OW27409   5.673   4.862   0.124
 8837SOL    HW127410   5.690   4.957   0.149
 8837SOL    HW227411   5.580   4.852   0.089
 8838SOL     OW27412   1.563   3.512   2.164
 8838SOL    HW127413   1.610   3.461   2.092
 8838SOL    HW227414   1.500   3.452   2.212
 8839SOL     OW27415   4.522   4.344   1.284
 8839SOL    HW127416   4.550   4.263   1.336
 8839SOL    HW227417   4.422   4.354   1.291
 8840SOL     OW27418   0.345   0.366   1.425
 8840SOL    HW127419   0.315   0.390   1.332
 8840SOL    HW227420   0.267   0.332   1.477
 8841SOL     OW27421   4.548   2.171   0.274
 8841SOL    HW127422   4.550   2.091   0.334
 8841SOL    HW227423   4.485   2.239   0.310
 8842SOL     OW27424   2.989   3.240   3.949
 8842SOL    HW127425   2.990   3.200   4.040
 8842SOL    HW227426   3.043   3.184   3.887
 8843SOL     OW27427   2.537   6.417   4.732
 8843SOL    HW127428   2.482   6.336   4.751
 8843SOL    HW227429   2.568   6.416   4.637
 8844SOL     OW27430   4.225   2.678   5.373
 8844SOL    HW127431   4.217   2.611   5.299
 8844SOL    HW227432   4.162   2.654   5.446
 8845SOL     OW27433   0.377   4.034   2.649
 8845SOL    HW127434   0.301   3.988   2.695
 8845SOL    HW227435   0.435   4.078   2.718
 8846SOL     OW27436   6.006   5.546   4.792
 8846SOL    HW127437   6.089   5.595   4.768
 8846SOL    HW227438   5.947   5.605   4.848
 8847SOL     OW27439   0.931   2.335   3.701
 8847SOL    HW127440   1.003   2.377   3.646
 8847SOL    HW227441   0.879   2.407   3.747
 8848SOL     OW27442   5.699   2.589   1.075
 8848SOL    HW127443   5.782   2.625   1.032
 8848SOL    HW227444   5.660   2.658   1.136
 8849SOL     OW27445   3.455   5.087   4.615
 8849SOL    HW127446   3.518   5.096   4.692
 8849SOL    HW227447   3.390   5.014   4.633
 8850SOL     OW27448   3.781   2.335   0.777
 8850SOL    HW127449   3.738   2.394   0.845
 8850SOL    HW227450   3.880   2.337   0.788
 8851SOL     OW27451   6.773   5.829   2.987
 8851SOL    HW127452   6.863   5.844   3.028
 8851SOL    HW227453   6.758   5.731   2.974
 8852SOL     OW27454   5.725   4.026   4.788
 8852SOL    HW127455   5.648   3.966   4.768
 8852SOL    HW227456   5.690   4.115   4.817
 8853SOL     OW27457   4.857   1.867   4.643
 8853SOL    HW127458   4.928   1.878   4.712
 8853SOL    HW227459   4.895   1.885   4.553
 8854SOL     OW27460   3.116   0.316   6.292
 8854SOL    HW127461   3.194   0.379   6.283
 8854SOL    HW227462   3.150   0.224   6.311
 8855SOL     OW27463   6.561   4.829   6.291
 8855SOL    HW127464   6.595   4.897   6.226
 8855SOL    HW227465   6.629   4.755   6.301
 8856SOL     OW27466   5.196   1.774   5.406
 8856SOL    HW127467   5.214   1.835   5.482
 8856SOL    HW227468   5.100   1.747   5.406
 8857SOL     OW27469   1.963   3.241   4.272
 8857SOL    HW127470   1.932   3.282   4.358
 8857SOL    HW227471   1.885   3.196   4.227
 8858SOL     OW27472   0.634   3.367   5.549
 8858SOL    HW127473   0.588   3.287   5.588
 8858SOL    HW227474   0.733   3.356   5.557
 8859SOL     OW27475   2.543   6.445   5.050
 8859SOL    HW127476   2.537   6.350   5.081
 8859SOL    HW227477   2.620   6.455   4.988
 8860SOL     OW27478   1.823   1.557   2.000
 8860SOL    HW127479   1.906   1.611   2.009
 8860SOL    HW227480   1.798   1.518   2.089
 8861SOL     OW27481   1.902   1.623   0.157
 8861SOL    HW127482   1.940   1.530   0.168
 8861SOL    HW227483   1.975   1.684   0.126
 8862SOL     OW27484   6.727   2.556   4.339
 8862SOL    HW127485   6.810   2.610   4.356
 8862SOL    HW227486   6.733   2.470   4.388
 8863SOL     OW27487   2.341   5.523   5.278
 8863SOL    HW127488   2.254   5.537   5.325
 8863SOL    HW227489   2.406   5.594   5.307
 8864SOL     OW27490   1.743   4.822   5.698
 8864SOL    HW127491   1.814   4.779   5.641
 8864SOL    HW227492   1.785   4.857   5.782
 8865SOL     OW27493   2.640   1.895   5.599
 8865SOL    HW127494   2.541   1.904   5.601
 8865SOL    HW227495   2.679   1.942   5.679
 8866SOL     OW27496   4.670   0.441   5.341
 8866SOL    HW127497   4.593   0.452   5.403
 8866SOL    HW227498   4.747   0.497   5.373
 8867SOL     OW27499   5.728   0.617   3.453
 8867SOL    HW127500   5.763   0.573   3.371
 8867SOL    HW227501   5.804   0.643   3.512
 8868SOL     OW27502   5.645   2.854   0.117
 8868SOL    HW127503   5.686   2.945   0.107
 8868SOL    HW227504   5.601   2.848   0.207
 8869SOL     OW27505   2.960   1.884   2.934
 8869SOL    HW127506   2.900   1.938   2.874
 8869SOL    HW227507   3.032   1.841   2.879
 8870SOL     OW27508   4.202   6.957   1.866
 8870SOL    HW127509   4.244   6.966   1.956
 8870SOL    HW227510   4.273   6.938   1.798
 8871SOL     OW27511   1.696   2.080   4.318
 8871SOL    HW127512   1.674   2.149   4.386
 8871SOL    HW227513   1.795   2.076   4.305
 8872SOL     OW27514   1.102   1.768   2.471
 8872SOL    HW127515   1.150   1.839   2.523
 8872SOL    HW227516   1.045   1.714   2.533
 8873SOL     OW27517   6.745   5.409   5.209
 8873SOL    HW127518   6.819   5.366   5.260
 8873SOL    HW227519   6.679   5.339   5.181
 8874SOL     OW27520   1.479   1.282   6.330
 8874SOL    HW127521   1.413   1.232   6.274
 8874SOL    HW227522   1.429   1.340   6.395
 8875SOL     OW27523   1.373   1.181   3.921
 8875SOL    HW127524   1.446   1.123   3.958
 8875SOL    HW227525   1.369   1.266   3.973
 8876SOL     OW27526   2.405   1.169   5.087
 8876SOL    HW127527   2.473   1.202   5.152
 8876SOL    HW227528   2.339   1.243   5.068
 8877SOL     OW27529   3.164   6.753   4.383
 8877SOL    HW127530   3.134   6.657   4.381
 8877SOL    HW227531   3.106   6.805   4.446
 8878SOL     OW27532   6.165   4.684   5.363
 8878SOL    HW127533   6.101   4.610   5.385
 8878SOL    HW227534   6.248   4.646   5.323
 8879SOL     OW27535   5.635   5.662   4.658
 8879SOL    HW127536   5.688   5.744   4.680
 8879SOL    HW227537   5.604   5.619   4.742
 8880SOL     OW27538   1.036   6.779   4.912
 8880SOL    HW127539   0.950   6.730   4.922
 8880SOL    HW227540   1.042   6.818   4.821
 8881SOL     OW27541   0.048   2.154   2.590
 8881SOL    HW127542   6.974   2.137   2.595
 8881SOL    HW227543   0.097   2.067   2.595
 8882SOL     OW27544   5.659   2.462   0.423
 8882SOL    HW127545   5.729   2.531   0.443
 8882SOL    HW227546   5.573   2.507   0.401
 8883SOL     OW27547   5.766   1.420   5.412
 8883SOL    HW127548   5.773   1.389   5.507
 8883SOL    HW227549   5.674   1.456   5.396
 8884SOL     OW27550   0.259   1.442   6.406
 8884SOL    HW127551   0.171   1.438   6.454
 8884SOL    HW227552   0.295   1.350   6.394
 8885SOL     OW27553   6.013   3.844   0.975
 8885SOL    HW127554   6.003   3.882   0.884
 8885SOL    HW227555   6.105   3.807   0.986
 8886SOL     OW27556   2.972   5.963   5.734
 8886SOL    HW127557   2.899   5.928   5.793
 8886SOL    HW227558   3.053   5.905   5.741
 8887SOL     OW27559   1.438   1.094   1.168
 8887SOL    HW127560   1.381   1.125   1.244
 8887SOL    HW227561   1.488   1.012   1.196
 8888SOL     OW27562   2.553   2.511   2.915
 8888SOL    HW127563   2.495   2.434   2.889
 8888SOL    HW227564   2.577   2.504   3.012
 8889SOL     OW27565   3.552   1.425   4.637
 8889SOL    HW127566   3.496   1.461   4.711
 8889SOL    HW227567   3.562   1.326   4.648
 8890SOL     OW27568   6.810   4.986   3.767
 8890SOL    HW127569   6.887   4.958   3.710
 8890SOL    HW227570   6.732   4.926   3.750
 8891SOL     OW27571   3.553   1.513   6.392
 8891SOL    HW127572   3.614   1.582   6.430
 8891SOL    HW227573   3.577   1.423   6.427
 8892SOL     OW27574   1.083   6.972   2.993
 8892SOL    HW127575   1.090   6.963   2.894
 8892SOL    HW227576   1.132   0.031   3.023
 8893SOL     OW27577   0.346   1.036   0.378
 8893SOL    HW127578   0.272   1.015   0.315
 8893SOL    HW227579   0.400   0.954   0.395
 8894SOL     OW27580   4.608   1.818   5.771
 8894SOL    HW127581   4.665   1.898   5.789
 8894SOL    HW227582   4.576   1.820   5.676
 8895SOL     OW27583   1.293   0.949   3.217
 8895SOL    HW127584   1.221   0.938   3.285
 8895SOL    HW227585   1.283   1.038   3.173
 8896SOL     OW27586   1.438   4.246   5.096
 8896SOL    HW127587   1.429   4.158   5.144
 8896SOL    HW227588   1.510   4.300   5.140
 8897SOL     OW27589   1.092   2.217   2.053
 8897SOL    HW127590   1.187   2.223   2.024
 8897SOL    HW227591   1.080   2.266   2.139
 8898SOL     OW27592   6.614   3.024   5.328
 8898SOL    HW127593   6.631   2.964   5.250
 8898SOL    HW227594   6.587   2.968   5.407
 8899SOL     OW27595   3.575   5.704   2.156
 8899SOL    HW127596   3.495   5.677   2.104
 8899SOL    HW227597   3.657   5.696   2.099
 8900SOL     OW27598   6.828   1.739   3.422
 8900SOL    HW127599   6.848   1.649   3.460
 8900SOL    HW227600   6.755   1.730   3.354
 8901SOL     OW27601   1.795   0.087   1.958
 8901SOL    HW127602   1.814   0.182   1.981
 8901SOL    HW227603   1.808   0.072   1.860
 8902SOL     OW27604   3.682   6.555   5.915
 8902SOL    HW127605   3.708   6.500   5.994
 8902SOL    HW227606   3.763   6.576   5.861
 8903SOL     OW27607   6.901   1.215   2.876
 8903SOL    HW127608   6.839   1.235   2.952
 8903SOL    HW227609   6.851   1.167   2.803
 8904SOL     OW27610   1.233   3.638   4.032
 8904SOL    HW127611   1.302   3.570   4.059
 8904SOL    HW227612   1.172   3.598   3.964
 8905SOL     OW27613   1.842   4.230   4.917
 8905SOL    HW127614   1.923   4.203   4.970
 8905SOL    HW227615   1.871   4.278   4.834
 8906SOL     OW27616   2.371   5.331   4.641
 8906SOL    HW127617   2.425   5.356   4.560
 8906SOL    HW227618   2.432   5.310   4.717
 8907SOL     OW27619   3.528   2.470   6.085
 8907SOL    HW127620   3.624   2.480   6.111
 8907SOL    HW227621   3.471   2.481   6.166
 8908SOL     OW27622   0.692   3.407   3.010
 8908SOL    HW127623   0.706   3.389   3.107
 8908SOL    HW227624   0.706   3.323   2.958
 8909SOL     OW27625   3.514   6.680   5.505
 8909SOL    HW127626   3.512   6.770   5.547
 8909SOL    HW227627   3.529   6.610   5.576
 8910SOL     OW27628   4.186   2.522   0.272
 8910SOL    HW127629   4.275   2.541   0.231
 8910SOL    HW227630   4.117   2.578   0.228
 8911SOL     OW27631   5.196   2.595   4.138
 8911SOL    HW127632   5.176   2.566   4.045
 8911SOL    HW227633   5.154   2.532   4.203
 8912SOL     OW27634   4.312   1.291   0.123
 8912SOL    HW127635   4.258   1.252   0.049
 8912SOL    HW227636   4.331   1.220   0.191
 8913SOL     OW27637   4.134   4.195   0.840
 8913SOL    HW127638   4.129   4.129   0.765
 8913SOL    HW227639   4.141   4.287   0.801
 8914SOL     OW27640   4.979   2.711   3.910
 8914SOL    HW127641   4.999   2.621   3.948
 8914SOL    HW227642   5.050   2.737   3.844
 8915SOL     OW27643   0.747   5.368   2.168
 8915SOL    HW127644   0.788   5.291   2.216
 8915SOL    HW227645   0.747   5.448   2.227
 8916SOL     OW27646   5.757   3.314   1.877
 8916SOL    HW127647   5.759   3.339   1.780
 8916SOL    HW227648   5.674   3.262   1.897
 8917SOL     OW27649   5.422   4.187   5.855
 8917SOL    HW127650   5.485   4.187   5.933
 8917SOL    HW227651   5.394   4.281   5.836
 8918SOL     OW27652   4.915   3.872   5.945
 8918SOL    HW127653   4.971   3.847   6.024
 8918SOL    HW227654   4.974   3.891   5.867
 8919SOL     OW27655   1.835   3.372   1.438
 8919SOL    HW127656   1.815   3.452   1.381
 8919SOL    HW227657   1.750   3.334   1.474
 8920SOL     OW27658   6.340   5.581   6.096
 8920SOL    HW127659   6.291   5.494   6.100
 8920SOL    HW227660   6.413   5.582   6.164
 8921SOL     OW27661   0.973   5.620   3.750
 8921SOL    HW127662   1.009   5.580   3.666
 8921SOL    HW227663   0.993   5.718   3.751
 8922SOL     OW27664   0.705   3.023   6.634
 8922SOL    HW127665   0.647   3.033   6.715
 8922SOL    HW227666   0.782   2.963   6.655
 8923SOL     OW27667   2.160   4.701   4.265
 8923SOL    HW127668   2.180   4.637   4.340
 8923SOL    HW227669   2.086   4.762   4.293
 8924SOL     OW27670   2.140   6.775   4.324
 8924SOL    HW127671   2.053   6.725   4.321
 8924SOL    HW227672   2.204   6.726   4.383
 8925SOL     OW27673   4.393   5.410   0.745
 8925SOL    HW127674   4.433   5.367   0.826
 8925SOL    HW227675   4.335   5.487   0.773
 8926SOL     OW27676   5.661   0.166   0.141
 8926SOL    HW127677   5.662   0.159   0.240
 8926SOL    HW227678   5.751   0.195   0.109
 8927SOL     OW27679   2.795   2.273   4.812
 8927SOL    HW127680   2.786   2.317   4.723
 8927SOL    HW227681   2.795   2.173   4.800
 8928SOL     OW27682   1.225   0.314   5.258
 8928SOL    HW127683   1.256   0.241   5.318
 8928SOL    HW227684   1.148   0.281   5.202
 8929SOL     OW27685   5.020   4.405   3.161
 8929SOL    HW127686   4.951   4.349   3.207
 8929SOL    HW227687   5.012   4.391   3.062
 8930SOL     OW27688   0.369   5.504   5.363
 8930SOL    HW127689   0.364   5.413   5.405
 8930SOL    HW227690   0.415   5.496   5.274
 8931SOL     OW27691   4.670   0.857   1.951
 8931SOL    HW127692   4.623   0.879   1.865
 8931SOL    HW227693   4.609   0.877   2.028
 8932SOL     OW27694   4.534   0.806   0.481
 8932SOL    HW127695   4.580   0.840   0.563
 8932SOL    HW227696   4.513   0.883   0.420
 8933SOL     OW27697   1.761   6.850   5.416
 8933SOL    HW127698   1.853   6.863   5.379
 8933SOL    HW227699   1.714   6.778   5.366
 8934SOL     OW27700   3.562   6.521   4.086
 8934SOL    HW127701   3.620   6.601   4.101
 8934SOL    HW227702   3.536   6.515   3.990
 8935SOL     OW27703   5.665   2.194   2.577
 8935SOL    HW127704   5.632   2.284   2.604
 8935SOL    HW227705   5.757   2.179   2.614
 8936SOL     OW27706   1.304   3.938   1.897
 8936SOL    HW127707   1.355   3.905   1.976
 8936SOL    HW227708   1.349   3.906   1.813
 8937SOL     OW27709   2.942   6.719   5.012
 8937SOL    HW127710   2.859   6.774   5.025
 8937SOL    HW227711   2.978   6.692   5.101
 8938SOL     OW27712   5.097   6.763   1.870
 8938SOL    HW127713   5.116   6.721   1.781
 8938SOL    HW227714   5.031   6.838   1.858
 8939SOL     OW27715   6.405   3.101   4.492
 8939SOL    HW127716   6.323   3.158   4.506
 8939SOL    HW227717   6.378   3.011   4.458
 8940SOL     OW27718   6.197   3.639   2.498
 8940SOL    HW127719   6.197   3.696   2.417
 8940SOL    HW227720   6.114   3.656   2.551
 8941SOL     OW27721   5.815   2.353   3.303
 8941SOL    HW127722   5.803   2.308   3.215
 8941SOL    HW227723   5.727   2.363   3.348
 8942SOL     OW27724   5.078   5.740   4.394
 8942SOL    HW127725   5.031   5.748   4.482
 8942SOL    HW227726   5.119   5.828   4.370
 8943SOL     OW27727   4.087   3.776   0.556
 8943SOL    HW127728   4.138   3.758   0.639
 8943SOL    HW227729   4.032   3.696   0.532
 8944SOL     OW27730   4.515   5.782   5.370
 8944SOL    HW127731   4.538   5.863   5.316
 8944SOL    HW227732   4.533   5.700   5.316
 8945SOL     OW27733   6.640   4.897   1.884
 8945SOL    HW127734   6.544   4.905   1.855
 8945SOL    HW227735   6.644   4.840   1.967
 8946SOL     OW27736   3.444   1.810   4.060
 8946SOL    HW127737   3.456   1.900   4.019
 8946SOL    HW227738   3.533   1.776   4.092
 8947SOL     OW27739   2.575   5.584   0.543
 8947SOL    HW127740   2.648   5.649   0.563
 8947SOL    HW227741   2.541   5.545   0.628
 8948SOL     OW27742   5.464   0.471   2.686
 8948SOL    HW127743   5.386   0.534   2.689
 8948SOL    HW227744   5.511   0.479   2.598
 8949SOL     OW27745   4.286   6.260   0.687
 8949SOL    HW127746   4.345   6.303   0.619
 8949SOL    HW227747   4.227   6.193   0.641
 8950SOL     OW27748   3.859   3.791   3.580
 8950SOL    HW127749   3.938   3.796   3.519
 8950SOL    HW227750   3.776   3.777   3.526
 8951SOL     OW27751   0.908   0.801   3.913
 8951SOL    HW127752   0.867   0.823   3.825
 8951SOL    HW227753   0.992   0.855   3.925
 8952SOL     OW27754   1.363   3.759   4.787
 8952SOL    HW127755   1.368   3.852   4.752
 8952SOL    HW227756   1.436   3.745   4.854
 8953SOL     OW27757   0.663   5.665   0.909
 8953SOL    HW127758   0.704   5.752   0.934
 8953SOL    HW227759   0.733   5.605   0.869
 8954SOL     OW27760   2.356   4.479   5.444
 8954SOL    HW127761   2.330   4.573   5.424
 8954SOL    HW227762   2.412   4.443   5.368
 8955SOL     OW27763   5.845   3.169   5.940
 8955SOL    HW127764   5.910   3.115   5.993
 8955SOL    HW227765   5.873   3.169   5.844
 8956SOL     OW27766   0.906   6.310   1.279
 8956SOL    HW127767   0.930   6.235   1.217
 8956SOL    HW227768   0.975   6.316   1.351
 8957SOL     OW27769   0.696   6.897   3.485
 8957SOL    HW127770   0.625   6.862   3.547
 8957SOL    HW227771   0.666   6.982   3.444
 8958SOL     OW27772   6.866   3.202   4.928
 8958SOL    HW127773   6.922   3.236   5.003
 8958SOL    HW227774   6.875   3.263   4.849
 8959SOL     OW27775   5.163   1.405   3.883
 8959SOL    HW127776   5.176   1.399   3.982
 8959SOL    HW227777   5.181   1.315   3.841
 8960SOL     OW27778   4.420   5.913   2.401
 8960SOL    HW127779   4.441   6.008   2.426
 8960SOL    HW227780   4.332   5.910   2.355
 8961SOL     OW27781   2.354   1.663   5.670
 8961SOL    HW127782   2.278   1.671   5.735
 8961SOL    HW227783   2.363   1.748   5.618
 8962SOL     OW27784   6.949   6.325   1.144
 8962SOL    HW127785   6.852   6.351   1.152
 8962SOL    HW227786   6.986   6.305   1.234
 8963SOL     OW27787   2.378   5.088   6.151
 8963SOL    HW127788   2.364   5.123   6.244
 8963SOL    HW227789   2.474   5.098   6.125
 8964SOL     OW27790   1.287   2.847   4.193
 8964SOL    HW127791   1.334   2.760   4.179
 8964SOL    HW227792   1.342   2.905   4.253
 8965SOL     OW27793   2.902   5.821   6.750
 8965SOL    HW127794   2.968   5.882   6.793
 8965SOL    HW227795   2.929   5.726   6.767
 8966SOL     OW27796   4.894   0.299   5.689
 8966SOL    HW127797   4.825   0.330   5.623
 8966SOL    HW227798   4.922   0.206   5.666
 8967SOL     OW27799   2.539   0.598   3.535
 8967SOL    HW127800   2.636   0.591   3.511
 8967SOL    HW227801   2.484   0.570   3.456
 8968SOL     OW27802   3.114   5.397   1.999
 8968SOL    HW127803   3.114   5.298   1.988
 8968SOL    HW227804   3.028   5.426   2.040
 8969SOL     OW27805   6.785   1.425   2.130
 8969SOL    HW127806   6.818   1.492   2.064
 8969SOL    HW227807   6.862   1.376   2.171
 8970SOL     OW27808   2.281   1.731   4.637
 8970SOL    HW127809   2.208   1.778   4.687
 8970SOL    HW227810   2.305   1.785   4.556
 8971SOL     OW27811   3.501   5.182   1.440
 8971SOL    HW127812   3.597   5.189   1.413
 8971SOL    HW227813   3.459   5.273   1.435
 8972SOL     OW27814   5.821   3.866   6.047
 8972SOL    HW127815   5.753   3.794   6.033
 8972SOL    HW227816   5.842   3.872   6.145
 8973SOL     OW27817   2.516   1.646   3.406
 8973SOL    HW127818   2.614   1.660   3.392
 8973SOL    HW227819   2.475   1.608   3.322
 8974SOL     OW27820   1.603   4.787   5.012
 8974SOL    HW127821   1.551   4.716   4.965
 8974SOL    HW227822   1.598   4.772   5.110
 8975SOL     OW27823   0.578   3.920   6.229
 8975SOL    HW127824   0.586   3.915   6.329
 8975SOL    HW227825   0.569   4.016   6.201
 8976SOL     OW27826   5.932   0.255   1.338
 8976SOL    HW127827   5.853   0.209   1.378
 8976SOL    HW227828   6.016   0.220   1.380
 8977SOL     OW27829   0.533   5.189   5.592
 8977SOL    HW127830   0.457   5.205   5.654
 8977SOL    HW227831   0.552   5.091   5.587
 8978SOL     OW27832   6.661   5.048   5.418
 8978SOL    HW127833   6.663   4.948   5.416
 8978SOL    HW227834   6.578   5.079   5.466
 8979SOL     OW27835   1.556   4.284   3.357
 8979SOL    HW127836   1.522   4.364   3.306
 8979SOL    HW227837   1.653   4.296   3.377
 8980SOL     OW27838   5.119   0.794   0.336
 8980SOL    HW127839   5.178   0.727   0.381
 8980SOL    HW227840   5.031   0.750   0.314
 8981SOL     OW27841   4.001   2.341   6.595
 8981SOL    HW127842   4.015   2.406   6.521
 8981SOL    HW227843   4.077   2.277   6.598
 8982SOL     OW27844   0.687   0.928   2.789
 8982SOL    HW127845   0.692   0.830   2.773
 8982SOL    HW227846   0.591   0.957   2.793
 8983SOL     OW27847   1.341   6.588   2.601
 8983SOL    HW127848   1.431   6.594   2.645
 8983SOL    HW227849   1.345   6.631   2.511
 8984SOL     OW27850   5.980   0.914   3.654
 8984SOL    HW127851   5.894   0.957   3.682
 8984SOL    HW227852   6.051   0.936   3.721
 8985SOL     OW27853   5.174   0.138   1.646
 8985SOL    HW127854   5.271   0.115   1.638
 8985SOL    HW227855   5.163   0.237   1.653
 8986SOL     OW27856   0.903   6.797   6.442
 8986SOL    HW127857   0.885   6.713   6.492
 8986SOL    HW227858   0.964   6.779   6.365
 8987SOL     OW27859   2.751   6.474   2.245
 8987SOL    HW127860   2.740   6.451   2.342
 8987SOL    HW227861   2.665   6.514   2.211
 8988SOL     OW27862   2.391   6.824   0.889
 8988SOL    HW127863   2.479   6.855   0.926
 8988SOL    HW227864   2.389   6.724   0.890
 8989SOL     OW27865   6.426   1.117   2.489
 8989SOL    HW127866   6.410   1.216   2.489
 8989SOL    HW227867   6.391   1.077   2.404
 8990SOL     OW27868   3.756   1.106   3.005
 8990SOL    HW127869   3.823   1.065   2.943
 8990SOL    HW227870   3.780   1.084   3.100
 8991SOL     OW27871   1.423   2.008   0.875
 8991SOL    HW127872   1.496   2.021   0.941
 8991SOL    HW227873   1.421   2.085   0.811
 8992SOL     OW27874   0.990   5.295   5.147
 8992SOL    HW127875   0.984   5.356   5.068
 8992SOL    HW227876   1.034   5.209   5.120
 8993SOL     OW27877   5.557   4.120   3.988
 8993SOL    HW127878   5.541   4.218   4.001
 8993SOL    HW227879   5.583   4.103   3.893
 8994SOL     OW27880   1.694   5.992   2.138
 8994SOL    HW127881   1.599   5.962   2.148
 8994SOL    HW227882   1.742   5.982   2.225
 8995SOL     OW27883   2.175   4.092   3.790
 8995SOL    HW127884   2.149   4.068   3.884
 8995SOL    HW227885   2.247   4.161   3.792
 8996SOL     OW27886   2.713   3.299   1.001
 8996SOL    HW127887   2.686   3.389   1.035
 8996SOL    HW227888   2.782   3.260   1.061
 8997SOL     OW27889   4.464   1.734   4.702
 8997SOL    HW127890   4.544   1.743   4.762
 8997SOL    HW227891   4.399   1.807   4.722
 8998SOL     OW27892   0.900   1.666   6.895
 8998SOL    HW127893   0.981   1.692   6.844
 8998SOL    HW227894   0.922   1.662   6.992
 8999SOL     OW27895   5.701   2.825   5.774
 8999SOL    HW127896   5.649   2.743   5.752
 8999SOL    HW227897   5.697   2.889   5.697
 9000SOL     OW27898   4.966   4.965   1.459
 9000SOL    HW127899   4.926   4.996   1.373
 9000SOL    HW227900   4.893   4.954   1.527
 9001SOL     OW27901   0.980   3.090   4.368
 9001SOL    HW127902   0.895   3.062   4.323
 9001SOL    HW227903   1.058   3.068   4.309
 9002SOL     OW27904   4.907   2.658   5.496
 9002SOL    HW127905   4.896   2.630   5.592
 9002SOL    HW227906   4.823   2.702   5.464
 9003SOL     OW27907   0.291   3.406   6.741
 9003SOL    HW127908   0.385   3.433   6.760
 9003SOL    HW227909   0.277   3.311   6.769
 9004SOL     OW27910   4.834   5.803   0.266
 9004SOL    HW127911   4.847   5.745   0.185
 9004SOL    HW227912   4.924   5.829   0.302
 9005SOL     OW27913   4.897   3.818   3.791
 9005SOL    HW127914   4.866   3.776   3.876
 9005SOL    HW227915   4.988   3.784   3.768
 9006SOL     OW27916   3.184   6.502   1.923
 9006SOL    HW127917   3.202   6.404   1.925
 9006SOL    HW227918   3.089   6.518   1.896
 9007SOL     OW27919   1.847   6.187   5.742
 9007SOL    HW127920   1.871   6.276   5.779
 9007SOL    HW227921   1.901   6.169   5.660
 9008SOL     OW27922   0.261   4.522   2.239
 9008SOL    HW127923   0.273   4.449   2.307
 9008SOL    HW227924   0.323   4.506   2.162
 9009SOL     OW27925   4.015   6.430   0.107
 9009SOL    HW127926   3.983   6.339   0.133
 9009SOL    HW227927   4.111   6.441   0.136
 9010SOL     OW27928   6.943   5.848   4.568
 9010SOL    HW127929   0.003   5.865   4.516
 9010SOL    HW227930   6.942   5.752   4.597
 9011SOL     OW27931   4.495   2.552   1.749
 9011SOL    HW127932   4.451   2.468   1.717
 9011SOL    HW227933   4.593   2.534   1.762
 9012SOL     OW27934   4.341   5.100   2.944
 9012SOL    HW127935   4.326   5.063   3.036
 9012SOL    HW227936   4.258   5.092   2.890
 9013SOL     OW27937   3.784   5.956   1.942
 9013SOL    HW127938   3.753   5.987   2.031
 9013SOL    HW227939   3.883   5.970   1.935
 9014SOL     OW27940   2.513   1.126   1.955
 9014SOL    HW127941   2.413   1.129   1.962
 9014SOL    HW227942   2.548   1.056   2.017
 9015SOL     OW27943   6.205   2.419   4.774
 9015SOL    HW127944   6.302   2.406   4.752
 9015SOL    HW227945   6.168   2.495   4.721
 9016SOL     OW27946   6.921   5.448   6.530
 9016SOL    HW127947   6.877   5.534   6.553
 9016SOL    HW227948   6.856   5.373   6.540
 9017SOL     OW27949   6.184   3.094   2.797
 9017SOL    HW127950   6.241   3.159   2.848
 9017SOL    HW227951   6.229   3.072   2.711
 9018SOL     OW27952   5.058   1.481   6.993
 9018SOL    HW127953   5.102   1.557   6.945
 9018SOL    HW227954   5.014   1.421   6.927
 9019SOL     OW27955   1.883   5.470   0.142
 9019SOL    HW127956   1.861   5.564   0.169
 9019SOL    HW227957   1.961   5.438   0.196
 9020SOL     OW27958   1.070   5.231   4.499
 9020SOL    HW127959   1.136   5.269   4.434
 9020SOL    HW227960   1.059   5.295   4.575
 9021SOL     OW27961   6.156   5.430   5.487
 9021SOL    HW127962   6.081   5.365   5.471
 9021SOL    HW227963   6.174   5.481   5.402
 9022SOL     OW27964   1.729   0.071   6.205
 9022SOL    HW127965   1.796   0.112   6.144
 9022SOL    HW227966   1.768   0.061   6.296
 9023SOL     OW27967   3.622   3.890   4.318
 9023SOL    HW127968   3.616   3.930   4.409
 9023SOL    HW227969   3.702   3.927   4.270
 9024SOL     OW27970   0.939   0.093   0.121
 9024SOL    HW127971   1.022   0.143   0.145
 9024SOL    HW227972   0.907   0.041   0.200
 9025SOL     OW27973   0.470   3.020   0.201
 9025SOL    HW127974   0.396   3.044   0.264
 9025SOL    HW227975   0.509   3.104   0.162
 9026SOL     OW27976   2.862   3.713   5.942
 9026SOL    HW127977   2.834   3.630   5.895
 9026SOL    HW227978   2.955   3.701   5.977
 9027SOL     OW27979   1.648   3.341   2.488
 9027SOL    HW127980   1.728   3.398   2.469
 9027SOL    HW227981   1.663   3.249   2.452
 9028SOL     OW27982   1.952   4.373   4.708
 9028SOL    HW127983   2.017   4.381   4.633
 9028SOL    HW227984   1.893   4.454   4.710
 9029SOL     OW27985   5.495   5.472   3.015
 9029SOL    HW127986   5.588   5.502   3.037
 9029SOL    HW227987   5.468   5.399   3.078
 9030SOL     OW27988   4.732   2.565   2.967
 9030SOL    HW127989   4.679   2.552   3.050
 9030SOL    HW227990   4.750   2.662   2.953
 9031SOL     OW27991   2.643   1.001   2.132
 9031SOL    HW127992   2.738   0.976   2.114
 9031SOL    HW227993   2.639   1.054   2.217
 9032SOL     OW27994   0.333   3.721   2.825
 9032SOL    HW127995   0.307   3.787   2.895
 9032SOL    HW227996   0.272   3.731   2.746
 9033SOL     OW27997   1.220   3.807   2.403
 9033SOL    HW127998   1.200   3.711   2.383
 9033SOL    HW227999   1.280   3.812   2.483
 9034SOL     OW28000   1.547   6.744   0.155
 9034SOL    HW128001   1.607   6.775   0.081
 9034SOL    HW228002   1.528   6.646   0.144
 9035SOL     OW28003   6.333   1.247   4.135
 9035SOL    HW128004   6.425   1.210   4.137
 9035SOL    HW228005   6.276   1.198   4.202
 9036SOL     OW28006   0.324   1.532   5.001
 9036SOL    HW128007   0.330   1.630   4.987
 9036SOL    HW228008   0.341   1.484   4.915
 9037SOL     OW28009   2.500   4.580   5.655
 9037SOL    HW128010   2.444   4.540   5.583
 9037SOL    HW228011   2.570   4.513   5.683
 9038SOL     OW28012   3.948   5.485   5.649
 9038SOL    HW128013   4.033   5.473   5.596
 9038SOL    HW228014   3.870   5.485   5.586
 9039SOL     OW28015   2.812   5.037   0.001
 9039SOL    HW128016   2.713   5.044   7.013
 9039SOL    HW228017   2.842   5.101   0.072
 9040SOL     OW28018   3.256   0.986   2.320
 9040SOL    HW128019   3.273   1.084   2.320
 9040SOL    HW228020   3.189   0.965   2.249
 9041SOL     OW28021   2.173   2.660   5.595
 9041SOL    HW128022   2.242   2.715   5.550
 9041SOL    HW228023   2.097   2.643   5.532
 9042SOL     OW28024   1.867   5.371   2.221
 9042SOL    HW128025   1.821   5.414   2.143
 9042SOL    HW228026   1.946   5.319   2.189
 9043SOL     OW28027   0.511   1.650   7.019
 9043SOL    HW128028   0.450   1.608   6.952
 9043SOL    HW228029   0.553   1.579   0.052
 9044SOL     OW28030   0.510   4.112   0.597
 9044SOL    HW128031   0.539   4.075   0.685
 9044SOL    HW228032   0.436   4.178   0.611
 9045SOL     OW28033   2.249   4.980   4.773
 9045SOL    HW128034   2.342   5.003   4.744
 9045SOL    HW228035   2.185   4.996   4.698
 9046SOL     OW28036   3.359   3.973   5.829
 9046SOL    HW128037   3.308   3.957   5.914
 9046SOL    HW228038   3.457   3.964   5.847
 9047SOL     OW28039   0.689   4.145   4.419
 9047SOL    HW128040   0.677   4.080   4.494
 9047SOL    HW228041   0.737   4.101   4.343
 9048SOL     OW28042   1.588   2.774   5.088
 9048SOL    HW128043   1.556   2.811   5.000
 9048SOL    HW228044   1.680   2.738   5.077
 9049SOL     OW28045   4.747   6.200   5.823
 9049SOL    HW128046   4.779   6.108   5.799
 9049SOL    HW228047   4.669   6.224   5.765
 9050SOL     OW28048   0.136   4.114   6.063
 9050SOL    HW128049   0.142   4.016   6.044
 9050SOL    HW228050   0.185   4.165   5.992
 9051SOL     OW28051   6.489   6.643   6.588
 9051SOL    HW128052   6.463   6.736   6.564
 9051SOL    HW228053   6.588   6.639   6.605
 9052SOL     OW28054   2.519   4.970   4.722
 9052SOL    HW128055   2.553   4.974   4.628
 9052SOL    HW228056   2.566   4.898   4.772
 9053SOL     OW28057   1.740   0.785   2.630
 9053SOL    HW128058   1.826   0.824   2.662
 9053SOL    HW228059   1.683   0.761   2.708
 9054SOL     OW28060   1.499   0.215   1.489
 9054SOL    HW128061   1.403   0.221   1.516
 9054SOL    HW228062   1.532   0.306   1.464
 9055SOL     OW28063   1.561   2.367   5.043
 9055SOL    HW128064   1.607   2.362   5.132
 9055SOL    HW228065   1.472   2.412   5.054
 9056SOL     OW28066   5.444   2.189   1.634
 9056SOL    HW128067   5.496   2.123   1.689
 9056SOL    HW228068   5.442   2.277   1.680
 9057SOL     OW28069   3.538   6.694   6.585
 9057SOL    HW128070   3.537   6.604   6.629
 9057SOL    HW228071   3.563   6.683   6.488
 9058SOL     OW28072   2.173   3.059   3.696
 9058SOL    HW128073   2.215   2.980   3.741
 9058SOL    HW228074   2.117   3.109   3.762
 9059SOL     OW28075   6.961   0.680   2.291
 9059SOL    HW128076   6.954   0.700   2.389
 9059SOL    HW228077   6.900   0.604   2.269
 9060SOL     OW28078   0.064   4.707   0.101
 9060SOL    HW128079   0.046   4.744   0.010
 9060SOL    HW228080   0.045   4.609   0.103
 9061SOL     OW28081   4.553   4.636   2.671
 9061SOL    HW128082   4.475   4.596   2.719
 9061SOL    HW228083   4.528   4.727   2.638
 9062SOL     OW28084   7.018   6.144   3.026
 9062SOL    HW128085   6.939   6.135   2.965
 9062SOL    HW228086   0.043   6.056   3.030
 9063SOL     OW28087   5.689   6.627   0.756
 9063SOL    HW128088   5.747   6.696   0.712
 9063SOL    HW228089   5.646   6.666   0.837
 9064SOL     OW28090   1.526   5.540   3.054
 9064SOL    HW128091   1.542   5.475   2.980
 9064SOL    HW228092   1.580   5.622   3.038
 9065SOL     OW28093   3.256   4.377   6.768
 9065SOL    HW128094   3.338   4.434   6.763
 9065SOL    HW228095   3.194   4.400   6.693
 9066SOL     OW28096   5.171   4.730   3.952
 9066SOL    HW128097   5.175   4.764   4.047
 9066SOL    HW228098   5.190   4.805   3.889
 9067SOL     OW28099   2.028   6.813   3.905
 9067SOL    HW128100   2.074   6.730   3.873
 9067SOL    HW228101   2.085   6.857   3.974
 9068SOL     OW28102   4.642   0.591   5.731
 9068SOL    HW128103   4.683   0.677   5.703
 9068SOL    HW228104   4.603   0.544   5.652
 9069SOL     OW28105   4.668   2.302   1.994
 9069SOL    HW128106   4.749   2.322   2.048
 9069SOL    HW228107   4.587   2.339   2.040
 9070SOL     OW28108   1.505   0.831   6.523
 9070SOL    HW128109   1.461   0.920   6.527
 9070SOL    HW228110   1.443   0.765   6.481
 9071SOL     OW28111   4.851   2.702   6.720
 9071SOL    HW128112   4.911   2.621   6.724
 9071SOL    HW228113   4.900   2.776   6.675
 9072SOL     OW28114   6.650   0.907   2.060
 9072SOL    HW128115   6.603   0.994   2.072
 9072SOL    HW228116   6.728   0.919   1.998
 9073SOL     OW28117   4.809   2.631   5.742
 9073SOL    HW128118   4.759   2.684   5.810
 9073SOL    HW228119   4.873   2.570   5.789
 9074SOL     OW28120   2.161   1.036   3.474
 9074SOL    HW128121   2.170   1.104   3.547
 9074SOL    HW228122   2.105   0.959   3.507
 9075SOL     OW28123   5.127   5.289   0.608
 9075SOL    HW128124   5.148   5.364   0.671
 9075SOL    HW228125   5.040   5.246   0.635
 9076SOL     OW28126   1.430   5.909   2.257
 9076SOL    HW128127   1.508   5.928   2.316
 9076SOL    HW228128   1.346   5.911   2.311
 9077SOL     OW28129   6.695   1.541   6.433
 9077SOL    HW128130   6.735   1.486   6.359
 9077SOL    HW228131   6.620   1.490   6.475
 9078SOL     OW28132   5.258   6.870   6.532
 9078SOL    HW128133   5.216   6.867   6.622
 9078SOL    HW228134   5.330   6.800   6.526
 9079SOL     OW28135   1.737   1.471   6.549
 9079SOL    HW128136   1.755   1.412   6.471
 9079SOL    HW228137   1.648   1.515   6.538
 9080SOL     OW28138   6.368   4.356   0.843
 9080SOL    HW128139   6.317   4.353   0.929
 9080SOL    HW228140   6.346   4.275   0.788
 9081SOL     OW28141   4.772   1.439   0.309
 9081SOL    HW128142   4.764   1.474   0.215
 9081SOL    HW228143   4.826   1.502   0.363
 9082SOL     OW28144   3.237   4.714   6.591
 9082SOL    HW128145   3.184   4.698   6.675
 9082SOL    HW228146   3.315   4.652   6.589
 9083SOL     OW28147   4.272   0.413   0.889
 9083SOL    HW128148   4.291   0.473   0.967
 9083SOL    HW228149   4.187   0.441   0.846
 9084SOL     OW28150   6.770   4.768   4.591
 9084SOL    HW128151   6.849   4.785   4.532
 9084SOL    HW228152   6.722   4.853   4.609
 9085SOL     OW28153   3.101   4.689   1.223
 9085SOL    HW128154   3.097   4.787   1.242
 9085SOL    HW228155   3.038   4.667   1.148
 9086SOL     OW28156   6.624   2.211   0.672
 9086SOL    HW128157   6.620   2.311   0.676
 9086SOL    HW228158   6.573   2.178   0.593
 9087SOL     OW28159   4.998   1.430   1.335
 9087SOL    HW128160   5.098   1.432   1.328
 9087SOL    HW228161   4.963   1.524   1.341
 9088SOL     OW28162   5.522   6.416   6.608
 9088SOL    HW128163   5.462   6.366   6.671
 9088SOL    HW228164   5.477   6.426   6.519
 9089SOL     OW28165   5.217   5.709   2.875
 9089SOL    HW128166   5.268   5.647   2.816
 9089SOL    HW228167   5.194   5.662   2.961
 9090SOL     OW28168   5.907   5.697   4.972
 9090SOL    HW128169   5.932   5.699   5.069
 9090SOL    HW228170   5.815   5.735   4.961
 9091SOL     OW28171   2.643   2.266   1.697
 9091SOL    HW128172   2.596   2.351   1.720
 9091SOL    HW228173   2.741   2.285   1.685
 9092SOL     OW28174   2.826   2.079   5.119
 9092SOL    HW128175   2.740   2.117   5.154
 9092SOL    HW228176   2.807   2.025   5.037
 9093SOL     OW28177   2.121   3.363   0.511
 9093SOL    HW128178   2.051   3.359   0.583
 9093SOL    HW228179   2.078   3.387   0.424
 9094SOL     OW28180   6.564   2.179   0.190
 9094SOL    HW128181   6.568   2.267   0.144
 9094SOL    HW228182   6.655   2.154   0.224
 9095SOL     OW28183   2.261   2.476   0.421
 9095SOL    HW128184   2.306   2.532   0.491
 9095SOL    HW228185   2.239   2.533   0.342
 9096SOL     OW28186   6.798   4.526   2.688
 9096SOL    HW128187   6.879   4.511   2.631
 9096SOL    HW228188   6.733   4.585   2.640
 9097SOL     OW28189   6.902   5.756   6.063
 9097SOL    HW128190   6.965   5.680   6.080
 9097SOL    HW228191   6.821   5.745   6.121
 9098SOL     OW28192   4.141   3.233   5.180
 9098SOL    HW128193   4.129   3.262   5.086
 9098SOL    HW228194   4.098   3.143   5.193
 9099SOL     OW28195   2.296   2.631   6.555
 9099SOL    HW128196   2.356   2.685   6.496
 9099SOL    HW228197   2.201   2.642   6.525
 9100SOL     OW28198   1.312   2.879   0.658
 9100SOL    HW128199   1.230   2.877   0.715
 9100SOL    HW228200   1.294   2.834   0.571
 9101SOL     OW28201   1.985   2.355   0.082
 9101SOL    HW128202   2.034   2.270   0.101
 9101SOL    HW228203   1.957   2.397   0.169
 9102SOL     OW28204   4.535   6.347   2.360
 9102SOL    HW128205   4.461   6.362   2.294
 9102SOL    HW228206   4.623   6.354   2.313
 9103SOL     OW28207   1.033   4.204   5.870
 9103SOL    HW128208   1.013   4.258   5.952
 9103SOL    HW228209   0.955   4.209   5.807
 9104SOL     OW28210   4.461   0.323   3.157
 9104SOL    HW128211   4.440   0.263   3.079
 9104SOL    HW228212   4.535   0.385   3.133
 9105SOL     OW28213   3.148   2.180   5.951
 9105SOL    HW128214   3.239   2.179   5.992
 9105SOL    HW228215   3.133   2.267   5.904
 9106SOL     OW28216   6.270   5.433   1.898
 9106SOL    HW128217   6.314   5.376   1.829
 9106SOL    HW228218   6.316   5.421   1.986
 9107SOL     OW28219   5.158   6.055   6.474
 9107SOL    HW128220   5.124   6.035   6.383
 9107SOL    HW228221   5.128   5.983   6.537
 9108SOL     OW28222   3.226   5.639   0.184
 9108SOL    HW128223   3.234   5.737   0.201
 9108SOL    HW228224   3.272   5.617   0.098
 9109SOL     OW28225   3.388   1.495   3.784
 9109SOL    HW128226   3.339   1.526   3.865
 9109SOL    HW228227   3.438   1.572   3.744
 9110SOL     OW28228   0.835   3.619   3.621
 9110SOL    HW128229   0.793   3.698   3.576
 9110SOL    HW228230   0.776   3.588   3.696
 9111SOL     OW28231   3.764   4.170   1.402
 9111SOL    HW128232   3.847   4.120   1.379
 9111SOL    HW228233   3.694   4.105   1.432
 9112SOL     OW28234   1.172   5.939   2.359
 9112SOL    HW128235   1.116   6.021   2.367
 9112SOL    HW228236   1.125   5.871   2.303
 9113SOL     OW28237   2.545   5.461   6.791
 9113SOL    HW128238   2.558   5.374   6.744
 9113SOL    HW228239   2.559   5.536   6.726
 9114SOL     OW28240   2.600   3.495   1.751
 9114SOL    HW128241   2.605   3.590   1.719
 9114SOL    HW228242   2.511   3.479   1.794
 9115SOL     OW28243   1.660   3.807   4.730
 9115SOL    HW128244   1.598   3.885   4.718
 9115SOL    HW228245   1.740   3.836   4.782
 9116SOL     OW28246   2.685   2.352   6.103
 9116SOL    HW128247   2.689   2.403   6.017
 9116SOL    HW228248   2.753   2.278   6.101
 9117SOL     OW28249   0.869   2.916   0.434
 9117SOL    HW128250   0.818   2.831   0.429
 9117SOL    HW228251   0.962   2.901   0.400
 9118SOL     OW28252   0.677   6.635   1.787
 9118SOL    HW128253   0.643   6.597   1.701
 9118SOL    HW228254   0.757   6.692   1.769
 9119SOL     OW28255   6.362   0.033   0.849
 9119SOL    HW128256   6.378   6.965   0.886
 9119SOL    HW228257   6.264   0.050   0.843
 9120SOL     OW28258   6.262   0.329   6.989
 9120SOL    HW128259   6.190   0.370   0.021
 9120SOL    HW228260   6.245   0.347   6.893
 9121SOL     OW28261   1.393   1.508   6.669
 9121SOL    HW128262   1.330   1.582   6.692
 9121SOL    HW228263   1.462   1.542   6.605
 9122SOL     OW28264   0.294   2.825   1.389
 9122SOL    HW128265   0.313   2.823   1.487
 9122SOL    HW228266   0.381   2.823   1.339
 9123SOL     OW28267   1.783   6.713   6.551
 9123SOL    HW128268   1.853   6.648   6.580
 9123SOL    HW228269   1.718   6.667   6.491
 9124SOL     OW28270   0.108   4.483   5.319
 9124SOL    HW128271   0.085   4.466   5.415
 9124SOL    HW228272   0.083   4.404   5.264
 9125SOL     OW28273   5.112   5.620   1.035
 9125SOL    HW128274   5.198   5.590   1.077
 9125SOL    HW228275   5.038   5.612   1.102
 9126SOL     OW28276   5.428   0.277   3.393
 9126SOL    HW128277   5.447   0.374   3.413
 9126SOL    HW228278   5.338   0.253   3.428
 9127SOL     OW28279   5.788   5.633   5.892
 9127SOL    HW128280   5.873   5.582   5.882
 9127SOL    HW228281   5.784   5.706   5.824
 9128SOL     OW28282   4.621   2.568   5.544
 9128SOL    HW128283   4.591   2.618   5.462
 9128SOL    HW228284   4.654   2.632   5.613
 9129SOL     OW28285   2.846   1.316   0.055
 9129SOL    HW128286   2.754   1.348   0.078
 9129SOL    HW228287   2.883   1.372   7.004
 9130SOL     OW28288   5.827   5.798   0.796
 9130SOL    HW128289   5.892   5.736   0.752
 9130SOL    HW228290   5.865   5.890   0.797
 9131SOL     OW28291   1.630   4.653   3.889
 9131SOL    HW128292   1.532   4.658   3.908
 9131SOL    HW228293   1.662   4.560   3.908
 9132SOL     OW28294   1.758   2.913   4.305
 9132SOL    HW128295   1.839   2.920   4.362
 9132SOL    HW228296   1.678   2.894   4.363
 9133SOL     OW28297   1.663   5.110   1.265
 9133SOL    HW128298   1.718   5.169   1.324
 9133SOL    HW228299   1.714   5.088   1.182
 9134SOL     OW28300   2.708   4.926   6.253
 9134SOL    HW128301   2.756   4.845   6.220
 9134SOL    HW228302   2.659   4.904   6.337
 9135SOL     OW28303   1.178   6.434   3.841
 9135SOL    HW128304   1.080   6.411   3.838
 9135SOL    HW228305   1.211   6.449   3.748
 9136SOL     OW28306   3.301   5.145   5.024
 9136SOL    HW128307   3.209   5.170   5.055
 9136SOL    HW228308   3.306   5.045   5.014
 9137SOL     OW28309   4.103   0.692   2.132
 9137SOL    HW128310   4.036   0.712   2.203
 9137SOL    HW228311   4.083   0.602   2.092
 9138SOL     OW28312   3.082   4.183   1.062
 9138SOL    HW128313   3.087   4.280   1.084
 9138SOL    HW228314   2.989   4.150   1.076
 9139SOL     OW28315   3.426   0.673   5.750
 9139SOL    HW128316   3.454   0.578   5.732
 9139SOL    HW228317   3.457   0.731   5.674
 9140SOL     OW28318   6.282   2.748   3.251
 9140SOL    HW128319   6.307   2.817   3.183
 9140SOL    HW228320   6.316   2.659   3.221
 9141SOL     OW28321   5.570   0.610   5.832
 9141SOL    HW128322   5.603   0.688   5.779
 9141SOL    HW228323   5.615   0.609   5.922
 9142SOL     OW28324   1.245   4.226   6.779
 9142SOL    HW128325   1.149   4.253   6.775
 9142SOL    HW228326   1.251   4.127   6.798
 9143SOL     OW28327   5.596   4.210   0.811
 9143SOL    HW128328   5.513   4.211   0.868
 9143SOL    HW228329   5.628   4.116   0.801
 9144SOL     OW28330   1.329   5.389   4.649
 9144SOL    HW128331   1.361   5.436   4.567
 9144SOL    HW228332   1.375   5.301   4.658
 9145SOL     OW28333   0.731   3.752   6.048
 9145SOL    HW128334   0.708   3.658   6.070
 9145SOL    HW228335   0.675   3.814   6.103
 9146SOL     OW28336   0.700   1.682   1.162
 9146SOL    HW128337   0.776   1.669   1.099
 9146SOL    HW228338   0.725   1.648   1.252
 9147SOL     OW28339   4.279   5.512   6.139
 9147SOL    HW128340   4.283   5.462   6.053
 9147SOL    HW228341   4.343   5.589   6.136
 9148SOL     OW28342   3.636   5.147   3.135
 9148SOL    HW128343   3.600   5.075   3.076
 9148SOL    HW228344   3.615   5.236   3.095
 9149SOL     OW28345   6.268   3.154   5.108
 9149SOL    HW128346   6.262   3.070   5.055
 9149SOL    HW228347   6.364   3.181   5.115
 9150SOL     OW28348   4.229   1.556   2.798
 9150SOL    HW128349   4.179   1.590   2.718
 9150SOL    HW228350   4.167   1.504   2.857
 9151SOL     OW28351   0.191   2.965   2.285
 9151SOL    HW128352   0.098   2.930   2.290
 9151SOL    HW228353   0.199   3.047   2.341
 9152SOL     OW28354   2.351   5.108   3.434
 9152SOL    HW128355   2.268   5.063   3.467
 9152SOL    HW228356   2.349   5.205   3.459
 9153SOL     OW28357   1.856   2.750   6.980
 9153SOL    HW128358   1.927   2.684   6.956
 9153SOL    HW228359   1.856   2.764   0.056
 9154SOL     OW28360   0.913   5.446   0.674
 9154SOL    HW128361   0.869   5.383   0.738
 9154SOL    HW228362   0.999   5.407   0.641
 9155SOL     OW28363   1.584   4.611   6.956
 9155SOL    HW128364   1.557   4.517   6.975
 9155SOL    HW228365   1.567   4.668   0.013
 9156SOL     OW28366   4.781   2.636   1.594
 9156SOL    HW128367   4.779   2.565   1.665
 9156SOL    HW228368   4.847   2.610   1.524
 9157SOL     OW28369   5.390   3.208   5.433
 9157SOL    HW128370   5.296   3.195   5.401
 9157SOL    HW228371   5.424   3.122   5.471
 9158SOL     OW28372   0.839   3.901   3.995
 9158SOL    HW128373   0.899   3.981   3.994
 9158SOL    HW228374   0.777   3.905   3.916
 9159SOL     OW28375   6.754   4.430   2.159
 9159SOL    HW128376   6.716   4.456   2.071
 9159SOL    HW228377   6.854   4.430   2.154
 9160SOL     OW28378   0.563   0.227   0.876
 9160SOL    HW128379   0.627   0.234   0.800
 9160SOL    HW228380   0.518   0.315   0.890
 9161SOL     OW28381   5.075   4.309   2.439
 9161SOL    HW128382   5.022   4.392   2.421
 9161SOL    HW228383   5.124   4.318   2.525
 9162SOL     OW28384   5.042   2.624   2.797
 9162SOL    HW128385   4.976   2.549   2.800
 9162SOL    HW228386   5.006   2.702   2.847
 9163SOL     OW28387   3.517   0.976   5.038
 9163SOL    HW128388   3.449   0.923   5.087
 9163SOL    HW228389   3.530   0.937   4.947
 9164SOL     OW28390   3.030   0.302   0.979
 9164SOL    HW128391   2.960   0.343   0.920
 9164SOL    HW228392   2.998   0.212   1.010
 9165SOL     OW28393   4.922   5.861   0.645
 9165SOL    HW128394   4.876   5.939   0.601
 9165SOL    HW228395   4.853   5.802   0.687
 9166SOL     OW28396   3.580   5.795   1.317
 9166SOL    HW128397   3.631   5.860   1.373
 9166SOL    HW228398   3.550   5.718   1.374
 9167SOL     OW28399   0.461   3.656   4.890
 9167SOL    HW128400   0.406   3.581   4.853
 9167SOL    HW228401   0.469   3.647   4.989
 9168SOL     OW28402   3.372   0.586   0.193
 9168SOL    HW128403   3.460   0.620   0.160
 9168SOL    HW228404   3.386   0.533   0.277
 9169SOL     OW28405   0.451   6.862   3.626
 9169SOL    HW128406   0.483   6.826   3.714
 9169SOL    HW228407   0.358   6.897   3.637
 9170SOL     OW28408   6.420   6.206   0.368
 9170SOL    HW128409   6.363   6.281   0.401
 9170SOL    HW228410   6.374   6.160   0.292
 9171SOL     OW28411   3.388   5.408   5.163
 9171SOL    HW128412   3.364   5.336   5.098
 9171SOL    HW228413   3.330   5.400   5.244
 9172SOL     OW28414   2.475   2.560   3.932
 9172SOL    HW128415   2.548   2.538   3.867
 9172SOL    HW228416   2.500   2.526   4.023
 9173SOL     OW28417   0.592   5.304   5.370
 9173SOL    HW128418   0.586   5.257   5.458
 9173SOL    HW228419   0.660   5.376   5.375
 9174SOL     OW28420   0.441   5.692   6.374
 9174SOL    HW128421   0.391   5.671   6.458
 9174SOL    HW228422   0.531   5.730   6.397
 9175SOL     OW28423   2.192   6.291   5.627
 9175SOL    HW128424   2.116   6.252   5.576
 9175SOL    HW228425   2.160   6.369   5.681
 9176SOL     OW28426   1.501   2.033   5.725
 9176SOL    HW128427   1.589   2.006   5.763
 9176SOL    HW228428   1.475   1.969   5.653
 9177SOL     OW28429   0.947   4.813   3.076
 9177SOL    HW128430   0.954   4.902   3.122
 9177SOL    HW228431   1.038   4.782   3.051
 9178SOL     OW28432   2.218   4.077   0.323
 9178SOL    HW128433   2.274   4.057   0.402
 9178SOL    HW228434   2.250   4.024   0.244
 9179SOL     OW28435   2.785   5.089   5.041
 9179SOL    HW128436   2.800   5.063   4.946
 9179SOL    HW228437   2.780   5.007   5.098
 9180SOL     OW28438   5.694   2.016   2.863
 9180SOL    HW128439   5.748   1.948   2.813
 9180SOL    HW228440   5.619   2.048   2.804
 9181SOL     OW28441   3.727   1.262   2.316
 9181SOL    HW128442   3.756   1.166   2.321
 9181SOL    HW228443   3.629   1.266   2.299
 9182SOL     OW28444   2.290   6.433   2.074
 9182SOL    HW128445   2.343   6.406   2.154
 9182SOL    HW228446   2.349   6.482   2.009
 9183SOL     OW28447   5.309   5.612   5.992
 9183SOL    HW128448   5.384   5.571   5.940
 9183SOL    HW228449   5.222   5.591   5.948
 9184SOL     OW28450   5.120   6.504   6.760
 9184SOL    HW128451   5.208   6.544   6.788
 9184SOL    HW228452   5.133   6.455   6.674
 9185SOL     OW28453   4.696   1.607   4.433
 9185SOL    HW128454   4.637   1.685   4.452
 9185SOL    HW228455   4.659   1.555   4.356
 9186SOL     OW28456   5.064   0.117   6.633
 9186SOL    HW128457   5.112   0.039   6.674
 9186SOL    HW228458   4.974   0.088   6.601
 9187SOL     OW28459   2.551   6.584   2.685
 9187SOL    HW128460   2.644   6.603   2.715
 9187SOL    HW228461   2.535   6.485   2.687
 9188SOL     OW28462   2.147   6.012   0.896
 9188SOL    HW128463   2.064   5.981   0.942
 9188SOL    HW228464   2.169   5.948   0.822
 9189SOL     OW28465   5.282   5.405   2.068
 9189SOL    HW128466   5.284   5.502   2.093
 9189SOL    HW228467   5.370   5.379   2.029
 9190SOL     OW28468   1.167   5.623   0.197
 9190SOL    HW128469   1.164   5.656   0.102
 9190SOL    HW228470   1.074   5.601   0.228
 9191SOL     OW28471   0.127   0.722   5.672
 9191SOL    HW128472   0.197   0.743   5.604
 9191SOL    HW228473   0.096   0.806   5.716
 9192SOL     OW28474   1.264   3.639   5.183
 9192SOL    HW128475   1.282   3.559   5.240
 9192SOL    HW228476   1.178   3.682   5.213
 9193SOL     OW28477   2.858   3.972   0.330
 9193SOL    HW128478   2.826   3.978   0.235
 9193SOL    HW228479   2.953   3.941   0.332
 9194SOL     OW28480   2.854   1.151   4.496
 9194SOL    HW128481   2.836   1.070   4.440
 9194SOL    HW228482   2.865   1.231   4.437
 9195SOL     OW28483   1.582   1.135   4.230
 9195SOL    HW128484   1.600   1.226   4.269
 9195SOL    HW228485   1.667   1.098   4.193
 9196SOL     OW28486   5.203   1.363   5.856
 9196SOL    HW128487   5.224   1.335   5.762
 9196SOL    HW228488   5.276   1.422   5.890
 9197SOL     OW28489   2.581   3.745   0.371
 9197SOL    HW128490   2.565   3.838   0.339
 9197SOL    HW228491   2.646   3.747   0.447
 9198SOL     OW28492   0.639   4.780   4.388
 9198SOL    HW128493   0.653   4.681   4.392
 9198SOL    HW228494   0.647   4.820   4.479
 9199SOL     OW28495   5.696   4.069   5.270
 9199SOL    HW128496   5.752   4.142   5.309
 9199SOL    HW228497   5.705   3.987   5.327
 9200SOL     OW28498   2.942   0.255   0.258
 9200SOL    HW128499   2.921   0.342   0.212
 9200SOL    HW228500   3.040   0.236   0.250
 9201SOL     OW28501   2.188   4.114   0.795
 9201SOL    HW128502   2.238   4.094   0.711
 9201SOL    HW228503   2.102   4.159   0.773
 9202SOL     OW28504   2.362   1.090   4.033
 9202SOL    HW128505   2.459   1.088   4.055
 9202SOL    HW228506   2.320   1.170   4.076
 9203SOL     OW28507   6.523   6.456   0.750
 9203SOL    HW128508   6.556   6.398   0.676
 9203SOL    HW228509   6.596   6.469   0.818
 9204SOL     OW28510   6.149   0.543   5.150
 9204SOL    HW128511   6.131   0.570   5.244
 9204SOL    HW228512   6.248   0.540   5.135
 9205SOL     OW28513   6.988   5.409   1.926
 9205SOL    HW128514   7.005   5.375   1.834
 9205SOL    HW228515   6.997   5.335   1.992
 9206SOL     OW28516   3.697   6.825   6.786
 9206SOL    HW128517   3.761   6.764   6.833
 9206SOL    HW228518   3.661   6.780   6.704
 9207SOL     OW28519   5.575   6.086   6.130
 9207SOL    HW128520   5.641   6.021   6.168
 9207SOL    HW228521   5.620   6.144   6.062
 9208SOL     OW28522   1.035   4.001   2.396
 9208SOL    HW128523   0.946   3.955   2.391
 9208SOL    HW228524   1.107   3.934   2.405
 9209SOL     OW28525   2.398   6.832   6.836
 9209SOL    HW128526   2.424   6.830   6.740
 9209SOL    HW228527   2.299   6.843   6.844
 9210SOL     OW28528   6.234   0.484   3.729
 9210SOL    HW128529   6.204   0.580   3.734
 9210SOL    HW228530   6.264   0.463   3.636
 9211SOL     OW28531   0.601   1.872   2.713
 9211SOL    HW128532   0.527   1.865   2.646
 9211SOL    HW228533   0.565   1.854   2.805
 9212SOL     OW28534   3.811   5.358   4.306
 9212SOL    HW128535   3.745   5.296   4.350
 9212SOL    HW228536   3.902   5.317   4.309
 9213SOL     OW28537   5.983   4.190   6.599
 9213SOL    HW128538   5.955   4.094   6.601
 9213SOL    HW228539   5.926   4.243   6.663
 9214SOL     OW28540   0.310   5.146   0.217
 9214SOL    HW128541   0.357   5.083   0.278
 9214SOL    HW228542   0.355   5.147   0.127
 9215SOL     OW28543   1.517   1.630   0.825
 9215SOL    HW128544   1.592   1.576   0.787
 9215SOL    HW228545   1.541   1.660   0.917
 9216SOL     OW28546   2.160   0.409   3.710
 9216SOL    HW128547   2.098   0.425   3.632
 9216SOL    HW228548   2.246   0.372   3.677
 9217SOL     OW28549   0.417   2.643   0.757
 9217SOL    HW128550   0.388   2.548   0.768
 9217SOL    HW228551   0.480   2.649   0.680
 9218SOL     OW28552   2.006   0.943   0.425
 9218SOL    HW128553   1.909   0.918   0.422
 9218SOL    HW228554   2.015   1.039   0.452
 9219SOL     OW28555   6.049   1.740   0.373
 9219SOL    HW128556   5.950   1.744   0.390
 9219SOL    HW228557   6.089   1.666   0.429
 9220SOL     OW28558   3.529   6.211   0.722
 9220SOL    HW128559   3.481   6.228   0.808
 9220SOL    HW228560   3.480   6.256   0.647
 9221SOL     OW28561   2.700   4.719   4.822
 9221SOL    HW128562   2.767   4.680   4.884
 9221SOL    HW228563   2.619   4.661   4.820
 9222SOL     OW28564   3.050   2.187   6.581
 9222SOL    HW128565   3.061   2.089   6.599
 9222SOL    HW228566   3.001   2.229   6.657
 9223SOL     OW28567   2.853   3.237   5.163
 9223SOL    HW128568   2.932   3.280   5.118
 9223SOL    HW228569   2.780   3.305   5.173
 9224SOL     OW28570   2.174   4.761   5.371
 9224SOL    HW128571   2.161   4.853   5.410
 9224SOL    HW228572   2.222   4.768   5.284
 9225SOL     OW28573   1.723   6.182   0.123
 9225SOL    HW128574   1.800   6.119   0.136
 9225SOL    HW228575   1.637   6.132   0.135
 9226SOL     OW28576   4.545   6.602   0.901
 9226SOL    HW128577   4.515   6.660   0.977
 9226SOL    HW228578   4.468   6.582   0.841
 9227SOL     OW28579   1.378   6.536   1.780
 9227SOL    HW128580   1.342   6.479   1.853
 9227SOL    HW228581   1.408   6.624   1.818
 9228SOL     OW28582   0.683   6.578   6.958
 9228SOL    HW128583   0.643   6.515   6.892
 9228SOL    HW228584   0.751   6.635   6.913
 9229SOL     OW28585   1.066   5.818   5.419
 9229SOL    HW128586   0.987   5.873   5.445
 9229SOL    HW228587   1.037   5.747   5.355
 9230SOL     OW28588   4.835   1.594   3.550
 9230SOL    HW128589   4.810   1.500   3.575
 9230SOL    HW228590   4.843   1.601   3.451
 9231SOL     OW28591   2.020   3.580   3.418
 9231SOL    HW128592   1.978   3.661   3.459
 9231SOL    HW228593   2.078   3.535   3.486
 9232SOL     OW28594   4.187   5.155   1.273
 9232SOL    HW128595   4.162   5.221   1.343
 9232SOL    HW228596   4.276   5.179   1.235
 9233SOL     OW28597   5.333   4.715   0.462
 9233SOL    HW128598   5.394   4.667   0.524
 9233SOL    HW228599   5.270   4.649   0.420
 9234SOL     OW28600   1.493   6.321   3.708
 9234SOL    HW128601   1.419   6.291   3.769
 9234SOL    HW228602   1.540   6.399   3.750
 9235SOL     OW28603   0.861   2.682   3.498
 9235SOL    HW128604   0.809   2.732   3.429
 9235SOL    HW228605   0.819   2.592   3.513
 9236SOL     OW28606   3.875   2.401   5.748
 9236SOL    HW128607   3.850   2.305   5.766
 9236SOL    HW228608   3.793   2.458   5.752
 9237SOL     OW28609   1.775   3.726   2.810
 9237SOL    HW128610   1.793   3.752   2.715
 9237SOL    HW228611   1.684   3.687   2.817
 9238SOL     OW28612   4.228   3.556   6.817
 9238SOL    HW128613   4.249   3.468   6.858
 9238SOL    HW228614   4.313   3.602   6.791
 9239SOL     OW28615   1.870   3.287   6.220
 9239SOL    HW128616   1.851   3.277   6.318
 9239SOL    HW228617   1.915   3.205   6.186
 9240SOL     OW28618   4.722   0.954   2.354
 9240SOL    HW128619   4.759   0.987   2.440
 9240SOL    HW228620   4.754   0.860   2.338
 9241SOL     OW28621   0.914   5.503   6.101
 9241SOL    HW128622   0.931   5.544   6.012
 9241SOL    HW228623   0.992   5.445   6.126
 9242SOL     OW28624   5.713   6.427   1.423
 9242SOL    HW128625   5.650   6.351   1.440
 9242SOL    HW228626   5.807   6.393   1.421
 9243SOL     OW28627   5.501   6.855   4.277
 9243SOL    HW128628   5.446   6.889   4.201
 9243SOL    HW228629   5.524   6.931   4.338
 9244SOL     OW28630   3.975   5.631   0.558
 9244SOL    HW128631   4.013   5.539   0.547
 9244SOL    HW228632   4.036   5.685   0.616
 9245SOL     OW28633   0.376   6.792   2.032
 9245SOL    HW128634   0.342   6.844   1.954
 9245SOL    HW228635   0.379   6.695   2.009
 9246SOL     OW28636   6.952   4.965   4.007
 9246SOL    HW128637   6.913   4.881   4.046
 9246SOL    HW228638   6.908   4.985   3.920
 9247SOL     OW28639   1.306   0.274   3.342
 9247SOL    HW128640   1.279   0.222   3.423
 9247SOL    HW228641   1.321   0.370   3.368
 9248SOL     OW28642   3.963   1.507   6.070
 9248SOL    HW128643   4.006   1.458   5.994
 9248SOL    HW228644   3.877   1.463   6.094
 9249SOL     OW28645   4.147   6.812   3.577
 9249SOL    HW128646   4.193   6.888   3.622
 9249SOL    HW228647   4.048   6.822   3.587
 9250SOL     OW28648   5.176   3.943   3.129
 9250SOL    HW128649   5.122   4.017   3.170
 9250SOL    HW228650   5.212   3.974   3.041
 9251SOL     OW28651   3.902   1.801   2.367
 9251SOL    HW128652   3.812   1.786   2.409
 9251SOL    HW228653   3.970   1.815   2.439
 9252SOL     OW28654   1.305   6.866   4.201
 9252SOL    HW128655   1.388   6.921   4.189
 9252SOL    HW228656   1.225   6.926   4.200
 9253SOL     OW28657   1.450   0.051   6.101
 9253SOL    HW128658   1.449   0.005   6.012
 9253SOL    HW228659   1.542   0.084   6.120
 9254SOL     OW28660   5.157   2.302   0.985
 9254SOL    HW128661   5.149   2.288   0.886
 9254SOL    HW228662   5.249   2.274   1.015
 9255SOL     OW28663   6.950   5.415   0.694
 9255SOL    HW128664   6.973   5.479   0.620
 9255SOL    HW228665   6.996   5.444   0.778
 9256SOL     OW28666   3.825   5.428   2.544
 9256SOL    HW128667   3.747   5.451   2.485
 9256SOL    HW228668   3.906   5.414   2.487
 9257SOL     OW28669   0.780   3.362   0.954
 9257SOL    HW128670   0.737   3.449   0.929
 9257SOL    HW228671   0.731   3.287   0.911
 9258SOL     OW28672   3.080   3.362   4.173
 9258SOL    HW128673   3.062   3.346   4.076
 9258SOL    HW228674   3.015   3.430   4.208
 9259SOL     OW28675   1.567   2.347   0.525
 9259SOL    HW128676   1.640   2.384   0.467
 9259SOL    HW228677   1.492   2.315   0.467
 9260SOL     OW28678   6.461   3.972   6.689
 9260SOL    HW128679   6.548   3.986   6.641
 9260SOL    HW228680   6.398   3.923   6.630
 9261SOL     OW28681   3.201   6.644   6.129
 9261SOL    HW128682   3.277   6.588   6.097
 9261SOL    HW228683   3.236   6.719   6.185
 9262SOL     OW28684   5.689   0.601   6.095
 9262SOL    HW128685   5.693   0.503   6.113
 9262SOL    HW228686   5.673   0.650   6.181
 9263SOL     OW28687   6.003   4.028   1.965
 9263SOL    HW128688   6.078   4.003   2.025
 9263SOL    HW228689   5.931   4.073   2.019
 9264SOL     OW28690   5.669   2.577   0.027
 9264SOL    HW128691   5.766   2.560   0.044
 9264SOL    HW228692   5.641   2.661   0.075
 9265SOL     OW28693   1.427   1.872   5.510
 9265SOL    HW128694   1.359   1.932   5.467
 9265SOL    HW228695   1.477   1.822   5.439
 9266SOL     OW28696   2.563   6.005   2.096
 9266SOL    HW128697   2.633   6.072   2.069
 9266SOL    HW228698   2.538   5.951   2.016
 9267SOL     OW28699   2.616   4.957   5.827
 9267SOL    HW128700   2.650   4.987   5.917
 9267SOL    HW228701   2.542   4.891   5.840
 9268SOL     OW28702   1.398   1.421   3.033
 9268SOL    HW128703   1.326   1.490   3.044
 9268SOL    HW228704   1.436   1.398   3.122
 9269SOL     OW28705   4.480   1.616   5.255
 9269SOL    HW128706   4.553   1.677   5.282
 9269SOL    HW228707   4.395   1.642   5.301
 9270SOL     OW28708   1.367   0.436   5.734
 9270SOL    HW128709   1.383   0.354   5.679
 9270SOL    HW228710   1.433   0.507   5.708
 9271SOL     OW28711   0.464   4.881   6.003
 9271SOL    HW128712   0.417   4.812   6.058
 9271SOL    HW228713   0.561   4.883   6.026
 9272SOL     OW28714   2.371   5.069   6.730
 9272SOL    HW128715   2.355   4.985   6.678
 9272SOL    HW228716   2.289   5.092   6.782
 9273SOL     OW28717   4.210   5.921   5.938
 9273SOL    HW128718   4.178   5.861   5.865
 9273SOL    HW228719   4.210   5.872   6.025
 9274SOL     OW28720   5.713   2.651   1.509
 9274SOL    HW128721   5.785   2.628   1.574
 9274SOL    HW228722   5.636   2.692   1.558
 9275SOL     OW28723   0.405   0.302   5.882
 9275SOL    HW128724   0.403   0.352   5.968
 9275SOL    HW228725   0.404   0.366   5.805
 9276SOL     OW28726   4.521   6.774   3.844
 9276SOL    HW128727   4.482   6.725   3.766
 9276SOL    HW228728   4.449   6.790   3.912
 9277SOL     OW28729   3.876   2.900   0.244
 9277SOL    HW128730   3.866   2.909   0.343
 9277SOL    HW228731   3.872   2.990   0.201
 9278SOL     OW28732   1.507   2.191   1.271
 9278SOL    HW128733   1.415   2.201   1.309
 9278SOL    HW228734   1.572   2.182   1.346
 9279SOL     OW28735   1.999   6.441   0.761
 9279SOL    HW128736   1.927   6.483   0.816
 9279SOL    HW228737   1.966   6.427   0.667
 9280SOL     OW28738   1.552   0.378   2.713
 9280SOL    HW128739   1.606   0.385   2.797
 9280SOL    HW228740   1.598   0.426   2.639
 9281SOL     OW28741   2.476   2.166   0.488
 9281SOL    HW128742   2.494   2.135   0.581
 9281SOL    HW228743   2.382   2.201   0.482
 9282SOL     OW28744   4.461   1.191   6.711
 9282SOL    HW128745   4.373   1.237   6.707
 9282SOL    HW228746   4.448   1.093   6.702
 9283SOL     OW28747   5.540   2.725   2.779
 9283SOL    HW128748   5.542   2.824   2.793
 9283SOL    HW228749   5.464   2.686   2.831
 9284SOL     OW28750   3.471   3.915   1.822
 9284SOL    HW128751   3.564   3.933   1.853
 9284SOL    HW228752   3.471   3.839   1.758
 9285SOL     OW28753   6.611   2.874   6.148
 9285SOL    HW128754   6.522   2.901   6.112
 9285SOL    HW228755   6.636   2.934   6.224
 9286SOL     OW28756   5.499   5.336   4.789
 9286SOL    HW128757   5.569   5.386   4.840
 9286SOL    HW228758   5.519   5.341   4.691
 9287SOL     OW28759   2.881   6.994   2.072
 9287SOL    HW128760   2.850   6.991   2.167
 9287SOL    HW228761   2.962   0.029   2.066
 9288SOL     OW28762   4.768   2.150   6.071
 9288SOL    HW128763   4.737   2.244   6.060
 9288SOL    HW228764   4.829   2.144   6.150
 9289SOL     OW28765   5.656   4.367   2.709
 9289SOL    HW128766   5.658   4.310   2.791
 9289SOL    HW228767   5.623   4.312   2.632
 9290SOL     OW28768   4.701   1.830   4.183
 9290SOL    HW128769   4.651   1.770   4.120
 9290SOL    HW228770   4.650   1.839   4.268
 9291SOL     OW28771   0.955   1.844   4.934
 9291SOL    HW128772   0.855   1.845   4.924
 9291SOL    HW228773   0.982   1.916   4.998
 9292SOL     OW28774   0.174   4.064   0.055
 9292SOL    HW128775   0.228   4.034   0.133
 9292SOL    HW228776   0.235   4.088   7.003
 9293SOL     OW28777   6.340   3.846   5.896
 9293SOL    HW128778   6.328   3.783   5.820
 9293SOL    HW228779   6.422   3.821   5.947
 9294SOL     OW28780   5.454   6.228   6.341
 9294SOL    HW128781   5.480   6.163   6.269
 9294SOL    HW228782   5.377   6.192   6.393
 9295SOL     OW28783   4.955   2.461   3.262
 9295SOL    HW128784   4.944   2.401   3.182
 9295SOL    HW228785   4.866   2.473   3.307
 9296SOL     OW28786   6.822   6.970   5.001
 9296SOL    HW128787   6.804   0.030   5.052
 9296SOL    HW228788   6.781   6.892   5.048
 9297SOL     OW28789   0.906   0.834   1.651
 9297SOL    HW128790   0.986   0.890   1.631
 9297SOL    HW228791   0.826   0.874   1.607
 9298SOL     OW28792   0.561   5.924   5.094
 9298SOL    HW128793   0.595   5.952   5.005
 9298SOL    HW228794   0.491   5.854   5.082
 9299SOL     OW28795   1.693   3.165   4.184
 9299SOL    HW128796   1.598   3.164   4.154
 9299SOL    HW228797   1.710   3.087   4.244
 9300SOL     OW28798   5.410   4.384   3.687
 9300SOL    HW128799   5.414   4.296   3.640
 9300SOL    HW228800   5.336   4.439   3.649
 9301SOL     OW28801   6.297   4.750   1.606
 9301SOL    HW128802   6.252   4.705   1.683
 9301SOL    HW228803   6.238   4.745   1.525
 9302SOL     OW28804   1.637   2.176   2.402
 9302SOL    HW128805   1.673   2.258   2.447
 9302SOL    HW228806   1.644   2.098   2.465
 9303SOL     OW28807   4.891   4.037   0.789
 9303SOL    HW128808   4.821   4.099   0.824
 9303SOL    HW228809   4.853   3.945   0.781
 9304SOL     OW28810   4.401   3.572   0.491
 9304SOL    HW128811   4.430   3.494   0.436
 9304SOL    HW228812   4.311   3.554   0.530
 9305SOL     OW28813   4.906   3.772   2.044
 9305SOL    HW128814   4.856   3.778   1.958
 9305SOL    HW228815   4.926   3.864   2.077
 9306SOL     OW28816   6.207   5.682   4.133
 9306SOL    HW128817   6.241   5.765   4.177
 9306SOL    HW228818   6.139   5.638   4.191
 9307SOL     OW28819   2.402   0.682   5.895
 9307SOL    HW128820   2.500   0.667   5.878
 9307SOL    HW228821   2.389   0.715   5.989
 9308SOL     OW28822   0.052   2.166   0.584
 9308SOL    HW128823   0.118   2.224   0.536
 9308SOL    HW228824   6.997   2.221   0.613
 9309SOL     OW28825   4.973   2.422   6.341
 9309SOL    HW128826   5.026   2.504   6.364
 9309SOL    HW228827   4.893   2.449   6.287
 9310SOL     OW28828   4.265   6.807   1.365
 9310SOL    HW128829   4.167   6.821   1.351
 9310SOL    HW228830   4.283   6.796   1.463
 9311SOL     OW28831   6.887   3.511   1.454
 9311SOL    HW128832   6.821   3.579   1.422
 9311SOL    HW228833   6.905   3.525   1.551
 9312SOL     OW28834   1.995   4.109   4.569
 9312SOL    HW128835   2.000   4.010   4.561
 9312SOL    HW228836   2.040   4.139   4.654
 9313SOL     OW28837   6.117   6.770   2.560
 9313SOL    HW128838   6.068   6.706   2.500
 9313SOL    HW228839   6.169   6.835   2.504
 9314SOL     OW28840   6.554   3.959   0.168
 9314SOL    HW128841   6.597   3.885   0.220
 9314SOL    HW228842   6.454   3.952   0.176
 9315SOL     OW28843   0.430   6.544   6.547
 9315SOL    HW128844   0.421   6.639   6.575
 9315SOL    HW228845   0.388   6.531   6.457
 9316SOL     OW28846   3.382   5.508   4.611
 9316SOL    HW128847   3.470   5.553   4.624
 9316SOL    HW228848   3.310   5.576   4.609
 9317SOL     OW28849   4.458   3.945   5.437
 9317SOL    HW128850   4.441   3.923   5.533
 9317SOL    HW228851   4.381   3.913   5.381
 9318SOL     OW28852   6.939   6.601   5.934
 9318SOL    HW128853   6.916   6.557   6.021
 9318SOL    HW228854   6.860   6.597   5.872
 9319SOL     OW28855   6.090   3.416   4.675
 9319SOL    HW128856   6.058   3.470   4.597
 9319SOL    HW228857   6.027   3.429   4.752
 9320SOL     OW28858   4.210   2.998   6.111
 9320SOL    HW128859   4.123   2.951   6.124
 9320SOL    HW228860   4.204   3.056   6.029
 9321SOL     OW28861   5.620   5.892   4.065
 9321SOL    HW128862   5.605   5.863   4.160
 9321SOL    HW228863   5.620   5.992   4.060
 9322SOL     OW28864   1.192   6.184   0.752
 9322SOL    HW128865   1.231   6.147   0.668
 9322SOL    HW228866   1.136   6.115   0.797
 9323SOL     OW28867   0.532   1.185   6.372
 9323SOL    HW128868   0.575   1.112   6.318
 9323SOL    HW228869   0.530   1.158   6.468
 9324SOL     OW28870   1.510   5.116   6.626
 9324SOL    HW128871   1.516   5.210   6.661
 9324SOL    HW228872   1.522   5.052   6.702
 9325SOL     OW28873   0.080   2.531   0.563
 9325SOL    HW128874   0.137   2.601   0.608
 9325SOL    HW228875   0.133   2.447   0.552
 9326SOL     OW28876   2.575   5.616   1.449
 9326SOL    HW128877   2.591   5.565   1.534
 9326SOL    HW228878   2.648   5.684   1.437
 9327SOL     OW28879   2.781   1.480   3.434
 9327SOL    HW128880   2.685   1.457   3.454
 9327SOL    HW228881   2.785   1.552   3.365
 9328SOL     OW28882   2.470   0.683   2.242
 9328SOL    HW128883   2.466   0.601   2.299
 9328SOL    HW228884   2.566   0.710   2.230
 9329SOL     OW28885   0.878   4.058   2.007
 9329SOL    HW128886   0.854   3.970   2.048
 9329SOL    HW228887   0.825   4.130   2.051
 9330SOL     OW28888   5.462   6.700   6.522
 9330SOL    HW128889   5.509   6.673   6.605
 9330SOL    HW228890   5.488   6.638   6.447
 9331SOL     OW28891   0.801   2.119   0.100
 9331SOL    HW128892   0.899   2.118   0.078
 9331SOL    HW228893   0.758   2.036   0.065
 9332SOL     OW28894   3.728   3.668   5.351
 9332SOL    HW128895   3.674   3.628   5.425
 9332SOL    HW228896   3.824   3.640   5.361
 9333SOL     OW28897   5.063   5.357   0.913
 9333SOL    HW128898   5.068   5.454   0.936
 9333SOL    HW228899   4.969   5.324   0.926
 9334SOL     OW28900   2.689   0.206   4.580
 9334SOL    HW128901   2.710   0.127   4.522
 9334SOL    HW228902   2.685   0.289   4.523
 9335SOL     OW28903   0.978   1.660   2.102
 9335SOL    HW128904   0.955   1.753   2.075
 9335SOL    HW228905   1.045   1.663   2.177
 9336SOL     OW28906   3.475   0.111   5.318
 9336SOL    HW128907   3.546   0.179   5.338
 9336SOL    HW228908   3.421   0.095   5.401
 9337SOL     OW28909   4.674   0.369   2.659
 9337SOL    HW128910   4.761   0.335   2.696
 9337SOL    HW228911   4.691   0.451   2.604
 9338SOL     OW28912   3.509   6.880   2.040
 9338SOL    HW128913   3.482   6.961   2.093
 9338SOL    HW228914   3.502   6.799   2.098
 9339SOL     OW28915   3.715   5.463   1.454
 9339SOL    HW128916   3.699   5.452   1.356
 9339SOL    HW228917   3.761   5.382   1.490
 9340SOL     OW28918   6.362   3.172   0.841
 9340SOL    HW128919   6.342   3.191   0.744
 9340SOL    HW228920   6.423   3.242   0.876
 9341SOL     OW28921   0.310   4.154   5.698
 9341SOL    HW128922   0.339   4.250   5.693
 9341SOL    HW228923   0.349   4.112   5.779
 9342SOL     OW28924   1.600   0.314   6.829
 9342SOL    HW128925   1.544   0.395   6.819
 9342SOL    HW228926   1.622   0.276   6.739
 9343SOL     OW28927   5.676   6.659   3.883
 9343SOL    HW128928   5.669   6.746   3.932
 9343SOL    HW228929   5.771   6.630   3.879
 9344SOL     OW28930   5.095   6.365   0.846
 9344SOL    HW128931   5.127   6.447   0.798
 9344SOL    HW228932   5.174   6.311   0.875
 9345SOL     OW28933   0.470   3.114   0.602
 9345SOL    HW128934   0.538   3.121   0.529
 9345SOL    HW228935   0.468   3.020   0.637
 9346SOL     OW28936   6.083   0.832   0.694
 9346SOL    HW128937   6.032   0.916   0.679
 9346SOL    HW228938   6.181   0.852   0.702
 9347SOL     OW28939   2.013   6.757   2.274
 9347SOL    HW128940   2.025   6.669   2.229
 9347SOL    HW228941   2.054   6.755   2.365
 9348SOL     OW28942   2.902   4.880   0.441
 9348SOL    HW128943   2.899   4.805   0.508
 9348SOL    HW228944   2.834   4.949   0.466
 9349SOL     OW28945   1.714   6.193   2.376
 9349SOL    HW128946   1.805   6.151   2.385
 9349SOL    HW228947   1.645   6.131   2.415
 9350SOL     OW28948   0.331   3.002   5.895
 9350SOL    HW128949   0.305   3.049   5.811
 9350SOL    HW228950   0.371   2.913   5.873
 9351SOL     OW28951   3.140   0.419   6.588
 9351SOL    HW128952   3.072   0.476   6.541
 9351SOL    HW228953   3.126   0.324   6.564
 9352SOL     OW28954   2.628   5.131   6.080
 9352SOL    HW128955   2.685   5.211   6.098
 9352SOL    HW228956   2.670   5.051   6.123
 9353SOL     OW28957   6.054   0.934   1.015
 9353SOL    HW128958   5.981   1.002   1.019
 9353SOL    HW228959   6.117   0.957   0.941
 9354SOL     OW28960   0.931   1.175   6.381
 9354SOL    HW128961   0.872   1.127   6.315
 9354SOL    HW228962   0.998   1.111   6.418
 9355SOL     OW28963   0.891   1.579   5.025
 9355SOL    HW128964   0.934   1.527   4.952
 9355SOL    HW228965   0.903   1.677   5.009
 9356SOL     OW28966   4.313   6.873   4.002
 9356SOL    HW128967   4.216   6.888   3.988
 9356SOL    HW228968   4.328   6.831   4.091
 9357SOL     OW28969   1.485   1.953   0.151
 9357SOL    HW128970   1.471   1.970   0.249
 9357SOL    HW228971   1.555   1.882   0.139
 9358SOL     OW28972   1.184   2.034   1.280
 9358SOL    HW128973   1.120   1.961   1.305
 9358SOL    HW228974   1.175   2.054   1.183
 9359SOL     OW28975   0.836   0.550   5.216
 9359SOL    HW128976   0.841   0.648   5.201
 9359SOL    HW228977   0.755   0.513   5.170
 9360SOL     OW28978   0.341   0.661   5.956
 9360SOL    HW128979   0.249   0.678   5.921
 9360SOL    HW228980   0.337   0.595   6.031
 9361SOL     OW28981   2.128   5.709   4.330
 9361SOL    HW128982   2.217   5.716   4.284
 9361SOL    HW228983   2.077   5.632   4.291
 9362SOL     OW28984   1.875   0.452   2.317
 9362SOL    HW128985   1.848   0.422   2.226
 9362SOL    HW228986   1.959   0.405   2.344
 9363SOL     OW28987   1.729   3.122   2.219
 9363SOL    HW128988   1.654   3.159   2.163
 9363SOL    HW228989   1.815   3.163   2.190
 9364SOL     OW28990   0.159   2.448   0.119
 9364SOL    HW128991   0.163   2.363   0.172
 9364SOL    HW228992   0.065   2.483   0.119
 9365SOL     OW28993   2.155   0.770   5.445
 9365SOL    HW128994   2.135   0.806   5.536
 9365SOL    HW228995   2.247   0.731   5.444
 9366SOL     OW28996   3.704   0.088   2.400
 9366SOL    HW128997   3.785   0.142   2.421
 9366SOL    HW228998   3.705   0.062   2.304
 9367SOL     OW28999   6.894   0.737   1.398
 9367SOL    HW129000   6.992   0.740   1.376
 9367SOL    HW229001   6.881   0.687   1.484
 9368SOL     OW29002   2.442   0.468   2.996
 9368SOL    HW129003   2.511   0.466   3.069
 9368SOL    HW229004   2.370   0.533   3.020
 9369SOL     OW29005   3.770   5.121   1.001
 9369SOL    HW129006   3.865   5.147   1.019
 9369SOL    HW229007   3.762   5.021   1.002
 9370SOL     OW29008   4.419   2.304   5.071
 9370SOL    HW129009   4.466   2.392   5.075
 9370SOL    HW229010   4.349   2.307   4.999
 9371SOL     OW29011   4.013   4.870   0.790
 9371SOL    HW129012   4.065   4.791   0.756
 9371SOL    HW229013   3.941   4.893   0.725
 9372SOL     OW29014   4.440   6.643   1.222
 9372SOL    HW129015   4.378   6.578   1.179
 9372SOL    HW229016   4.388   6.711   1.274
 9373SOL     OW29017   0.559   2.525   1.700
 9373SOL    HW129018   0.508   2.441   1.680
 9373SOL    HW229019   0.499   2.604   1.685
 9374SOL     OW29020   6.985   5.270   6.337
 9374SOL    HW129021   0.056   5.239   6.341
 9374SOL    HW229022   6.970   5.340   6.407
 9375SOL     OW29023   1.173   0.999   0.124
 9375SOL    HW129024   1.105   0.941   0.077
 9375SOL    HW229025   1.158   1.094   0.098
 9376SOL     OW29026   2.943   3.268   0.666
 9376SOL    HW129027   2.978   3.192   0.612
 9376SOL    HW229028   2.878   3.321   0.611
 9377SOL     OW29029   1.043   0.585   3.352
 9377SOL    HW129030   0.968   0.519   3.354
 9377SOL    HW229031   1.041   0.640   3.436
 9378SOL     OW29032   3.813   1.535   4.845
 9378SOL    HW129033   3.834   1.439   4.825
 9378SOL    HW229034   3.889   1.592   4.816
 9379SOL     OW29035   4.021   0.413   4.541
 9379SOL    HW129036   4.035   0.404   4.443
 9379SOL    HW229037   3.927   0.443   4.559
 9380SOL     OW29038   5.093   5.203   1.209
 9380SOL    HW129039   5.130   5.295   1.221
 9380SOL    HW229040   5.119   5.168   1.119
 9381SOL     OW29041   5.504   1.102   4.900
 9381SOL    HW129042   5.533   1.153   4.981
 9381SOL    HW229043   5.547   1.141   4.819
 9382SOL     OW29044   3.601   5.450   6.138
 9382SOL    HW129045   3.555   5.364   6.117
 9382SOL    HW229046   3.572   5.482   6.228
 9383SOL     OW29047   6.208   3.685   1.712
 9383SOL    HW129048   6.277   3.706   1.782
 9383SOL    HW229049   6.136   3.755   1.716
 9384SOL     OW29050   3.938   0.071   0.578
 9384SOL    HW129051   3.979   7.012   0.540
 9384SOL    HW229052   3.980   0.092   0.667
 9385SOL     OW29053   4.004   2.236   3.954
 9385SOL    HW129054   4.043   2.222   3.863
 9385SOL    HW229055   4.070   2.283   4.012
 9386SOL     OW29056   5.595   6.748   1.024
 9386SOL    HW129057   5.663   6.766   1.096
 9386SOL    HW229058   5.555   6.834   0.994
 9387SOL     OW29059   2.325   1.943   6.411
 9387SOL    HW129060   2.355   2.003   6.485
 9387SOL    HW229061   2.254   1.881   6.444
 9388SOL     OW29062   2.398   0.126   4.471
 9388SOL    HW129063   2.312   0.126   4.419
 9388SOL    HW229064   2.381   0.161   4.563
 9389SOL     OW29065   2.292   4.232   2.186
 9389SOL    HW129066   2.261   4.139   2.205
 9389SOL    HW229067   2.302   4.282   2.271
 9390SOL     OW29068   5.708   4.681   4.043
 9390SOL    HW129069   5.649   4.738   4.100
 9390SOL    HW229070   5.803   4.710   4.055
 9391SOL     OW29071   1.405   4.331   4.394
 9391SOL    HW129072   1.488   4.380   4.420
 9391SOL    HW229073   1.357   4.301   4.477
 9392SOL     OW29074   4.348   4.678   2.437
 9392SOL    HW129075   4.412   4.623   2.382
 9392SOL    HW229076   4.397   4.720   2.513
 9393SOL     OW29077   1.849   4.981   6.857
 9393SOL    HW129078   1.880   4.927   6.779
 9393SOL    HW229079   1.884   4.942   6.942
 9394SOL     OW29080   4.768   0.411   0.196
 9394SOL    HW129081   4.746   0.432   0.292
 9394SOL    HW229082   4.732   0.483   0.137
 9395SOL     OW29083   1.173   1.601   1.517
 9395SOL    HW129084   1.263   1.586   1.559
 9395SOL    HW229085   1.114   1.649   1.582
 9396SOL     OW29086   1.072   0.790   6.295
 9396SOL    HW129087   1.114   0.705   6.262
 9396SOL    HW229088   1.085   0.862   6.228
 9397SOL     OW29089   3.183   1.385   4.559
 9397SOL    HW129090   3.241   1.325   4.614
 9397SOL    HW229091   3.105   1.415   4.614
 9398SOL     OW29092   7.016   1.987   6.764
 9398SOL    HW129093   7.024   1.991   6.863
 9398SOL    HW229094   0.071   2.034   6.723
 9399SOL     OW29095   1.346   2.171   4.534
 9399SOL    HW129096   1.279   2.199   4.603
 9399SOL    HW229097   1.434   2.155   4.579
 9400SOL     OW29098   5.755   1.511   1.489
 9400SOL    HW129099   5.810   1.539   1.568
 9400SOL    HW229100   5.706   1.427   1.511
 9401SOL     OW29101   0.259   2.571   3.495
 9401SOL    HW129102   0.165   2.550   3.468
 9401SOL    HW229103   0.286   2.513   3.572
 9402SOL     OW29104   3.518   6.189   5.295
 9402SOL    HW129105   3.586   6.252   5.333
 9402SOL    HW229106   3.457   6.239   5.234
 9403SOL     OW29107   5.446   2.177   1.329
 9403SOL    HW129108   5.443   2.083   1.363
 9403SOL    HW229109   5.458   2.240   1.405
 9404SOL     OW29110   2.478   2.589   0.520
 9404SOL    HW129111   2.475   2.570   0.421
 9404SOL    HW229112   2.567   2.626   0.544
 9405SOL     OW29113   6.097   5.734   5.178
 9405SOL    HW129114   6.191   5.726   5.209
 9405SOL    HW229115   6.094   5.784   5.092
 9406SOL     OW29116   1.562   1.217   0.961
 9406SOL    HW129117   1.508   1.152   1.015
 9406SOL    HW229118   1.624   1.267   1.021
 9407SOL     OW29119   1.473   4.512   4.613
 9407SOL    HW129120   1.382   4.473   4.603
 9407SOL    HW229121   1.494   4.524   4.710
 9408SOL     OW29122   5.402   4.460   4.171
 9408SOL    HW129123   5.468   4.527   4.137
 9408SOL    HW229124   5.338   4.437   4.097
 9409SOL     OW29125   5.598   5.734   1.489
 9409SOL    HW129126   5.695   5.709   1.484
 9409SOL    HW229127   5.565   5.755   1.397
 9410SOL     OW29128   4.601   0.030   0.728
 9410SOL    HW129129   4.646   0.062   0.811
 9410SOL    HW229130   4.620   6.956   0.716
 9411SOL     OW29131   3.307   4.143   3.907
 9411SOL    HW129132   3.224   4.115   3.956
 9411SOL    HW229133   3.380   4.163   3.972
 9412SOL     OW29134   4.311   0.128   1.522
 9412SOL    HW129135   4.401   0.122   1.566
 9412SOL    HW229136   4.241   0.091   1.582
 9413SOL     OW29137   3.940   4.942   3.521
 9413SOL    HW129138   4.036   4.916   3.534
 9413SOL    HW229139   3.929   4.987   3.433
 9414SOL     OW29140   1.782   1.474   2.281
 9414SOL    HW129141   1.849   1.543   2.309
 9414SOL    HW229142   1.690   1.506   2.301
 9415SOL     OW29143   5.045   0.439   1.378
 9415SOL    HW129144   5.109   0.380   1.328
 9415SOL    HW229145   5.074   0.445   1.474
 9416SOL     OW29146   6.473   4.933   5.677
 9416SOL    HW129147   6.555   4.877   5.681
 9416SOL    HW229148   6.460   4.980   5.765
 9417SOL     OW29149   3.841   6.118   2.678
 9417SOL    HW129150   3.844   6.207   2.724
 9417SOL    HW229151   3.786   6.054   2.732
 9418SOL     OW29152   3.044   2.192   4.678
 9418SOL    HW129153   3.129   2.238   4.701
 9418SOL    HW229154   2.999   2.160   4.762
 9419SOL     OW29155   2.189   2.484   6.143
 9419SOL    HW129156   2.215   2.569   6.190
 9419SOL    HW229157   2.192   2.499   6.044
 9420SOL     OW29158   5.541   3.351   5.880
 9420SOL    HW129159   5.613   3.331   5.946
 9420SOL    HW229160   5.554   3.442   5.842
 9421SOL     OW29161   3.852   6.679   6.997
 9421SOL    HW129162   3.899   6.743   0.034
 9421SOL    HW229163   3.875   6.585   7.022
 9422SOL     OW29164   2.130   6.725   6.072
 9422SOL    HW129165   2.121   6.782   6.154
 9422SOL    HW229166   2.224   6.729   6.040
 9423SOL     OW29167   4.192   4.743   1.007
 9423SOL    HW129168   4.249   4.795   1.071
 9423SOL    HW229169   4.150   4.806   0.941
 9424SOL     OW29170   6.104   0.425   3.998
 9424SOL    HW129171   6.163   0.462   3.926
 9424SOL    HW229172   6.121   0.327   4.009
 9425SOL     OW29173   0.049   5.276   0.971
 9425SOL    HW129174   0.046   5.200   0.906
 9425SOL    HW229175   0.126   5.264   1.034
 9426SOL     OW29176   4.524   2.100   6.201
 9426SOL    HW129177   4.555   2.047   6.122
 9426SOL    HW229178   4.453   2.049   6.249
 9427SOL     OW29179   3.870   5.234   2.211
 9427SOL    HW129180   3.819   5.227   2.297
 9427SOL    HW229181   3.865   5.328   2.177
 9428SOL     OW29182   0.472   6.092   5.290
 9428SOL    HW129183   0.480   6.049   5.380
 9428SOL    HW229184   0.499   6.028   5.219
 9429SOL     OW29185   2.959   2.041   3.719
 9429SOL    HW129186   3.055   2.068   3.730
 9429SOL    HW229187   2.948   1.948   3.754
 9430SOL     OW29188   0.873   6.838   4.223
 9430SOL    HW129189   0.922   6.759   4.260
 9430SOL    HW229190   0.846   6.820   4.128
 9431SOL     OW29191   1.459   5.149   4.663
 9431SOL    HW129192   1.472   5.141   4.762
 9431SOL    HW229193   1.504   5.073   4.617
 9432SOL     OW29194   6.888   1.169   3.301
 9432SOL    HW129195   6.967   1.196   3.247
 9432SOL    HW229196   6.900   1.075   3.334
 9433SOL     OW29197   4.422   5.248   1.858
 9433SOL    HW129198   4.366   5.164   1.858
 9433SOL    HW229199   4.495   5.239   1.925
 9434SOL     OW29200   4.327   5.867   5.057
 9434SOL    HW129201   4.249   5.906   5.107
 9434SOL    HW229202   4.360   5.785   5.105
 9435SOL     OW29203   6.249   4.426   6.882
 9435SOL    HW129204   6.326   4.449   6.941
 9435SOL    HW229205   6.265   4.338   6.838
 9436SOL     OW29206   3.009   1.565   2.560
 9436SOL    HW129207   2.914   1.586   2.584
 9436SOL    HW229208   3.052   1.645   2.519
 9437SOL     OW29209   5.278   1.527   4.236
 9437SOL    HW129210   5.215   1.600   4.262
 9437SOL    HW229211   5.343   1.511   4.310
 9438SOL     OW29212   5.093   0.218   2.603
 9438SOL    HW129213   5.186   0.220   2.565
 9438SOL    HW229214   5.047   0.134   2.573
 9439SOL     OW29215   2.260   4.787   0.818
 9439SOL    HW129216   2.238   4.691   0.833
 9439SOL    HW229217   2.354   4.804   0.848
 9440SOL     OW29218   2.072   5.526   5.365
 9440SOL    HW129219   2.106   5.452   5.423
 9440SOL    HW229220   1.980   5.552   5.394
 9441SOL     OW29221   6.845   6.265   3.965
 9441SOL    HW129222   6.838   6.252   4.064
 9441SOL    HW229223   6.763   6.310   3.931
 9442SOL     OW29224   6.262   2.875   1.261
 9442SOL    HW129225   6.329   2.801   1.257
 9442SOL    HW229226   6.170   2.837   1.274
 9443SOL     OW29227   2.286   4.702   1.477
 9443SOL    HW129228   2.238   4.646   1.544
 9443SOL    HW229229   2.225   4.773   1.442
 9444SOL     OW29230   2.008   5.938   6.265
 9444SOL    HW129231   1.909   5.921   6.260
 9444SOL    HW229232   2.055   5.877   6.201
 9445SOL     OW29233   0.469   0.840   4.138
 9445SOL    HW129234   0.483   0.764   4.201
 9445SOL    HW229235   0.552   0.897   4.135
 9446SOL     OW29236   5.715   5.262   4.159
 9446SOL    HW129237   5.640   5.213   4.203
 9446SOL    HW229238   5.802   5.225   4.193
 9447SOL     OW29239   5.503   5.504   2.428
 9447SOL    HW129240   5.415   5.544   2.403
 9447SOL    HW229241   5.489   5.413   2.466
 9448SOL     OW29242   4.645   2.419   6.489
 9448SOL    HW129243   4.739   2.385   6.493
 9448SOL    HW229244   4.615   2.445   6.580
 9449SOL     OW29245   4.672   6.465   2.812
 9449SOL    HW129246   4.696   6.556   2.776
 9449SOL    HW229247   4.580   6.440   2.780
 9450SOL     OW29248   1.017   0.428   1.952
 9450SOL    HW129249   1.010   0.515   1.903
 9450SOL    HW229250   0.954   0.362   1.912
 9451SOL     OW29251   4.201   5.109   0.525
 9451SOL    HW129252   4.282   5.051   0.526
 9451SOL    HW229253   4.124   5.058   0.486
 9452SOL     OW29254   6.296   3.227   6.249
 9452SOL    HW129255   6.245   3.142   6.263
 9452SOL    HW229256   6.320   3.267   6.338
 9453SOL     OW29257   6.929   4.994   2.263
 9453SOL    HW129258   6.889   4.908   2.230
 9453SOL    HW229259   6.978   4.977   2.348
 9454SOL     OW29260   5.384   5.278   0.489
 9454SOL    HW129261   5.286   5.270   0.506
 9454SOL    HW229262   5.433   5.206   0.537
 9455SOL     OW29263   4.781   0.367   1.376
 9455SOL    HW129264   4.880   0.383   1.375
 9455SOL    HW229265   4.762   0.280   1.329
 9456SOL     OW29266   6.932   2.637   2.709
 9456SOL    HW129267   6.834   2.622   2.695
 9456SOL    HW229268   6.949   2.660   2.804
 9457SOL     OW29269   6.506   6.520   4.417
 9457SOL    HW129270   6.592   6.508   4.369
 9457SOL    HW229271   6.439   6.563   4.356
 9458SOL     OW29272   6.935   4.109   0.122
 9458SOL    HW129273   0.007   4.088   0.103
 9458SOL    HW229274   6.930   4.169   0.202
 9459SOL     OW29275   5.471   4.556   4.779
 9459SOL    HW129276   5.493   4.494   4.854
 9459SOL    HW229277   5.389   4.609   4.803
 9460SOL     OW29278   1.763   2.778   2.973
 9460SOL    HW129279   1.749   2.855   2.910
 9460SOL    HW229280   1.852   2.736   2.954
 9461SOL     OW29281   2.457   1.613   1.382
 9461SOL    HW129282   2.395   1.679   1.338
 9461SOL    HW229283   2.445   1.523   1.339
 9462SOL     OW29284   7.005   1.507   5.515
 9462SOL    HW129285   0.070   1.483   5.476
 9462SOL    HW229286   6.932   1.464   5.462
 9463SOL     OW29287   6.662   5.042   0.653
 9463SOL    HW129288   6.643   5.044   0.751
 9463SOL    HW229289   6.608   4.970   0.609
 9464SOL     OW29290   1.405   0.200   2.209
 9464SOL    HW129291   1.386   0.134   2.282
 9464SOL    HW229292   1.319   0.240   2.177
 9465SOL     OW29293   0.226   5.638   0.486
 9465SOL    HW129294   0.205   5.653   0.390
 9465SOL    HW229295   0.279   5.553   0.496
 9466SOL     OW29296   4.413   3.944   5.792
 9466SOL    HW129297   4.489   3.966   5.853
 9466SOL    HW229298   4.354   4.024   5.781
 9467SOL     OW29299   1.195   4.100   1.028
 9467SOL    HW129300   1.153   4.069   1.114
 9467SOL    HW229301   1.172   4.035   0.956
 9468SOL     OW29302   6.472   1.653   1.336
 9468SOL    HW129303   6.392   1.603   1.367
 9468SOL    HW229304   6.498   1.722   1.404
 9469SOL     OW29305   5.986   6.768   2.163
 9469SOL    HW129306   6.084   6.776   2.180
 9469SOL    HW229307   5.970   6.697   2.094
 9470SOL     OW29308   3.654   3.476   1.390
 9470SOL    HW129309   3.673   3.378   1.396
 9470SOL    HW229310   3.733   3.527   1.425
 9471SOL     OW29311   6.384   3.554   4.344
 9471SOL    HW129312   6.441   3.475   4.319
 9471SOL    HW229313   6.290   3.537   4.317
 9472SOL     OW29314   2.507   3.636   6.426
 9472SOL    HW129315   2.525   3.685   6.341
 9472SOL    HW229316   2.544   3.688   6.503
 9473SOL     OW29317   3.063   3.060   1.304
 9473SOL    HW129318   3.159   3.045   1.280
 9473SOL    HW229319   3.005   3.018   1.235
 9474SOL     OW29320   5.802   4.396   0.704
 9474SOL    HW129321   5.810   4.475   0.766
 9474SOL    HW229322   5.720   4.343   0.728
 9475SOL     OW29323   6.003   3.326   6.910
 9475SOL    HW129324   5.905   3.342   6.900
 9475SOL    HW229325   6.045   3.317   6.820
 9476SOL     OW29326   3.493   3.998   0.830
 9476SOL    HW129327   3.487   3.978   0.928
 9476SOL    HW229328   3.548   4.081   0.817
 9477SOL     OW29329   1.588   5.273   0.503
 9477SOL    HW129330   1.652   5.214   0.552
 9477SOL    HW229331   1.547   5.339   0.566
 9478SOL     OW29332   6.773   3.182   5.613
 9478SOL    HW129333   6.744   3.203   5.520
 9478SOL    HW229334   6.801   3.087   5.620
 9479SOL     OW29335   4.457   0.879   2.109
 9479SOL    HW129336   4.432   0.895   2.205
 9479SOL    HW229337   4.457   0.965   2.059
 9480SOL     OW29338   5.575   0.333   0.741
 9480SOL    HW129339   5.647   0.289   0.688
 9480SOL    HW229340   5.577   0.432   0.724
 9481SOL     OW29341   4.589   0.158   3.895
 9481SOL    HW129342   4.599   0.159   3.995
 9481SOL    HW229343   4.527   0.231   3.867
 9482SOL     OW29344   6.454   4.581   5.369
 9482SOL    HW129345   6.491   4.499   5.325
 9482SOL    HW229346   6.432   4.561   5.464
 9483SOL     OW29347   6.150   5.067   6.851
 9483SOL    HW129348   6.172   5.034   6.759
 9483SOL    HW229349   6.059   5.108   6.851
 9484SOL     OW29350   1.627   6.330   3.982
 9484SOL    HW129351   1.543   6.286   3.950
 9484SOL    HW229352   1.698   6.261   3.997
 9485SOL     OW29353   0.185   1.112   4.699
 9485SOL    HW129354   0.236   1.026   4.693
 9485SOL    HW229355   0.208   1.169   4.620
 9486SOL     OW29356   6.885   5.475   0.164
 9486SOL    HW129357   6.832   5.406   0.213
 9486SOL    HW229358   6.860   5.566   0.195
 9487SOL     OW29359   3.151   3.680   3.674
 9487SOL    HW129360   3.176   3.591   3.713
 9487SOL    HW229361   3.073   3.717   3.726
 9488SOL     OW29362   0.973   1.080   2.298
 9488SOL    HW129363   0.964   1.176   2.270
 9488SOL    HW229364   1.042   1.073   2.370
 9489SOL     OW29365   6.405   4.446   6.575
 9489SOL    HW129366   6.348   4.413   6.499
 9489SOL    HW229367   6.360   4.424   6.661
 9490SOL     OW29368   5.583   3.627   4.743
 9490SOL    HW129369   5.559   3.605   4.837
 9490SOL    HW229370   5.552   3.720   4.721
 9491SOL     OW29371   5.301   0.306   2.359
 9491SOL    HW129372   5.245   0.386   2.338
 9491SOL    HW229373   5.395   0.335   2.376
 9492SOL     OW29374   4.775   2.888   3.972
 9492SOL    HW129375   4.833   2.813   3.942
 9492SOL    HW229376   4.827   2.949   4.032
 9493SOL     OW29377   2.608   6.123   2.370
 9493SOL    HW129378   2.590   6.068   2.452
 9493SOL    HW229379   2.607   6.064   2.289
 9494SOL     OW29380   4.803   2.574   2.564
 9494SOL    HW129381   4.845   2.493   2.605
 9494SOL    HW229382   4.750   2.548   2.484
 9495SOL     OW29383   5.029   3.310   1.083
 9495SOL    HW129384   5.098   3.294   1.012
 9495SOL    HW229385   4.945   3.261   1.058
 9496SOL     OW29386   5.768   3.289   1.104
 9496SOL    HW129387   5.782   3.341   1.020
 9496SOL    HW229388   5.759   3.192   1.082
 9497SOL     OW29389   4.949   4.243   5.507
 9497SOL    HW129390   4.865   4.276   5.549
 9497SOL    HW229391   5.028   4.285   5.551
 9498SOL     OW29392   0.886   5.819   5.873
 9498SOL    HW129393   0.861   5.889   5.940
 9498SOL    HW229394   0.956   5.855   5.811
 9499SOL     OW29395   5.114   6.683   4.039
 9499SOL    HW129396   5.015   6.691   4.034
 9499SOL    HW229397   5.143   6.595   4.002
 9500SOL     OW29398   2.927   1.465   0.851
 9500SOL    HW129399   3.019   1.500   0.872
 9500SOL    HW229400   2.863   1.542   0.844
 9501SOL     OW29401   1.729   3.246   5.513
 9501SOL    HW129402   1.775   3.162   5.484
 9501SOL    HW229403   1.684   3.288   5.435
 9502SOL     OW29404   5.671   4.260   3.756
 9502SOL    HW129405   5.585   4.291   3.715
 9502SOL    HW229406   5.701   4.327   3.824
 9503SOL     OW29407   6.152   1.198   7.010
 9503SOL    HW129408   6.158   1.277   0.047
 9503SOL    HW229409   6.218   1.207   6.936
 9504SOL     OW29410   6.359   5.295   2.544
 9504SOL    HW129411   6.429   5.270   2.478
 9504SOL    HW229412   6.325   5.387   2.523
 9505SOL     OW29413   4.597   3.371   6.874
 9505SOL    HW129414   4.596   3.447   6.939
 9505SOL    HW229415   4.600   3.407   6.781
 9506SOL     OW29416   3.571   1.779   1.811
 9506SOL    HW129417   3.549   1.682   1.800
 9506SOL    HW229418   3.507   1.833   1.757
 9507SOL     OW29419   6.948   6.210   1.462
 9507SOL    HW129420   6.850   6.193   1.458
 9507SOL    HW229421   6.981   6.193   1.555
 9508SOL     OW29422   5.006   1.331   2.028
 9508SOL    HW129423   5.017   1.392   1.948
 9508SOL    HW229424   4.914   1.293   2.028
 9509SOL     OW29425   6.170   1.705   3.942
 9509SOL    HW129426   6.219   1.623   3.912
 9509SOL    HW229427   6.132   1.690   4.033
 9510SOL     OW29428   1.394   3.376   2.366
 9510SOL    HW129429   1.322   3.440   2.340
 9510SOL    HW229430   1.463   3.424   2.421
 9511SOL     OW29431   0.982   1.961   1.016
 9511SOL    HW129432   1.057   1.895   1.007
 9511SOL    HW229433   0.991   2.031   0.945
 9512SOL     OW29434   6.471   2.434   1.338
 9512SOL    HW129435   6.452   2.530   1.360
 9512SOL    HW229436   6.442   2.415   1.244
 9513SOL     OW29437   4.893   3.988   4.889
 9513SOL    HW129438   4.837   4.046   4.948
 9513SOL    HW229439   4.906   4.034   4.801
 9514SOL     OW29440   3.678   3.191   1.432
 9514SOL    HW129441   3.738   3.145   1.497
 9514SOL    HW229442   3.587   3.150   1.436
 9515SOL     OW29443   6.736   6.319   2.872
 9515SOL    HW129444   6.763   6.223   2.868
 9515SOL    HW229445   6.723   6.354   2.780
 9516SOL     OW29446   0.516   3.468   6.052
 9516SOL    HW129447   0.470   3.380   6.060
 9516SOL    HW229448   0.590   3.473   6.119
 9517SOL     OW29449   1.239   5.928   2.014
 9517SOL    HW129450   1.297   5.925   2.095
 9517SOL    HW229451   1.157   5.873   2.031
 9518SOL     OW29452   0.710   0.904   1.256
 9518SOL    HW129453   0.701   0.805   1.245
 9518SOL    HW229454   0.735   0.945   1.168
 9519SOL     OW29455   1.769   2.581   5.699
 9519SOL    HW129456   1.812   2.584   5.609
 9519SOL    HW229457   1.671   2.570   5.689
 9520SOL     OW29458   4.429   6.659   2.054
 9520SOL    HW129459   4.377   6.638   2.136
 9520SOL    HW229460   4.521   6.688   2.080
 9521SOL     OW29461   5.159   4.638   3.096
 9521SOL    HW129462   5.089   4.566   3.090
 9521SOL    HW229463   5.237   4.612   3.040
 9522SOL     OW29464   3.451   5.249   5.812
 9522SOL    HW129465   3.427   5.165   5.765
 9522SOL    HW229466   3.536   5.236   5.863
 9523SOL     OW29467   1.719   0.017   5.011
 9523SOL    HW129468   1.693   6.977   5.084
 9523SOL    HW229469   1.716   6.993   4.923
 9524SOL     OW29470   6.008   3.387   0.412
 9524SOL    HW129471   6.023   3.348   0.503
 9524SOL    HW229472   6.095   3.387   0.362
 9525SOL     OW29473   3.905   0.714   4.558
 9525SOL    HW129474   3.812   0.687   4.583
 9525SOL    HW229475   3.948   0.759   4.636
 9526SOL     OW29476   5.111   4.888   0.406
 9526SOL    HW129477   5.146   4.899   0.499
 9526SOL    HW229478   5.101   4.977   0.362
 9527SOL     OW29479   0.156   2.220   0.276
 9527SOL    HW129480   0.234   2.158   0.280
 9527SOL    HW229481   0.071   2.168   0.284
 9528SOL     OW29482   5.999   0.801   1.576
 9528SOL    HW129483   5.905   0.832   1.561
 9528SOL    HW229484   6.063   0.874   1.554
 9529SOL     OW29485   1.625   2.302   5.602
 9529SOL    HW129486   1.546   2.247   5.631
 9529SOL    HW229487   1.601   2.399   5.605
 9530SOL     OW29488   2.164   1.487   3.930
 9530SOL    HW129489   2.229   1.548   3.976
 9530SOL    HW229490   2.173   1.395   3.968
 9531SOL     OW29491   2.738   6.716   3.888
 9531SOL    HW129492   2.799   6.643   3.918
 9531SOL    HW229493   2.759   6.740   3.793
 9532SOL     OW29494   3.530   1.466   1.810
 9532SOL    HW129495   3.625   1.497   1.810
 9532SOL    HW229496   3.520   1.387   1.750
 9533SOL     OW29497   0.194   1.831   3.949
 9533SOL    HW129498   0.140   1.898   3.898
 9533SOL    HW229499   0.218   1.870   4.038
 9534SOL     OW29500   5.737   1.455   3.990
 9534SOL    HW129501   5.708   1.379   3.931
 9534SOL    HW229502   5.656   1.497   4.032
 9535SOL     OW29503   2.956   1.491   4.658
 9535SOL    HW129504   2.951   1.484   4.757
 9535SOL    HW229505   2.873   1.454   4.617
 9536SOL     OW29506   2.276   6.367   6.721
 9536SOL    HW129507   2.351   6.420   6.684
 9536SOL    HW229508   2.300   6.333   6.812
 9537SOL     OW29509   2.181   0.822   1.014
 9537SOL    HW129510   2.099   0.767   1.028
 9537SOL    HW229511   2.261   0.763   1.006
 9538SOL     OW29512   6.196   3.991   2.430
 9538SOL    HW129513   6.188   4.089   2.414
 9538SOL    HW229514   6.170   3.970   2.525
 9539SOL     OW29515   0.603   3.635   6.861
 9539SOL    HW129516   0.555   3.650   6.947
 9539SOL    HW229517   0.649   3.720   6.834
 9540SOL     OW29518   5.454   3.154   5.707
 9540SOL    HW129519   5.494   3.222   5.768
 9540SOL    HW229520   5.527   3.104   5.661
 9541SOL     OW29521   6.338   2.229   3.422
 9541SOL    HW129522   6.271   2.155   3.419
 9541SOL    HW229523   6.404   2.216   3.347
 9542SOL     OW29524   4.922   3.806   4.512
 9542SOL    HW129525   4.917   3.754   4.597
 9542SOL    HW229526   4.968   3.751   4.442
 9543SOL     OW29527   4.045   1.895   0.525
 9543SOL    HW129528   4.033   1.870   0.429
 9543SOL    HW229529   4.061   1.994   0.531
 9544SOL     OW29530   5.399   0.667   1.530
 9544SOL    HW129531   5.469   0.690   1.462
 9544SOL    HW229532   5.440   0.610   1.601
 9545SOL     OW29533   1.272   6.834   4.520
 9545SOL    HW129534   1.175   6.815   4.535
 9545SOL    HW229535   1.289   6.843   4.422
 9546SOL     OW29536   2.986   4.055   1.825
 9546SOL    HW129537   2.997   3.977   1.887
 9546SOL    HW229538   3.075   4.082   1.789
 9547SOL     OW29539   4.997   6.364   2.503
 9547SOL    HW129540   4.951   6.417   2.432
 9547SOL    HW229541   5.041   6.426   2.567
 9548SOL     OW29542   5.521   6.817   1.981
 9548SOL    HW129543   5.441   6.758   1.973
 9548SOL    HW229544   5.596   6.767   2.024
 9549SOL     OW29545   1.774   5.848   6.988
 9549SOL    HW129546   1.783   5.864   6.889
 9549SOL    HW229547   1.845   5.897   0.013
 9550SOL     OW29548   1.702   0.739   0.167
 9550SOL    HW129549   1.744   0.829   0.183
 9550SOL    HW229550   1.768   0.679   0.123
 9551SOL     OW29551   1.295   5.514   4.876
 9551SOL    HW129552   1.335   5.465   4.954
 9551SOL    HW229553   1.299   5.456   4.795
 9552SOL     OW29554   6.779   5.544   3.033
 9552SOL    HW129555   6.729   5.467   3.071
 9552SOL    HW229556   6.864   5.511   2.991
 9553SOL     OW29557   5.603   4.607   6.712
 9553SOL    HW129558   5.631   4.602   6.807
 9553SOL    HW229559   5.683   4.610   6.653
 9554SOL     OW29560   1.617   2.393   1.946
 9554SOL    HW129561   1.611   2.398   2.046
 9554SOL    HW229562   1.713   2.387   1.919
 9555SOL     OW29563   6.863   2.684   6.483
 9555SOL    HW129564   6.902   2.697   6.392
 9555SOL    HW229565   6.929   2.636   6.540
 9556SOL     OW29566   6.646   0.381   0.936
 9556SOL    HW129567   6.652   0.312   1.008
 9556SOL    HW229568   6.557   0.374   0.890
 9557SOL     OW29569   5.060   1.772   1.952
 9557SOL    HW129570   5.116   1.842   1.908
 9557SOL    HW229571   4.966   1.805   1.961
 9558SOL     OW29572   6.713   3.926   0.992
 9558SOL    HW129573   6.786   3.994   0.982
 9558SOL    HW229574   6.671   3.934   1.082
 9559SOL     OW29575   0.496   4.507   2.997
 9559SOL    HW129576   0.583   4.512   3.045
 9559SOL    HW229577   0.511   4.522   2.899
 9560SOL     OW29578   4.004   1.917   5.594
 9560SOL    HW129579   4.102   1.908   5.577
 9560SOL    HW229580   3.990   1.959   5.684
 9561SOL     OW29581   3.564   4.966   6.971
 9561SOL    HW129582   3.622   4.991   0.025
 9561SOL    HW229583   3.510   5.045   6.943
 9562SOL     OW29584   6.666   5.617   3.910
 9562SOL    HW129585   6.665   5.568   3.823
 9562SOL    HW229586   6.646   5.714   3.893
 9563SOL     OW29587   0.883   6.811   5.992
 9563SOL    HW129588   0.892   6.894   6.046
 9563SOL    HW229589   0.809   6.755   6.030
 9564SOL     OW29590   0.897   0.458   5.996
 9564SOL    HW129591   0.820   0.450   5.933
 9564SOL    HW229592   0.947   0.543   5.977
 9565SOL     OW29593   2.924   5.691   5.125
 9565SOL    HW129594   2.958   5.673   5.218
 9565SOL    HW229595   2.832   5.729   5.130
 9566SOL     OW29596   2.490   5.993   4.864
 9566SOL    HW129597   2.548   6.048   4.804
 9566SOL    HW229598   2.431   5.934   4.808
 9567SOL     OW29599   5.818   5.473   4.497
 9567SOL    HW129600   5.759   5.393   4.486
 9567SOL    HW229601   5.767   5.546   4.542
 9568SOL     OW29602   5.592   3.220   5.250
 9568SOL    HW129603   5.617   3.129   5.282
 9568SOL    HW229604   5.503   3.246   5.287
 9569SOL     OW29605   5.222   6.742   1.601
 9569SOL    HW129606   5.278   6.824   1.609
 9569SOL    HW229607   5.153   6.755   1.530
 9570SOL     OW29608   0.599   2.568   6.750
 9570SOL    HW129609   0.621   2.623   6.669
 9570SOL    HW229610   0.500   2.568   6.764
 9571SOL     OW29611   3.746   1.738   0.358
 9571SOL    HW129612   3.832   1.781   0.330
 9571SOL    HW229613   3.723   1.665   0.294
 9572SOL     OW29614   0.931   3.661   0.990
 9572SOL    HW129615   0.941   3.753   1.027
 9572SOL    HW229616   0.998   3.600   1.033
 9573SOL     OW29617   5.223   2.175   1.904
 9573SOL    HW129618   5.203   2.082   1.874
 9573SOL    HW229619   5.223   2.177   2.004
 9574SOL     OW29620   2.516   1.635   4.069
 9574SOL    HW129621   2.536   1.612   3.974
 9574SOL    HW229622   2.488   1.552   4.117
 9575SOL     OW29623   3.231   1.440   2.734
 9575SOL    HW129624   3.157   1.505   2.745
 9575SOL    HW229625   3.302   1.459   2.802
 9576SOL     OW29626   4.251   3.477   6.027
 9576SOL    HW129627   4.159   3.517   6.034
 9576SOL    HW229628   4.281   3.446   6.117
 9577SOL     OW29629   0.327   5.454   3.834
 9577SOL    HW129630   0.263   5.413   3.900
 9577SOL    HW229631   0.389   5.516   3.882
 9578SOL     OW29632   6.795   4.296   1.415
 9578SOL    HW129633   6.858   4.240   1.469
 9578SOL    HW229634   6.774   4.380   1.464
 9579SOL     OW29635   1.403   4.255   2.722
 9579SOL    HW129636   1.360   4.294   2.804
 9579SOL    HW229637   1.334   4.237   2.653
 9580SOL     OW29638   3.889   4.121   5.201
 9580SOL    HW129639   3.820   4.080   5.261
 9580SOL    HW229640   3.882   4.081   5.110
 9581SOL     OW29641   1.340   6.926   6.320
 9581SOL    HW129642   1.332   6.842   6.267
 9581SOL    HW229643   1.374   6.999   6.260
 9582SOL     OW29644   4.188   5.989   3.669
 9582SOL    HW129645   4.163   5.963   3.762
 9582SOL    HW229646   4.272   6.042   3.670
 9583SOL     OW29647   1.254   4.658   2.272
 9583SOL    HW129648   1.285   4.731   2.333
 9583SOL    HW229649   1.188   4.696   2.206
 9584SOL     OW29650   5.552   3.904   6.982
 9584SOL    HW129651   5.574   3.997   6.953
 9584SOL    HW229652   5.471   3.872   6.933
 9585SOL     OW29653   5.814   1.328   3.078
 9585SOL    HW129654   5.871   1.259   3.124
 9585SOL    HW229655   5.718   1.312   3.102
 9586SOL     OW29656   4.693   4.385   2.665
 9586SOL    HW129657   4.668   4.481   2.661
 9586SOL    HW229658   4.675   4.342   2.576
 9587SOL     OW29659   4.250   6.202   1.557
 9587SOL    HW129660   4.322   6.216   1.624
 9587SOL    HW229661   4.224   6.290   1.517
 9588SOL     OW29662   5.933   1.400   3.615
 9588SOL    HW129663   5.929   1.350   3.529
 9588SOL    HW229664   6.000   1.474   3.608
 9589SOL     OW29665   4.119   1.842   5.117
 9589SOL    HW129666   4.170   1.772   5.166
 9589SOL    HW229667   4.022   1.821   5.120
 9590SOL     OW29668   0.021   5.000   4.719
 9590SOL    HW129669   6.978   4.980   4.790
 9590SOL    HW229670   0.090   4.927   4.716
 9591SOL     OW29671   7.004   4.506   2.497
 9591SOL    HW129672   6.989   4.438   2.424
 9591SOL    HW229673   0.049   4.471   2.561
 9592SOL     OW29674   3.837   5.392   0.414
 9592SOL    HW129675   3.808   5.481   0.450
 9592SOL    HW229676   3.933   5.378   0.435
 9593SOL     OW29677   1.945   2.233   3.653
 9593SOL    HW129678   1.962   2.307   3.718
 9593SOL    HW229679   1.849   2.204   3.661
 9594SOL     OW29680   5.698   0.106   0.883
 9594SOL    HW129681   5.676   0.165   0.806
 9594SOL    HW229682   5.776   0.144   0.934
 9595SOL     OW29683   2.550   5.080   5.582
 9595SOL    HW129684   2.482   5.150   5.606
 9595SOL    HW229685   2.571   5.026   5.663
 9596SOL     OW29686   5.654   5.015   2.311
 9596SOL    HW129687   5.619   5.063   2.392
 9596SOL    HW229688   5.751   4.996   2.323
 9597SOL     OW29689   2.109   4.177   1.892
 9597SOL    HW129690   2.054   4.095   1.875
 9597SOL    HW229691   2.071   4.227   1.970
 9598SOL     OW29692   0.808   5.975   5.459
 9598SOL    HW129693   0.861   6.053   5.426
 9598SOL    HW229694   0.718   6.006   5.488
 9599SOL     OW29695   3.562   2.052   5.516
 9599SOL    HW129696   3.512   2.096   5.442
 9599SOL    HW229697   3.601   1.966   5.482
 9600SOL     OW29698   1.367   5.875   0.001
 9600SOL    HW129699   1.274   5.838   0.013
 9600SOL    HW229700   1.432   5.799   7.016
 9601SOL     OW29701   1.411   6.917   4.728
 9601SOL    HW129702   1.372   6.909   4.820
 9601SOL    HW229703   1.339   6.900   4.660
 9602SOL     OW29704   1.316   5.902   6.386
 9602SOL    HW129705   1.267   5.917   6.472
 9602SOL    HW229706   1.251   5.882   6.313
 9603SOL     OW29707   1.143   5.183   1.877
 9603SOL    HW129708   1.057   5.228   1.901
 9603SOL    HW229709   1.208   5.192   1.952
 9604SOL     OW29710   0.085   0.517   6.169
 9604SOL    HW129711   0.034   0.530   6.085
 9604SOL    HW229712   0.175   0.477   6.148
 9605SOL     OW29713   3.750   4.458   0.830
 9605SOL    HW129714   3.815   4.450   0.906
 9605SOL    HW229715   3.665   4.499   0.863
 9606SOL     OW29716   7.006   1.566   4.881
 9606SOL    HW129717   6.985   1.565   4.978
 9606SOL    HW229718   6.954   1.495   4.834
 9607SOL     OW29719   6.764   2.786   3.626
 9607SOL    HW129720   6.727   2.796   3.718
 9607SOL    HW229721   6.839   2.719   3.627
 9608SOL     OW29722   5.857   0.705   1.282
 9608SOL    HW129723   5.863   0.633   1.352
 9608SOL    HW229724   5.947   0.719   1.242
 9609SOL     OW29725   1.430   2.177   4.265
 9609SOL    HW129726   1.527   2.158   4.255
 9609SOL    HW229727   1.402   2.160   4.360
 9610SOL     OW29728   5.260   0.669   5.883
 9610SOL    HW129729   5.264   0.767   5.866
 9610SOL    HW229730   5.351   0.630   5.873
 9611SOL     OW29731   4.657   5.707   1.413
 9611SOL    HW129732   4.656   5.644   1.491
 9611SOL    HW229733   4.569   5.704   1.367
 9612SOL     OW29734   5.211   3.984   3.609
 9612SOL    HW129735   5.309   4.003   3.611
 9612SOL    HW229736   5.164   4.062   3.567
 9613SOL     OW29737   5.384   0.883   4.971
 9613SOL    HW129738   5.439   0.963   4.947
 9613SOL    HW229739   5.427   0.834   5.046
 9614SOL     OW29740   3.140   2.377   0.497
 9614SOL    HW129741   3.093   2.403   0.413
 9614SOL    HW229742   3.084   2.404   0.576
 9615SOL     OW29743   6.527   6.097   3.376
 9615SOL    HW129744   6.549   6.195   3.383
 9615SOL    HW229745   6.550   6.065   3.284
 9616SOL     OW29746   0.388   2.259   1.277
 9616SOL    HW129747   0.409   2.356   1.278
 9616SOL    HW229748   0.428   2.217   1.196
 9617SOL     OW29749   0.169   3.251   3.695
 9617SOL    HW129750   0.131   3.274   3.606
 9617SOL    HW229751   0.264   3.221   3.684
 9618SOL     OW29752   5.182   3.888   2.231
 9618SOL    HW129753   5.209   3.890   2.135
 9618SOL    HW229754   5.102   3.946   2.245
 9619SOL     OW29755   1.157   0.842   1.042
 9619SOL    HW129756   1.253   0.818   1.033
 9619SOL    HW229757   1.142   0.891   1.128
 9620SOL     OW29758   4.343   1.033   6.415
 9620SOL    HW129759   4.275   1.064   6.481
 9620SOL    HW229760   4.339   1.090   6.333
 9621SOL     OW29761   6.658   1.319   1.208
 9621SOL    HW129762   6.618   1.229   1.226
 9621SOL    HW229763   6.732   1.336   1.273
 9622SOL     OW29764   6.622   6.367   4.757
 9622SOL    HW129765   6.620   6.459   4.719
 9622SOL    HW229766   6.713   6.349   4.796
 9623SOL     OW29767   2.177   6.139   6.300
 9623SOL    HW129768   2.151   6.203   6.372
 9623SOL    HW229769   2.103   6.074   6.285
 9624SOL     OW29770   4.458   4.646   6.781
 9624SOL    HW129771   4.409   4.618   6.863
 9624SOL    HW229772   4.396   4.695   6.719
 9625SOL     OW29773   5.170   4.617   5.943
 9625SOL    HW129774   5.161   4.714   5.969
 9625SOL    HW229775   5.181   4.561   6.025
 9626SOL     OW29776   2.738   2.929   6.754
 9626SOL    HW129777   2.645   2.949   6.785
 9626SOL    HW229778   2.735   2.896   6.659
 9627SOL     OW29779   6.781   5.894   0.469
 9627SOL    HW129780   6.816   5.978   0.510
 9627SOL    HW229781   6.681   5.898   0.464
 9628SOL     OW29782   5.968   1.631   5.258
 9628SOL    HW129783   5.874   1.606   5.236
 9628SOL    HW229784   5.991   1.595   5.349
 9629SOL     OW29785   0.376   5.358   4.213
 9629SOL    HW129786   0.469   5.391   4.225
 9629SOL    HW229787   0.374   5.292   4.138
 9630SOL     OW29788   6.267   0.257   6.200
 9630SOL    HW129789   6.291   0.308   6.116
 9630SOL    HW229790   6.304   0.165   6.194
 9631SOL     OW29791   5.119   5.706   0.505
 9631SOL    HW129792   5.050   5.743   0.567
 9631SOL    HW229793   5.136   5.771   0.431
 9632SOL     OW29794   3.026   5.441   2.612
 9632SOL    HW129795   3.043   5.353   2.656
 9632SOL    HW229796   3.047   5.435   2.514
 9633SOL     OW29797   3.233   3.126   5.211
 9633SOL    HW129798   3.305   3.125   5.142
 9633SOL    HW229799   3.214   3.221   5.237
 9634SOL     OW29800   6.263   4.680   2.517
 9634SOL    HW129801   6.318   4.643   2.443
 9634SOL    HW229802   6.318   4.742   2.573
 9635SOL     OW29803   0.614   5.525   4.241
 9635SOL    HW129804   0.693   5.484   4.287
 9635SOL    HW229805   0.637   5.617   4.211
 9636SOL     OW29806   5.203   3.435   4.000
 9636SOL    HW129807   5.203   3.433   4.100
 9636SOL    HW229808   5.207   3.341   3.965
 9637SOL     OW29809   2.851   2.611   6.311
 9637SOL    HW129810   2.897   2.688   6.355
 9637SOL    HW229811   2.775   2.580   6.368
 9638SOL     OW29812   0.383   4.422   5.689
 9638SOL    HW129813   0.350   4.461   5.775
 9638SOL    HW229814   0.447   4.486   5.646
 9639SOL     OW29815   5.218   2.902   1.166
 9639SOL    HW129816   5.144   2.836   1.177
 9639SOL    HW229817   5.214   2.970   1.238
 9640SOL     OW29818   3.053   0.129   3.421
 9640SOL    HW129819   3.071   0.035   3.393
 9640SOL    HW229820   3.032   0.132   3.519
 9641SOL     OW29821   0.778   2.534   4.595
 9641SOL    HW129822   0.871   2.517   4.564
 9641SOL    HW229823   0.715   2.475   4.546
 9642SOL     OW29824   0.656   2.841   5.423
 9642SOL    HW129825   0.707   2.927   5.416
 9642SOL    HW229826   0.634   2.824   5.519
 9643SOL     OW29827   6.046   5.336   4.593
 9643SOL    HW129828   6.064   5.367   4.687
 9643SOL    HW229829   5.957   5.370   4.563
 9644SOL     OW29830   0.493   4.592   3.631
 9644SOL    HW129831   0.478   4.548   3.542
 9644SOL    HW229832   0.565   4.543   3.681
 9645SOL     OW29833   1.240   4.827   0.234
 9645SOL    HW129834   1.276   4.742   0.196
 9645SOL    HW229835   1.155   4.852   0.186
 9646SOL     OW29836   2.821   4.750   0.692
 9646SOL    HW129837   2.753   4.679   0.705
 9646SOL    HW229838   2.790   4.835   0.736
 9647SOL     OW29839   5.391   0.140   2.870
 9647SOL    HW129840   5.490   0.134   2.862
 9647SOL    HW229841   5.350   0.147   2.779
 9648SOL     OW29842   3.518   2.471   1.051
 9648SOL    HW129843   3.499   2.527   0.970
 9648SOL    HW229844   3.616   2.472   1.070
 9649SOL     OW29845   0.018   6.027   0.785
 9649SOL    HW129846   0.064   6.084   0.852
 9649SOL    HW229847   0.086   5.980   0.729
 9650SOL     OW29848   0.427   5.179   4.883
 9650SOL    HW129849   0.432   5.263   4.829
 9650SOL    HW229850   0.445   5.100   4.825
 9651SOL     OW29851   4.235   1.382   6.744
 9651SOL    HW129852   4.268   1.440   6.818
 9651SOL    HW229853   4.248   1.429   6.656
 9652SOL     OW29854   6.943   3.680   0.610
 9652SOL    HW129855   6.902   3.771   0.605
 9652SOL    HW229856   6.916   3.637   0.696
 9653SOL     OW29857   5.368   3.621   5.316
 9653SOL    HW129858   5.349   3.711   5.356
 9653SOL    HW229859   5.467   3.607   5.311
 9654SOL     OW29860   4.081   3.370   4.502
 9654SOL    HW129861   4.035   3.426   4.433
 9654SOL    HW229862   4.115   3.429   4.576
 9655SOL     OW29863   5.001   0.197   0.964
 9655SOL    HW129864   4.937   0.213   0.889
 9655SOL    HW229865   5.082   0.255   0.953
 9656SOL     OW29866   5.685   4.632   5.939
 9656SOL    HW129867   5.651   4.577   6.015
 9656SOL    HW229868   5.755   4.695   5.972
 9657SOL     OW29869   5.029   5.404   2.954
 9657SOL    HW129870   4.996   5.453   3.035
 9657SOL    HW229871   5.072   5.318   2.982
 9658SOL     OW29872   5.369   0.985   2.812
 9658SOL    HW129873   5.427   1.019   2.738
 9658SOL    HW229874   5.390   1.033   2.897
 9659SOL     OW29875   3.441   2.775   0.504
 9659SOL    HW129876   3.342   2.767   0.495
 9659SOL    HW229877   3.467   2.760   0.600
 9660SOL     OW29878   2.809   6.998   1.383
 9660SOL    HW129879   2.761   6.992   1.470
 9660SOL    HW229880   2.879   6.927   1.379
 9661SOL     OW29881   4.096   3.484   2.196
 9661SOL    HW129882   4.011   3.435   2.212
 9661SOL    HW229883   4.157   3.471   2.274
 9662SOL     OW29884   4.051   0.502   4.975
 9662SOL    HW129885   4.060   0.455   5.063
 9662SOL    HW229886   4.020   0.595   4.990
 9663SOL     OW29887   1.238   5.609   2.841
 9663SOL    HW129888   1.197   5.641   2.756
 9663SOL    HW229889   1.277   5.687   2.890
 9664SOL     OW29890   2.260   4.575   3.413
 9664SOL    HW129891   2.170   4.542   3.443
 9664SOL    HW229892   2.250   4.625   3.327
 9665SOL     OW29893   6.087   3.957   6.342
 9665SOL    HW129894   6.132   3.921   6.424
 9665SOL    HW229895   6.102   3.894   6.266
 9666SOL     OW29896   5.149   3.919   0.729
 9666SOL    HW129897   5.126   3.893   0.636
 9666SOL    HW229898   5.078   3.978   0.766
 9667SOL     OW29899   5.901   6.450   6.564
 9667SOL    HW129900   5.813   6.409   6.537
 9667SOL    HW229901   5.970   6.425   6.496
 9668SOL     OW29902   2.523   0.005   6.997
 9668SOL    HW129903   2.614   0.026   6.961
 9668SOL    HW229904   2.484   6.953   6.947
 9669SOL     OW29905   3.666   0.164   0.485
 9669SOL    HW129906   3.690   0.116   0.569
 9669SOL    HW229907   3.703   0.114   0.406
 9670SOL     OW29908   0.924   6.826   2.151
 9670SOL    HW129909   0.944   6.922   2.166
 9670SOL    HW229910   0.825   6.813   2.141
 9671SOL     OW29911   0.901   6.382   6.084
 9671SOL    HW129912   0.821   6.440   6.102
 9671SOL    HW229913   0.922   6.328   6.165
 9672SOL     OW29914   0.878   4.456   4.707
 9672SOL    HW129915   0.804   4.523   4.702
 9672SOL    HW229916   0.956   4.488   4.653
 9673SOL     OW29917   2.032   3.340   5.886
 9673SOL    HW129918   2.068   3.354   5.793
 9673SOL    HW229919   1.934   3.323   5.881
 9674SOL     OW29920   1.677   0.196   3.546
 9674SOL    HW129921   1.728   0.130   3.491
 9674SOL    HW229922   1.582   0.167   3.554
 9675SOL     OW29923   5.840   4.143   5.959
 9675SOL    HW129924   5.920   4.184   6.003
 9675SOL    HW229925   5.824   4.052   5.997
 9676SOL     OW29926   0.972   3.128   5.920
 9676SOL    HW129927   0.964   3.216   5.874
 9676SOL    HW229928   1.019   3.140   6.007
 9677SOL     OW29929   0.568   4.782   2.660
 9677SOL    HW129930   0.562   4.728   2.745
 9677SOL    HW229931   0.658   4.768   2.619
 9678SOL     OW29932   4.503   2.744   6.081
 9678SOL    HW129933   4.466   2.678   6.147
 9678SOL    HW229934   4.448   2.742   5.998
 9679SOL     OW29935   1.167   1.178   4.481
 9679SOL    HW129936   1.152   1.241   4.405
 9679SOL    HW229937   1.265   1.163   4.494
 9680SOL     OW29938   4.540   0.227   1.895
 9680SOL    HW129939   4.484   0.289   1.950
 9680SOL    HW229940   4.561   0.145   1.948
 9681SOL     OW29941   0.236   3.110   1.623
 9681SOL    HW129942   0.139   3.099   1.644
 9681SOL    HW229943   0.269   3.194   1.665
 9682SOL     OW29944   3.774   6.280   5.397
 9682SOL    HW129945   3.856   6.239   5.437
 9682SOL    HW229946   3.800   6.339   5.320
 9683SOL     OW29947   3.377   5.744   3.521
 9683SOL    HW129948   3.326   5.753   3.607
 9683SOL    HW229949   3.474   5.763   3.538
 9684SOL     OW29950   0.961   2.677   6.391
 9684SOL    HW129951   0.999   2.742   6.325
 9684SOL    HW229952   0.995   2.700   6.482
 9685SOL     OW29953   3.525   4.347   1.789
 9685SOL    HW129954   3.536   4.436   1.835
 9685SOL    HW229955   3.449   4.353   1.724
 9686SOL     OW29956   0.702   1.736   6.007
 9686SOL    HW129957   0.765   1.811   6.028
 9686SOL    HW229958   0.657   1.754   5.919
 9687SOL     OW29959   5.478   0.838   3.820
 9687SOL    HW129960   5.523   0.751   3.802
 9687SOL    HW229961   5.489   0.861   3.917
 9688SOL     OW29962   0.442   5.136   2.591
 9688SOL    HW129963   0.404   5.135   2.683
 9688SOL    HW229964   0.415   5.220   2.544
 9689SOL     OW29965   1.908   5.604   1.385
 9689SOL    HW129966   1.989   5.634   1.334
 9689SOL    HW229967   1.836   5.577   1.320
 9690SOL     OW29968   6.399   4.493   5.010
 9690SOL    HW129969   6.378   4.590   5.022
 9690SOL    HW229970   6.462   4.482   4.933
 9691SOL     OW29971   3.809   3.363   2.234
 9691SOL    HW129972   3.782   3.453   2.201
 9691SOL    HW229973   3.737   3.326   2.293
 9692SOL     OW29974   5.201   4.963   0.657
 9692SOL    HW129975   5.286   5.012   0.639
 9692SOL    HW229976   5.221   4.877   0.704
 9693SOL     OW29977   4.431   3.170   6.797
 9693SOL    HW129978   4.480   3.257   6.807
 9693SOL    HW229979   4.419   3.129   6.887
 9694SOL     OW29980   2.712   6.541   0.900
 9694SOL    HW129981   2.741   6.525   0.806
 9694SOL    HW229982   2.660   6.462   0.932
 9695SOL     OW29983   2.067   2.771   3.614
 9695SOL    HW129984   1.969   2.759   3.629
 9695SOL    HW229985   2.089   2.868   3.615
 9696SOL     OW29986   4.932   3.702   3.359
 9696SOL    HW129987   4.932   3.786   3.414
 9696SOL    HW229988   4.948   3.623   3.418
 9697SOL     OW29989   6.726   6.843   1.837
 9697SOL    HW129990   6.823   6.855   1.816
 9697SOL    HW229991   6.716   6.766   1.901
 9698SOL     OW29992   6.781   3.140   1.870
 9698SOL    HW129993   6.759   3.048   1.901
 9698SOL    HW229994   6.724   3.206   1.919
 9699SOL     OW29995   1.709   6.942   2.168
 9699SOL    HW129996   1.723   6.847   2.141
 9699SOL    HW229997   1.747   7.002   2.097
 9700SOL     OW29998   6.499   0.400   5.767
 9700SOL    HW129999   6.457   0.321   5.723
 9700SOL    HW230000   6.597   0.403   5.744
 9701SOL     OW30001   5.384   3.670   6.870
 9701SOL    HW130002   5.394   3.582   6.916
 9701SOL    HW230003   5.434   3.668   6.783
 9702SOL     OW30004   2.997   3.772   1.902
 9702SOL    HW130005   3.063   3.743   1.834
 9702SOL    HW230006   2.911   3.723   1.888
 9703SOL     OW30007   6.333   5.256   3.036
 9703SOL    HW130008   6.344   5.327   3.106
 9703SOL    HW230009   6.240   5.218   3.042
 9704SOL     OW30010   0.613   4.591   2.302
 9704SOL    HW130011   0.644   4.552   2.389
 9704SOL    HW230012   0.605   4.518   2.234
 9705SOL     OW30013   6.875   3.644   5.950
 9705SOL    HW130014   6.852   3.547   5.961
 9705SOL    HW230015   6.914   3.658   5.859
 9706SOL     OW30016   1.058   6.472   1.660
 9706SOL    HW130017   0.967   6.503   1.632
 9706SOL    HW230018   1.097   6.536   1.726
 9707SOL     OW30019   1.216   4.980   2.224
 9707SOL    HW130020   1.231   4.959   2.320
 9707SOL    HW230021   1.297   5.025   2.186
 9708SOL     OW30022   2.672   1.288   1.830
 9708SOL    HW130023   2.608   1.238   1.887
 9708SOL    HW230024   2.764   1.283   1.870
 9709SOL     OW30025   4.494   1.565   2.134
 9709SOL    HW130026   4.559   1.555   2.059
 9709SOL    HW230027   4.437   1.483   2.140
 9710SOL     OW30028   4.641   4.436   4.221
 9710SOL    HW130029   4.596   4.407   4.136
 9710SOL    HW230030   4.575   4.486   4.278
 9711SOL     OW30031   2.907   0.452   0.072
 9711SOL    HW130032   2.821   0.407   0.046
 9711SOL    HW230033   2.924   0.529   0.011
 9712SOL     OW30034   4.890   6.706   5.372
 9712SOL    HW130035   4.822   6.707   5.445
 9712SOL    HW230036   4.876   6.785   5.312
 9713SOL     OW30037   1.051   0.555   2.665
 9713SOL    HW130038   1.149   0.567   2.649
 9713SOL    HW230039   1.011   0.643   2.691
 9714SOL     OW30040   2.325   2.857   3.871
 9714SOL    HW130041   2.309   2.943   3.920
 9714SOL    HW230042   2.369   2.791   3.932
 9715SOL     OW30043   0.144   1.768   6.431
 9715SOL    HW130044   0.046   1.788   6.428
 9715SOL    HW230045   0.177   1.749   6.338
 9716SOL     OW30046   1.836   6.613   0.893
 9716SOL    HW130047   1.849   6.696   0.947
 9716SOL    HW230048   1.763   6.628   0.826
 9717SOL     OW30049   4.278   2.181   6.087
 9717SOL    HW130050   4.350   2.158   6.153
 9717SOL    HW230051   4.191   2.193   6.135
 9718SOL     OW30052   3.270   1.877   6.259
 9718SOL    HW130053   3.194   1.819   6.286
 9718SOL    HW230054   3.265   1.965   6.307
 9719SOL     OW30055   3.903   6.872   5.244
 9719SOL    HW130056   3.864   6.826   5.324
 9719SOL    HW230057   3.835   6.876   5.171
 9720SOL     OW30058   1.933   2.856   1.953
 9720SOL    HW130059   1.899   2.763   1.972
 9720SOL    HW230060   1.953   2.865   1.856
 9721SOL     OW30061   0.836   2.204   1.385
 9721SOL    HW130062   0.797   2.117   1.355
 9721SOL    HW230063   0.900   2.237   1.317
 9722SOL     OW30064   3.443   2.844   5.626
 9722SOL    HW130065   3.397   2.779   5.565
 9722SOL    HW230066   3.538   2.817   5.638
 9723SOL     OW30067   5.804   0.351   5.138
 9723SOL    HW130068   5.827   0.401   5.221
 9723SOL    HW230069   5.798   0.253   5.159
 9724SOL     OW30070   2.089   5.290   1.525
 9724SOL    HW130071   2.121   5.197   1.539
 9724SOL    HW230072   2.127   5.327   1.440
 9725SOL     OW30073   5.555   5.551   4.028
 9725SOL    HW130074   5.469   5.506   4.005
 9725SOL    HW230075   5.549   5.648   4.005
 9726SOL     OW30076   0.016   0.230   3.301
 9726SOL    HW130077   0.080   0.175   3.354
 9726SOL    HW230078   6.971   0.171   3.258
 9727SOL     OW30079   6.671   2.782   1.763
 9727SOL    HW130080   6.645   2.858   1.704
 9727SOL    HW230081   6.601   2.711   1.759
 9728SOL     OW30082   6.227   1.654   4.737
 9728SOL    HW130083   6.208   1.556   4.731
 9728SOL    HW230084   6.146   1.702   4.769
 9729SOL     OW30085   0.145   3.712   2.625
 9729SOL    HW130086   0.144   3.811   2.632
 9729SOL    HW230087   0.054   3.679   2.601
 9730SOL     OW30088   0.593   5.642   3.712
 9730SOL    HW130089   0.682   5.686   3.718
 9730SOL    HW230090   0.570   5.622   3.617
 9731SOL     OW30091   6.882   1.697   1.462
 9731SOL    HW130092   6.920   1.758   1.393
 9731SOL    HW230093   6.831   1.624   1.417
 9732SOL     OW30094   0.267   3.044   3.361
 9732SOL    HW130095   0.263   3.063   3.459
 9732SOL    HW230096   0.217   2.959   3.342
 9733SOL     OW30097   5.660   5.587   0.704
 9733SOL    HW130098   5.580   5.623   0.752
 9733SOL    HW230099   5.737   5.650   0.715
 9734SOL     OW30100   3.870   3.691   0.150
 9734SOL    HW130101   3.889   3.698   0.052
 9734SOL    HW230102   3.777   3.658   0.164
 9735SOL     OW30103   0.936   1.617   0.459
 9735SOL    HW130104   1.012   1.615   0.524
 9735SOL    HW230105   0.909   1.712   0.441
 9736SOL     OW30106   5.096   2.106   5.575
 9736SOL    HW130107   5.032   2.045   5.622
 9736SOL    HW230108   5.189   2.080   5.598
 9737SOL     OW30109   5.233   3.250   4.684
 9737SOL    HW130110   5.302   3.321   4.675
 9737SOL    HW230111   5.159   3.283   4.744
 9738SOL     OW30112   2.928   5.985   1.345
 9738SOL    HW130113   2.949   6.074   1.385
 9738SOL    HW230114   2.974   5.913   1.396
 9739SOL     OW30115   5.638   6.753   0.405
 9739SOL    HW130116   5.629   6.792   0.313
 9739SOL    HW230117   5.735   6.734   0.423
 9740SOL     OW30118   6.643   1.268   0.703
 9740SOL    HW130119   6.731   1.274   0.656
 9740SOL    HW230120   6.569   1.271   0.635
 9741SOL     OW30121   2.204   2.881   2.988
 9741SOL    HW130122   2.188   2.869   3.086
 9741SOL    HW230123   2.254   2.966   2.973
 9742SOL     OW30124   4.115   0.545   6.809
 9742SOL    HW130125   4.110   0.446   6.817
 9742SOL    HW230126   4.022   0.582   6.799
 9743SOL     OW30127   6.673   3.806   4.654
 9743SOL    HW130128   6.599   3.740   4.639
 9743SOL    HW230129   6.742   3.795   4.582
 9744SOL     OW30130   1.837   2.602   2.118
 9744SOL    HW130131   1.817   2.555   2.204
 9744SOL    HW230132   1.865   2.535   2.049
 9745SOL     OW30133   1.414   6.392   5.993
 9745SOL    HW130134   1.323   6.394   5.950
 9745SOL    HW230135   1.475   6.334   5.940
 9746SOL     OW30136   3.581   6.287   6.304
 9746SOL    HW130137   3.573   6.262   6.207
 9746SOL    HW230138   3.546   6.213   6.361
 9747SOL     OW30139   4.126   1.733   3.290
 9747SOL    HW130140   4.073   1.803   3.241
 9747SOL    HW230141   4.137   1.761   3.386
 9748SOL     OW30142   0.250   2.245   3.056
 9748SOL    HW130143   0.263   2.177   3.128
 9748SOL    HW230144   0.339   2.280   3.027
 9749SOL     OW30145   6.950   0.254   1.292
 9749SOL    HW130146   6.909   0.296   1.372
 9749SOL    HW230147   6.915   0.299   1.209
 9750SOL     OW30148   5.910   1.979   4.905
 9750SOL    HW130149   5.883   1.996   5.000
 9750SOL    HW230150   5.996   1.927   4.904
 9751SOL     OW30151   2.839   6.040   1.087
 9751SOL    HW130152   2.909   6.022   1.017
 9751SOL    HW230153   2.877   6.019   1.177
 9752SOL     OW30154   3.776   3.828   0.882
 9752SOL    HW130155   3.696   3.840   0.942
 9752SOL    HW230156   3.839   3.905   0.895
 9753SOL     OW30157   6.145   6.432   3.246
 9753SOL    HW130158   6.200   6.478   3.316
 9753SOL    HW230159   6.203   6.408   3.169
 9754SOL     OW30160   3.327   0.571   1.620
 9754SOL    HW130161   3.285   0.593   1.708
 9754SOL    HW230162   3.367   0.654   1.580
 9755SOL     OW30163   2.676   3.878   1.411
 9755SOL    HW130164   2.690   3.959   1.467
 9755SOL    HW230165   2.763   3.845   1.376
 9756SOL     OW30166   5.143   6.891   6.767
 9756SOL    HW130167   5.059   6.894   6.821
 9756SOL    HW230168   5.222   6.906   6.827
 9757SOL     OW30169   4.955   4.138   4.054
 9757SOL    HW130170   4.906   4.075   4.114
 9757SOL    HW230171   5.034   4.177   4.103
 9758SOL     OW30172   3.545   1.107   1.834
 9758SOL    HW130173   3.566   1.148   1.745
 9758SOL    HW230174   3.622   1.053   1.866
 9759SOL     OW30175   6.848   2.118   1.077
 9759SOL    HW130176   6.942   2.130   1.107
 9759SOL    HW230177   6.787   2.169   1.138
 9760SOL     OW30178   4.878   0.478   6.679
 9760SOL    HW130179   4.961   0.425   6.662
 9760SOL    HW230180   4.839   0.506   6.591
 9761SOL     OW30181   0.955   1.952   2.020
 9761SOL    HW130182   0.943   1.951   2.119
 9761SOL    HW230183   0.988   2.042   1.992
 9762SOL     OW30184   3.817   0.791   5.980
 9762SOL    HW130185   3.819   0.845   6.064
 9762SOL    HW230186   3.880   0.714   5.988
 9763SOL     OW30187   5.933   1.833   0.975
 9763SOL    HW130188   5.837   1.855   0.993
 9763SOL    HW230189   5.947   1.735   0.986
 9764SOL     OW30190   0.462   2.642   3.321
 9764SOL    HW130191   0.401   2.626   3.398
 9764SOL    HW230192   0.491   2.737   3.320
 9765SOL     OW30193   6.391   2.181   1.437
 9765SOL    HW130194   6.294   2.189   1.414
 9765SOL    HW230195   6.439   2.264   1.407
 9766SOL     OW30196   0.260   2.585   2.831
 9766SOL    HW130197   0.218   2.639   2.758
 9766SOL    HW230198   0.238   2.488   2.818
 9767SOL     OW30199   3.817   1.845   4.594
 9767SOL    HW130200   3.896   1.794   4.629
 9767SOL    HW230201   3.849   1.929   4.550
 9768SOL     OW30202   4.798   2.058   6.673
 9768SOL    HW130203   4.797   2.036   6.575
 9768SOL    HW230204   4.741   1.992   6.722
 9769SOL     OW30205   3.941   1.176   5.415
 9769SOL    HW130206   3.881   1.221   5.482
 9769SOL    HW230207   3.943   1.231   5.331
 9770SOL     OW30208   1.989   3.175   5.374
 9770SOL    HW130209   2.025   3.268   5.381
 9770SOL    HW230210   1.908   3.175   5.314
 9771SOL     OW30211   3.315   0.918   2.018
 9771SOL    HW130212   3.343   1.013   2.031
 9771SOL    HW230213   3.393   0.857   2.034
 9772SOL     OW30214   0.303   0.445   2.018
 9772SOL    HW130215   0.269   0.484   2.103
 9772SOL    HW230216   0.398   0.416   2.030
 9773SOL     OW30217   5.116   6.099   1.855
 9773SOL    HW130218   5.137   6.002   1.844
 9773SOL    HW230219   5.055   6.129   1.781
 9774SOL     OW30220   1.694   5.720   4.620
 9774SOL    HW130221   1.621   5.652   4.611
 9774SOL    HW230222   1.777   5.676   4.654
 9775SOL     OW30223   1.520   0.877   3.331
 9775SOL    HW130224   1.500   0.879   3.429
 9775SOL    HW230225   1.452   0.931   3.282
 9776SOL     OW30226   1.463   5.920   1.741
 9776SOL    HW130227   1.472   5.874   1.652
 9776SOL    HW230228   1.553   5.924   1.785
 9777SOL     OW30229   4.352   1.666   5.022
 9777SOL    HW130230   4.413   1.626   5.091
 9777SOL    HW230231   4.374   1.763   5.011
 9778SOL     OW30232   1.255   3.694   2.848
 9778SOL    HW130233   1.340   3.701   2.901
 9778SOL    HW230234   1.177   3.686   2.911
 9779SOL     OW30235   2.564   1.033   2.949
 9779SOL    HW130236   2.467   1.021   2.925
 9779SOL    HW230237   2.577   1.013   3.046
 9780SOL     OW30238   1.144   1.660   0.623
 9780SOL    HW130239   1.239   1.672   0.595
 9780SOL    HW230240   1.105   1.748   0.649
 9781SOL     OW30241   1.250   1.330   2.231
 9781SOL    HW130242   1.254   1.233   2.208
 9781SOL    HW230243   1.342   1.369   2.231
 9782SOL     OW30244   6.910   2.585   0.367
 9782SOL    HW130245   6.822   2.615   0.405
 9782SOL    HW230246   6.969   2.552   0.440
 9783SOL     OW30247   5.015   1.716   2.434
 9783SOL    HW130248   4.928   1.745   2.395
 9783SOL    HW230249   5.040   1.627   2.396
 9784SOL     OW30250   2.035   1.218   0.460
 9784SOL    HW130251   2.028   1.249   0.366
 9784SOL    HW230252   2.130   1.224   0.491
 9785SOL     OW30253   1.390   3.485   4.703
 9785SOL    HW130254   1.332   3.561   4.730
 9785SOL    HW230255   1.478   3.520   4.671
 9786SOL     OW30256   3.031   4.407   6.580
 9786SOL    HW130257   3.048   4.506   6.583
 9786SOL    HW230258   2.983   4.384   6.495
 9787SOL     OW30259   2.585   3.271   0.735
 9787SOL    HW130260   2.519   3.345   0.750
 9787SOL    HW230261   2.644   3.262   0.815
 9788SOL     OW30262   2.703   6.888   2.567
 9788SOL    HW130263   2.716   6.795   2.604
 9788SOL    HW230264   2.774   6.948   2.603
 9789SOL     OW30265   4.576   2.026   0.508
 9789SOL    HW130266   4.546   2.114   0.547
 9789SOL    HW230267   4.597   1.962   0.582
 9790SOL     OW30268   4.757   5.936   5.009
 9790SOL    HW130269   4.853   5.931   5.034
 9790SOL    HW230270   4.702   5.952   5.092
 9791SOL     OW30271   0.409   1.343   1.675
 9791SOL    HW130272   0.399   1.390   1.587
 9791SOL    HW230273   0.488   1.282   1.670
 9792SOL     OW30274   3.169   3.687   0.868
 9792SOL    HW130275   3.085   3.633   0.871
 9792SOL    HW230276   3.146   3.784   0.870
 9793SOL     OW30277   5.880   1.062   1.716
 9793SOL    HW130278   5.971   1.023   1.729
 9793SOL    HW230279   5.867   1.139   1.779
 9794SOL     OW30280   4.250   5.971   4.634
 9794SOL    HW130281   4.151   5.977   4.627
 9794SOL    HW230282   4.280   6.006   4.723
 9795SOL     OW30283   2.095   4.442   3.165
 9795SOL    HW130284   2.115   4.538   3.148
 9795SOL    HW230285   2.004   4.434   3.206
 9796SOL     OW30286   3.778   3.518   4.642
 9796SOL    HW130287   3.797   3.436   4.588
 9796SOL    HW230288   3.733   3.586   4.585
 9797SOL     OW30289   3.450   5.672   6.595
 9797SOL    HW130290   3.521   5.741   6.578
 9797SOL    HW230291   3.485   5.606   6.661
 9798SOL     OW30292   0.088   4.165   6.337
 9798SOL    HW130293   0.109   4.138   6.243
 9798SOL    HW230294   7.018   4.198   6.342
 9799SOL     OW30295   3.992   6.396   6.756
 9799SOL    HW130296   4.000   6.490   6.725
 9799SOL    HW230297   3.914   6.352   6.711
 9800SOL     OW30298   6.793   4.318   5.103
 9800SOL    HW130299   6.825   4.407   5.072
 9800SOL    HW230300   6.693   4.314   5.095
 9801SOL     OW30301   4.305   0.364   0.440
 9801SOL    HW130302   4.232   0.300   0.416
 9801SOL    HW230303   4.340   0.342   0.531
 9802SOL     OW30304   3.840   3.192   0.634
 9802SOL    HW130305   3.766   3.248   0.597
 9802SOL    HW230306   3.909   3.251   0.675
 9803SOL     OW30307   2.769   3.270   0.162
 9803SOL    HW130308   2.753   3.217   0.246
 9803SOL    HW230309   2.706   3.348   0.160
 9804SOL     OW30310   0.907   4.294   3.105
 9804SOL    HW130311   1.001   4.266   3.124
 9804SOL    HW230312   0.875   4.249   3.022
 9805SOL     OW30313   0.426   5.393   4.704
 9805SOL    HW130314   0.353   5.436   4.650
 9805SOL    HW230315   0.502   5.369   4.645
 9806SOL     OW30316   3.414   1.117   6.677
 9806SOL    HW130317   3.430   1.079   6.586
 9806SOL    HW230318   3.319   1.102   6.703
 9807SOL     OW30319   3.453   3.190   4.076
 9807SOL    HW130320   3.458   3.281   4.118
 9807SOL    HW230321   3.407   3.197   3.987
 9808SOL     OW30322   3.058   6.022   2.350
 9808SOL    HW130323   3.055   6.087   2.427
 9808SOL    HW230324   3.141   5.967   2.357
 9809SOL     OW30325   6.163   3.123   1.514
 9809SOL    HW130326   6.203   3.149   1.427
 9809SOL    HW230327   6.104   3.043   1.501
 9810SOL     OW30328   3.890   3.024   1.278
 9810SOL    HW130329   3.872   3.091   1.206
 9810SOL    HW230330   3.896   3.069   1.366
 9811SOL     OW30331   5.150   3.672   3.806
 9811SOL    HW130332   5.159   3.577   3.838
 9811SOL    HW230333   5.194   3.733   3.872
 9812SOL     OW30334   3.537   5.073   6.623
 9812SOL    HW130335   3.632   5.103   6.618
 9812SOL    HW230336   3.501   5.091   6.714
 9813SOL     OW30337   4.366   1.012   2.323
 9813SOL    HW130338   4.369   1.109   2.345
 9813SOL    HW230339   4.271   0.982   2.316
 9814SOL     OW30340   6.705   1.798   5.949
 9814SOL    HW130341   6.620   1.850   5.957
 9814SOL    HW230342   6.764   1.841   5.880
 9815SOL     OW30343   5.385   2.585   4.355
 9815SOL    HW130344   5.356   2.610   4.263
 9815SOL    HW230345   5.324   2.626   4.423
 9816SOL     OW30346   3.272   0.820   0.313
 9816SOL    HW130347   3.223   0.796   0.397
 9816SOL    HW230348   3.285   0.738   0.257
 9817SOL     OW30349   6.572   0.203   1.600
 9817SOL    HW130350   6.503   0.166   1.663
 9817SOL    HW230351   6.541   0.190   1.505
 9818SOL     OW30352   3.727   2.231   5.313
 9818SOL    HW130353   3.681   2.304   5.363
 9818SOL    HW230354   3.659   2.180   5.259
 9819SOL     OW30355   2.623   0.648   1.631
 9819SOL    HW130356   2.695   0.579   1.625
 9819SOL    HW230357   2.612   0.677   1.726
 9820SOL     OW30358   3.487   2.590   6.733
 9820SOL    HW130359   3.535   2.597   6.820
 9820SOL    HW230360   3.441   2.677   6.714
 9821SOL     OW30361   0.236   5.804   7.008
 9821SOL    HW130362   0.326   5.835   6.978
 9821SOL    HW230363   0.165   5.845   6.950
 9822SOL     OW30364   0.208   0.552   2.250
 9822SOL    HW130365   0.108   0.554   2.258
 9822SOL    HW230366   0.246   0.636   2.289
 9823SOL     OW30367   3.399   6.871   1.761
 9823SOL    HW130368   3.459   6.862   1.840
 9823SOL    HW230369   3.427   6.806   1.691
 9824SOL     OW30370   1.959   4.027   5.354
 9824SOL    HW130371   1.957   4.026   5.454
 9824SOL    HW230372   2.043   3.984   5.321
 9825SOL     OW30373   3.825   5.466   5.030
 9825SOL    HW130374   3.725   5.462   5.020
 9825SOL    HW230375   3.867   5.390   4.982
 9826SOL     OW30376   5.951   6.585   5.742
 9826SOL    HW130377   5.906   6.570   5.654
 9826SOL    HW230378   5.898   6.540   5.815
 9827SOL     OW30379   0.814   5.202   4.724
 9827SOL    HW130380   0.890   5.267   4.730
 9827SOL    HW230381   0.788   5.172   4.815
 9828SOL     OW30382   2.739   1.594   6.794
 9828SOL    HW130383   2.778   1.683   6.815
 9828SOL    HW230384   2.813   1.527   6.782
 9829SOL     OW30385   2.774   4.036   1.631
 9829SOL    HW130386   2.719   4.119   1.639
 9829SOL    HW230387   2.850   4.040   1.696
 9830SOL     OW30388   6.323   1.564   1.005
 9830SOL    HW130389   6.283   1.653   1.028
 9830SOL    HW230390   6.413   1.556   1.047
 9831SOL     OW30391   6.108   6.214   1.300
 9831SOL    HW130392   6.162   6.131   1.290
 9831SOL    HW230393   6.027   6.209   1.242
 9832SOL     OW30394   3.209   3.945   0.541
 9832SOL    HW130395   3.302   3.909   0.534
 9832SOL    HW230396   3.161   3.933   0.454
 9833SOL     OW30397   4.622   4.337   6.364
 9833SOL    HW130398   4.611   4.377   6.455
 9833SOL    HW230399   4.567   4.389   6.298
 9834SOL     OW30400   2.207   2.523   4.070
 9834SOL    HW130401   2.218   2.565   4.160
 9834SOL    HW230402   2.289   2.541   4.015
 9835SOL     OW30403   5.590   1.743   4.828
 9835SOL    HW130404   5.586   1.737   4.928
 9835SOL    HW230405   5.633   1.661   4.791
 9836SOL     OW30406   5.347   5.595   1.455
 9836SOL    HW130407   5.427   5.648   1.483
 9836SOL    HW230408   5.354   5.503   1.493
 9837SOL     OW30409   2.394   6.148   5.831
 9837SOL    HW130410   2.306   6.136   5.783
 9837SOL    HW230411   2.469   6.129   5.768
 9838SOL     OW30412   6.677   5.817   4.880
 9838SOL    HW130413   6.658   5.721   4.898
 9838SOL    HW230414   6.636   5.873   4.952
 9839SOL     OW30415   5.660   3.123   2.571
 9839SOL    HW130416   5.756   3.151   2.568
 9839SOL    HW230417   5.603   3.194   2.529
 9840SOL     OW30418   5.674   0.503   0.426
 9840SOL    HW130419   5.640   0.525   0.518
 9840SOL    HW230420   5.674   0.586   0.370
 9841SOL     OW30421   2.235   3.008   4.628
 9841SOL    HW130422   2.189   3.093   4.655
 9841SOL    HW230423   2.266   2.960   4.710
 9842SOL     OW30424   3.272   3.595   3.924
 9842SOL    HW130425   3.304   3.676   3.973
 9842SOL    HW230426   3.172   3.594   3.923
 9843SOL     OW30427   5.801   4.803   3.263
 9843SOL    HW130428   5.893   4.769   3.281
 9843SOL    HW230429   5.771   4.860   3.339
 9844SOL     OW30430   5.044   0.303   2.133
 9844SOL    HW130431   5.056   0.396   2.097
 9844SOL    HW230432   5.039   0.238   2.058
 9845SOL     OW30433   1.684   2.004   3.674
 9845SOL    HW130434   1.629   2.017   3.757
 9845SOL    HW230435   1.628   2.022   3.593
 9846SOL     OW30436   2.902   3.666   4.004
 9846SOL    HW130437   2.863   3.596   3.944
 9846SOL    HW230438   2.928   3.624   4.091
 9847SOL     OW30439   2.267   4.311   4.838
 9847SOL    HW130440   2.174   4.346   4.830
 9847SOL    HW230441   2.271   4.242   4.910
 9848SOL     OW30442   6.280   3.909   0.203
 9848SOL    HW130443   6.228   3.965   0.138
 9848SOL    HW230444   6.234   3.821   0.215
 9849SOL     OW30445   6.701   6.389   5.593
 9849SOL    HW130446   6.769   6.317   5.607
 9849SOL    HW230447   6.704   6.420   5.498
 9850SOL     OW30448   4.706   0.472   3.178
 9850SOL    HW130449   4.761   0.488   3.260
 9850SOL    HW230450   4.741   0.392   3.129
 9851SOL     OW30451   5.164   2.633   5.572
 9851SOL    HW130452   5.068   2.639   5.545
 9851SOL    HW230453   5.212   2.570   5.511
 9852SOL     OW30454   5.682   1.499   4.657
 9852SOL    HW130455   5.665   1.405   4.687
 9852SOL    HW230456   5.776   1.507   4.624
 9853SOL     OW30457   0.491   4.701   1.241
 9853SOL    HW130458   0.478   4.758   1.322
 9853SOL    HW230459   0.433   4.734   1.167
 9854SOL     OW30460   3.860   6.819   3.544
 9854SOL    HW130461   3.828   6.878   3.470
 9854SOL    HW230462   3.836   6.724   3.522
 9855SOL     OW30463   1.948   4.215   0.727
 9855SOL    HW130464   1.949   4.167   0.639
 9855SOL    HW230465   1.910   4.306   0.715
 9856SOL     OW30466   3.605   3.097   1.769
 9856SOL    HW130467   3.525   3.086   1.827
 9856SOL    HW230468   3.613   3.193   1.742
 9857SOL     OW30469   6.220   4.708   3.084
 9857SOL    HW130470   6.218   4.622   3.033
 9857SOL    HW230471   6.285   4.771   3.043
 9858SOL     OW30472   3.561   1.613   1.387
 9858SOL    HW130473   3.511   1.562   1.318
 9858SOL    HW230474   3.497   1.669   1.440
 9859SOL     OW30475   0.156   0.002   1.546
 9859SOL    HW130476   0.201   6.942   1.578
 9859SOL    HW230477   0.077   0.021   1.603
 9860SOL     OW30478   0.863   1.131   2.781
 9860SOL    HW130479   0.796   1.057   2.776
 9860SOL    HW230480   0.940   1.109   2.720
 9861SOL     OW30481   3.125   6.478   4.135
 9861SOL    HW130482   3.125   6.440   4.228
 9861SOL    HW230483   3.173   6.566   4.135
 9862SOL     OW30484   0.466   2.125   1.062
 9862SOL    HW130485   0.561   2.095   1.072
 9862SOL    HW230486   0.405   2.049   1.083
 9863SOL     OW30487   3.651   0.232   0.136
 9863SOL    HW130488   3.674   0.189   0.049
 9863SOL    HW230489   3.586   0.173   0.186
 9864SOL     OW30490   4.506   6.241   3.391
 9864SOL    HW130491   4.591   6.192   3.414
 9864SOL    HW230492   4.503   6.257   3.293
 9865SOL     OW30493   1.754   3.079   3.883
 9865SOL    HW130494   1.745   3.049   3.788
 9865SOL    HW230495   1.739   3.001   3.944
 9866SOL     OW30496   3.312   4.922   3.237
 9866SOL    HW130497   3.288   4.856   3.309
 9866SOL    HW230498   3.412   4.934   3.236
 9867SOL     OW30499   4.142   6.803   6.415
 9867SOL    HW130500   4.188   6.873   6.470
 9867SOL    HW230501   4.174   6.809   6.320
 9868SOL     OW30502   1.388   5.150   5.503
 9868SOL    HW130503   1.295   5.125   5.476
 9868SOL    HW230504   1.453   5.107   5.440
 9869SOL     OW30505   1.510   4.002   3.092
 9869SOL    HW130506   1.554   3.976   3.178
 9869SOL    HW230507   1.517   4.100   3.079
 9870SOL     OW30508   4.136   4.937   1.649
 9870SOL    HW130509   4.139   4.846   1.690
 9870SOL    HW230510   4.173   4.933   1.557
 9871SOL     OW30511   1.736   1.919   5.776
 9871SOL    HW130512   1.751   1.910   5.678
 9871SOL    HW230513   1.823   1.933   5.823
 9872SOL     OW30514   1.294   4.242   3.439
 9872SOL    HW130515   1.252   4.270   3.525
 9872SOL    HW230516   1.393   4.239   3.450
 9873SOL     OW30517   1.566   1.524   0.380
 9873SOL    HW130518   1.613   1.529   0.292
 9873SOL    HW230519   1.593   1.440   0.427
 9874SOL     OW30520   1.008   3.905   4.943
 9874SOL    HW130521   0.998   3.971   5.017
 9874SOL    HW230522   0.957   3.822   4.965
 9875SOL     OW30523   1.197   1.183   3.057
 9875SOL    HW130524   1.214   1.234   3.142
 9875SOL    HW230525   1.150   1.243   2.991
 9876SOL     OW30526   0.082   5.612   2.215
 9876SOL    HW130527   7.015   5.593   2.176
 9876SOL    HW230528   0.152   5.597   2.145
 9877SOL     OW30529   4.090   0.364   1.276
 9877SOL    HW130530   4.107   0.278   1.323
 9877SOL    HW230531   3.996   0.367   1.242
 9878SOL     OW30532   6.965   0.767   4.981
 9878SOL    HW130533   0.038   0.762   5.005
 9878SOL    HW230534   6.952   0.734   4.888
 9879SOL     OW30535   5.413   5.625   5.086
 9879SOL    HW130536   5.321   5.595   5.113
 9879SOL    HW230537   5.411   5.659   4.992
 9880SOL     OW30538   1.853   2.003   4.053
 9880SOL    HW130539   1.906   1.938   3.999
 9880SOL    HW230540   1.902   2.024   4.138
 9881SOL     OW30541   0.088   1.429   6.144
 9881SOL    HW130542   0.165   1.487   6.170
 9881SOL    HW230543   0.122   1.355   6.084
 9882SOL     OW30544   2.588   2.269   3.349
 9882SOL    HW130545   2.674   2.310   3.381
 9882SOL    HW230546   2.557   2.201   3.415
 9883SOL     OW30547   2.975   1.106   2.532
 9883SOL    HW130548   2.903   1.038   2.548
 9883SOL    HW230549   2.976   1.132   2.436
 9884SOL     OW30550   3.487   0.499   3.974
 9884SOL    HW130551   3.552   0.571   3.997
 9884SOL    HW230552   3.401   0.515   4.022
 9885SOL     OW30553   6.854   4.023   4.244
 9885SOL    HW130554   6.851   4.012   4.145
 9885SOL    HW230555   6.910   4.103   4.268
 9886SOL     OW30556   0.431   2.919   1.970
 9886SOL    HW130557   0.404   2.871   2.053
 9886SOL    HW230558   0.351   2.964   1.929
 9887SOL     OW30559   4.576   6.508   6.127
 9887SOL    HW130560   4.505   6.464   6.072
 9887SOL    HW230561   4.549   6.602   6.146
 9888SOL     OW30562   6.656   5.191   6.858
 9888SOL    HW130563   6.604   5.245   6.924
 9888SOL    HW230564   6.595   5.129   6.809
 9889SOL     OW30565   0.343   5.481   0.773
 9889SOL    HW130566   0.343   5.452   0.677
 9889SOL    HW230567   0.252   5.514   0.798
 9890SOL     OW30568   0.925   3.047   0.670
 9890SOL    HW130569   0.904   2.994   0.588
 9890SOL    HW230570   0.853   3.116   0.683
 9891SOL     OW30571   4.718   1.274   2.041
 9891SOL    HW130572   4.670   1.219   1.973
 9891SOL    HW230573   4.733   1.366   2.005
 9892SOL     OW30574   0.979   6.738   6.956
 9892SOL    HW130575   1.029   6.820   6.982
 9892SOL    HW230576   0.930   6.754   6.870
 9893SOL     OW30577   2.413   1.196   7.003
 9893SOL    HW130578   2.445   1.230   6.914
 9893SOL    HW230579   2.321   1.158   6.992
 9894SOL     OW30580   2.089   0.840   1.712
 9894SOL    HW130581   2.068   0.879   1.623
 9894SOL    HW230582   2.089   0.911   1.782
 9895SOL     OW30583   4.493   2.709   5.327
 9895SOL    HW130584   4.395   2.696   5.334
 9895SOL    HW230585   4.513   2.807   5.316
 9896SOL     OW30586   6.702   6.170   6.043
 9896SOL    HW130587   6.796   6.143   6.018
 9896SOL    HW230588   6.656   6.205   5.962
 9897SOL     OW30589   5.285   5.180   4.851
 9897SOL    HW130590   5.208   5.235   4.883
 9897SOL    HW230591   5.357   5.241   4.817
 9898SOL     OW30592   2.480   6.801   5.737
 9898SOL    HW130593   2.577   6.778   5.724
 9898SOL    HW230594   2.455   6.876   5.677
 9899SOL     OW30595   0.309   4.813   0.111
 9899SOL    HW130596   0.218   4.773   0.117
 9899SOL    HW230597   0.375   4.742   0.085
 9900SOL     OW30598   2.328   4.311   3.831
 9900SOL    HW130599   2.389   4.380   3.871
 9900SOL    HW230600   2.350   4.299   3.734
 9901SOL     OW30601   1.761   3.323   5.799
 9901SOL    HW130602   1.751   3.278   5.710
 9901SOL    HW230603   1.758   3.254   5.872
 9902SOL     OW30604   2.554   4.603   0.726
 9902SOL    HW130605   2.486   4.562   0.665
 9902SOL    HW230606   2.597   4.531   0.781
 9903SOL     OW30607   5.608   1.074   4.492
 9903SOL    HW130608   5.522   1.025   4.509
 9903SOL    HW230609   5.678   1.009   4.463
 9904SOL     OW30610   6.160   2.095   0.722
 9904SOL    HW130611   6.233   2.083   0.654
 9904SOL    HW230612   6.122   2.005   0.746
 9905SOL     OW30613   5.074   0.303   0.546
 9905SOL    HW130614   5.170   0.302   0.575
 9905SOL    HW230615   5.065   0.253   0.460
 9906SOL     OW30616   3.431   3.183   5.023
 9906SOL    HW130617   3.461   3.102   4.973
 9906SOL    HW230618   3.392   3.250   4.960
 9907SOL     OW30619   1.297   6.672   1.553
 9907SOL    HW130620   1.281   6.642   1.647
 9907SOL    HW230621   1.355   6.604   1.507
 9908SOL     OW30622   5.084   3.562   2.000
 9908SOL    HW130623   5.019   3.636   2.018
 9908SOL    HW230624   5.062   3.519   1.913
 9909SOL     OW30625   1.756   0.429   4.965
 9909SOL    HW130626   1.755   0.486   5.047
 9909SOL    HW230627   1.840   0.374   4.964
 9910SOL     OW30628   6.979   5.399   3.767
 9910SOL    HW130629   6.947   5.326   3.706
 9910SOL    HW230630   6.924   5.398   3.851
 9911SOL     OW30631   2.927   5.811   2.514
 9911SOL    HW130632   2.941   5.887   2.450
 9911SOL    HW230633   3.013   5.762   2.526
 9912SOL     OW30634   4.718   0.661   6.550
 9912SOL    HW130635   4.769   0.742   6.520
 9912SOL    HW230636   4.695   0.670   6.647
 9913SOL     OW30637   4.960   3.551   0.391
 9913SOL    HW130638   4.913   3.618   0.448
 9913SOL    HW230639   4.893   3.501   0.336
 9914SOL     OW30640   0.222   4.296   4.858
 9914SOL    HW130641   0.149   4.365   4.864
 9914SOL    HW230642   0.194   4.213   4.905
 9915SOL     OW30643   4.812   1.357   3.675
 9915SOL    HW130644   4.777   1.382   3.765
 9915SOL    HW230645   4.860   1.269   3.682
 9916SOL     OW30646   1.476   3.103   2.077
 9916SOL    HW130647   1.436   3.077   2.165
 9916SOL    HW230648   1.406   3.144   2.019
 9917SOL     OW30649   5.995   4.496   4.857
 9917SOL    HW130650   6.058   4.552   4.804
 9917SOL    HW230651   6.041   4.464   4.940
 9918SOL     OW30652   4.842   2.988   2.264
 9918SOL    HW130653   4.928   2.943   2.239
 9918SOL    HW230654   4.793   3.015   2.182
 9919SOL     OW30655   5.980   6.007   0.686
 9919SOL    HW130656   6.061   5.978   0.636
 9919SOL    HW230657   5.911   6.040   0.622
 9920SOL     OW30658   4.723   2.030   2.656
 9920SOL    HW130659   4.708   2.114   2.603
 9920SOL    HW230660   4.639   2.006   2.705
 9921SOL     OW30661   3.983   4.946   6.443
 9921SOL    HW130662   4.058   4.985   6.496
 9921SOL    HW230663   3.970   5.001   6.360
 9922SOL     OW30664   0.308   5.961   1.401
 9922SOL    HW130665   0.388   5.979   1.343
 9922SOL    HW230666   0.225   5.987   1.352
 9923SOL     OW30667   5.814   4.224   1.009
 9923SOL    HW130668   5.887   4.222   0.940
 9923SOL    HW230669   5.727   4.244   0.964
 9924SOL     OW30670   1.127   3.610   4.891
 9924SOL    HW130671   1.183   3.682   4.849
 9924SOL    HW230672   1.172   3.577   4.973
 9925SOL     OW30673   5.371   1.908   3.714
 9925SOL    HW130674   5.352   2.006   3.715
 9925SOL    HW230675   5.353   1.870   3.805
 9926SOL     OW30676   3.084   5.162   0.808
 9926SOL    HW130677   3.171   5.206   0.785
 9926SOL    HW230678   3.093   5.063   0.796
 9927SOL     OW30679   4.971   6.985   4.015
 9927SOL    HW130680   4.897   6.934   3.971
 9927SOL    HW230681   4.980   0.051   3.973
 9928SOL     OW30682   4.922   4.644   2.125
 9928SOL    HW130683   4.962   4.720   2.176
 9928SOL    HW230684   4.968   4.559   2.150
 9929SOL     OW30685   1.101   4.263   2.778
 9929SOL    HW130686   1.173   4.266   2.846
 9929SOL    HW230687   1.047   4.180   2.790
 9930SOL     OW30688   5.644   0.886   3.567
 9930SOL    HW130689   5.676   0.806   3.515
 9930SOL    HW230690   5.547   0.900   3.548
 9931SOL     OW30691   0.781   5.168   5.740
 9931SOL    HW130692   0.839   5.250   5.733
 9931SOL    HW230693   0.686   5.194   5.724
 9932SOL     OW30694   1.110   6.162   4.985
 9932SOL    HW130695   1.070   6.187   5.074
 9932SOL    HW230696   1.131   6.245   4.934
 9933SOL     OW30697   0.334   6.502   2.226
 9933SOL    HW130698   0.322   6.418   2.278
 9933SOL    HW230699   0.431   6.515   2.205
 9934SOL     OW30700   0.037   2.123   5.188
 9934SOL    HW130701   6.992   2.060   5.225
 9934SOL    HW230702   0.126   2.079   5.187
 9935SOL     OW30703   2.274   0.461   6.396
 9935SOL    HW130704   2.176   0.445   6.407
 9935SOL    HW230705   2.315   0.382   6.352
 9936SOL     OW30706   1.106   4.159   4.108
 9936SOL    HW130707   1.200   4.192   4.099
 9936SOL    HW230708   1.107   4.069   4.152
 9937SOL     OW30709   6.694   2.597   6.167
 9937SOL    HW130710   6.787   2.582   6.200
 9937SOL    HW230711   6.671   2.694   6.175
 9938SOL     OW30712   6.774   6.317   2.482
 9938SOL    HW130713   6.714   6.376   2.537
 9938SOL    HW230714   6.870   6.338   2.504
 9939SOL     OW30715   3.310   3.593   3.163
 9939SOL    HW130716   3.322   3.662   3.233
 9939SOL    HW230717   3.339   3.629   3.074
 9940SOL     OW30718   0.424   1.126   1.306
 9940SOL    HW130719   0.329   1.136   1.277
 9940SOL    HW230720   0.477   1.086   1.232
 9941SOL     OW30721   3.124   5.492   4.416
 9941SOL    HW130722   3.126   5.395   4.390
 9941SOL    HW230723   3.044   5.509   4.474
 9942SOL     OW30724   2.232   5.308   4.081
 9942SOL    HW130725   2.273   5.399   4.086
 9942SOL    HW230726   2.283   5.245   4.139
 9943SOL     OW30727   0.453   0.314   4.971
 9943SOL    HW130728   0.495   0.402   4.947
 9943SOL    HW230729   0.355   0.327   4.987
 9944SOL     OW30730   1.673   4.736   6.454
 9944SOL    HW130731   1.649   4.816   6.399
 9944SOL    HW230732   1.643   4.750   6.548
 9945SOL     OW30733   0.214   5.655   6.693
 9945SOL    HW130734   0.283   5.584   6.700
 9945SOL    HW230735   0.139   5.635   6.756
 9946SOL     OW30736   5.859   1.190   4.229
 9946SOL    HW130737   5.778   1.235   4.268
 9946SOL    HW230738   5.854   1.092   4.247
 9947SOL     OW30739   6.098   4.781   3.320
 9947SOL    HW130740   6.101   4.732   3.407
 9947SOL    HW230741   6.162   4.740   3.256
 9948SOL     OW30742   5.667   3.730   3.995
 9948SOL    HW130743   5.582   3.689   4.027
 9948SOL    HW230744   5.647   3.818   3.952
 9949SOL     OW30745   5.728   5.276   1.643
 9949SOL    HW130746   5.776   5.264   1.730
 9949SOL    HW230747   5.638   5.317   1.661
 9950SOL     OW30748   3.288   6.297   6.693
 9950SOL    HW130749   3.323   6.254   6.776
 9950SOL    HW230750   3.198   6.259   6.671
 9951SOL     OW30751   6.561   2.646   2.843
 9951SOL    HW130752   6.573   2.554   2.806
 9951SOL    HW230753   6.625   2.661   2.918
 9952SOL     OW30754   6.887   4.309   5.901
 9952SOL    HW130755   6.981   4.338   5.917
 9952SOL    HW230756   6.885   4.212   5.876
 9953SOL     OW30757   5.613   2.878   3.832
 9953SOL    HW130758   5.667   2.808   3.879
 9953SOL    HW230759   5.664   2.912   3.753
 9954SOL     OW30760   3.985   0.886   4.791
 9954SOL    HW130761   3.989   0.839   4.879
 9954SOL    HW230762   4.069   0.941   4.780
 9955SOL     OW30763   0.447   4.576   4.191
 9955SOL    HW130764   0.504   4.645   4.237
 9955SOL    HW230765   0.367   4.556   4.248
 9956SOL     OW30766   1.113   6.128   0.246
 9956SOL    HW130767   1.078   6.042   0.282
 9956SOL    HW230768   1.037   6.185   0.216
 9957SOL     OW30769   5.639   5.662   2.253
 9957SOL    HW130770   5.731   5.692   2.280
 9957SOL    HW230771   5.598   5.612   2.329
 9958SOL     OW30772   2.991   4.503   0.994
 9958SOL    HW130773   2.960   4.502   0.899
 9958SOL    HW230774   2.927   4.451   1.050
 9959SOL     OW30775   3.281   3.958   1.529
 9959SOL    HW130776   3.192   3.977   1.489
 9959SOL    HW230777   3.284   3.991   1.623
 9960SOL     OW30778   0.629   0.779   2.450
 9960SOL    HW130779   0.683   0.847   2.401
 9960SOL    HW230780   0.687   0.700   2.471
 9961SOL     OW30781   2.051   3.755   4.631
 9961SOL    HW130782   2.046   3.751   4.532
 9961SOL    HW230783   2.133   3.805   4.658
 9962SOL     OW30784   4.983   6.673   4.606
 9962SOL    HW130785   4.977   6.588   4.555
 9962SOL    HW230786   5.077   6.689   4.635
 9963SOL     OW30787   3.332   1.449   0.836
 9963SOL    HW130788   3.262   1.403   0.781
 9963SOL    HW230789   3.360   1.390   0.912
 9964SOL     OW30790   5.575   6.659   4.855
 9964SOL    HW130791   5.507   6.661   4.782
 9964SOL    HW230792   5.569   6.573   4.905
 9965SOL     OW30793   5.464   6.515   0.475
 9965SOL    HW130794   5.450   6.532   0.378
 9965SOL    HW230795   5.545   6.564   0.506
 9966SOL     OW30796   6.026   0.952   2.796
 9966SOL    HW130797   6.054   1.037   2.751
 9966SOL    HW230798   6.107   0.898   2.819
 9967SOL     OW30799   1.161   5.439   0.458
 9967SOL    HW130800   1.101   5.409   0.383
 9967SOL    HW230801   1.247   5.472   0.420
 9968SOL     OW30802   3.399   3.764   2.862
 9968SOL    HW130803   3.475   3.799   2.808
 9968SOL    HW230804   3.394   3.813   2.949
 9969SOL     OW30805   1.359   3.325   1.168
 9969SOL    HW130806   1.434   3.260   1.170
 9969SOL    HW230807   1.345   3.362   1.260
 9970SOL     OW30808   6.049   5.092   1.798
 9970SOL    HW130809   5.971   5.152   1.813
 9970SOL    HW230810   6.032   5.004   1.843
 9971SOL     OW30811   2.760   6.825   6.796
 9971SOL    HW130812   2.737   6.730   6.820
 9971SOL    HW230813   2.812   6.867   6.870
 9972SOL     OW30814   6.527   5.170   1.518
 9972SOL    HW130815   6.553   5.073   1.520
 9972SOL    HW230816   6.529   5.202   1.423
 9973SOL     OW30817   5.040   6.692   3.700
 9973SOL    HW130818   4.971   6.643   3.753
 9973SOL    HW230819   5.097   6.627   3.650
 9974SOL     OW30820   1.967   0.429   4.130
 9974SOL    HW130821   2.008   0.520   4.126
 9974SOL    HW230822   1.919   0.410   4.045
 9975SOL     OW30823   0.164   4.332   1.150
 9975SOL    HW130824   0.263   4.331   1.134
 9975SOL    HW230825   0.132   4.239   1.169
 9976SOL     OW30826   2.835   6.768   4.145
 9976SOL    HW130827   2.832   6.669   4.128
 9976SOL    HW230828   2.799   6.816   4.065
 9977SOL     OW30829   6.396   4.565   3.903
 9977SOL    HW130830   6.487   4.580   3.942
 9977SOL    HW230831   6.373   4.468   3.909
 9978SOL     OW30832   6.606   2.793   4.475
 9978SOL    HW130833   6.658   2.816   4.557
 9978SOL    HW230834   6.657   2.727   4.421
 9979SOL     OW30835   0.587   4.297   5.281
 9979SOL    HW130836   0.492   4.277   5.257
 9979SOL    HW230837   0.648   4.236   5.232
 9980SOL     OW30838   2.688   6.335   5.365
 9980SOL    HW130839   2.751   6.300   5.435
 9980SOL    HW230840   2.597   6.346   5.405
 9981SOL     OW30841   4.073   2.154   3.654
 9981SOL    HW130842   4.043   2.163   3.559
 9981SOL    HW230843   4.021   2.080   3.698
 9982SOL     OW30844   6.509   6.626   2.839
 9982SOL    HW130845   6.500   6.595   2.934
 9982SOL    HW230846   6.428   6.679   2.814
 9983SOL     OW30847   6.553   0.610   1.058
 9983SOL    HW130848   6.455   0.594   1.071
 9983SOL    HW230849   6.595   0.528   1.019
 9984SOL     OW30850   3.274   0.738   6.527
 9984SOL    HW130851   3.322   0.738   6.439
 9984SOL    HW230852   3.204   0.809   6.526
 9985SOL     OW30853   2.110   1.536   1.638
 9985SOL    HW130854   2.128   1.506   1.545
 9985SOL    HW230855   2.011   1.547   1.651
 9986SOL     OW30856   4.853   4.042   4.352
 9986SOL    HW130857   4.904   3.984   4.417
 9986SOL    HW230858   4.817   3.985   4.278
 9987SOL     OW30859   0.023   4.132   5.492
 9987SOL    HW130860   0.061   4.218   5.527
 9987SOL    HW230861   6.949   4.142   5.477
 9988SOL     OW30862   6.604   0.456   4.245
 9988SOL    HW130863   6.598   0.548   4.282
 9988SOL    HW230864   6.521   0.435   4.194
 9989SOL     OW30865   1.884   2.714   4.565
 9989SOL    HW130866   1.947   2.759   4.502
 9989SOL    HW230867   1.826   2.783   4.608
 9990SOL     OW30868   1.330   4.631   1.655
 9990SOL    HW130869   1.293   4.714   1.613
 9990SOL    HW230870   1.261   4.590   1.714
 9991SOL     OW30871   3.744   1.842   3.335
 9991SOL    HW130872   3.755   1.849   3.435
 9991SOL    HW230873   3.684   1.915   3.303
 9992SOL     OW30874   6.023   5.434   6.704
 9992SOL    HW130875   6.036   5.395   6.613
 9992SOL    HW230876   5.957   5.509   6.699
 9993SOL     OW30877   1.198   0.376   2.133
 9993SOL    HW130878   1.121   0.389   2.070
 9993SOL    HW230879   1.219   0.463   2.178
 9994SOL     OW30880   6.413   4.643   3.512
 9994SOL    HW130881   6.344   4.576   3.539
 9994SOL    HW230882   6.485   4.597   3.460
 9995SOL     OW30883   5.765   1.923   4.666
 9995SOL    HW130884   5.703   1.854   4.706
 9995SOL    HW230885   5.818   1.966   4.739
 9996SOL     OW30886   3.309   3.239   0.242
 9996SOL    HW130887   3.397   3.196   0.263
 9996SOL    HW230888   3.301   3.324   0.294
 9997SOL     OW30889   2.098   0.934   4.479
 9997SOL    HW130890   2.021   0.954   4.540
 9997SOL    HW230891   2.160   0.870   4.523
 9998SOL     OW30892   6.017   6.124   4.749
 9998SOL    HW130893   6.004   6.113   4.651
 9998SOL    HW230894   6.110   6.157   4.767
 9999SOL     OW30895   0.179   1.141   4.974
 9999SOL    HW130896   0.193   1.133   4.876
 9999SOL    HW230897   0.242   1.209   5.011
10000SOL     OW30898   6.854   4.791   0.685
10000SOL    HW130899   6.874   4.877   0.637
10000SOL    HW230900   6.937   4.736   0.691
10001SOL     OW30901   4.242   0.839   3.800
10001SOL    HW130902   4.164   0.806   3.853
10001SOL    HW230903   4.285   0.763   3.752
10002SOL     OW30904   1.327   1.886   1.460
10002SOL    HW130905   1.268   1.903   1.381
10002SOL    HW230906   1.285   1.925   1.542
10003SOL     OW30907   5.200   3.643   2.401
10003SOL    HW130908   5.128   3.581   2.432
10003SOL    HW230909   5.159   3.723   2.358
10004SOL     OW30910   6.769   3.420   4.051
10004SOL    HW130911   6.733   3.377   3.968
10004SOL    HW230912   6.750   3.518   4.049
10005SOL     OW30913   4.437   0.357   3.782
10005SOL    HW130914   4.469   0.311   3.699
10005SOL    HW230915   4.388   0.441   3.758
10006SOL     OW30916   4.909   2.260   3.960
10006SOL    HW130917   4.831   2.214   4.002
10006SOL    HW230918   4.884   2.292   3.869
10007SOL     OW30919   5.535   5.073   4.253
10007SOL    HW130920   5.458   5.132   4.279
10007SOL    HW230921   5.560   5.015   4.331
10008SOL     OW30922   2.993   0.279   4.043
10008SOL    HW130923   2.956   0.191   4.013
10008SOL    HW230924   2.940   0.312   4.121
10009SOL     OW30925   2.478   4.363   1.330
10009SOL    HW130926   2.513   4.455   1.344
10009SOL    HW230927   2.535   4.315   1.262
10010SOL     OW30928   6.152   1.015   6.372
10010SOL    HW130929   6.136   1.087   6.439
10010SOL    HW230930   6.210   0.944   6.412
10011SOL     OW30931   6.962   6.660   3.555
10011SOL    HW130932   6.936   6.642   3.460
10011SOL    HW230933   0.035   6.639   3.567
10012SOL     OW30934   5.187   0.350   5.001
10012SOL    HW130935   5.137   0.274   4.959
10012SOL    HW230936   5.241   0.396   4.931
10013SOL     OW30937   0.867   0.384   1.641
10013SOL    HW130938   0.951   0.438   1.641
10013SOL    HW230939   0.887   0.293   1.605
10014SOL     OW30940   1.469   4.622   6.026
10014SOL    HW130941   1.451   4.561   5.949
10014SOL    HW230942   1.565   4.617   6.052
10015SOL     OW30943   2.584   5.861   6.160
10015SOL    HW130944   2.602   5.959   6.152
10015SOL    HW230945   2.510   5.846   6.225
10016SOL     OW30946   2.259   1.401   4.983
10016SOL    HW130947   2.244   1.372   4.889
10016SOL    HW230948   2.325   1.477   4.985
10017SOL     OW30949   0.093   1.815   3.528
10017SOL    HW130950   0.033   1.895   3.523
10017SOL    HW230951   0.062   1.755   3.602
10018SOL     OW30952   5.417   7.015   6.382
10018SOL    HW130953   5.499   6.962   6.403
10018SOL    HW230954   5.339   6.977   6.431
10019SOL     OW30955   1.086   0.962   2.963
10019SOL    HW130956   1.138   1.036   3.004
10019SOL    HW230957   0.999   0.951   3.012
10020SOL     OW30958   0.282   3.663   0.455
10020SOL    HW130959   0.196   3.615   0.440
10020SOL    HW230960   0.353   3.622   0.397
10021SOL     OW30961   4.779   2.928   1.397
10021SOL    HW130962   4.811   2.842   1.358
10021SOL    HW230963   4.717   2.910   1.473
10022SOL     OW30964   1.919   0.908   6.211
10022SOL    HW130965   1.913   0.983   6.277
10022SOL    HW230966   1.981   0.934   6.137
10023SOL     OW30967   0.705   3.580   0.824
10023SOL    HW130968   0.748   3.579   0.734
10023SOL    HW230969   0.768   3.620   0.891
10024SOL     OW30970   0.785   3.628   2.878
10024SOL    HW130971   0.742   3.555   2.932
10024SOL    HW230972   0.723   3.655   2.804
10025SOL     OW30973   0.655   1.563   0.728
10025SOL    HW130974   0.583   1.543   0.794
10025SOL    HW230975   0.719   1.486   0.724
10026SOL     OW30976   6.389   0.948   4.180
10026SOL    HW130977   6.394   1.020   4.110
10026SOL    HW230978   6.377   0.989   4.270
10027SOL     OW30979   5.924   2.818   5.909
10027SOL    HW130980   5.983   2.864   5.843
10027SOL    HW230981   5.833   2.806   5.870
10028SOL     OW30982   1.813   1.543   1.723
10028SOL    HW130983   1.768   1.628   1.694
10028SOL    HW230984   1.807   1.535   1.822
10029SOL     OW30985   3.751   1.224   4.261
10029SOL    HW130986   3.798   1.138   4.282
10029SOL    HW230987   3.769   1.291   4.334
10030SOL     OW30988   1.079   1.104   2.614
10030SOL    HW130989   1.154   1.042   2.637
10030SOL    HW230990   1.115   1.195   2.594
10031SOL     OW30991   0.027   4.685   3.314
10031SOL    HW130992   7.014   4.727   3.231
10031SOL    HW230993   6.987   4.698   3.389
10032SOL     OW30994   3.695   2.004   5.086
10032SOL    HW130995   3.606   2.045   5.064
10032SOL    HW230996   3.759   2.076   5.114
10033SOL     OW30997   6.097   3.131   3.584
10033SOL    HW130998   6.092   3.046   3.635
10033SOL    HW230999   6.044   3.122   3.499
10034SOL     OW31000   4.009   6.157   6.130
10034SOL    HW131001   4.025   6.143   6.032
10034SOL    HW231002   3.948   6.086   6.164
10035SOL     OW31003   0.390   6.659   3.890
10035SOL    HW131004   0.311   6.626   3.837
10035SOL    HW231005   0.470   6.602   3.870
10036SOL     OW31006   6.335   0.837   0.506
10036SOL    HW131007   6.402   0.793   0.566
10036SOL    HW231008   6.380   0.868   0.422
10037SOL     OW31009   6.658   6.594   1.328
10037SOL    HW131010   6.630   6.687   1.353
10037SOL    HW231011   6.757   6.591   1.317
10038SOL     OW31012   6.414   0.234   1.074
10038SOL    HW131013   6.341   0.295   1.106
10038SOL    HW231014   6.380   0.178   0.999
10039SOL     OW31015   4.252   1.091   2.744
10039SOL    HW131016   4.316   1.138   2.684
10039SOL    HW231017   4.245   1.141   2.830
10040SOL     OW31018   0.788   2.284   0.539
10040SOL    HW131019   0.723   2.266   0.613
10040SOL    HW231020   0.866   2.336   0.575
10041SOL     OW31021   1.265   6.662   0.339
10041SOL    HW131022   1.334   6.603   0.383
10041SOL    HW231023   1.177   6.614   0.338
10042SOL     OW31024   6.423   1.858   3.732
10042SOL    HW131025   6.362   1.903   3.797
10042SOL    HW231026   6.467   1.926   3.674
10043SOL     OW31027   2.131   2.558   5.880
10043SOL    HW131028   2.171   2.575   5.790
10043SOL    HW231029   2.055   2.622   5.896
10044SOL     OW31030   4.426   1.007   0.086
10044SOL    HW131031   4.382   0.975   0.002
10044SOL    HW231032   4.474   1.093   0.068
10045SOL     OW31033   2.189   0.689   1.435
10045SOL    HW131034   2.216   0.715   1.528
10045SOL    HW231035   2.248   0.615   1.403
10046SOL     OW31036   0.521   5.665   0.158
10046SOL    HW131037   0.430   5.708   0.162
10046SOL    HW231038   0.569   5.696   0.076
10047SOL     OW31039   1.751   3.683   0.829
10047SOL    HW131040   1.685   3.637   0.888
10047SOL    HW231041   1.710   3.765   0.790
10048SOL     OW31042   5.594   3.574   1.612
10048SOL    HW131043   5.684   3.612   1.631
10048SOL    HW231044   5.550   3.547   1.697
10049SOL     OW31045   6.847   2.041   4.966
10049SOL    HW131046   6.874   2.045   5.062
10049SOL    HW231047   6.763   2.094   4.952
10050SOL     OW31048   6.957   2.644   6.218
10050SOL    HW131049   6.964   2.712   6.145
10050SOL    HW231050   0.010   2.581   6.212
10051SOL     OW31051   1.660   0.540   3.295
10051SOL    HW131052   1.689   0.468   3.359
10051SOL    HW231053   1.579   0.586   3.330
10052SOL     OW31054   1.161   0.406   3.563
10052SOL    HW131055   1.130   0.500   3.574
10052SOL    HW231056   1.121   0.349   3.634
10053SOL     OW31057   6.020   5.685   2.449
10053SOL    HW131058   5.980   5.756   2.392
10053SOL    HW231059   6.011   5.710   2.546
10054SOL     OW31060   5.455   4.090   3.637
10054SOL    HW131061   5.534   4.090   3.699
10054SOL    HW231062   5.484   4.060   3.546
10055SOL     OW31063   1.664   1.761   0.106
10055SOL    HW131064   1.647   1.739   0.010
10055SOL    HW231065   1.735   1.700   0.142
10056SOL     OW31066   4.986   1.931   4.377
10056SOL    HW131067   4.916   1.918   4.307
10056SOL    HW231068   5.031   2.019   4.363
10057SOL     OW31069   5.831   4.311   4.665
10057SOL    HW131070   5.757   4.371   4.634
10057SOL    HW231071   5.855   4.334   4.759
10058SOL     OW31072   6.322   4.216   3.693
10058SOL    HW131073   6.255   4.224   3.766
10058SOL    HW231074   6.387   4.144   3.715
10059SOL     OW31075   5.528   5.836   5.656
10059SOL    HW131076   5.472   5.915   5.682
10059SOL    HW231077   5.615   5.839   5.705
10060SOL     OW31078   2.806   1.921   2.092
10060SOL    HW131079   2.858   1.842   2.125
10060SOL    HW231080   2.709   1.898   2.088
10061SOL     OW31081   3.805   6.992   3.346
10061SOL    HW131082   3.839   6.970   3.255
10061SOL    HW231083   3.849   0.052   3.379
10062SOL     OW31084   6.446   6.818   4.671
10062SOL    HW131085   6.527   6.827   4.612
10062SOL    HW231086   6.385   6.748   4.634
10063SOL     OW31087   3.744   2.166   3.993
10063SOL    HW131088   3.837   2.193   3.970
10063SOL    HW231089   3.745   2.104   4.071
10064SOL     OW31090   2.398   6.406   2.321
10064SOL    HW131091   2.458   6.486   2.334
10064SOL    HW231092   2.306   6.430   2.351
10065SOL     OW31093   6.384   1.848   1.754
10065SOL    HW131094   6.390   1.876   1.658
10065SOL    HW231095   6.440   1.908   1.810
10066SOL     OW31096   6.498   4.237   3.465
10066SOL    HW131097   6.435   4.244   3.543
10066SOL    HW231098   6.563   4.163   3.482
10067SOL     OW31099   5.355   3.276   4.992
10067SOL    HW131100   5.373   3.294   4.896
10067SOL    HW231101   5.390   3.186   5.017
10068SOL     OW31102   1.957   3.605   2.975
10068SOL    HW131103   1.883   3.631   2.913
10068SOL    HW231104   1.920   3.596   3.068
10069SOL     OW31105   3.088   5.115   1.987
10069SOL    HW131106   3.141   5.032   2.000
10069SOL    HW231107   3.027   5.104   1.908
10070SOL     OW31108   5.226   6.921   0.314
10070SOL    HW131109   5.294   6.849   0.326
10070SOL    HW231110   5.273   7.007   0.293
10071SOL     OW31111   4.915   0.600   5.405
10071SOL    HW131112   4.961   0.592   5.494
10071SOL    HW231113   4.978   0.574   5.332
10072SOL     OW31114   5.517   3.153   1.917
10072SOL    HW131115   5.427   3.118   1.944
10072SOL    HW231116   5.588   3.091   1.950
10073SOL     OW31117   5.714   6.027   5.347
10073SOL    HW131118   5.711   5.945   5.290
10073SOL    HW231119   5.809   6.058   5.357
10074SOL     OW31120   1.668   4.795   0.935
10074SOL    HW131121   1.598   4.763   0.872
10074SOL    HW231122   1.656   4.751   1.024
10075SOL     OW31123   0.805   3.295   2.093
10075SOL    HW131124   0.816   3.230   2.168
10075SOL    HW231125   0.891   3.343   2.079
10076SOL     OW31126   5.962   4.710   3.618
10076SOL    HW131127   5.878   4.656   3.608
10076SOL    HW231128   6.026   4.660   3.677
10077SOL     OW31129   4.119   3.622   6.565
10077SOL    HW131130   4.162   3.579   6.644
10077SOL    HW231131   4.153   3.715   6.555
10078SOL     OW31132   5.941   5.798   4.009
10078SOL    HW131133   5.893   5.720   3.969
10078SOL    HW231134   6.030   5.769   4.043
10079SOL     OW31135   5.761   5.526   3.095
10079SOL    HW131136   5.838   5.482   3.048
10079SOL    HW231137   5.773   5.516   3.194
10080SOL     OW31138   5.221   2.589   5.208
10080SOL    HW131139   5.196   2.683   5.230
10080SOL    HW231140   5.165   2.526   5.261
10081SOL     OW31141   1.177   4.782   0.808
10081SOL    HW131142   1.233   4.864   0.821
10081SOL    HW231143   1.195   4.717   0.882
10082SOL     OW31144   0.455   4.780   1.500
10082SOL    HW131145   0.536   4.777   1.559
10082SOL    HW231146   0.414   4.689   1.495
10083SOL     OW31147   3.038   6.209   2.577
10083SOL    HW131148   3.061   6.155   2.659
10083SOL    HW231149   3.015   6.302   2.604
10084SOL     OW31150   1.824   2.628   5.062
10084SOL    HW131151   1.850   2.557   5.127
10084SOL    HW231152   1.899   2.644   4.998
10085SOL     OW31153   3.984   6.836   1.411
10085SOL    HW131154   3.941   6.819   1.499
10085SOL    HW231155   4.017   6.930   1.407
10086SOL     OW31156   2.920   1.040   3.157
10086SOL    HW131157   2.946   1.136   3.172
10086SOL    HW231158   2.822   1.030   3.174
10087SOL     OW31159   1.761   5.436   6.506
10087SOL    HW131160   1.850   5.403   6.474
10087SOL    HW231161   1.692   5.366   6.491
10088SOL     OW31162   5.666   1.863   0.866
10088SOL    HW131163   5.682   1.806   0.786
10088SOL    HW231164   5.666   1.959   0.840
10089SOL     OW31165   3.533   6.649   2.181
10089SOL    HW131166   3.465   6.599   2.234
10089SOL    HW231167   3.603   6.686   2.242
10090SOL     OW31168   3.047   5.747   2.003
10090SOL    HW131169   2.971   5.811   2.018
10090SOL    HW231170   3.010   5.657   1.981
10091SOL     OW31171   5.519   6.103   2.995
10091SOL    HW131172   5.436   6.047   2.999
10091SOL    HW231173   5.501   6.193   3.034
10092SOL     OW31174   0.053   1.563   2.530
10092SOL    HW131175   7.004   1.496   2.544
10092SOL    HW231176   0.070   1.574   2.432
10093SOL     OW31177   4.453   4.418   6.189
10093SOL    HW131178   4.403   4.334   6.171
10093SOL    HW231179   4.391   4.496   6.177
10094SOL     OW31180   3.710   2.437   0.550
10094SOL    HW131181   3.757   2.406   0.633
10094SOL    HW231182   3.778   2.473   0.485
10095SOL     OW31183   4.496   2.587   5.094
10095SOL    HW131184   4.397   2.579   5.082
10095SOL    HW231185   4.516   2.623   5.185
10096SOL     OW31186   7.020   5.046   1.898
10096SOL    HW131187   7.016   5.030   1.997
10096SOL    HW231188   6.930   5.076   1.865
10097SOL     OW31189   1.382   1.252   1.470
10097SOL    HW131190   1.338   1.276   1.557
10097SOL    HW231191   1.472   1.294   1.466
10098SOL     OW31192   4.324   5.224   0.270
10098SOL    HW131193   4.275   5.215   0.357
10098SOL    HW231194   4.422   5.220   0.287
10099SOL     OW31195   6.843   6.371   3.362
10099SOL    HW131196   6.887   6.440   3.305
10099SOL    HW231197   6.890   6.284   3.351
10100SOL     OW31198   5.075   5.485   4.157
10100SOL    HW131199   5.127   5.415   4.106
10100SOL    HW231200   5.033   5.443   4.237
10101SOL     OW31201   0.165   2.365   6.813
10101SOL    HW131202   0.142   2.297   6.744
10101SOL    HW231203   0.246   2.335   6.864
10102SOL     OW31204   0.237   4.762   2.840
10102SOL    HW131205   0.317   4.776   2.900
10102SOL    HW231206   0.221   4.844   2.786
10103SOL     OW31207   0.360   0.043   6.968
10103SOL    HW131208   0.419   6.986   6.957
10103SOL    HW231209   0.304   0.053   6.886
10104SOL     OW31210   2.531   1.354   4.823
10104SOL    HW131211   2.507   1.298   4.902
10104SOL    HW231212   2.629   1.342   4.803
10105SOL     OW31213   3.392   1.426   4.117
10105SOL    HW131214   3.299   1.463   4.105
10105SOL    HW231215   3.431   1.462   4.202
10106SOL     OW31216   6.386   3.918   0.875
10106SOL    HW131217   6.330   3.839   0.899
10106SOL    HW231218   6.480   3.887   0.857
10107SOL     OW31219   4.949   5.764   5.699
10107SOL    HW131220   4.982   5.747   5.606
10107SOL    HW231221   5.018   5.814   5.751
10108SOL     OW31222   2.843   1.987   4.778
10108SOL    HW131223   2.861   1.992   4.680
10108SOL    HW231224   2.930   1.985   4.827
10109SOL     OW31225   0.973   2.969   1.070
10109SOL    HW131226   1.067   2.983   1.103
10109SOL    HW231227   0.909   2.979   1.147
10110SOL     OW31228   5.915   6.295   1.568
10110SOL    HW131229   5.963   6.239   1.501
10110SOL    HW231230   5.850   6.238   1.619
10111SOL     OW31231   6.454   2.630   2.058
10111SOL    HW131232   6.479   2.642   1.962
10111SOL    HW231233   6.371   2.682   2.078
10112SOL     OW31234   0.152   2.794   4.032
10112SOL    HW131235   0.061   2.755   4.019
10112SOL    HW231236   0.144   2.893   4.042
10113SOL     OW31237   6.898   6.677   6.407
10113SOL    HW131238   6.963   6.602   6.422
10113SOL    HW231239   6.948   6.761   6.387
10114SOL     OW31240   5.805   4.482   1.195
10114SOL    HW131241   5.793   4.581   1.187
10114SOL    HW231242   5.801   4.441   1.104
10115SOL     OW31243   3.753   1.708   6.438
10115SOL    HW131244   3.774   1.804   6.422
10115SOL    HW231245   3.837   1.658   6.458
10116SOL     OW31246   0.792   6.784   6.749
10116SOL    HW131247   0.827   6.707   6.695
10116SOL    HW231248   0.834   6.868   6.717
10117SOL     OW31249   0.437   4.195   1.253
10117SOL    HW131250   0.455   4.255   1.175
10117SOL    HW231251   0.437   4.249   1.337
10118SOL     OW31252   4.155   5.248   3.540
10118SOL    HW131253   4.180   5.335   3.498
10118SOL    HW231254   4.067   5.258   3.588
10119SOL     OW31255   5.721   6.237   6.683
10119SOL    HW131256   5.724   6.209   6.779
10119SOL    HW231257   5.666   6.321   6.675
10120SOL     OW31258   2.368   2.710   2.821
10120SOL    HW131259   2.332   2.776   2.886
10120SOL    HW231260   2.433   2.649   2.867
10121SOL     OW31261   6.574   5.497   1.431
10121SOL    HW131262   6.561   5.596   1.440
10121SOL    HW231263   6.618   5.477   1.343
10122SOL     OW31264   1.926   0.180   3.306
10122SOL    HW131265   2.002   0.160   3.245
10122SOL    HW231266   1.950   0.257   3.365
10123SOL     OW31267   6.420   6.916   6.536
10123SOL    HW131268   6.331   6.878   6.511
10123SOL    HW231269   6.423   6.930   6.635
10124SOL     OW31270   0.536   4.883   3.320
10124SOL    HW131271   0.555   4.887   3.221
10124SOL    HW231272   0.475   4.958   3.345
10125SOL     OW31273   2.019   2.329   4.445
10125SOL    HW131274   2.040   2.422   4.477
10125SOL    HW231275   1.927   2.304   4.474
10126SOL     OW31276   6.818   6.159   4.567
10126SOL    HW131277   6.832   6.258   4.570
10126SOL    HW231278   6.858   6.123   4.482
10127SOL     OW31279   2.126   0.985   4.791
10127SOL    HW131280   2.144   1.080   4.765
10127SOL    HW231281   2.169   0.966   4.879
10128SOL     OW31282   3.184   0.793   0.593
10128SOL    HW131283   3.120   0.853   0.642
10128SOL    HW231284   3.258   0.766   0.654
10129SOL     OW31285   6.693   1.882   5.621
10129SOL    HW131286   6.621   1.887   5.551
10129SOL    HW231287   6.778   1.849   5.578
10130SOL     OW31288   1.474   2.907   3.264
10130SOL    HW131289   1.488   2.852   3.346
10130SOL    HW231290   1.515   2.861   3.185
10131SOL     OW31291   2.063   0.987   5.109
10131SOL    HW131292   2.079   0.904   5.056
10131SOL    HW231293   2.042   0.964   5.204
10132SOL     OW31294   5.974   0.703   2.173
10132SOL    HW131295   5.983   0.778   2.107
10132SOL    HW231296   5.918   0.630   2.132
10133SOL     OW31297   4.845   5.341   1.204
10133SOL    HW131298   4.921   5.292   1.248
10133SOL    HW231299   4.759   5.317   1.249
10134SOL     OW31300   6.236   0.777   2.868
10134SOL    HW131301   6.274   0.818   2.785
10134SOL    HW231302   6.301   0.789   2.943
10135SOL     OW31303   6.466   6.641   3.119
10135SOL    HW131304   6.524   6.631   3.200
10135SOL    HW231305   6.377   6.676   3.146
10136SOL     OW31306   4.926   0.774   3.032
10136SOL    HW131307   4.865   0.852   3.040
10136SOL    HW231308   5.012   0.793   3.080
10137SOL     OW31309   6.185   6.314   2.765
10137SOL    HW131310   6.209   6.378   2.691
10137SOL    HW231311   6.176   6.222   2.727
10138SOL     OW31312   0.319   2.060   2.747
10138SOL    HW131313   0.293   2.007   2.667
10138SOL    HW231314   0.362   2.001   2.815
10139SOL     OW31315   4.197   2.807   1.029
10139SOL    HW131316   4.166   2.856   1.111
10139SOL    HW231317   4.184   2.864   0.949
10140SOL     OW31318   5.951   6.779   4.003
10140SOL    HW131319   5.991   6.714   3.939
10140SOL    HW231320   5.942   6.737   4.093
10141SOL     OW31321   0.747   1.938   4.283
10141SOL    HW131322   0.733   1.986   4.197
10141SOL    HW231323   0.795   1.998   4.347
10142SOL     OW31324   4.516   6.477   1.505
10142SOL    HW131325   4.547   6.552   1.564
10142SOL    HW231326   4.438   6.508   1.450
10143SOL     OW31327   6.959   3.523   6.996
10143SOL    HW131328   6.931   3.540   6.901
10143SOL    HW231329   6.926   3.433   0.001
10144SOL     OW31330   4.535   0.611   2.040
10144SOL    HW131331   4.496   0.590   1.950
10144SOL    HW231332   4.517   0.707   2.063
10145SOL     OW31333   6.407   0.124   5.003
10145SOL    HW131334   6.458   0.082   4.928
10145SOL    HW231335   6.462   0.197   5.044
10146SOL     OW31336   1.524   1.346   5.538
10146SOL    HW131337   1.535   1.247   5.546
10146SOL    HW231338   1.431   1.366   5.506
10147SOL     OW31339   3.234   4.710   0.445
10147SOL    HW131340   3.322   4.664   0.439
10147SOL    HW231341   3.220   4.767   0.364
10148SOL     OW31342   6.826   5.728   6.515
10148SOL    HW131343   6.890   5.778   6.457
10148SOL    HW231344   6.777   5.792   6.573
10149SOL     OW31345   2.872   3.474   3.805
10149SOL    HW131346   2.926   3.390   3.812
10149SOL    HW231347   2.825   3.475   3.717
10150SOL     OW31348   5.973   4.398   0.151
10150SOL    HW131349   5.980   4.379   0.249
10150SOL    HW231350   6.036   4.471   0.126
10151SOL     OW31351   0.335   0.537   0.541
10151SOL    HW131352   0.321   0.624   0.588
10151SOL    HW231353   0.432   0.524   0.522
10152SOL     OW31354   3.555   6.092   3.871
10152SOL    HW131355   3.512   6.105   3.781
10152SOL    HW231356   3.570   5.994   3.887
10153SOL     OW31357   4.728   3.855   1.062
10153SOL    HW131358   4.690   3.938   1.020
10153SOL    HW231359   4.661   3.815   1.124
10154SOL     OW31360   4.962   5.174   6.162
10154SOL    HW131361   5.019   5.256   6.156
10154SOL    HW231362   5.001   5.112   6.230
10155SOL     OW31363   4.982   2.498   4.589
10155SOL    HW131364   4.993   2.446   4.674
10155SOL    HW231365   4.946   2.589   4.611
10156SOL     OW31366   3.437   1.527   6.885
10156SOL    HW131367   3.485   1.465   6.947
10156SOL    HW231368   3.402   1.476   6.806
10157SOL     OW31369   0.250   5.559   1.980
10157SOL    HW131370   0.250   5.478   1.922
10157SOL    HW231371   0.345   5.585   2.001
10158SOL     OW31372   6.687   4.971   6.459
10158SOL    HW131373   6.625   4.920   6.399
10158SOL    HW231374   6.768   4.916   6.478
10159SOL     OW31375   3.798   2.901   1.792
10159SOL    HW131376   3.733   2.977   1.797
10159SOL    HW231377   3.890   2.936   1.808
10160SOL     OW31378   6.863   4.007   2.555
10160SOL    HW131379   6.873   4.066   2.474
10160SOL    HW231380   6.776   4.028   2.600
10161SOL     OW31381   6.527   2.895   0.142
10161SOL    HW131382   6.563   2.961   0.077
10161SOL    HW231383   6.524   2.936   0.233
10162SOL     OW31384   2.204   2.483   1.779
10162SOL    HW131385   2.181   2.557   1.715
10162SOL    HW231386   2.155   2.497   1.865
10163SOL     OW31387   3.484   5.367   4.871
10163SOL    HW131388   3.387   5.345   4.860
10163SOL    HW231389   3.517   5.417   4.791
10164SOL     OW31390   0.475   0.877   3.635
10164SOL    HW131391   0.450   0.819   3.557
10164SOL    HW231392   0.479   0.820   3.718
10165SOL     OW31393   1.952   3.477   3.891
10165SOL    HW131394   1.876   3.448   3.833
10165SOL    HW231395   1.927   3.561   3.938
10166SOL     OW31396   3.165   6.271   3.212
10166SOL    HW131397   3.152   6.370   3.219
10166SOL    HW231398   3.263   6.250   3.221
10167SOL     OW31399   3.980   1.807   6.684
10167SOL    HW131400   3.958   1.725   6.738
10167SOL    HW231401   3.915   1.879   6.707
10168SOL     OW31402   0.659   0.948   6.725
10168SOL    HW131403   0.681   0.873   6.787
10168SOL    HW231404   0.697   1.033   6.760
10169SOL     OW31405   4.634   5.146   2.942
10169SOL    HW131406   4.534   5.144   2.946
10169SOL    HW231407   4.663   5.205   2.867
10170SOL     OW31408   4.931   6.410   6.942
10170SOL    HW131409   4.967   6.439   0.007
10170SOL    HW231410   4.984   6.455   6.869
10171SOL     OW31411   1.499   4.017   2.789
10171SOL    HW131412   1.540   4.005   2.879
10171SOL    HW231413   1.472   4.112   2.777
10172SOL     OW31414   0.866   1.432   3.332
10172SOL    HW131415   0.839   1.528   3.331
10172SOL    HW231416   0.849   1.393   3.423
10173SOL     OW31417   4.365   2.370   4.773
10173SOL    HW131418   4.437   2.431   4.739
10173SOL    HW231419   4.405   2.281   4.794
10174SOL     OW31420   4.802   4.755   1.162
10174SOL    HW131421   4.731   4.685   1.167
10174SOL    HW231422   4.891   4.712   1.145
10175SOL     OW31423   6.577   6.957   3.449
10175SOL    HW131424   6.616   7.018   3.518
10175SOL    HW231425   6.517   7.009   3.388
10176SOL     OW31426   6.621   1.384   5.273
10176SOL    HW131427   6.649   1.422   5.361
10176SOL    HW231428   6.560   1.448   5.226
10177SOL     OW31429   3.089   1.056   4.624
10177SOL    HW131430   3.002   1.093   4.591
10177SOL    HW231431   3.152   1.047   4.547
10178SOL     OW31432   6.445   1.625   2.217
10178SOL    HW131433   6.402   1.682   2.287
10178SOL    HW231434   6.539   1.605   2.242
10179SOL     OW31435   0.359   6.222   0.972
10179SOL    HW131436   0.412   6.139   0.955
10179SOL    HW231437   0.265   6.197   0.995
10180SOL     OW31438   1.790   0.379   6.331
10180SOL    HW131439   1.764   0.467   6.370
10180SOL    HW231440   1.786   0.384   6.231
10181SOL     OW31441   0.021   4.185   1.935
10181SOL    HW131442   0.087   4.119   1.899
10181SOL    HW231443   6.955   4.169   1.895
10182SOL     OW31444   2.894   6.847   6.556
10182SOL    HW131445   2.965   6.778   6.548
10182SOL    HW231446   2.856   6.847   6.648
10183SOL     OW31447   3.732   5.744   6.273
10183SOL    HW131448   3.761   5.832   6.235
10183SOL    HW231449   3.741   5.673   6.203
10184SOL     OW31450   4.784   2.854   3.693
10184SOL    HW131451   4.878   2.823   3.679
10184SOL    HW231452   4.763   2.854   3.790
10185SOL     OW31453   3.003   4.712   1.751
10185SOL    HW131454   2.950   4.641   1.796
10185SOL    HW231455   2.942   4.777   1.706
10186SOL     OW31456   3.312   2.782   1.994
10186SOL    HW131457   3.251   2.752   1.920
10186SOL    HW231458   3.402   2.739   1.982
10187SOL     OW31459   1.551   3.433   5.611
10187SOL    HW131460   1.579   3.529   5.605
10187SOL    HW231461   1.629   3.375   5.589
10188SOL     OW31462   2.334   0.186   6.811
10188SOL    HW131463   2.375   0.221   6.727
10188SOL    HW231464   2.403   0.135   6.863
10189SOL     OW31465   2.103   1.697   5.095
10189SOL    HW131466   2.137   1.748   5.175
10189SOL    HW231467   2.148   1.608   5.090
10190SOL     OW31468   2.747   4.018   1.063
10190SOL    HW131469   2.761   4.042   0.967
10190SOL    HW231470   2.809   3.944   1.088
10191SOL     OW31471   6.048   0.471   0.076
10191SOL    HW131472   5.994   0.460   0.160
10191SOL    HW231473   6.057   0.568   0.056
10192SOL     OW31474   2.897   0.552   4.491
10192SOL    HW131475   2.911   0.651   4.484
10192SOL    HW231476   2.801   0.534   4.514
10193SOL     OW31477   3.711   2.896   3.864
10193SOL    HW131478   3.727   2.825   3.932
10193SOL    HW231479   3.619   2.934   3.875
10194SOL     OW31480   3.042   5.771   3.415
10194SOL    HW131481   3.047   5.683   3.462
10194SOL    HW231482   3.034   5.756   3.317
10195SOL     OW31483   5.146   0.550   2.054
10195SOL    HW131484   5.179   0.633   2.007
10195SOL    HW231485   5.153   0.564   2.152
10196SOL     OW31486   4.611   5.074   3.876
10196SOL    HW131487   4.596   5.084   3.778
10196SOL    HW231488   4.633   4.978   3.896
10197SOL     OW31489   5.268   1.697   2.856
10197SOL    HW131490   5.302   1.643   2.933
10197SOL    HW231491   5.251   1.791   2.886
10198SOL     OW31492   3.806   1.461   1.824
10198SOL    HW131493   3.880   1.414   1.776
10198SOL    HW231494   3.791   1.417   1.913
10199SOL     OW31495   1.068   1.919   0.293
10199SOL    HW131496   0.971   1.895   0.298
10199SOL    HW231497   1.096   1.961   0.380
10200SOL     OW31498   5.239   6.918   3.772
10200SOL    HW131499   5.164   6.859   3.802
10200SOL    HW231500   5.263   6.896   3.677
10201SOL     OW31501   0.779   5.274   3.411
10201SOL    HW131502   0.685   5.278   3.376
10201SOL    HW231503   0.780   5.221   3.496
10202SOL     OW31504   1.378   2.554   3.532
10202SOL    HW131505   1.477   2.545   3.517
10202SOL    HW231506   1.358   2.647   3.563
10203SOL     OW31507   6.406   2.418   0.965
10203SOL    HW131508   6.364   2.328   0.952
10203SOL    HW231509   6.471   2.436   0.891
10204SOL     OW31510   1.621   6.477   4.240
10204SOL    HW131511   1.641   6.409   4.169
10204SOL    HW231512   1.565   6.550   4.202
10205SOL     OW31513   3.634   6.626   0.692
10205SOL    HW131514   3.715   6.567   0.697
10205SOL    HW231515   3.640   6.684   0.611
10206SOL     OW31516   5.988   6.109   0.045
10206SOL    HW131517   5.963   6.060   6.986
10206SOL    HW231518   5.997   6.044   0.121
10207SOL     OW31519   3.440   1.303   2.260
10207SOL    HW131520   3.403   1.286   2.169
10207SOL    HW231521   3.385   1.254   2.328
10208SOL     OW31522   0.312   2.397   6.418
10208SOL    HW131523   0.381   2.411   6.489
10208SOL    HW231524   0.234   2.458   6.436
10209SOL     OW31525   3.364   6.163   6.913
10209SOL    HW131526   3.459   6.132   6.918
10209SOL    HW231527   3.333   6.194   7.003
10210SOL     OW31528   4.665   6.561   6.924
10210SOL    HW131529   4.602   6.489   6.954
10210SOL    HW231530   4.759   6.527   6.931
10211SOL     OW31531   3.656   5.184   5.062
10211SOL    HW131532   3.661   5.136   5.150
10211SOL    HW231533   3.570   5.235   5.057
10212SOL     OW31534   6.163   6.074   5.640
10212SOL    HW131535   6.181   6.020   5.722
10212SOL    HW231536   6.183   6.019   5.559
10213SOL     OW31537   3.883   0.171   4.766
10213SOL    HW131538   3.865   0.212   4.855
10213SOL    HW231539   3.978   0.139   4.764
10214SOL     OW31540   6.973   0.654   0.502
10214SOL    HW131541   0.011   0.610   0.437
10214SOL    HW231542   6.947   0.745   0.468
10215SOL     OW31543   4.695   2.472   0.189
10215SOL    HW131544   4.725   2.424   0.272
10215SOL    HW231545   4.770   2.476   0.123
10216SOL     OW31546   5.204   0.527   2.605
10216SOL    HW131547   5.168   0.434   2.608
10216SOL    HW231548   5.168   0.573   2.523
10217SOL     OW31549   3.152   1.917   5.862
10217SOL    HW131550   3.187   1.896   5.771
10217SOL    HW231551   3.134   2.015   5.869
10218SOL     OW31552   3.764   0.929   6.668
10218SOL    HW131553   3.707   0.856   6.632
10218SOL    HW231554   3.732   0.955   6.759
10219SOL     OW31555   6.938   5.119   0.757
10219SOL    HW131556   6.942   5.213   0.723
10219SOL    HW231557   6.958   5.056   0.682
10220SOL     OW31558   4.024   2.471   6.364
10220SOL    HW131559   3.974   2.555   6.382
10220SOL    HW231560   4.118   2.493   6.335
10221SOL     OW31561   2.378   0.505   4.572
10221SOL    HW131562   2.337   0.595   4.586
10221SOL    HW231563   2.443   0.486   4.646
10222SOL     OW31564   2.602   4.723   5.281
10222SOL    HW131565   2.648   4.645   5.323
10222SOL    HW231566   2.664   4.766   5.215
10223SOL     OW31567   1.611   5.387   5.892
10223SOL    HW131568   1.570   5.397   5.801
10223SOL    HW231569   1.553   5.328   5.948
10224SOL     OW31570   3.816   5.927   5.573
10224SOL    HW131571   3.783   5.845   5.619
10224SOL    HW231572   3.756   5.949   5.496
10225SOL     OW31573   5.195   6.981   4.606
10225SOL    HW131574   5.254   6.994   4.686
10225SOL    HW231575   5.236   6.914   4.545
10226SOL     OW31576   6.519   2.598   6.482
10226SOL    HW131577   6.557   2.691   6.473
10226SOL    HW231578   6.592   2.535   6.508
10227SOL     OW31579   4.423   4.538   5.391
10227SOL    HW131580   4.407   4.444   5.359
10227SOL    HW231581   4.509   4.571   5.353
10228SOL     OW31582   1.208   2.614   1.319
10228SOL    HW131583   1.287   2.563   1.353
10228SOL    HW231584   1.158   2.652   1.397
10229SOL     OW31585   2.897   0.657   1.967
10229SOL    HW131586   2.924   0.572   1.922
10229SOL    HW231587   2.884   0.728   1.898
10230SOL     OW31588   5.131   0.075   3.205
10230SOL    HW131589   5.063   0.147   3.192
10230SOL    HW231590   5.222   0.111   3.185
10231SOL     OW31591   4.984   6.297   4.621
10231SOL    HW131592   5.083   6.285   4.630
10231SOL    HW231593   4.938   6.253   4.698
10232SOL     OW31594   3.884   2.197   2.894
10232SOL    HW131595   3.849   2.107   2.918
10232SOL    HW231596   3.808   2.256   2.866
10233SOL     OW31597   4.712   6.129   5.437
10233SOL    HW131598   4.642   6.170   5.494
10233SOL    HW231599   4.786   6.195   5.421
10234SOL     OW31600   3.945   4.042   0.974
10234SOL    HW131601   3.975   4.011   1.064
10234SOL    HW231602   4.013   4.106   0.937
10235SOL     OW31603   4.924   0.215   7.011
10235SOL    HW131604   4.894   0.258   6.926
10235SOL    HW231605   4.851   0.221   0.055
10236SOL     OW31606   1.432   4.771   1.298
10236SOL    HW131607   1.356   4.710   1.319
10236SOL    HW231608   1.398   4.860   1.269
10237SOL     OW31609   5.909   2.538   3.043
10237SOL    HW131610   5.888   2.615   2.983
10237SOL    HW231611   5.876   2.557   3.136
10238SOL     OW31612   5.344   5.227   6.327
10238SOL    HW131613   5.252   5.235   6.365
10238SOL    HW231614   5.354   5.139   6.281
10239SOL     OW31615   5.417   3.559   4.399
10239SOL    HW131616   5.491   3.625   4.383
10239SOL    HW231617   5.436   3.507   4.483
10240SOL     OW31618   5.012   3.757   2.837
10240SOL    HW131619   4.983   3.766   2.932
10240SOL    HW231620   4.967   3.826   2.781
10241SOL     OW31621   1.500   2.697   2.532
10241SOL    HW131622   1.409   2.656   2.536
10241SOL    HW231623   1.521   2.742   2.618
10242SOL     OW31624   0.992   5.471   6.754
10242SOL    HW131625   1.044   5.417   6.820
10242SOL    HW231626   0.895   5.446   6.759
10243SOL     OW31627   0.195   5.702   3.797
10243SOL    HW131628   0.130   5.717   3.872
10243SOL    HW231629   0.253   5.624   3.818
10244SOL     OW31630   2.474   5.720   0.040
10244SOL    HW131631   2.501   5.813   0.066
10244SOL    HW231632   2.398   5.724   6.999
10245SOL     OW31633   3.689   3.413   1.104
10245SOL    HW131634   3.776   3.365   1.091
10245SOL    HW231635   3.690   3.459   1.193
10246SOL     OW31636   3.448   4.079   4.951
10246SOL    HW131637   3.519   4.013   4.929
10246SOL    HW231638   3.488   4.156   5.001
10247SOL     OW31639   1.022   5.378   6.436
10247SOL    HW131640   1.089   5.312   6.470
10247SOL    HW231641   0.967   5.412   6.512
10248SOL     OW31642   5.899   0.584   3.853
10248SOL    HW131643   5.957   0.516   3.899
10248SOL    HW231644   5.830   0.618   3.917
10249SOL     OW31645   4.614   0.722   6.110
10249SOL    HW131646   4.569   0.720   6.200
10249SOL    HW231647   4.546   0.705   6.039
10250SOL     OW31648   4.457   5.810   0.657
10250SOL    HW131649   4.547   5.805   0.700
10250SOL    HW231650   4.452   5.889   0.597
10251SOL     OW31651   3.662   4.364   1.209
10251SOL    HW131652   3.680   4.294   1.278
10251SOL    HW231653   3.739   4.370   1.146
10252SOL     OW31654   0.016   3.798   0.883
10252SOL    HW131655   6.961   3.852   0.856
10252SOL    HW231656   7.021   3.751   0.969
10253SOL     OW31657   4.876   4.283   6.823
10253SOL    HW131658   4.898   4.193   6.861
10253SOL    HW231659   4.800   4.323   6.875
10254SOL     OW31660   3.088   2.171   5.510
10254SOL    HW131661   3.069   2.171   5.411
10254SOL    HW231662   3.113   2.079   5.539
10255SOL     OW31663   3.218   5.001   4.069
10255SOL    HW131664   3.158   4.994   4.149
10255SOL    HW231665   3.301   5.050   4.094
10256SOL     OW31666   5.349   5.689   0.180
10256SOL    HW131667   5.259   5.720   0.209
10256SOL    HW231668   5.420   5.744   0.225
10257SOL     OW31669   1.700   4.307   5.155
10257SOL    HW131670   1.777   4.322   5.217
10257SOL    HW231671   1.732   4.255   5.076
10258SOL     OW31672   4.804   1.330   2.689
10258SOL    HW131673   4.807   1.241   2.643
10258SOL    HW231674   4.711   1.366   2.686
10259SOL     OW31675   6.082   3.520   4.381
10259SOL    HW131676   6.035   3.603   4.412
10259SOL    HW231677   6.057   3.501   4.286
10260SOL     OW31678   0.072   5.884   2.314
10260SOL    HW131679   7.005   5.896   2.273
10260SOL    HW231680   0.095   5.786   2.317
10261SOL     OW31681   2.167   0.340   2.044
10261SOL    HW131682   2.163   0.439   2.034
10261SOL    HW231683   2.161   0.297   1.954
10262SOL     OW31684   6.734   6.600   3.678
10262SOL    HW131685   6.815   6.639   3.633
10262SOL    HW231686   6.729   6.502   3.658
10263SOL     OW31687   6.299   3.512   5.238
10263SOL    HW131688   6.221   3.451   5.224
10263SOL    HW231689   6.355   3.514   5.155
10264SOL     OW31690   0.594   0.462   0.535
10264SOL    HW131691   0.678   0.443   0.486
10264SOL    HW231692   0.607   0.446   0.633
10265SOL     OW31693   5.099   2.160   4.237
10265SOL    HW131694   5.046   2.244   4.227
10265SOL    HW231695   5.114   2.120   4.147
10266SOL     OW31696   3.177   3.642   0.068
10266SOL    HW131697   3.134   3.552   0.081
10266SOL    HW231698   3.255   3.632   0.007
10267SOL     OW31699   0.048   0.444   6.460
10267SOL    HW131700   7.016   0.518   6.499
10267SOL    HW231701   0.045   0.449   6.360
10268SOL     OW31702   6.917   4.351   0.297
10268SOL    HW131703   6.930   4.423   0.365
10268SOL    HW231704   6.832   4.368   0.247
10269SOL     OW31705   4.416   1.382   5.756
10269SOL    HW131706   4.378   1.468   5.788
10269SOL    HW231707   4.361   1.346   5.680
10270SOL     OW31708   3.846   6.341   2.836
10270SOL    HW131709   3.775   6.352   2.906
10270SOL    HW231710   3.936   6.336   2.880
10271SOL     OW31711   2.006   4.797   1.128
10271SOL    HW131712   1.989   4.699   1.119
10271SOL    HW231713   1.993   4.825   1.223
10272SOL     OW31714   1.993   3.192   3.872
10272SOL    HW131715   1.903   3.155   3.894
10272SOL    HW231716   1.991   3.291   3.881
10273SOL     OW31717   4.289   6.732   4.241
10273SOL    HW131718   4.246   6.697   4.324
10273SOL    HW231719   4.341   6.659   4.197
10274SOL     OW31720   1.925   4.515   6.391
10274SOL    HW131721   1.973   4.597   6.422
10274SOL    HW231722   1.957   4.436   6.443
10275SOL     OW31723   0.848   5.873   1.978
10275SOL    HW131724   0.839   5.777   1.952
10275SOL    HW231725   0.872   5.928   1.898
10276SOL     OW31726   1.632   0.091   0.512
10276SOL    HW131727   1.667   0.183   0.492
10276SOL    HW231728   1.686   0.024   0.461
10277SOL     OW31729   6.577   5.684   2.080
10277SOL    HW131730   6.547   5.672   1.985
10277SOL    HW231731   6.627   5.603   2.110
10278SOL     OW31732   6.523   1.201   5.487
10278SOL    HW131733   6.542   1.292   5.449
10278SOL    HW231734   6.466   1.149   5.424
10279SOL     OW31735   3.830   6.016   4.295
10279SOL    HW131736   3.747   6.018   4.352
10279SOL    HW231737   3.814   6.066   4.210
10280SOL     OW31738   2.877   2.571   0.368
10280SOL    HW131739   2.952   2.561   0.303
10280SOL    HW231740   2.816   2.492   0.361
10281SOL     OW31741   4.349   0.968   4.392
10281SOL    HW131742   4.250   0.970   4.405
10281SOL    HW231743   4.385   0.879   4.418
10282SOL     OW31744   1.700   3.448   4.106
10282SOL    HW131745   1.746   3.362   4.085
10282SOL    HW231746   1.751   3.497   4.177
10283SOL     OW31747   1.356   5.366   6.352
10283SOL    HW131748   1.362   5.291   6.286
10283SOL    HW231749   1.325   5.449   6.306
10284SOL     OW31750   5.080   2.907   0.000
10284SOL    HW131751   5.120   2.840   0.063
10284SOL    HW231752   4.981   2.910   0.013
10285SOL     OW31753   5.043   1.676   1.486
10285SOL    HW131754   5.079   1.728   1.408
10285SOL    HW231755   5.110   1.606   1.513
10286SOL     OW31756   3.530   0.229   4.056
10286SOL    HW131757   3.520   0.328   4.039
10286SOL    HW231758   3.535   0.181   3.969
10287SOL     OW31759   2.147   4.014   2.725
10287SOL    HW131760   2.074   4.022   2.657
10287SOL    HW231761   2.180   3.920   2.727
10288SOL     OW31762   4.107   6.372   4.369
10288SOL    HW131763   4.121   6.404   4.275
10288SOL    HW231764   4.114   6.273   4.373
10289SOL     OW31765   2.450   1.619   1.725
10289SOL    HW131766   2.416   1.529   1.756
10289SOL    HW231767   2.425   1.632   1.629
10290SOL     OW31768   2.942   3.250   3.246
10290SOL    HW131769   2.991   3.168   3.219
10290SOL    HW231770   2.946   3.261   3.345
10291SOL     OW31771   3.881   0.335   4.023
10291SOL    HW131772   3.789   0.299   4.039
10291SOL    HW231773   3.924   0.284   3.948
10292SOL     OW31774   6.333   2.833   4.395
10292SOL    HW131775   6.292   2.783   4.318
10292SOL    HW231776   6.428   2.804   4.406
10293SOL     OW31777   1.299   4.265   2.981
10293SOL    HW131778   1.388   4.261   3.026
10293SOL    HW231779   1.238   4.326   3.033
10294SOL     OW31780   5.691   0.984   3.096
10294SOL    HW131781   5.623   0.919   3.131
10294SOL    HW231782   5.718   0.957   3.004
10295SOL     OW31783   1.859   3.809   3.468
10295SOL    HW131784   1.789   3.746   3.501
10295SOL    HW231785   1.816   3.894   3.438
10296SOL     OW31786   6.217   3.495   1.526
10296SOL    HW131787   6.203   3.572   1.590
10296SOL    HW231788   6.144   3.495   1.458
10297SOL     OW31789   3.611   4.840   5.461
10297SOL    HW131790   3.638   4.754   5.504
10297SOL    HW231791   3.552   4.891   5.523
10298SOL     OW31792   5.836   3.254   3.188
10298SOL    HW131793   5.852   3.244   3.090
10298SOL    HW231794   5.921   3.281   3.234
10299SOL     OW31795   4.221   5.047   2.362
10299SOL    HW131796   4.283   4.996   2.422
10299SOL    HW231797   4.131   5.004   2.363
10300SOL     OW31798   0.553   6.009   2.225
10300SOL    HW131799   0.469   6.015   2.279
10300SOL    HW231800   0.617   5.945   2.270
10301SOL     OW31801   4.473   0.394   1.498
10301SOL    HW131802   4.387   0.343   1.489
10301SOL    HW231803   4.532   0.347   1.563
10302SOL     OW31804   0.636   3.809   3.453
10302SOL    HW131805   0.652   3.731   3.392
10302SOL    HW231806   0.560   3.863   3.419
10303SOL     OW31807   4.698   3.557   0.904
10303SOL    HW131808   4.794   3.577   0.920
10303SOL    HW231809   4.684   3.458   0.901
10304SOL     OW31810   5.491   5.780   3.841
10304SOL    HW131811   5.554   5.817   3.909
10304SOL    HW231812   5.532   5.789   3.750
10305SOL     OW31813   2.519   5.278   1.459
10305SOL    HW131814   2.443   5.223   1.424
10305SOL    HW231815   2.566   5.323   1.384
10306SOL     OW31816   4.924   3.780   0.044
10306SOL    HW131817   5.019   3.797   0.015
10306SOL    HW231818   4.877   3.727   6.997
10307SOL     OW31819   2.687   2.094   5.830
10307SOL    HW131820   2.732   2.181   5.850
10307SOL    HW231821   2.664   2.048   5.916
10308SOL     OW31822   2.704   5.150   4.224
10308SOL    HW131823   2.737   5.064   4.185
10308SOL    HW231824   2.774   5.221   4.211
10309SOL     OW31825   0.224   6.396   3.495
10309SOL    HW131826   0.218   6.355   3.405
10309SOL    HW231827   0.272   6.333   3.557
10310SOL     OW31828   3.861   4.017   4.228
10310SOL    HW131829   3.864   4.050   4.134
10310SOL    HW231830   3.945   3.966   4.247
10311SOL     OW31831   1.280   6.778   0.946
10311SOL    HW131832   1.323   6.858   0.906
10311SOL    HW231833   1.183   6.777   0.922
10312SOL     OW31834   2.747   4.474   0.238
10312SOL    HW131835   2.699   4.559   0.260
10312SOL    HW231836   2.689   4.396   0.261
10313SOL     OW31837   6.461   5.982   3.922
10313SOL    HW131838   6.362   5.981   3.940
10313SOL    HW231839   6.481   6.052   3.854
10314SOL     OW31840   6.951   5.256   5.334
10314SOL    HW131841   6.910   5.165   5.327
10314SOL    HW231842   0.006   5.251   5.396
10315SOL     OW31843   4.016   6.173   5.497
10315SOL    HW131844   4.030   6.081   5.534
10315SOL    HW231845   4.098   6.202   5.449
10316SOL     OW31846   0.248   3.180   4.186
10316SOL    HW131847   0.183   3.214   4.255
10316SOL    HW231848   0.198   3.125   4.119
10317SOL     OW31849   6.087   4.324   6.378
10317SOL    HW131850   6.052   4.259   6.446
10317SOL    HW231851   6.070   4.417   6.410
10318SOL     OW31852   4.938   4.889   2.818
10318SOL    HW131853   4.947   4.789   2.825
10318SOL    HW231854   4.977   4.932   2.900
10319SOL     OW31855   4.619   6.477   3.524
10319SOL    HW131856   4.705   6.455   3.478
10319SOL    HW231857   4.554   6.402   3.510
10320SOL     OW31858   3.599   6.489   1.961
10320SOL    HW131859   3.535   6.481   1.885
10320SOL    HW231860   3.552   6.530   2.040
10321SOL     OW31861   4.782   6.228   4.845
10321SOL    HW131862   4.791   6.265   4.937
10321SOL    HW231863   4.724   6.147   4.847
10322SOL     OW31864   7.009   1.409   6.538
10322SOL    HW131865   7.002   1.501   6.575
10322SOL    HW231866   6.939   1.395   6.469
10323SOL     OW31867   0.712   2.233   4.952
10323SOL    HW131868   0.644   2.264   4.885
10323SOL    HW231869   0.668   2.226   5.042
10324SOL     OW31870   3.059   3.615   4.689
10324SOL    HW131871   3.138   3.581   4.740
10324SOL    HW231872   3.052   3.714   4.702
10325SOL     OW31873   0.650   3.168   3.806
10325SOL    HW131874   0.616   3.154   3.898
10325SOL    HW231875   0.721   3.238   3.807
10326SOL     OW31876   5.776   1.586   1.224
10326SOL    HW131877   5.788   1.571   1.322
10326SOL    HW231878   5.855   1.637   1.188
10327SOL     OW31879   5.859   1.842   3.547
10327SOL    HW131880   5.913   1.925   3.567
10327SOL    HW231881   5.865   1.780   3.625
10328SOL     OW31882   6.997   3.852   2.274
10328SOL    HW131883   6.983   3.792   2.352
10328SOL    HW231884   6.990   3.798   2.189
10329SOL     OW31885   3.015   5.635   3.173
10329SOL    HW131886   3.079   5.678   3.109
10329SOL    HW231887   2.926   5.624   3.128
10330SOL     OW31888   3.348   3.642   1.070
10330SOL    HW131889   3.285   3.658   0.995
10330SOL    HW231890   3.392   3.553   1.059
10331SOL     OW31891   5.284   1.843   4.874
10331SOL    HW131892   5.319   1.768   4.819
10331SOL    HW231893   5.352   1.870   4.942
10332SOL     OW31894   1.589   2.801   6.948
10332SOL    HW131895   1.688   2.789   6.952
10332SOL    HW231896   1.552   2.746   6.873
10333SOL     OW31897   0.309   4.652   5.240
10333SOL    HW131898   0.243   4.578   5.253
10333SOL    HW231899   0.311   4.709   5.323
10334SOL     OW31900   1.129   4.880   5.496
10334SOL    HW131901   1.107   4.879   5.594
10334SOL    HW231902   1.112   4.971   5.459
10335SOL     OW31903   2.987   5.261   3.075
10335SOL    HW131904   2.916   5.190   3.074
10335SOL    HW231905   3.050   5.244   3.150
10336SOL     OW31906   3.813   0.013   3.044
10336SOL    HW131907   3.772   0.090   3.094
10336SOL    HW231908   3.740   6.979   3.007
10337SOL     OW31909   1.309   3.947   6.665
10337SOL    HW131910   1.261   3.954   6.577
10337SOL    HW231911   1.388   3.887   6.654
10338SOL     OW31912   2.286   4.234   2.668
10338SOL    HW131913   2.229   4.156   2.692
10338SOL    HW231914   2.298   4.293   2.748
10339SOL     OW31915   3.198   5.917   6.793
10339SOL    HW131916   3.236   5.998   6.837
10339SOL    HW231917   3.239   5.835   6.835
10340SOL     OW31918   1.826   6.370   1.217
10340SOL    HW131919   1.911   6.402   1.175
10340SOL    HW231920   1.829   6.271   1.227
10341SOL     OW31921   6.897   3.668   2.117
10341SOL    HW131922   6.856   3.695   2.030
10341SOL    HW231923   6.914   3.570   2.117
10342SOL     OW31924   2.950   5.210   3.958
10342SOL    HW131925   3.037   5.206   3.909
10342SOL    HW231926   2.961   5.263   4.042
10343SOL     OW31927   2.462   2.290   4.797
10343SOL    HW131928   2.437   2.204   4.752
10343SOL    HW231929   2.514   2.271   4.880
10344SOL     OW31930   4.829   3.803   1.379
10344SOL    HW131931   4.807   3.885   1.325
10344SOL    HW231932   4.795   3.722   1.331
10345SOL     OW31933   3.285   1.443   6.404
10345SOL    HW131934   3.360   1.507   6.420
10345SOL    HW231935   3.282   1.418   6.307
10346SOL     OW31936   6.491   5.946   0.448
10346SOL    HW131937   6.422   5.909   0.385
10346SOL    HW231938   6.475   6.044   0.460
10347SOL     OW31939   3.762   0.125   2.118
10347SOL    HW131940   3.769   0.047   2.055
10347SOL    HW231941   3.848   0.177   2.116
10348SOL     OW31942   6.936   3.728   5.349
10348SOL    HW131943   6.876   3.737   5.428
10348SOL    HW231944   0.001   3.692   5.377
10349SOL     OW31945   6.266   2.217   0.196
10349SOL    HW131946   6.310   2.261   0.118
10349SOL    HW231947   6.273   2.118   0.187
10350SOL     OW31948   2.051   5.276   4.321
10350SOL    HW131949   1.969   5.221   4.327
10350SOL    HW231950   2.048   5.333   4.239
10351SOL     OW31951   3.536   5.670   5.150
10351SOL    HW131952   3.607   5.683   5.219
10351SOL    HW231953   3.501   5.577   5.156
10352SOL     OW31954   0.314   1.265   1.910
10352SOL    HW131955   0.332   1.321   1.829
10352SOL    HW231956   0.372   1.297   1.986
10353SOL     OW31957   5.735   2.924   3.567
10353SOL    HW131958   5.737   2.916   3.467
10353SOL    HW231959   5.743   3.020   3.593
10354SOL     OW31960   6.820   2.543   2.015
10354SOL    HW131961   6.855   2.520   1.924
10354SOL    HW231962   6.861   2.629   2.045
10355SOL     OW31963   6.852   2.243   0.812
10355SOL    HW131964   6.848   2.200   0.902
10355SOL    HW231965   6.759   2.253   0.776
10356SOL     OW31966   5.857   2.404   6.680
10356SOL    HW131967   5.918   2.324   6.670
10356SOL    HW231968   5.780   2.380   6.739
10357SOL     OW31969   0.430   7.017   6.405
10357SOL    HW131970   0.330   7.019   6.406
10357SOL    HW231971   0.465   0.079   6.366
10358SOL     OW31972   0.795   3.294   4.141
10358SOL    HW131973   0.740   3.315   4.222
10358SOL    HW231974   0.745   3.230   4.083
10359SOL     OW31975   1.069   2.474   2.790
10359SOL    HW131976   1.081   2.457   2.887
10359SOL    HW231977   1.159   2.477   2.746
10360SOL     OW31978   5.809   4.581   0.932
10360SOL    HW131979   5.790   4.646   1.006
10360SOL    HW231980   5.908   4.572   0.921
10361SOL     OW31981   5.412   1.914   3.296
10361SOL    HW131982   5.424   1.890   3.393
10361SOL    HW231983   5.499   1.902   3.248
10362SOL     OW31984   0.206   6.556   1.832
10362SOL    HW131985   0.146   6.517   1.902
10362SOL    HW231986   0.300   6.552   1.864
10363SOL     OW31987   6.044   4.924   6.266
10363SOL    HW131988   6.088   5.007   6.232
10363SOL    HW231989   6.109   4.848   6.260
10364SOL     OW31990   5.955   5.455   1.170
10364SOL    HW131991   5.958   5.392   1.248
10364SOL    HW231992   5.860   5.481   1.152
10365SOL     OW31993   6.286   6.018   6.920
10365SOL    HW131994   6.187   6.006   6.921
10365SOL    HW231995   6.310   6.087   6.852
10366SOL     OW31996   2.788   6.953   3.427
10366SOL    HW131997   2.777   6.927   3.331
10366SOL    HW231998   2.720   7.022   3.451
10367SOL     OW31999   4.886   5.951   2.163
10367SOL    HW132000   4.829   5.924   2.241
10367SOL    HW232001   4.840   5.928   2.078
10368SOL     OW32002   1.555   5.432   1.761
10368SOL    HW132003   1.592   5.344   1.793
10368SOL    HW232004   1.630   5.494   1.741
10369SOL     OW32005   2.427   0.900   5.659
10369SOL    HW132006   2.487   0.957   5.716
10369SOL    HW232007   2.381   0.957   5.591
10370SOL     OW32008   2.106   2.034   6.657
10370SOL    HW132009   2.063   2.091   6.586
10370SOL    HW232010   2.156   2.093   6.721
10371SOL     OW32011   3.733   5.542   3.114
10371SOL    HW132012   3.783   5.466   3.155
10371SOL    HW232013   3.791   5.587   3.046
10372SOL     OW32014   0.836   5.999   1.737
10372SOL    HW132015   0.809   5.945   1.658
10372SOL    HW232016   0.927   6.038   1.722
10373SOL     OW32017   6.550   0.177   5.964
10373SOL    HW132018   6.498   0.257   5.935
10373SOL    HW232019   6.501   0.129   6.036
10374SOL     OW32020   2.610   5.292   2.556
10374SOL    HW132021   2.647   5.234   2.484
10374SOL    HW232022   2.555   5.237   2.618
10375SOL     OW32023   2.283   5.727   6.655
10375SOL    HW132024   2.208   5.783   6.621
10375SOL    HW232025   2.365   5.744   6.601
10376SOL     OW32026   1.786   4.438   3.988
10376SOL    HW132027   1.828   4.511   4.043
10376SOL    HW232028   1.853   4.402   3.923
10377SOL     OW32029   3.047   0.680   3.950
10377SOL    HW132030   2.975   0.636   3.896
10377SOL    HW232031   3.104   0.736   3.891
10378SOL     OW32032   0.286   6.609   5.584
10378SOL    HW132033   0.368   6.569   5.543
10378SOL    HW232034   0.214   6.539   5.590
10379SOL     OW32035   0.989   5.636   3.385
10379SOL    HW132036   0.937   5.721   3.394
10379SOL    HW232037   1.053   5.627   3.462
10380SOL     OW32038   3.144   1.397   3.951
10380SOL    HW132039   3.064   1.437   3.996
10380SOL    HW232040   3.193   1.468   3.900
10381SOL     OW32041   2.582   0.300   3.271
10381SOL    HW132042   2.671   0.326   3.308
10381SOL    HW232043   2.595   0.247   3.188
10382SOL     OW32044   4.155   5.940   2.342
10382SOL    HW132045   4.084   5.869   2.341
10382SOL    HW232046   4.118   6.024   2.381
10383SOL     OW32047   0.529   6.837   6.902
10383SOL    HW132048   0.471   6.769   6.946
10383SOL    HW232049   0.621   6.801   6.892
10384SOL     OW32050   4.840   5.333   1.543
10384SOL    HW132051   4.837   5.293   1.635
10384SOL    HW232052   4.789   5.274   1.480
10385SOL     OW32053   4.079   4.276   6.786
10385SOL    HW132054   4.173   4.285   6.820
10385SOL    HW232055   4.033   4.365   6.793
10386SOL     OW32056   0.253   0.067   2.151
10386SOL    HW132057   0.263   0.036   2.057
10386SOL    HW232058   0.156   0.076   2.174
10387SOL     OW32059   5.786   1.719   1.696
10387SOL    HW132060   5.886   1.716   1.698
10387SOL    HW232061   5.752   1.721   1.790
10388SOL     OW32062   1.083   0.366   4.680
10388SOL    HW132063   1.066   0.278   4.636
10388SOL    HW232064   1.107   0.434   4.611
10389SOL     OW32065   0.432   3.582   0.818
10389SOL    HW132066   0.528   3.587   0.846
10389SOL    HW232067   0.405   3.669   0.776
10390SOL     OW32068   2.343   1.920   2.093
10390SOL    HW132069   2.397   1.949   2.014
10390SOL    HW232070   2.252   1.962   2.088
10391SOL     OW32071   6.490   6.821   2.564
10391SOL    HW132072   6.547   6.902   2.569
10391SOL    HW232073   6.474   6.785   2.657
10392SOL     OW32074   6.440   3.708   4.110
10392SOL    HW132075   6.468   3.788   4.163
10392SOL    HW232076   6.458   3.625   4.163
10393SOL     OW32077   1.582   2.725   1.988
10393SOL    HW132078   1.484   2.736   2.007
10393SOL    HW232079   1.621   2.659   2.052
10394SOL     OW32080   2.920   6.161   3.903
10394SOL    HW132081   2.878   6.132   3.989
10394SOL    HW232082   2.856   6.144   3.827
10395SOL     OW32083   0.625   1.191   1.647
10395SOL    HW132084   0.662   1.198   1.740
10395SOL    HW232085   0.631   1.096   1.616
10396SOL     OW32086   3.403   2.103   5.039
10396SOL    HW132087   3.332   2.171   5.028
10396SOL    HW232088   3.434   2.072   4.949
10397SOL     OW32089   5.249   1.682   3.874
10397SOL    HW132090   5.265   1.696   3.972
10397SOL    HW232091   5.217   1.589   3.859
10398SOL     OW32092   4.817   2.873   2.535
10398SOL    HW132093   4.807   2.903   2.440
10398SOL    HW232094   4.811   2.773   2.540
10399SOL     OW32095   0.515   3.878   2.197
10399SOL    HW132096   0.523   3.818   2.277
10399SOL    HW232097   0.422   3.915   2.193
10400SOL     OW32098   1.880   6.426   0.512
10400SOL    HW132099   1.819   6.493   0.470
10400SOL    HW232100   1.970   6.430   0.468
10401SOL     OW32101   6.577   1.122   5.728
10401SOL    HW132102   6.577   1.119   5.628
10401SOL    HW232103   6.575   1.218   5.758
10402SOL     OW32104   6.954   4.688   5.262
10402SOL    HW132105   7.003   4.601   5.272
10402SOL    HW232106   6.989   4.753   5.329
10403SOL     OW32107   3.523   6.995   1.004
10403SOL    HW132108   3.442   6.969   1.055
10403SOL    HW232109   3.502   0.051   0.947
10404SOL     OW32110   0.227   5.577   5.883
10404SOL    HW132111   0.184   5.592   5.972
10404SOL    HW232112   0.282   5.494   5.885
10405SOL     OW32113   0.283   1.365   0.330
10405SOL    HW132114   0.350   1.316   0.386
10405SOL    HW232115   0.275   1.321   0.240
10406SOL     OW32116   1.695   5.226   0.913
10406SOL    HW132117   1.669   5.163   0.987
10406SOL    HW232118   1.780   5.272   0.937
10407SOL     OW32119   2.202   5.982   6.990
10407SOL    HW132120   2.216   5.884   6.978
10407SOL    HW232121   2.263   6.016   0.037
10408SOL     OW32122   4.702   0.404   0.478
10408SOL    HW132123   4.633   0.465   0.439
10408SOL    HW232124   4.664   0.311   0.484
10409SOL     OW32125   6.269   4.521   0.403
10409SOL    HW132126   6.330   4.479   0.336
10409SOL    HW232127   6.316   4.530   0.491
10410SOL     OW32128   4.643   6.778   0.701
10410SOL    HW132129   4.638   6.712   0.776
10410SOL    HW232130   4.595   6.742   0.621
10411SOL     OW32131   1.759   5.433   4.126
10411SOL    HW132132   1.750   5.387   4.214
10411SOL    HW232133   1.697   5.511   4.123
10412SOL     OW32134   5.406   7.010   1.570
10412SOL    HW132135   5.469   0.010   1.496
10412SOL    HW232136   5.449   0.009   1.658
10413SOL     OW32137   5.962   3.175   2.563
10413SOL    HW132138   6.055   3.156   2.593
10413SOL    HW232139   5.960   3.257   2.507
10414SOL     OW32140   5.796   3.359   4.299
10414SOL    HW132141   5.782   3.421   4.377
10414SOL    HW232142   5.733   3.384   4.225
10415SOL     OW32143   0.826   0.857   6.957
10415SOL    HW132144   0.863   0.950   6.953
10415SOL    HW232145   0.776   0.845   0.019
10416SOL     OW32146   5.358   2.969   3.811
10416SOL    HW132147   5.305   2.906   3.755
10416SOL    HW232148   5.451   2.934   3.822
10417SOL     OW32149   1.625   4.017   2.531
10417SOL    HW132150   1.715   4.060   2.532
10417SOL    HW232151   1.597   3.996   2.625
10418SOL     OW32152   1.682   5.674   6.369
10418SOL    HW132153   1.600   5.692   6.424
10418SOL    HW232154   1.739   5.606   6.416
10419SOL     OW32155   1.738   0.809   6.661
10419SOL    HW132156   1.719   0.869   6.739
10419SOL    HW232157   1.656   0.802   6.604
10420SOL     OW32158   0.577   2.788   2.794
10420SOL    HW132159   0.553   2.693   2.775
10420SOL    HW232160   0.623   2.828   2.715
10421SOL     OW32161   0.831   2.061   2.983
10421SOL    HW132162   0.802   2.143   2.933
10421SOL    HW232163   0.761   2.037   3.051
10422SOL     OW32164   5.357   2.449   0.124
10422SOL    HW132165   5.317   2.404   0.204
10422SOL    HW232166   5.437   2.396   0.093
10423SOL     OW32167   4.840   5.592   3.049
10423SOL    HW132168   4.871   5.667   3.108
10423SOL    HW232169   4.863   5.614   2.954
10424SOL     OW32170   4.656   1.424   6.732
10424SOL    HW132171   4.594   1.494   6.768
10424SOL    HW232172   4.610   1.336   6.729
10425SOL     OW32173   1.726   6.686   2.075
10425SOL    HW132174   1.763   6.597   2.101
10425SOL    HW232175   1.739   6.700   1.976
10426SOL     OW32176   6.334   4.275   6.333
10426SOL    HW132177   6.238   4.273   6.358
10426SOL    HW232178   6.354   4.201   6.269
10427SOL     OW32179   5.423   1.001   1.282
10427SOL    HW132180   5.370   0.952   1.214
10427SOL    HW232181   5.494   0.942   1.319
10428SOL     OW32182   4.695   1.655   3.270
10428SOL    HW132183   4.654   1.747   3.269
10428SOL    HW232184   4.789   1.660   3.238
10429SOL     OW32185   5.289   5.427   2.815
10429SOL    HW132186   5.218   5.387   2.873
10429SOL    HW232187   5.371   5.445   2.870
10430SOL     OW32188   4.123   6.399   2.422
10430SOL    HW132189   4.190   6.469   2.396
10430SOL    HW232190   4.058   6.438   2.487
10431SOL     OW32191   2.102   1.403   5.361
10431SOL    HW132192   2.191   1.445   5.379
10431SOL    HW232193   2.106   1.353   5.274
10432SOL     OW32194   4.182   0.422   4.752
10432SOL    HW132195   4.149   0.477   4.830
10432SOL    HW232196   4.113   0.421   4.680
10433SOL     OW32197   2.962   6.335   1.152
10433SOL    HW132198   2.962   6.328   1.052
10433SOL    HW232199   2.869   6.349   1.185
10434SOL     OW32200   3.039   2.138   5.245
10434SOL    HW132201   2.947   2.133   5.204
10434SOL    HW232202   3.084   2.222   5.213
10435SOL     OW32203   5.671   5.202   6.336
10435SOL    HW132204   5.622   5.268   6.279
10435SOL    HW232205   5.640   5.209   6.430
10436SOL     OW32206   0.554   1.313   2.771
10436SOL    HW132207   0.569   1.250   2.695
10436SOL    HW232208   0.457   1.334   2.779
10437SOL     OW32209   0.464   3.613   6.324
10437SOL    HW132210   0.434   3.601   6.229
10437SOL    HW232211   0.471   3.711   6.344
10438SOL     OW32212   3.310   6.764   5.799
10438SOL    HW132213   3.358   6.726   5.878
10438SOL    HW232214   3.377   6.798   5.733
10439SOL     OW32215   3.217   0.495   5.490
10439SOL    HW132216   3.273   0.576   5.506
10439SOL    HW232217   3.172   0.468   5.575
10440SOL     OW32218   0.904   5.605   1.074
10440SOL    HW132219   0.988   5.659   1.083
10440SOL    HW232220   0.925   5.508   1.081
10441SOL     OW32221   3.931   0.344   0.552
10441SOL    HW132222   3.884   0.257   0.561
10441SOL    HW232223   3.883   0.402   0.487
10442SOL     OW32224   4.492   5.888   5.919
10442SOL    HW132225   4.406   5.922   5.881
10442SOL    HW232226   4.562   5.886   5.848
10443SOL     OW32227   6.042   2.962   4.742
10443SOL    HW132228   5.945   2.939   4.752
10443SOL    HW232229   6.056   3.009   4.654
10444SOL     OW32230   4.093   5.242   4.973
10444SOL    HW132231   4.066   5.271   4.881
10444SOL    HW232232   4.192   5.249   4.983
10445SOL     OW32233   6.086   6.299   1.993
10445SOL    HW132234   6.116   6.315   1.899
10445SOL    HW232235   6.021   6.370   2.020
10446SOL     OW32236   1.208   6.591   6.381
10446SOL    HW132237   1.154   6.657   6.330
10446SOL    HW232238   1.294   6.574   6.334
10447SOL     OW32239   5.502   1.710   6.837
10447SOL    HW132240   5.535   1.617   6.822
10447SOL    HW232241   5.579   1.772   6.850
10448SOL     OW32242   3.431   3.644   2.487
10448SOL    HW132243   3.525   3.676   2.496
10448SOL    HW232244   3.403   3.649   2.391
10449SOL     OW32245   1.856   5.263   4.630
10449SOL    HW132246   1.829   5.263   4.726
10449SOL    HW232247   1.939   5.318   4.619
10450SOL     OW32248   0.020   3.394   0.898
10450SOL    HW132249   0.097   3.444   0.939
10450SOL    HW232250   6.977   3.459   0.863
10451SOL     OW32251   2.322   4.662   1.787
10451SOL    HW132252   2.415   4.638   1.816
10451SOL    HW232253   2.317   4.760   1.768
10452SOL     OW32254   2.025   3.516   6.124
10452SOL    HW132255   2.079   3.459   6.062
10452SOL    HW232256   1.974   3.457   6.187
10453SOL     OW32257   5.307   0.913   1.652
10453SOL    HW132258   5.219   0.952   1.625
10453SOL    HW232259   5.340   0.851   1.581
10454SOL     OW32260   5.120   4.621   2.559
10454SOL    HW132261   5.209   4.595   2.521
10454SOL    HW232262   5.049   4.563   2.519
10455SOL     OW32263   0.741   4.631   3.126
10455SOL    HW132264   0.819   4.685   3.093
10455SOL    HW232265   0.735   4.640   3.226
10456SOL     OW32266   4.256   6.463   1.094
10456SOL    HW132267   4.254   6.378   1.040
10456SOL    HW232268   4.181   6.522   1.064
10457SOL     OW32269   3.289   2.920   4.299
10457SOL    HW132270   3.229   3.000   4.287
10457SOL    HW232271   3.240   2.838   4.272
10458SOL     OW32272   6.788   6.147   1.753
10458SOL    HW132273   6.712   6.154   1.818
10458SOL    HW232274   6.751   6.147   1.660
10459SOL     OW32275   6.932   4.840   1.366
10459SOL    HW132276   6.919   4.875   1.459
10459SOL    HW232277   6.873   4.761   1.351
10460SOL     OW32278   1.061   4.071   1.513
10460SOL    HW132279   1.088   4.029   1.599
10460SOL    HW232280   0.963   4.056   1.499
10461SOL     OW32281   3.328   0.052   6.649
10461SOL    HW132282   3.294   0.121   6.713
10461SOL    HW232283   3.283   0.063   6.561
10462SOL     OW32284   5.395   6.411   1.010
10462SOL    HW132285   5.348   6.324   1.024
10462SOL    HW232286   5.385   6.441   0.916
10463SOL     OW32287   3.906   3.234   1.096
10463SOL    HW132288   3.926   3.259   1.191
10463SOL    HW232289   3.947   3.300   1.034
10464SOL     OW32290   5.579   6.552   2.182
10464SOL    HW132291   5.512   6.484   2.213
10464SOL    HW232292   5.555   6.641   2.220
10465SOL     OW32293   0.443   4.922   4.744
10465SOL    HW132294   0.528   4.876   4.717
10465SOL    HW232295   0.366   4.862   4.723
10466SOL     OW32296   4.872   6.328   5.373
10466SOL    HW132297   4.904   6.402   5.433
10466SOL    HW232298   4.880   6.357   5.277
10467SOL     OW32299   4.215   1.199   4.522
10467SOL    HW132300   4.120   1.195   4.552
10467SOL    HW232301   4.218   1.217   4.423
10468SOL     OW32302   2.847   5.176   3.382
10468SOL    HW132303   2.848   5.190   3.481
10468SOL    HW232304   2.941   5.176   3.347
10469SOL     OW32305   0.988   4.386   6.078
10469SOL    HW132306   1.043   4.375   6.161
10469SOL    HW232307   0.895   4.414   6.104
10470SOL     OW32308   2.367   2.335   4.449
10470SOL    HW132309   2.283   2.345   4.502
10470SOL    HW232310   2.440   2.388   4.491
10471SOL     OW32311   4.753   3.698   6.870
10471SOL    HW132312   4.668   3.666   6.914
10471SOL    HW232313   4.731   3.766   6.801
10472SOL     OW32314   3.872   1.230   3.732
10472SOL    HW132315   3.812   1.152   3.710
10472SOL    HW232316   3.830   1.314   3.697
10473SOL     OW32317   5.081   5.256   6.857
10473SOL    HW132318   5.120   5.262   6.949
10473SOL    HW232319   4.985   5.283   6.860
10474SOL     OW32320   5.172   0.724   4.006
10474SOL    HW132321   5.197   0.816   3.977
10474SOL    HW232322   5.111   0.730   4.086
10475SOL     OW32323   3.953   6.539   1.419
10475SOL    HW132324   3.963   6.638   1.414
10475SOL    HW232325   3.898   6.515   1.499
10476SOL     OW32326   0.706   4.905   6.398
10476SOL    HW132327   0.742   4.817   6.368
10476SOL    HW232328   0.721   4.974   6.327
10477SOL     OW32329   4.684   4.269   5.080
10477SOL    HW132330   4.737   4.348   5.111
10477SOL    HW232331   4.675   4.204   5.154
10478SOL     OW32332   0.785   6.435   3.194
10478SOL    HW132333   0.691   6.417   3.166
10478SOL    HW232334   0.792   6.529   3.228
10479SOL     OW32335   0.738   4.222   2.171
10479SOL    HW132336   0.650   4.212   2.217
10479SOL    HW232337   0.811   4.228   2.240
10480SOL     OW32338   4.862   1.288   0.608
10480SOL    HW132339   4.900   1.235   0.532
10480SOL    HW232340   4.889   1.384   0.598
10481SOL     OW32341   2.653   1.935   4.448
10481SOL    HW132342   2.748   1.928   4.478
10481SOL    HW232343   2.647   1.912   4.351
10482SOL     OW32344   1.114   6.418   6.852
10482SOL    HW132345   1.165   6.453   6.930
10482SOL    HW232346   1.150   6.458   6.767
10483SOL     OW32347   0.444   5.817   0.809
10483SOL    HW132348   0.494   5.903   0.826
10483SOL    HW232349   0.506   5.740   0.823
10484SOL     OW32350   6.725   1.630   1.686
10484SOL    HW132351   6.741   1.531   1.685
10484SOL    HW232352   6.792   1.675   1.627
10485SOL     OW32353   4.053   3.821   4.363
10485SOL    HW132354   4.152   3.816   4.380
10485SOL    HW232355   4.018   3.729   4.346
10486SOL     OW32356   6.001   5.450   5.825
10486SOL    HW132357   5.925   5.387   5.806
10486SOL    HW232358   6.015   5.510   5.747
10487SOL     OW32359   5.534   4.019   2.799
10487SOL    HW132360   5.601   3.955   2.760
10487SOL    HW232361   5.449   3.970   2.819
10488SOL     OW32362   0.670   2.563   5.755
10488SOL    HW132363   0.579   2.550   5.792
10488SOL    HW232364   0.727   2.612   5.822
10489SOL     OW32365   5.826   5.156   2.893
10489SOL    HW132366   5.761   5.153   2.969
10489SOL    HW232367   5.787   5.210   2.818
10490SOL     OW32368   5.030   6.446   6.332
10490SOL    HW132369   5.101   6.404   6.275
10490SOL    HW232370   5.028   6.545   6.315
10491SOL     OW32371   2.201   1.853   5.304
10491SOL    HW132372   2.239   1.946   5.299
10491SOL    HW232373   2.276   1.786   5.295
10492SOL     OW32374   2.779   6.154   0.244
10492SOL    HW132375   2.791   6.171   0.342
10492SOL    HW232376   2.842   6.084   0.214
10493SOL     OW32377   3.752   5.861   0.794
10493SOL    HW132378   3.842   5.855   0.837
10493SOL    HW232379   3.760   5.840   0.696
10494SOL     OW32380   0.088   5.656   4.029
10494SOL    HW132381   0.061   5.560   4.032
10494SOL    HW232382   0.177   5.666   4.075
10495SOL     OW32383   6.093   6.354   0.013
10495SOL    HW132384   6.051   6.273   0.055
10495SOL    HW232385   6.094   6.343   6.937
10496SOL     OW32386   1.267   4.123   5.724
10496SOL    HW132387   1.351   4.130   5.779
10496SOL    HW232388   1.192   4.168   5.773
10497SOL     OW32389   3.854   6.182   0.330
10497SOL    HW132390   3.852   6.170   0.230
10497SOL    HW232391   3.945   6.213   0.358
10498SOL     OW32392   3.010   3.452   0.208
10498SOL    HW132393   2.945   3.526   0.188
10498SOL    HW232394   2.965   3.364   0.194
10499SOL     OW32395   4.241   4.745   3.248
10499SOL    HW132396   4.329   4.724   3.289
10499SOL    HW232397   4.195   4.661   3.221
10500SOL     OW32398   1.875   3.129   5.013
10500SOL    HW132399   1.941   3.205   5.014
10500SOL    HW232400   1.923   3.044   4.996
10501SOL     OW32401   3.829   4.966   3.240
10501SOL    HW132402   3.734   4.982   3.212
10501SOL    HW232403   3.890   5.024   3.186
10502SOL     OW32404   3.261   4.122   2.784
10502SOL    HW132405   3.290   4.166   2.699
10502SOL    HW232406   3.170   4.084   2.773
10503SOL     OW32407   6.892   0.751   0.743
10503SOL    HW132408   6.932   0.814   0.810
10503SOL    HW232409   6.958   0.735   0.669
10504SOL     OW32410   1.302   2.666   5.600
10504SOL    HW132411   1.258   2.742   5.554
10504SOL    HW232412   1.234   2.612   5.649
10505SOL     OW32413   5.671   6.437   0.996
10505SOL    HW132414   5.572   6.428   1.001
10505SOL    HW232415   5.695   6.534   0.990
10506SOL     OW32416   1.560   5.083   4.956
10506SOL    HW132417   1.590   4.995   4.991
10506SOL    HW232418   1.468   5.103   4.990
10507SOL     OW32419   1.608   6.572   5.856
10507SOL    HW132420   1.624   6.651   5.915
10507SOL    HW232421   1.533   6.518   5.892
10508SOL     OW32422   1.993   6.476   1.415
10508SOL    HW132423   1.919   6.442   1.357
10508SOL    HW232424   1.992   6.427   1.502
10509SOL     OW32425   4.913   3.361   2.095
10509SOL    HW132426   4.998   3.414   2.087
10509SOL    HW232427   4.884   3.359   2.191
10510SOL     OW32428   5.955   6.328   2.395
10510SOL    HW132429   6.044   6.287   2.373
10510SOL    HW232430   5.906   6.269   2.459
10511SOL     OW32431   3.926   1.840   0.936
10511SOL    HW132432   3.938   1.749   0.976
10511SOL    HW232433   3.841   1.841   0.883
10512SOL     OW32434   3.983   0.768   5.043
10512SOL    HW132435   3.884   0.753   5.040
10512SOL    HW232436   4.010   0.796   5.135
10513SOL     OW32437   3.686   3.800   0.393
10513SOL    HW132438   3.720   3.865   0.461
10513SOL    HW232439   3.700   3.837   0.302
10514SOL     OW32440   1.317   5.231   2.073
10514SOL    HW132441   1.378   5.161   2.035
10514SOL    HW232442   1.360   5.272   2.153
10515SOL     OW32443   1.885   3.896   4.847
10515SOL    HW132444   1.954   3.856   4.786
10515SOL    HW232445   1.909   3.991   4.867
10516SOL     OW32446   5.592   1.986   1.841
10516SOL    HW132447   5.573   2.049   1.916
10516SOL    HW232448   5.687   1.997   1.811
10517SOL     OW32449   0.413   1.871   2.485
10517SOL    HW132450   0.407   1.968   2.463
10517SOL    HW232451   0.344   1.821   2.432
10518SOL     OW32452   0.749   5.670   2.711
10518SOL    HW132453   0.730   5.761   2.747
10518SOL    HW232454   0.821   5.627   2.765
10519SOL     OW32455   2.417   6.395   0.712
10519SOL    HW132456   2.377   6.443   0.791
10519SOL    HW232457   2.384   6.301   0.710
10520SOL     OW32458   3.034   2.658   5.870
10520SOL    HW132459   3.105   2.724   5.845
10520SOL    HW232460   2.977   2.638   5.791
10521SOL     OW32461   6.240   1.925   2.621
10521SOL    HW132462   6.184   1.940   2.702
10521SOL    HW232463   6.192   1.960   2.540
10522SOL     OW32464   4.928   1.462   3.147
10522SOL    HW132465   4.838   1.419   3.140
10522SOL    HW232466   4.926   1.551   3.101
10523SOL     OW32467   0.363   3.761   1.729
10523SOL    HW132468   0.442   3.734   1.785
10523SOL    HW232469   0.283   3.708   1.758
10524SOL     OW32470   5.825   6.746   4.767
10524SOL    HW132471   5.736   6.705   4.788
10524SOL    HW232472   5.827   6.840   4.801
10525SOL     OW32473   4.605   2.251   3.045
10525SOL    HW132474   4.699   2.242   3.014
10525SOL    HW232475   4.589   2.190   3.123
10526SOL     OW32476   1.564   5.842   5.924
10526SOL    HW132477   1.517   5.931   5.920
10526SOL    HW232478   1.549   5.801   6.014
10527SOL     OW32479   0.396   6.196   6.156
10527SOL    HW132480   0.480   6.214   6.208
10527SOL    HW232481   0.322   6.174   6.219
10528SOL     OW32482   2.243   6.423   5.037
10528SOL    HW132483   2.326   6.471   5.064
10528SOL    HW232484   2.243   6.332   5.078
10529SOL     OW32485   6.727   5.035   0.204
10529SOL    HW132486   6.746   5.113   0.265
10529SOL    HW232487   6.629   5.029   0.188
10530SOL     OW32488   6.247   0.395   1.190
10530SOL    HW132489   6.295   0.463   1.245
10530SOL    HW232490   6.157   0.430   1.164
10531SOL     OW32491   2.956   1.386   6.323
10531SOL    HW132492   2.886   1.314   6.321
10531SOL    HW232493   3.010   1.382   6.239
10532SOL     OW32494   4.951   5.578   5.985
10532SOL    HW132495   4.913   5.557   5.895
10532SOL    HW232496   4.918   5.667   6.015
10533SOL     OW32497   4.050   6.815   3.274
10533SOL    HW132498   4.117   6.750   3.309
10533SOL    HW232499   4.094   6.904   3.262
10534SOL     OW32500   0.581   6.406   4.118
10534SOL    HW132501   0.490   6.447   4.125
10534SOL    HW232502   0.584   6.323   4.174
10535SOL     OW32503   4.100   1.526   2.318
10535SOL    HW132504   4.008   1.509   2.284
10535SOL    HW232505   4.167   1.495   2.250
10536SOL     OW32506   6.139   3.987   4.285
10536SOL    HW132507   6.162   3.921   4.213
10536SOL    HW232508   6.084   3.943   4.355
10537SOL     OW32509   2.951   1.327   2.722
10537SOL    HW132510   2.981   1.249   2.667
10537SOL    HW232511   2.999   1.409   2.692
10538SOL     OW32512   6.206   2.876   3.811
10538SOL    HW132513   6.123   2.826   3.782
10538SOL    HW232514   6.238   2.839   3.898
10539SOL     OW32515   6.628   6.816   2.185
10539SOL    HW132516   6.628   6.724   2.226
10539SOL    HW232517   6.704   6.823   2.120
10540SOL     OW32518   1.554   3.302   6.122
10540SOL    HW132519   1.532   3.383   6.068
10540SOL    HW232520   1.649   3.308   6.152
10541SOL     OW32521   3.259   1.943   5.602
10541SOL    HW132522   3.275   1.880   5.526
10541SOL    HW232523   3.292   2.034   5.577
10542SOL     OW32524   3.846   6.609   1.919
10542SOL    HW132525   3.747   6.603   1.919
10542SOL    HW232526   3.883   6.553   1.994
10543SOL     OW32527   1.352   2.569   4.101
10543SOL    HW132528   1.339   2.525   4.189
10543SOL    HW232529   1.412   2.513   4.044
10544SOL     OW32530   3.061   2.164   2.184
10544SOL    HW132531   3.016   2.227   2.120
10544SOL    HW232532   3.043   2.070   2.157
10545SOL     OW32533   1.285   3.191   1.888
10545SOL    HW132534   1.253   3.203   1.794
10545SOL    HW232535   1.222   3.133   1.938
10546SOL     OW32536   1.736   6.884   4.801
10546SOL    HW132537   1.659   6.904   4.741
10546SOL    HW232538   1.721   6.797   4.847
10547SOL     OW32539   3.324   5.770   6.002
10547SOL    HW132540   3.298   5.837   5.933
10547SOL    HW232541   3.393   5.708   5.964
10548SOL     OW32542   1.012   5.087   3.237
10548SOL    HW132543   1.026   5.179   3.276
10548SOL    HW232544   0.931   5.046   3.278
10549SOL     OW32545   6.833   1.372   2.534
10549SOL    HW132546   6.764   1.347   2.602
10549SOL    HW232547   6.834   1.306   2.460
10550SOL     OW32548   6.863   5.202   2.766
10550SOL    HW132549   6.893   5.134   2.833
10550SOL    HW232550   6.771   5.234   2.789
10551SOL     OW32551   4.301   0.305   4.466
10551SOL    HW132552   4.226   0.320   4.530
10551SOL    HW232553   4.265   0.282   4.376
10552SOL     OW32554   2.477   0.016   3.315
10552SOL    HW132555   2.451   0.103   3.272
10552SOL    HW232556   2.495   0.032   3.413
10553SOL     OW32557   5.496   5.749   1.228
10553SOL    HW132558   5.539   5.830   1.190
10553SOL    HW232559   5.396   5.759   1.225
10554SOL     OW32560   6.196   5.717   1.310
10554SOL    HW132561   6.260   5.658   1.261
10554SOL    HW232562   6.167   5.672   1.395
10555SOL     OW32563   3.491   3.050   2.129
10555SOL    HW132564   3.408   3.065   2.075
10555SOL    HW232565   3.467   3.004   2.215
10556SOL     OW32566   2.502   2.507   1.728
10556SOL    HW132567   2.405   2.505   1.751
10556SOL    HW232568   2.527   2.599   1.697
10557SOL     OW32569   0.823   4.161   2.853
10557SOL    HW132570   0.871   4.074   2.844
10557SOL    HW232571   0.801   4.197   2.762
10558SOL     OW32572   4.775   4.949   4.732
10558SOL    HW132573   4.816   4.864   4.700
10558SOL    HW232574   4.721   4.990   4.658
10559SOL     OW32575   4.025   6.070   1.168
10559SOL    HW132576   3.954   6.042   1.104
10559SOL    HW232577   3.984   6.107   1.251
10560SOL     OW32578   5.483   0.188   4.113
10560SOL    HW132579   5.404   0.154   4.061
10560SOL    HW232580   5.551   0.224   4.049
10561SOL     OW32581   1.360   5.065   5.160
10561SOL    HW132582   1.437   5.071   5.224
10561SOL    HW232583   1.319   4.974   5.165
10562SOL     OW32584   3.504   0.275   2.357
10562SOL    HW132585   3.587   0.222   2.373
10562SOL    HW232586   3.428   0.212   2.340
10563SOL     OW32587   2.103   5.719   1.586
10563SOL    HW132588   2.196   5.737   1.554
10563SOL    HW232589   2.041   5.714   1.508
10564SOL     OW32590   5.455   4.902   3.296
10564SOL    HW132591   5.514   4.855   3.361
10564SOL    HW232592   5.485   4.996   3.285
10565SOL     OW32593   0.379   1.502   4.458
10565SOL    HW132594   0.470   1.520   4.420
10565SOL    HW232595   0.382   1.510   4.557
10566SOL     OW32596   3.963   1.848   0.246
10566SOL    HW132597   4.011   1.818   0.163
10566SOL    HW232598   3.954   1.948   0.244
10567SOL     OW32599   3.133   1.669   6.396
10567SOL    HW132600   3.169   1.575   6.395
10567SOL    HW232601   3.176   1.720   6.470
10568SOL     OW32602   5.765   2.179   6.060
10568SOL    HW132603   5.753   2.203   6.156
10568SOL    HW232604   5.686   2.126   6.028
10569SOL     OW32605   4.722   0.358   0.832
10569SOL    HW132606   4.786   0.418   0.784
10569SOL    HW232607   4.672   0.410   0.902
10570SOL     OW32608   1.115   4.119   3.155
10570SOL    HW132609   1.120   4.083   3.248
10570SOL    HW232610   1.198   4.094   3.105
10571SOL     OW32611   0.438   3.591   5.549
10571SOL    HW132612   0.504   3.650   5.503
10571SOL    HW232613   0.476   3.499   5.557
10572SOL     OW32614   6.945   4.562   0.458
10572SOL    HW132615   6.936   4.637   0.394
10572SOL    HW232616   6.995   4.593   0.539
10573SOL     OW32617   6.013   2.786   3.593
10573SOL    HW132618   5.961   2.774   3.677
10573SOL    HW232619   5.981   2.721   3.525
10574SOL     OW32620   5.340   2.669   2.585
10574SOL    HW132621   5.270   2.736   2.558
10574SOL    HW232622   5.349   2.669   2.684
10575SOL     OW32623   4.936   0.654   2.691
10575SOL    HW132624   5.014   0.716   2.693
10575SOL    HW232625   4.953   0.577   2.753
10576SOL     OW32626   1.650   3.243   4.936
10576SOL    HW132627   1.734   3.200   4.969
10576SOL    HW232628   1.665   3.341   4.925
10577SOL     OW32629   3.991   4.227   0.040
10577SOL    HW132630   3.998   4.221   6.964
10577SOL    HW232631   4.025   4.142   0.081
10578SOL     OW32632   1.371   3.894   2.174
10578SOL    HW132633   1.316   3.852   2.247
10578SOL    HW232634   1.461   3.918   2.210
10579SOL     OW32635   0.187   3.633   6.894
10579SOL    HW132636   0.213   3.552   6.842
10579SOL    HW232637   0.097   3.620   6.934
10580SOL     OW32638   5.407   6.867   6.876
10580SOL    HW132639   5.477   6.818   6.823
10580SOL    HW232640   5.437   6.961   6.893
10581SOL     OW32641   4.314   0.816   2.610
10581SOL    HW132642   4.314   0.745   2.681
10581SOL    HW232643   4.305   0.906   2.652
10582SOL     OW32644   0.156   3.426   0.119
10582SOL    HW132645   0.165   3.330   0.092
10582SOL    HW232646   0.074   3.465   0.078
10583SOL     OW32647   4.282   1.915   5.585
10583SOL    HW132648   4.375   1.899   5.552
10583SOL    HW232649   4.285   1.975   5.665
10584SOL     OW32650   5.953   0.647   3.598
10584SOL    HW132651   5.990   0.739   3.608
10584SOL    HW232652   5.937   0.608   3.689
10585SOL     OW32653   1.263   1.315   5.145
10585SOL    HW132654   1.165   1.321   5.167
10585SOL    HW232655   1.300   1.407   5.134
10586SOL     OW32656   4.979   3.502   6.066
10586SOL    HW132657   4.881   3.507   6.086
10586SOL    HW232658   4.998   3.421   6.012
10587SOL     OW32659   2.262   5.358   5.071
10587SOL    HW132660   2.325   5.282   5.053
10587SOL    HW232661   2.304   5.421   5.136
10588SOL     OW32662   1.193   4.025   4.582
10588SOL    HW132663   1.120   3.960   4.601
10588SOL    HW232664   1.156   4.118   4.583
10589SOL     OW32665   5.433   0.275   3.748
10589SOL    HW132666   5.438   0.220   3.665
10589SOL    HW232667   5.376   0.229   3.816
10590SOL     OW32668   0.188   6.266   2.337
10590SOL    HW132669   0.144   6.339   2.390
10590SOL    HW232670   0.132   6.245   2.257
10591SOL     OW32671   6.473   4.385   2.309
10591SOL    HW132672   6.430   4.462   2.260
10591SOL    HW232673   6.572   4.391   2.298
10592SOL     OW32674   6.452   3.670   4.595
10592SOL    HW132675   6.436   3.647   4.499
10592SOL    HW232676   6.398   3.751   4.619
10593SOL     OW32677   3.735   5.548   3.641
10593SOL    HW132678   3.757   5.469   3.584
10593SOL    HW232679   3.814   5.571   3.698
10594SOL     OW32680   3.892   5.946   3.747
10594SOL    HW132681   3.839   5.901   3.819
10594SOL    HW232682   3.980   5.899   3.736
10595SOL     OW32683   5.566   5.995   0.522
10595SOL    HW132684   5.535   6.046   0.602
10595SOL    HW232685   5.652   6.033   0.490
10596SOL     OW32686   5.961   4.045   0.273
10596SOL    HW132687   5.866   4.047   0.305
10596SOL    HW232688   5.966   4.084   0.181
10597SOL     OW32689   1.145   6.349   5.296
10597SOL    HW132690   1.126   6.422   5.230
10597SOL    HW232691   1.207   6.384   5.366
10598SOL     OW32692   3.561   1.657   0.759
10598SOL    HW132693   3.613   1.705   0.829
10598SOL    HW232694   3.521   1.574   0.798
10599SOL     OW32695   0.872   2.204   0.831
10599SOL    HW132696   0.782   2.166   0.809
10599SOL    HW232697   0.861   2.288   0.884
10600SOL     OW32698   5.076   1.520   1.826
10600SOL    HW132699   5.107   1.608   1.861
10600SOL    HW232700   5.155   1.459   1.815
10601SOL     OW32701   2.068   1.960   4.970
10601SOL    HW132702   2.102   1.897   5.040
10601SOL    HW232703   1.972   1.938   4.950
10602SOL     OW32704   6.622   6.859   1.429
10602SOL    HW132705   6.624   6.934   1.362
10602SOL    HW232706   6.564   6.886   1.506
10603SOL     OW32707   5.665   1.007   2.694
10603SOL    HW132708   5.647   0.951   2.614
10603SOL    HW232709   5.717   0.955   2.762
10604SOL     OW32710   5.231   2.198   5.127
10604SOL    HW132711   5.211   2.210   5.224
10604SOL    HW232712   5.304   2.261   5.100
10605SOL     OW32713   4.393   2.288   1.247
10605SOL    HW132714   4.449   2.213   1.210
10605SOL    HW232715   4.449   2.342   1.310
10606SOL     OW32716   5.829   1.489   0.804
10606SOL    HW132717   5.757   1.439   0.851
10606SOL    HW232718   5.788   1.565   0.753
10607SOL     OW32719   2.752   5.005   0.786
10607SOL    HW132720   2.743   5.099   0.752
10607SOL    HW232721   2.797   5.007   0.876
10608SOL     OW32722   5.212   4.343   2.659
10608SOL    HW132723   5.276   4.391   2.598
10608SOL    HW232724   5.230   4.245   2.655
10609SOL     OW32725   5.985   7.004   6.502
10609SOL    HW132726   6.012   0.008   6.410
10609SOL    HW232727   5.891   6.969   6.500
10610SOL     OW32728   0.665   1.903   3.132
10610SOL    HW132729   0.577   1.887   3.178
10610SOL    HW232730   0.708   1.815   3.111
10611SOL     OW32731   4.242   5.395   5.889
10611SOL    HW132732   4.143   5.402   5.902
10611SOL    HW232733   4.262   5.316   5.831
10612SOL     OW32734   5.311   2.764   3.346
10612SOL    HW132735   5.299   2.863   3.338
10612SOL    HW232736   5.364   2.731   3.268
10613SOL     OW32737   5.175   5.386   5.420
10613SOL    HW132738   5.170   5.400   5.321
10613SOL    HW232739   5.255   5.434   5.455
10614SOL     OW32740   3.853   2.425   6.838
10614SOL    HW132741   3.925   2.384   6.893
10614SOL    HW232742   3.878   2.419   6.741
10615SOL     OW32743   2.837   2.255   5.469
10615SOL    HW132744   2.923   2.206   5.483
10615SOL    HW232745   2.856   2.345   5.430
10616SOL     OW32746   1.472   5.420   0.097
10616SOL    HW132747   1.383   5.442   0.058
10616SOL    HW232748   1.495   5.485   0.169
10617SOL     OW32749   2.200   2.676   0.160
10617SOL    HW132750   2.147   2.759   0.143
10617SOL    HW232751   2.249   2.650   0.076
10618SOL     OW32752   0.413   4.824   4.019
10618SOL    HW132753   0.413   4.738   4.071
10618SOL    HW232754   0.357   4.892   4.066
10619SOL     OW32755   1.335   2.667   1.082
10619SOL    HW132756   1.318   2.677   1.180
10619SOL    HW232757   1.411   2.603   1.068
10620SOL     OW32758   3.761   0.977   5.767
10620SOL    HW132759   3.791   0.935   5.852
10620SOL    HW232760   3.761   1.077   5.777
10621SOL     OW32761   0.688   4.839   4.649
10621SOL    HW132762   0.711   4.847   4.746
10621SOL    HW232763   0.675   4.743   4.626
10622SOL     OW32764   3.938   1.926   5.907
10622SOL    HW132765   3.873   1.871   5.959
10622SOL    HW232766   4.031   1.892   5.923
10623SOL     OW32767   5.662   4.444   5.547
10623SOL    HW132768   5.601   4.491   5.611
10623SOL    HW232769   5.703   4.365   5.591
10624SOL     OW32770   6.996   1.832   5.836
10624SOL    HW132771   7.019   1.740   5.869
10624SOL    HW232772   7.005   1.835   5.737
10625SOL     OW32773   5.576   5.726   6.744
10625SOL    HW132774   5.552   5.652   6.682
10625SOL    HW232775   5.495   5.782   6.763
10626SOL     OW32776   5.559   3.731   2.352
10626SOL    HW132777   5.485   3.701   2.412
10626SOL    HW232778   5.542   3.825   2.324
10627SOL     OW32779   5.758   4.815   5.565
10627SOL    HW132780   5.814   4.754   5.508
10627SOL    HW232781   5.680   4.764   5.602
10628SOL     OW32782   3.262   5.968   1.559
10628SOL    HW132783   3.330   5.949   1.630
10628SOL    HW232784   3.309   6.001   1.477
10629SOL     OW32785   4.548   5.998   4.477
10629SOL    HW132786   4.558   6.097   4.479
10629SOL    HW232787   4.464   5.971   4.525
10630SOL     OW32788   3.904   0.669   1.188
10630SOL    HW132789   3.826   0.653   1.249
10630SOL    HW232790   3.870   0.695   1.098
10631SOL     OW32791   3.968   6.285   1.919
10631SOL    HW132792   3.882   6.236   1.927
10631SOL    HW232793   4.017   6.282   2.007
10632SOL     OW32794   5.446   0.293   4.716
10632SOL    HW132795   5.441   0.368   4.782
10632SOL    HW232796   5.537   0.291   4.675
10633SOL     OW32797   2.528   3.068   0.100
10633SOL    HW132798   2.465   3.036   0.029
10633SOL    HW232799   2.611   3.013   0.099
10634SOL     OW32800   0.896   4.394   0.159
10634SOL    HW132801   0.980   4.340   0.157
10634SOL    HW232802   0.913   4.481   0.205
10635SOL     OW32803   3.056   4.681   6.800
10635SOL    HW132804   3.016   4.772   6.811
10635SOL    HW232805   2.999   4.613   6.846
10636SOL     OW32806   6.452   2.914   0.938
10636SOL    HW132807   6.394   2.995   0.924
10636SOL    HW232808   6.545   2.934   0.909
10637SOL     OW32809   1.988   0.546   5.616
10637SOL    HW132810   2.057   0.530   5.545
10637SOL    HW232811   1.927   0.620   5.587
10638SOL     OW32812   5.820   4.891   6.883
10638SOL    HW132813   5.762   4.850   6.954
10638SOL    HW232814   5.906   4.922   6.924
10639SOL     OW32815   6.883   4.967   7.016
10639SOL    HW132816   6.819   5.010   0.057
10639SOL    HW232817   6.831   4.914   6.949
10640SOL     OW32818   3.595   5.997   4.616
10640SOL    HW132819   3.653   5.918   4.636
10640SOL    HW232820   3.573   5.998   4.518
10641SOL     OW32821   1.013   1.502   3.875
10641SOL    HW132822   0.918   1.527   3.857
10641SOL    HW232823   1.042   1.543   3.962
10642SOL     OW32824   0.328   2.005   6.486
10642SOL    HW132825   0.417   1.963   6.501
10642SOL    HW232826   0.264   1.937   6.450
10643SOL     OW32827   2.910   5.446   4.999
10643SOL    HW132828   2.909   5.519   5.067
10643SOL    HW232829   2.816   5.420   4.976
10644SOL     OW32830   0.871   3.340   3.717
10644SOL    HW132831   0.878   3.379   3.625
10644SOL    HW232832   0.952   3.366   3.770
10645SOL     OW32833   1.782   3.328   3.700
10645SOL    HW132834   1.732   3.354   3.617
10645SOL    HW232835   1.844   3.252   3.680
10646SOL     OW32836   5.036   0.973   3.326
10646SOL    HW132837   5.093   1.036   3.275
10646SOL    HW232838   4.947   0.964   3.282
10647SOL     OW32839   4.010   5.677   4.728
10647SOL    HW132840   4.011   5.685   4.828
10647SOL    HW232841   4.054   5.591   4.701
10648SOL     OW32842   4.872   3.663   5.662
10648SOL    HW132843   4.818   3.725   5.605
10648SOL    HW232844   4.941   3.715   5.712
10649SOL     OW32845   6.062   3.304   3.791
10649SOL    HW132846   6.139   3.356   3.827
10649SOL    HW232847   6.091   3.255   3.708
10650SOL     OW32848   0.979   0.363   2.868
10650SOL    HW132849   0.999   0.439   2.806
10650SOL    HW232850   1.057   0.300   2.868
10651SOL     OW32851   2.154   5.807   5.389
10651SOL    HW132852   2.141   5.709   5.374
10651SOL    HW232853   2.130   5.830   5.483
10652SOL     OW32854   2.939   0.691   6.968
10652SOL    HW132855   3.000   0.761   6.929
10652SOL    HW232856   2.902   0.635   6.895
10653SOL     OW32857   5.621   6.384   3.977
10653SOL    HW132858   5.629   6.481   3.957
10653SOL    HW232859   5.528   6.364   4.007
10654SOL     OW32860   7.017   1.553   4.302
10654SOL    HW132861   6.929   1.600   4.287
10654SOL    HW232862   7.004   1.480   4.369
10655SOL     OW32863   6.538   5.530   0.560
10655SOL    HW132864   6.630   5.532   0.521
10655SOL    HW232865   6.533   5.457   0.629
10656SOL     OW32866   6.416   0.860   6.353
10656SOL    HW132867   6.415   0.957   6.378
10656SOL    HW232868   6.404   0.851   6.254
10657SOL     OW32869   4.348   6.566   5.591
10657SOL    HW132870   4.395   6.605   5.511
10657SOL    HW232871   4.325   6.640   5.655
10658SOL     OW32872   1.263   1.251   6.150
10658SOL    HW132873   1.208   1.174   6.118
10658SOL    HW232874   1.259   1.325   6.082
10659SOL     OW32875   0.684   5.824   6.956
10659SOL    HW132876   0.627   5.852   6.879
10659SOL    HW232877   0.746   5.751   6.927
10660SOL     OW32878   6.204   2.773   6.692
10660SOL    HW132879   6.106   2.762   6.677
10660SOL    HW232880   6.250   2.685   6.680
10661SOL     OW32881   3.403   5.871   5.386
10661SOL    HW132882   3.345   5.857   5.306
10661SOL    HW232883   3.491   5.909   5.357
10662SOL     OW32884   3.160   1.653   0.878
10662SOL    HW132885   3.184   1.749   0.894
10662SOL    HW232886   3.243   1.600   0.863
10663SOL     OW32887   6.830   3.171   4.121
10663SOL    HW132888   6.801   3.266   4.111
10663SOL    HW232889   6.763   3.110   4.079
10664SOL     OW32890   1.308   6.356   4.875
10664SOL    HW132891   1.309   6.438   4.932
10664SOL    HW232892   1.387   6.298   4.899
10665SOL     OW32893   3.514   3.471   0.643
10665SOL    HW132894   3.445   3.538   0.670
10665SOL    HW232895   3.509   3.392   0.705
10666SOL     OW32896   4.705   3.606   1.236
10666SOL    HW132897   4.775   3.549   1.279
10666SOL    HW232898   4.683   3.569   1.145
10667SOL     OW32899   5.819   2.499   4.185
10667SOL    HW132900   5.902   2.447   4.206
10667SOL    HW232901   5.785   2.474   4.095
10668SOL     OW32902   3.479   3.686   6.090
10668SOL    HW132903   3.436   3.665   6.178
10668SOL    HW232904   3.481   3.603   6.033
10669SOL     OW32905   6.322   3.009   1.714
10669SOL    HW132906   6.262   3.069   1.662
10669SOL    HW232907   6.369   3.062   1.785
10670SOL     OW32908   4.444   4.534   4.413
10670SOL    HW132909   4.406   4.499   4.499
10670SOL    HW232910   4.502   4.613   4.432
10671SOL     OW32911   2.053   3.222   4.687
10671SOL    HW132912   2.026   3.305   4.637
10671SOL    HW232913   2.072   3.246   4.783
10672SOL     OW32914   6.143   4.694   1.311
10672SOL    HW132915   6.094   4.778   1.287
10672SOL    HW232916   6.239   4.704   1.288
10673SOL     OW32917   3.242   1.466   1.608
10673SOL    HW132918   3.257   1.522   1.689
10673SOL    HW232919   3.309   1.391   1.606
10674SOL     OW32920   3.833   3.283   4.474
10674SOL    HW132921   3.825   3.230   4.390
10674SOL    HW232922   3.929   3.286   4.502
10675SOL     OW32923   3.800   6.145   5.794
10675SOL    HW132924   3.835   6.076   5.730
10675SOL    HW232925   3.873   6.211   5.815
10676SOL     OW32926   1.275   1.451   4.825
10676SOL    HW132927   1.367   1.428   4.794
10676SOL    HW232928   1.215   1.466   4.746
10677SOL     OW32929   0.327   1.974   0.041
10677SOL    HW132930   0.321   1.946   6.969
10677SOL    HW232931   0.268   1.916   0.097
10678SOL     OW32932   3.691   5.177   2.415
10678SOL    HW132933   3.612   5.199   2.471
10678SOL    HW232934   3.753   5.118   2.466
10679SOL     OW32935   5.226   4.048   0.158
10679SOL    HW132936   5.222   4.126   0.096
10679SOL    HW232937   5.238   3.964   0.105
10680SOL     OW32938   4.772   1.042   5.444
10680SOL    HW132939   4.743   1.081   5.356
10680SOL    HW232940   4.867   1.014   5.438
10681SOL     OW32941   2.592   3.308   5.387
10681SOL    HW132942   2.607   3.389   5.330
10681SOL    HW232943   2.559   3.233   5.330
10682SOL     OW32944   5.290   3.398   6.054
10682SOL    HW132945   5.315   3.407   6.151
10682SOL    HW232946   5.373   3.380   6.001
10683SOL     OW32947   1.931   0.581   3.275
10683SOL    HW132948   1.941   0.680   3.279
10683SOL    HW232949   1.836   0.557   3.254
10684SOL     OW32950   4.901   4.120   1.425
10684SOL    HW132951   4.952   4.109   1.510
10684SOL    HW232952   4.924   4.208   1.384
10685SOL     OW32953   0.833   0.134   2.842
10685SOL    HW132954   0.905   0.066   2.826
10685SOL    HW232955   0.875   0.224   2.855
10686SOL     OW32956   2.795   1.195   6.367
10686SOL    HW132957   2.730   1.119   6.363
10686SOL    HW232958   2.787   1.241   6.456
10687SOL     OW32959   0.772   2.837   3.265
10687SOL    HW132960   0.848   2.797   3.214
10687SOL    HW232961   0.692   2.844   3.205
10688SOL     OW32962   5.529   1.199   3.850
10688SOL    HW132963   5.530   1.238   3.941
10688SOL    HW232964   5.550   1.269   3.782
10689SOL     OW32965   1.418   1.200   2.855
10689SOL    HW132966   1.432   1.244   2.767
10689SOL    HW232967   1.408   1.270   2.926
10690SOL     OW32968   0.498   6.768   4.599
10690SOL    HW132969   0.562   6.736   4.529
10690SOL    HW232970   0.502   6.707   4.678
10691SOL     OW32971   3.383   6.674   1.113
10691SOL    HW132972   3.375   6.650   1.017
10691SOL    HW232973   3.426   6.598   1.163
10692SOL     OW32974   2.687   2.236   4.346
10692SOL    HW132975   2.771   2.228   4.292
10692SOL    HW232976   2.625   2.161   4.324
10693SOL     OW32977   0.854   4.594   7.012
10693SOL    HW132978   0.825   4.508   0.030
10693SOL    HW232979   0.954   4.600   7.012
10694SOL     OW32980   5.261   1.039   5.248
10694SOL    HW132981   5.208   1.090   5.182
10694SOL    HW232982   5.200   0.983   5.305
10695SOL     OW32983   5.052   4.640   1.085
10695SOL    HW132984   5.132   4.620   1.143
10695SOL    HW232985   5.033   4.561   1.026
10696SOL     OW32986   6.366   4.334   4.703
10696SOL    HW132987   6.442   4.394   4.725
10696SOL    HW232988   6.286   4.388   4.677
10697SOL     OW32989   2.631   5.027   4.467
10697SOL    HW132990   2.649   5.066   4.377
10697SOL    HW232991   2.653   4.930   4.466
10698SOL     OW32992   4.180   4.462   0.078
10698SOL    HW132993   4.098   4.411   0.051
10698SOL    HW232994   4.213   4.427   0.166
10699SOL     OW32995   3.876   3.613   1.442
10699SOL    HW132996   3.918   3.587   1.355
10699SOL    HW232997   3.931   3.576   1.517
10700SOL     OW32998   4.821   0.105   1.321
10700SOL    HW132999   4.909   0.081   1.362
10700SOL    HW233000   4.762   0.024   1.319
10701SOL     OW33001   3.381   6.028   6.409
10701SOL    HW133002   3.315   5.974   6.462
10701SOL    HW233003   3.415   5.973   6.333
10702SOL     OW33004   5.713   2.642   2.176
10702SOL    HW133005   5.689   2.556   2.222
10702SOL    HW233006   5.645   2.661   2.105
10703SOL     OW33007   0.402   1.843   5.575
10703SOL    HW133008   0.412   1.940   5.598
10703SOL    HW233009   0.359   1.834   5.485
10704SOL     OW33010   5.380   0.168   2.135
10704SOL    HW133011   5.361   0.203   2.226
10704SOL    HW233012   5.354   0.072   2.130
10705SOL     OW33013   4.941   3.283   0.742
10705SOL    HW133014   4.843   3.276   0.755
10705SOL    HW233015   4.987   3.277   0.831
10706SOL     OW33016   3.168   0.851   1.309
10706SOL    HW133017   3.239   0.826   1.374
10706SOL    HW233018   3.156   0.778   1.242
10707SOL     OW33019   4.342   6.752   3.311
10707SOL    HW133020   4.440   6.739   3.295
10707SOL    HW233021   4.327   6.768   3.409
10708SOL     OW33022   4.586   0.819   1.240
10708SOL    HW133023   4.536   0.830   1.325
10708SOL    HW233024   4.683   0.837   1.256
10709SOL     OW33025   5.965   4.765   2.597
10709SOL    HW133026   5.896   4.700   2.629
10709SOL    HW233027   6.049   4.715   2.574
10710SOL     OW33028   4.354   1.758   3.128
10710SOL    HW133029   4.420   1.804   3.188
10710SOL    HW233030   4.274   1.731   3.182
10711SOL     OW33031   2.810   6.644   2.757
10711SOL    HW133032   2.867   6.691   2.826
10711SOL    HW233033   2.845   6.551   2.743
10712SOL     OW33034   5.330   0.763   3.328
10712SOL    HW133035   5.375   0.675   3.342
10712SOL    HW233036   5.344   0.822   3.407
10713SOL     OW33037   1.254   3.649   1.759
10713SOL    HW133038   1.156   3.666   1.768
10713SOL    HW233039   1.290   3.618   1.848
10714SOL     OW33040   3.045   4.105   5.219
10714SOL    HW133041   2.948   4.082   5.222
10714SOL    HW233042   3.086   4.066   5.136
10715SOL     OW33043   6.049   0.906   2.006
10715SOL    HW133044   6.140   0.914   1.964
10715SOL    HW233045   6.010   0.997   2.020
10716SOL     OW33046   5.026   0.731   3.456
10716SOL    HW133047   5.100   0.677   3.417
10716SOL    HW233048   5.036   0.826   3.429
10717SOL     OW33049   3.058   2.338   6.852
10717SOL    HW133050   3.112   2.331   6.768
10717SOL    HW233051   3.089   2.417   6.905
10718SOL     OW33052   1.622   4.974   6.308
10718SOL    HW133053   1.599   5.065   6.343
10718SOL    HW233054   1.586   4.964   6.215
10719SOL     OW33055   0.370   5.691   4.561
10719SOL    HW133056   0.328   5.609   4.522
10719SOL    HW233057   0.393   5.755   4.487
10720SOL     OW33058   7.016   5.235   3.110
10720SOL    HW133059   7.001   5.318   3.056
10720SOL    HW233060   0.008   5.158   3.048
10721SOL     OW33061   5.100   2.340   6.111
10721SOL    HW133062   5.106   2.244   6.085
10721SOL    HW233063   5.073   2.347   6.207
10722SOL     OW33064   0.288   3.360   5.341
10722SOL    HW133065   0.386   3.338   5.331
10722SOL    HW233066   0.234   3.277   5.335
10723SOL     OW33067   5.275   6.957   0.616
10723SOL    HW133068   5.365   6.914   0.615
10723SOL    HW233069   5.229   6.939   0.529
10724SOL     OW33070   0.375   6.017   6.644
10724SOL    HW133071   0.281   6.005   6.612
10724SOL    HW233072   0.407   6.110   6.621
10725SOL     OW33073   1.944   6.459   6.357
10725SOL    HW133074   1.995   6.449   6.271
10725SOL    HW233075   1.990   6.408   6.429
10726SOL     OW33076   4.045   0.771   3.983
10726SOL    HW133077   4.027   0.870   3.987
10726SOL    HW233078   3.977   0.723   4.038
10727SOL     OW33079   1.669   6.526   6.380
10727SOL    HW133080   1.750   6.470   6.362
10727SOL    HW233081   1.615   6.484   6.453
10728SOL     OW33082   5.237   5.450   1.261
10728SOL    HW133083   5.256   5.521   1.328
10728SOL    HW233084   5.303   5.457   1.186
10729SOL     OW33085   6.322   1.927   0.976
10729SOL    HW133086   6.320   1.913   1.075
10729SOL    HW233087   6.276   2.013   0.954
10730SOL     OW33088   4.541   0.449   2.910
10730SOL    HW133089   4.574   0.406   2.826
10730SOL    HW233090   4.598   0.528   2.932
10731SOL     OW33091   3.947   0.045   1.129
10731SOL    HW133092   3.996   0.065   1.214
10731SOL    HW233093   3.857   0.088   1.132
10732SOL     OW33094   0.726   3.475   6.247
10732SOL    HW133095   0.753   3.413   6.321
10732SOL    HW233096   0.792   3.470   6.173
10733SOL     OW33097   5.733   1.368   0.298
10733SOL    HW133098   5.691   1.278   0.286
10733SOL    HW233099   5.825   1.357   0.334
10734SOL     OW33100   6.432   3.137   1.959
10734SOL    HW133101   6.461   3.052   1.918
10734SOL    HW233102   6.512   3.192   1.985
10735SOL     OW33103   0.357   5.374   2.776
10735SOL    HW133104   0.451   5.395   2.750
10735SOL    HW233105   0.295   5.440   2.733
10736SOL     OW33106   2.038   1.221   4.332
10736SOL    HW133107   1.970   1.256   4.396
10736SOL    HW233108   2.072   1.132   4.364
10737SOL     OW33109   6.782   1.817   0.457
10737SOL    HW133110   6.815   1.737   0.507
10737SOL    HW233111   6.776   1.896   0.518
10738SOL     OW33112   3.974   0.194   3.803
10738SOL    HW133113   3.917   0.113   3.794
10738SOL    HW233114   4.056   0.184   3.747
10739SOL     OW33115   2.611   1.814   1.871
10739SOL    HW133116   2.710   1.813   1.888
10739SOL    HW233117   2.583   1.728   1.829
10740SOL     OW33118   4.403   6.055   3.132
10740SOL    HW133119   4.442   6.147   3.131
10740SOL    HW233120   4.469   5.991   3.172
10741SOL     OW33121   2.715   0.794   2.922
10741SOL    HW133122   2.795   0.759   2.873
10741SOL    HW233123   2.697   0.888   2.893
10742SOL     OW33124   6.709   5.177   0.913
10742SOL    HW133125   6.704   5.197   1.011
10742SOL    HW233126   6.804   5.158   0.888
10743SOL     OW33127   2.598   2.172   5.236
10743SOL    HW133128   2.533   2.174   5.160
10743SOL    HW233129   2.556   2.213   5.317
10744SOL     OW33130   5.780   1.724   0.377
10744SOL    HW133131   5.795   1.686   0.285
10744SOL    HW233132   5.751   1.819   0.369
10745SOL     OW33133   0.015   5.849   6.381
10745SOL    HW133134   0.089   5.840   6.315
10745SOL    HW233135   0.052   5.880   6.469
10746SOL     OW33136   1.669   4.312   5.926
10746SOL    HW133137   1.702   4.406   5.919
10746SOL    HW233138   1.574   4.313   5.958
10747SOL     OW33139   3.375   2.096   4.396
10747SOL    HW133140   3.378   1.998   4.375
10747SOL    HW233141   3.469   2.132   4.398
10748SOL     OW33142   5.414   1.262   2.278
10748SOL    HW133143   5.349   1.336   2.293
10748SOL    HW233144   5.484   1.291   2.214
10749SOL     OW33145   2.767   6.785   0.059
10749SOL    HW133146   2.673   6.754   0.073
10749SOL    HW233147   2.815   6.720   0.000
10750SOL     OW33148   4.032   6.400   6.248
10750SOL    HW133149   4.100   6.434   6.313
10750SOL    HW233150   4.044   6.302   6.236
10751SOL     OW33151   2.372   5.456   3.803
10751SOL    HW133152   2.465   5.492   3.817
10751SOL    HW233153   2.339   5.415   3.888
10752SOL     OW33154   4.885   4.884   3.722
10752SOL    HW133155   4.862   4.865   3.818
10752SOL    HW233156   4.974   4.845   3.701
10753SOL     OW33157   6.516   3.994   4.517
10753SOL    HW133158   6.432   3.948   4.544
10753SOL    HW233159   6.594   3.951   4.564
10754SOL     OW33160   1.412   6.925   2.230
10754SOL    HW133161   1.511   6.937   2.244
10754SOL    HW233162   1.395   6.837   2.186
10755SOL     OW33163   5.923   5.350   1.471
10755SOL    HW133164   5.835   5.335   1.515
10755SOL    HW233165   5.971   5.263   1.463
10756SOL     OW33166   0.455   0.035   4.942
10756SOL    HW133167   0.438   0.131   4.963
10756SOL    HW233168   0.520   7.020   5.007
10757SOL     OW33169   2.896   2.911   1.104
10757SOL    HW133170   2.921   2.815   1.116
10757SOL    HW233171   2.862   2.925   1.011
10758SOL     OW33172   7.017   5.199   4.139
10758SOL    HW133173   6.991   5.127   4.074
10758SOL    HW233174   6.955   5.197   4.217
10759SOL     OW33175   0.008   1.329   6.799
10759SOL    HW133176   0.023   1.375   6.711
10759SOL    HW233177   0.062   1.375   6.870
10760SOL     OW33178   5.951   1.648   4.867
10760SOL    HW133179   5.900   1.672   4.784
10760SOL    HW233180   5.935   1.552   4.890
10761SOL     OW33181   2.779   5.159   5.425
10761SOL    HW133182   2.727   5.214   5.359
10761SOL    HW233183   2.717   5.121   5.493
10762SOL     OW33184   2.854   1.508   5.340
10762SOL    HW133185   2.847   1.554   5.252
10762SOL    HW233186   2.830   1.572   5.413
10763SOL     OW33187   4.433   6.489   4.193
10763SOL    HW133188   4.528   6.512   4.211
10763SOL    HW233189   4.413   6.399   4.231
10764SOL     OW33190   4.369   6.858   5.047
10764SOL    HW133191   4.299   6.840   5.116
10764SOL    HW233192   4.345   6.812   4.962
10765SOL     OW33193   6.468   3.789   6.922
10765SOL    HW133194   6.460   3.843   6.838
10765SOL    HW233195   6.501   3.847   6.996
10766SOL     OW33196   3.415   3.585   1.413
10766SOL    HW133197   3.502   3.545   1.385
10766SOL    HW233198   3.339   3.533   1.375
10767SOL     OW33199   4.809   1.632   2.279
10767SOL    HW133200   4.780   1.565   2.347
10767SOL    HW233201   4.803   1.592   2.187
10768SOL     OW33202   6.337   4.774   6.474
10768SOL    HW133203   6.435   4.758   6.460
10768SOL    HW233204   6.287   4.752   6.391
10769SOL     OW33205   1.687   3.519   4.980
10769SOL    HW133206   1.715   3.509   5.076
10769SOL    HW233207   1.654   3.612   4.964
10770SOL     OW33208   4.159   6.175   4.088
10770SOL    HW133209   4.125   6.154   4.180
10770SOL    HW233210   4.085   6.163   4.022
10771SOL     OW33211   2.219   1.290   4.149
10771SOL    HW133212   2.291   1.349   4.185
10771SOL    HW233213   2.136   1.299   4.204
10772SOL     OW33214   5.235   5.472   3.506
10772SOL    HW133215   5.200   5.456   3.599
10772SOL    HW233216   5.252   5.569   3.494
10773SOL     OW33217   5.733   4.625   2.690
10773SOL    HW133218   5.690   4.536   2.707
10773SOL    HW233219   5.692   4.694   2.751
10774SOL     OW33220   0.044   6.848   2.777
10774SOL    HW133221   0.089   6.821   2.691
10774SOL    HW233222   0.101   6.819   2.854
10775SOL     OW33223   0.076   3.260   1.288
10775SOL    HW133224   0.076   3.277   1.386
10775SOL    HW233225   0.031   3.173   1.269
10776SOL     OW33226   1.359   0.578   5.991
10776SOL    HW133227   1.342   0.570   5.893
10776SOL    HW233228   1.455   0.600   6.007
10777SOL     OW33229   2.784   5.695   1.188
10777SOL    HW133230   2.864   5.703   1.128
10777SOL    HW233231   2.813   5.663   1.278
10778SOL     OW33232   5.598   5.942   2.310
10778SOL    HW133233   5.634   5.910   2.397
10778SOL    HW233234   5.566   5.864   2.256
10779SOL     OW33235   4.828   3.209   3.856
10779SOL    HW133236   4.843   3.154   3.938
10779SOL    HW233237   4.766   3.160   3.795
10780SOL     OW33238   6.800   0.460   2.213
10780SOL    HW133239   6.746   0.433   2.134
10780SOL    HW233240   6.745   0.451   2.296
10781SOL     OW33241   3.364   0.103   4.263
10781SOL    HW133242   3.415   0.163   4.201
10781SOL    HW233243   3.268   0.127   4.261
10782SOL     OW33244   6.152   4.966   3.876
10782SOL    HW133245   6.203   4.910   3.811
10782SOL    HW233246   6.064   4.992   3.836
10783SOL     OW33247   6.880   2.167   3.385
10783SOL    HW133248   6.843   2.255   3.415
10783SOL    HW233249   6.826   2.093   3.425
10784SOL     OW33250   2.431   1.700   5.232
10784SOL    HW133251   2.433   1.699   5.132
10784SOL    HW233252   2.513   1.746   5.266
10785SOL     OW33253   1.182   3.481   5.959
10785SOL    HW133254   1.190   3.452   6.054
10785SOL    HW233255   1.270   3.518   5.928
10786SOL     OW33256   0.002   4.408   3.864
10786SOL    HW133257   0.100   4.394   3.874
10786SOL    HW233258   6.985   4.429   3.953
10787SOL     OW33259   2.430   2.068   6.657
10787SOL    HW133260   2.477   2.133   6.597
10787SOL    HW233261   2.376   2.119   6.724
10788SOL     OW33262   5.672   3.670   6.105
10788SOL    HW133263   5.593   3.649   6.048
10788SOL    HW233264   5.740   3.598   6.095
10789SOL     OW33265   5.554   1.402   0.586
10789SOL    HW133266   5.486   1.329   0.577
10789SOL    HW233267   5.610   1.406   0.503
10790SOL     OW33268   5.962   6.306   2.928
10790SOL    HW133269   6.035   6.297   2.861
10790SOL    HW233270   5.904   6.224   2.925
10791SOL     OW33271   0.568   6.432   2.548
10791SOL    HW133272   0.497   6.492   2.509
10791SOL    HW233273   0.561   6.341   2.507
10792SOL     OW33274   4.123   4.092   6.076
10792SOL    HW133275   4.037   4.110   6.029
10792SOL    HW233276   4.164   4.008   6.040
10793SOL     OW33277   6.433   3.945   3.918
10793SOL    HW133278   6.337   3.966   3.936
10793SOL    HW233279   6.442   3.852   3.883
10794SOL     OW33280   3.369   3.823   4.694
10794SOL    HW133281   3.355   3.913   4.653
10794SOL    HW233282   3.464   3.794   4.680
10795SOL     OW33283   0.175   4.974   2.671
10795SOL    HW133284   0.078   4.969   2.694
10795SOL    HW233285   0.185   4.995   2.574
10796SOL     OW33286   1.004   6.157   5.417
10796SOL    HW133287   1.069   6.152   5.493
10796SOL    HW233288   0.998   6.252   5.385
10797SOL     OW33289   3.578   2.808   0.274
10797SOL    HW133290   3.676   2.823   0.291
10797SOL    HW233291   3.535   2.774   0.357
10798SOL     OW33292   6.280   1.456   0.770
10798SOL    HW133293   6.295   1.491   0.863
10798SOL    HW233294   6.189   1.414   0.766
10799SOL     OW33295   4.901   1.687   1.118
10799SOL    HW133296   4.940   1.606   1.074
10799SOL    HW233297   4.936   1.769   1.073
10800SOL     OW33298   6.466   6.910   1.670
10800SOL    HW133299   6.380   6.958   1.688
10800SOL    HW233300   6.537   6.943   1.732
10801SOL     OW33301   1.806   0.799   1.334
10801SOL    HW133302   1.779   0.722   1.391
10801SOL    HW233303   1.878   0.852   1.380
10802SOL     OW33304   5.828   1.759   3.279
10802SOL    HW133305   5.887   1.684   3.250
10802SOL    HW233306   5.852   1.787   3.372
10803SOL     OW33307   2.101   5.127   6.230
10803SOL    HW133308   2.150   5.114   6.316
10803SOL    HW233309   2.166   5.133   6.155
10804SOL     OW33310   0.042   3.601   4.454
10804SOL    HW133311   0.137   3.627   4.438
10804SOL    HW233312   0.018   3.526   4.393
10805SOL     OW33313   6.622   0.452   6.586
10805SOL    HW133314   6.542   0.467   6.528
10805SOL    HW233315   6.702   0.496   6.544
10806SOL     OW33316   1.577   5.203   0.219
10806SOL    HW133317   1.536   5.286   0.181
10806SOL    HW233318   1.614   5.222   0.310
10807SOL     OW33319   3.230   5.906   4.821
10807SOL    HW133320   3.319   5.880   4.860
10807SOL    HW233321   3.165   5.831   4.834
10808SOL     OW33322   1.322   3.033   6.436
10808SOL    HW133323   1.404   3.036   6.379
10808SOL    HW233324   1.257   2.968   6.396
10809SOL     OW33325   1.114   0.131   4.514
10809SOL    HW133326   1.102   0.137   4.415
10809SOL    HW233327   1.212   0.138   4.536
10810SOL     OW33328   6.231   0.698   4.110
10810SOL    HW133329   6.261   0.786   4.147
10810SOL    HW233330   6.196   0.641   4.184
10811SOL     OW33331   5.392   5.777   4.852
10811SOL    HW133332   5.422   5.864   4.813
10811SOL    HW233333   5.294   5.765   4.834
10812SOL     OW33334   0.247   3.080   0.400
10812SOL    HW133335   0.213   3.173   0.416
10812SOL    HW233336   0.270   3.037   0.487
10813SOL     OW33337   1.268   3.593   6.698
10813SOL    HW133338   1.259   3.616   6.601
10813SOL    HW233339   1.206   3.649   6.752
10814SOL     OW33340   3.668   1.599   1.060
10814SOL    HW133341   3.632   1.689   1.084
10814SOL    HW233342   3.599   1.529   1.079
10815SOL     OW33343   5.008   1.123   4.775
10815SOL    HW133344   4.912   1.142   4.757
10815SOL    HW233345   5.064   1.156   4.698
10816SOL     OW33346   3.183   2.985   4.837
10816SOL    HW133347   3.171   3.045   4.758
10816SOL    HW233348   3.101   2.930   4.850
10817SOL     OW33349   1.377   6.205   3.924
10817SOL    HW133350   1.399   6.110   3.905
10817SOL    HW233351   1.300   6.210   3.988
10818SOL     OW33352   4.074   3.964   0.034
10818SOL    HW133353   4.068   3.914   0.121
10818SOL    HW233354   4.165   3.951   7.019
10819SOL     OW33355   5.840   6.315   5.804
10819SOL    HW133356   5.932   6.313   5.765
10819SOL    HW233357   5.773   6.292   5.734
10820SOL     OW33358   2.630   4.687   6.093
10820SOL    HW133359   2.613   4.750   6.018
10820SOL    HW233360   2.562   4.614   6.091
10821SOL     OW33361   4.379   6.047   4.041
10821SOL    HW133362   4.362   5.954   4.075
10821SOL    HW233363   4.295   6.100   4.049
10822SOL     OW33364   5.869   1.099   2.010
10822SOL    HW133365   5.839   1.195   2.006
10822SOL    HW233366   5.789   1.039   2.007
10823SOL     OW33367   5.146   6.370   1.645
10823SOL    HW133368   5.208   6.317   1.703
10823SOL    HW233369   5.199   6.430   1.585
10824SOL     OW33370   1.082   3.406   3.126
10824SOL    HW133371   1.042   3.346   3.056
10824SOL    HW233372   1.009   3.457   3.171
10825SOL     OW33373   0.383   2.382   0.796
10825SOL    HW133374   0.411   2.306   0.737
10825SOL    HW233375   0.311   2.351   0.858
10826SOL     OW33376   6.541   3.124   2.531
10826SOL    HW133377   6.516   3.210   2.487
10826SOL    HW233378   6.570   3.142   2.625
10827SOL     OW33379   0.365   3.465   4.697
10827SOL    HW133380   0.385   3.368   4.688
10827SOL    HW233381   0.445   3.518   4.668
10828SOL     OW33382   6.682   4.063   5.265
10828SOL    HW133383   6.646   4.146   5.222
10828SOL    HW233384   6.772   4.042   5.227
10829SOL     OW33385   3.759   2.875   5.675
10829SOL    HW133386   3.854   2.849   5.692
10829SOL    HW233387   3.736   2.955   5.731
10830SOL     OW33388   5.343   2.375   3.290
10830SOL    HW133389   5.279   2.452   3.293
10830SOL    HW233390   5.300   2.294   3.330
10831SOL     OW33391   3.837   7.007   3.774
10831SOL    HW133392   3.826   6.950   3.693
10831SOL    HW233393   3.750   0.026   3.798
10832SOL     OW33394   6.772   2.662   6.923
10832SOL    HW133395   6.682   2.640   6.960
10832SOL    HW233396   6.779   2.761   6.908
10833SOL     OW33397   0.442   0.908   6.582
10833SOL    HW133398   0.526   0.919   6.635
10833SOL    HW233399   0.465   0.883   6.488
10834SOL     OW33400   6.171   6.011   1.629
10834SOL    HW133401   6.079   6.025   1.593
10834SOL    HW233402   6.195   5.914   1.623
10835SOL     OW33403   0.029   2.708   5.302
10835SOL    HW133404   0.075   2.795   5.315
10835SOL    HW233405   6.982   2.717   5.232
10836SOL     OW33406   0.313   1.407   3.445
10836SOL    HW133407   0.258   1.426   3.363
10836SOL    HW233408   0.410   1.418   3.424
10837SOL     OW33409   6.961   3.431   4.266
10837SOL    HW133410   6.880   3.434   4.207
10837SOL    HW233411   6.973   3.338   4.301
10838SOL     OW33412   0.892   5.778   2.377
10838SOL    HW133413   0.907   5.857   2.317
10838SOL    HW233414   0.931   5.797   2.467
10839SOL     OW33415   4.423   2.878   0.325
10839SOL    HW133416   4.428   2.973   0.355
10839SOL    HW233417   4.364   2.826   0.387
10840SOL     OW33418   2.590   0.398   1.951
10840SOL    HW133419   2.549   0.331   1.889
10840SOL    HW233420   2.675   0.360   1.988
10841SOL     OW33421   2.467   5.164   5.101
10841SOL    HW133422   2.498   5.098   5.170
10841SOL    HW233423   2.539   5.178   5.033
10842SOL     OW33424   6.352   4.346   1.946
10842SOL    HW133425   6.339   4.273   2.013
10842SOL    HW233426   6.267   4.399   1.937
10843SOL     OW33427   2.932   1.511   1.417
10843SOL    HW133428   2.857   1.559   1.463
10843SOL    HW233429   2.899   1.473   1.331
10844SOL     OW33430   2.168   5.762   5.093
10844SOL    HW133431   2.073   5.769   5.122
10844SOL    HW233432   2.222   5.831   5.142
10845SOL     OW33433   4.505   0.636   4.844
10845SOL    HW133434   4.522   0.687   4.928
10845SOL    HW233435   4.474   0.543   4.867
10846SOL     OW33436   5.858   0.322   5.971
10846SOL    HW133437   5.778   0.307   5.913
10846SOL    HW233438   5.834   0.304   6.066
10847SOL     OW33439   2.783   0.097   6.950
10847SOL    HW133440   2.784   0.177   7.010
10847SOL    HW233441   2.868   0.045   6.963
10848SOL     OW33442   1.756   3.682   1.869
10848SOL    HW133443   1.678   3.716   1.921
10848SOL    HW233444   1.730   3.601   1.818
10849SOL     OW33445   1.751   6.820   3.224
10849SOL    HW133446   1.742   6.728   3.263
10849SOL    HW233447   1.739   6.888   3.297
10850SOL     OW33448   4.744   4.741   0.865
10850SOL    HW133449   4.759   4.809   0.937
10850SOL    HW233450   4.792   4.768   0.782
10851SOL     OW33451   1.546   4.153   0.641
10851SOL    HW133452   1.543   4.244   0.683
10851SOL    HW233453   1.612   4.154   0.565
10852SOL     OW33454   2.438   1.736   2.445
10852SOL    HW133455   2.393   1.824   2.460
10852SOL    HW233456   2.468   1.699   2.532
10853SOL     OW33457   3.310   1.018   6.238
10853SOL    HW133458   3.335   1.023   6.141
10853SOL    HW233459   3.211   1.027   6.248
10854SOL     OW33460   3.096   6.184   5.807
10854SOL    HW133461   3.031   6.114   5.777
10854SOL    HW233462   3.046   6.258   5.853
10855SOL     OW33463   4.162   1.164   6.928
10855SOL    HW133464   4.072   1.121   6.934
10855SOL    HW233465   4.153   1.254   6.886
10856SOL     OW33466   0.755   1.171   0.522
10856SOL    HW133467   0.661   1.179   0.554
10856SOL    HW233468   0.811   1.241   0.566
10857SOL     OW33469   0.142   2.710   1.816
10857SOL    HW133470   0.062   2.663   1.777
10857SOL    HW233471   0.174   2.659   1.896
10858SOL     OW33472   2.338   6.150   2.247
10858SOL    HW133473   2.417   6.102   2.209
10858SOL    HW233474   2.369   6.220   2.311
10859SOL     OW33475   1.417   5.118   3.571
10859SOL    HW133476   1.512   5.100   3.597
10859SOL    HW233477   1.359   5.115   3.652
10860SOL     OW33478   0.189   3.789   3.393
10860SOL    HW133479   0.234   3.763   3.479
10860SOL    HW233480   0.095   3.755   3.392
10861SOL     OW33481   4.290   2.843   5.635
10861SOL    HW133482   4.226   2.920   5.631
10861SOL    HW233483   4.319   2.818   5.543
10862SOL     OW33484   0.827   0.850   5.177
10862SOL    HW133485   0.858   0.931   5.128
10862SOL    HW233486   0.731   0.861   5.201
10863SOL     OW33487   2.187   6.326   4.088
10863SOL    HW133488   2.132   6.248   4.056
10863SOL    HW233489   2.127   6.401   4.113
10864SOL     OW33490   3.666   6.289   3.077
10864SOL    HW133491   3.633   6.333   3.160
10864SOL    HW233492   3.606   6.211   3.054
10865SOL     OW33493   6.831   1.427   6.236
10865SOL    HW133494   6.846   1.332   6.207
10865SOL    HW233495   6.913   1.481   6.216
10866SOL     OW33496   5.632   4.964   6.609
10866SOL    HW133497   5.661   4.898   6.679
10866SOL    HW233498   5.694   4.958   6.531
10867SOL     OW33499   2.897   0.973   6.673
10867SOL    HW133500   2.807   0.937   6.698
10867SOL    HW233501   2.967   0.935   6.734
10868SOL     OW33502   2.105   2.067   3.170
10868SOL    HW133503   2.096   2.098   3.264
10868SOL    HW233504   2.020   2.022   3.141
10869NA      NA33505   6.299   2.367   5.761
10870NA      NA33506   4.298   4.645   5.224
10871NA      NA33507   2.054   3.515   1.822
10872NA      NA33508   4.912   3.623   5.216
10873NA      NA33509   4.278   2.318   5.243
10874NA      NA33510   3.622   4.743   1.672
10875NA      NA33511   6.753   5.966   4.695
10876NA      NA33512   3.737   3.455   5.075
10877NA      NA33513   4.801   6.475   6.216
10878NA      NA33514   2.529   0.659   5.337
10879NA      NA33515   0.604   4.986   2.516
10880NA      NA33516   2.296   0.336   2.477
10881NA      NA33517   3.414   4.378   1.198
10882NA      NA33518   3.550   3.332   2.980
   7.02369   7.02369   7.02369
