Generated by trjconv : CNT in water t= 342.00000
33518
    1C        C    1   2.841   2.765   4.747
    1C        C    2   2.895   2.715   4.867
    1C        C    3   2.834   2.764   4.983
    1C        C    4   2.853   2.777   4.258
    1C        C    5   2.902   2.730   4.382
    1C        C    6   2.847   2.775   4.503
    1C        C    7   3.012   2.640   4.624
    1C        C    8   2.898   2.724   4.624
    1C        C    9   3.077   2.605   4.745
    1C        C   10   3.010   2.633   4.866
    1C        C   11   3.183   2.495   4.976
    1C        C   12   3.059   2.560   4.975
    1C        C   13   2.855   2.774   3.771
    1C        C   14   2.902   2.722   3.894
    1C        C   15   2.847   2.772   4.015
    1C        C   16   3.017   2.644   4.137
    1C        C   17   2.902   2.725   4.136
    1C        C   18   3.079   2.613   4.261
    1C        C   19   3.018   2.649   4.383
    1C        C   20   3.211   2.557   4.502
    1C        C   21   3.080   2.609   4.504
    1C        C   22   3.280   2.540   4.625
    1C        C   23   3.210   2.557   4.747
    1C        C   24   3.413   2.484   4.865
    1C        C   25   3.272   2.507   4.865
    1C        C   26   3.488   2.480   4.983
    1C        C   27   2.849   2.770   3.283
    1C        C   28   2.897   2.719   3.406
    1C        C   29   2.844   2.766   3.529
    1C        C   30   3.016   2.636   3.648
    1C        C   31   2.905   2.723   3.649
    1C        C   32   3.078   2.602   3.770
    1C        C   33   3.016   2.639   3.892
    1C        C   34   3.210   2.558   4.017
    1C        C   35   3.078   2.607   4.015
    1C        C   36   3.280   2.538   4.138
    1C        C   37   3.209   2.558   4.259
    1C        C   38   3.417   2.511   4.381
    1C        C   39   3.278   2.536   4.380
    1C        C   40   3.489   2.504   4.503
    1C        C   41   3.418   2.511   4.625
    1C        C   42   3.631   2.479   4.747
    1C        C   43   3.489   2.483   4.744
    1C        C   44   3.705   2.489   4.866
    1C        C   45   3.627   2.478   4.981
    1C        C   46   2.836   2.749   2.794
    1C        C   47   2.891   2.707   2.917
    1C        C   48   2.838   2.757   3.038
    1C        C   49   3.010   2.635   3.163
    1C        C   50   2.896   2.718   3.161
    1C        C   51   3.075   2.601   3.285
    1C        C   52   3.011   2.636   3.406
    1C        C   53   3.206   2.542   3.526
    1C        C   54   3.076   2.599   3.526
    1C        C   55   3.275   2.529   3.649
    1C        C   56   3.211   2.555   3.773
    1C        C   57   3.417   2.504   3.893
    1C        C   58   3.279   2.536   3.895
    1C        C   59   3.486   2.500   4.016
    1C        C   60   3.418   2.508   4.140
    1C        C   61   3.631   2.501   4.258
    1C        C   62   3.490   2.498   4.261
    1C        C   63   3.700   2.502   4.381
    1C        C   64   3.630   2.497   4.504
    1C        C   65   3.835   2.546   4.625
    1C        C   66   3.701   2.503   4.626
    1C        C   67   3.910   2.555   4.744
    1C        C   68   3.842   2.524   4.864
    1C        C   69   4.054   2.585   4.976
    1C        C   70   3.924   2.531   4.977
    1C        C   71   2.822   2.728   2.307
    1C        C   72   2.882   2.688   2.428
    1C        C   73   2.835   2.747   2.547
    1C        C   74   3.007   2.627   2.673
    1C        C   75   2.889   2.705   2.671
    1C        C   76   3.074   2.599   2.795
    1C        C   77   3.010   2.631   2.917
    1C        C   78   3.204   2.553   3.039
    1C        C   79   3.071   2.600   3.040
    1C        C   80   3.273   2.531   3.160
    1C        C   81   3.206   2.549   3.283
    1C        C   82   3.413   2.498   3.404
    1C        C   83   3.274   2.523   3.404
    1C        C   84   3.482   2.492   3.527
    1C        C   85   3.413   2.501   3.651
    1C        C   86   3.628   2.498   3.769
    1C        C   87   3.487   2.495   3.771
    1C        C   88   3.698   2.509   3.891
    1C        C   89   3.627   2.502   4.014
    1C        C   90   3.836   2.546   4.138
    1C        C   91   3.699   2.510   4.135
    1C        C   92   3.904   2.569   4.259
    1C        C   93   3.836   2.540   4.379
    1C        C   94   4.024   2.636   4.499
    1C        C   95   3.901   2.567   4.501
    1C        C   96   4.092   2.673   4.618
    1C        C   97   4.034   2.624   4.737
    1C        C   98   4.191   2.764   4.858
    1C        C   99   4.100   2.653   4.859
    1C        C  100   4.220   2.838   4.974
    1C        C  101   2.826   2.736   2.067
    1C        C  102   2.987   2.588   2.191
    1C        C  103   2.878   2.681   2.185
    1C        C  104   3.063   2.571   2.310
    1C        C  105   3.000   2.610   2.430
    1C        C  106   3.197   2.532   2.550
    1C        C  107   3.067   2.586   2.552
    1C        C  108   3.267   2.515   2.672
    1C        C  109   3.203   2.542   2.795
    1C        C  110   3.410   2.504   2.917
    1C        C  111   3.271   2.524   2.917
    1C        C  112   3.484   2.502   3.038
    1C        C  113   3.412   2.508   3.159
    1C        C  114   3.624   2.494   3.281
    1C        C  115   3.483   2.495   3.281
    1C        C  116   3.693   2.507   3.404
    1C        C  117   3.623   2.501   3.526
    1C        C  118   3.834   2.544   3.648
    1C        C  119   3.697   2.510   3.646
    1C        C  120   3.900   2.567   3.771
    1C        C  121   3.834   2.547   3.894
    1C        C  122   4.027   2.636   4.013
    1C        C  123   3.903   2.568   4.015
    1C        C  124   4.089   2.673   4.134
    1C        C  125   4.029   2.635   4.256
    1C        C  126   4.199   2.762   4.376
    1C        C  127   4.086   2.676   4.379
    1C        C  128   4.250   2.816   4.496
    1C        C  129   4.202   2.762   4.617
    1C        C  130   4.328   2.935   4.739
    1C        C  131   4.248   2.817   4.739
    1C        C  132   4.363   2.999   4.860
    1C        C  133   4.297   2.953   4.975
    1C        C  134   3.174   2.470   2.081
    1C        C  135   3.040   2.512   2.082
    1C        C  136   3.259   2.475   2.191
    1C        C  137   3.194   2.517   2.309
    1C        C  138   3.406   2.486   2.429
    1C        C  139   3.266   2.502   2.430
    1C        C  140   3.479   2.483   2.550
    1C        C  141   3.407   2.495   2.671
    1C        C  142   3.620   2.495   2.791
    1C        C  143   3.479   2.500   2.793
    1C        C  144   3.693   2.504   2.912
    1C        C  145   3.625   2.499   3.036
    1C        C  146   3.831   2.537   3.159
    1C        C  147   3.694   2.500   3.159
    1C        C  148   3.898   2.567   3.280
    1C        C  149   3.829   2.545   3.401
    1C        C  150   4.026   2.623   3.524
    1C        C  151   3.898   2.564   3.523
    1C        C  152   4.086   2.665   3.645
    1C        C  153   4.025   2.634   3.769
    1C        C  154   4.197   2.760   3.887
    1C        C  155   4.086   2.673   3.890
    1C        C  156   4.248   2.809   4.010
    1C        C  157   4.204   2.756   4.133
    1C        C  158   4.337   2.922   4.250
    1C        C  159   4.252   2.809   4.255
    1C        C  160   4.371   2.985   4.372
    1C        C  161   4.328   2.934   4.496
    1C        C  162   4.438   3.117   4.615
    1C        C  163   4.367   2.995   4.618
    1C        C  164   4.470   3.181   4.736
    1C        C  165   4.442   3.116   4.859
    1C        C  166   4.514   3.322   4.973
    1C        C  167   4.482   3.187   4.973
    1C        C  168   3.476   2.439   2.072
    1C        C  169   3.400   2.459   2.188
    1C        C  170   3.617   2.471   2.309
    1C        C  171   3.475   2.467   2.307
    1C        C  172   3.693   2.483   2.428
    1C        C  173   3.620   2.493   2.548
    1C        C  174   3.827   2.542   2.668
    1C        C  175   3.691   2.504   2.670
    1C        C  176   3.895   2.564   2.790
    1C        C  177   3.830   2.538   2.913
    1C        C  178   4.021   2.627   3.033
    1C        C  179   3.896   2.560   3.036
    1C        C  180   4.084   2.663   3.154
    1C        C  181   4.024   2.630   3.278
    1C        C  182   4.195   2.750   3.399
    1C        C  183   4.083   2.665   3.401
    1C        C  184   4.246   2.800   3.520
    1C        C  185   4.199   2.750   3.643
    1C        C  186   4.337   2.915   3.761
    1C        C  187   4.250   2.803   3.763
    1C        C  188   4.375   2.976   3.883
    1C        C  189   4.335   2.920   4.006
    1C        C  190   4.443   3.104   4.127
    1C        C  191   4.376   2.980   4.127
    1C        C  192   4.474   3.169   4.249
    1C        C  193   4.442   3.107   4.372
    1C        C  194   4.505   3.315   4.490
    1C        C  195   4.466   3.179   4.491
    1C        C  196   4.521   3.386   4.610
    1C        C  197   4.508   3.318   4.733
    1C        C  198   4.546   3.535   4.853
    1C        C  199   4.524   3.394   4.852
    1C        C  200   4.582   3.623   4.961
    1C        C  201   3.615   2.420   2.075
    1C        C  202   3.826   2.512   2.182
    1C        C  203   3.690   2.467   2.187
    1C        C  204   3.895   2.539   2.303
    1C        C  205   3.831   2.513   2.426
    1C        C  206   4.023   2.614   2.544
    1C        C  207   3.895   2.555   2.545
    1C        C  208   4.085   2.655   2.665
    1C        C  209   4.022   2.624   2.787
    1C        C  210   4.195   2.746   2.908
    1C        C  211   4.080   2.664   2.910
    1C        C  212   4.245   2.797   3.029
    1C        C  213   4.196   2.749   3.153
    1C        C  214   4.337   2.905   3.272
    1C        C  215   4.248   2.796   3.276
    1C        C  216   4.371   2.970   3.393
    1C        C  217   4.327   2.916   3.516
    1C        C  218   4.427   3.103   3.637
    1C        C  219   4.370   2.974   3.638
    1C        C  220   4.459   3.167   3.759
    1C        C  221   4.441   3.102   3.883
    1C        C  222   4.504   3.305   4.003
    1C        C  223   4.471   3.168   4.004
    1C        C  224   4.516   3.377   4.124
    1C        C  225   4.507   3.307   4.247
    1C        C  226   4.520   3.523   4.367
    1C        C  227   4.518   3.382   4.366
    1C        C  228   4.514   3.597   4.487
    1C        C  229   4.527   3.528   4.609
    1C        C  230   4.493   3.739   4.727
    1C        C  231   4.528   3.602   4.729
    1C        C  232   4.490   3.817   4.845
    1C        C  233   4.547   3.758   4.958
    1C        C  234   4.014   2.614   2.062
    1C        C  235   3.893   2.545   2.064
    1C        C  236   4.085   2.644   2.179
    1C        C  237   4.021   2.605   2.299
    1C        C  238   4.196   2.731   2.421
    1C        C  239   4.082   2.647   2.420
    1C        C  240   4.250   2.783   2.541
    1C        C  241   4.198   2.740   2.665
    1C        C  242   4.339   2.901   2.787
    1C        C  243   4.252   2.789   2.786
    1C        C  244   4.379   2.962   2.907
    1C        C  245   4.339   2.903   3.029
    1C        C  246   4.438   3.092   3.148
    1C        C  247   4.380   2.963   3.150
    1C        C  248   4.458   3.160   3.270
    1C        C  249   4.430   3.098   3.394
    1C        C  250   4.490   3.305   3.514
    1C        C  251   4.453   3.169   3.514
    1C        C  252   4.502   3.374   3.637
    1C        C  253   4.495   3.303   3.759
    1C        C  254   4.516   3.515   3.878
    1C        C  255   4.511   3.374   3.880
    1C        C  256   4.513   3.588   3.999
    1C        C  257   4.520   3.518   4.122
    1C        C  258   4.491   3.730   4.239
    1C        C  259   4.514   3.591   4.243
    1C        C  260   4.468   3.799   4.360
    1C        C  261   4.482   3.734   4.485
    1C        C  262   4.422   3.940   4.603
    1C        C  263   4.469   3.807   4.605
    1C        C  264   4.395   4.009   4.723
    1C        C  265   4.431   3.945   4.844
    1C        C  266   4.311   4.128   4.963
    1C        C  267   4.389   4.013   4.959
    1C        C  268   4.264   2.773   2.065
    1C        C  269   4.196   2.731   2.181
    1C        C  270   4.347   2.886   2.301
    1C        C  271   4.250   2.782   2.301
    1C        C  272   4.383   2.950   2.422
    1C        C  273   4.339   2.893   2.543
    1C        C  274   4.446   3.080   2.662
    1C        C  275   4.380   2.956   2.663
    1C        C  276   4.474   3.151   2.781
    1C        C  277   4.446   3.086   2.903
    1C        C  278   4.503   3.291   3.026
    1C        C  279   4.470   3.154   3.025
    1C        C  280   4.511   3.364   3.147
    1C        C  281   4.498   3.296   3.270
    1C        C  282   4.512   3.511   3.391
    1C        C  283   4.508   3.370   3.390
    1C        C  284   4.510   3.584   3.513
    1C        C  285   4.507   3.515   3.636
    1C        C  286   4.499   3.729   3.752
    1C        C  287   4.513   3.588   3.757
    1C        C  288   4.477   3.795   3.874
    1C        C  289   4.494   3.728   3.997
    1C        C  290   4.423   3.932   4.117
    1C        C  291   4.475   3.800   4.117
    1C        C  292   4.394   3.999   4.238
    1C        C  293   4.423   3.933   4.360
    1C        C  294   4.325   4.125   4.480
    1C        C  295   4.396   4.004   4.479
    1C        C  296   4.283   4.188   4.599
    1C        C  297   4.325   4.133   4.722
    1C        C  298   4.200   4.311   4.841
    1C        C  299   4.284   4.196   4.843
    1C        C  300   4.170   4.403   4.946
    1C        C  301   4.347   2.884   2.062
    1C        C  302   4.466   3.066   2.178
    1C        C  303   4.399   2.939   2.180
    1C        C  304   4.480   3.139   2.299
    1C        C  305   4.453   3.073   2.421
    1C        C  306   4.508   3.283   2.538
    1C        C  307   4.474   3.146   2.541
    1C        C  308   4.508   3.358   2.657
    1C        C  309   4.499   3.291   2.781
    1C        C  310   4.515   3.502   2.900
    1C        C  311   4.514   3.360   2.903
    1C        C  312   4.513   3.574   3.022
    1C        C  313   4.519   3.505   3.145
    1C        C  314   4.480   3.715   3.266
    1C        C  315   4.507   3.576   3.266
    1C        C  316   4.471   3.788   3.387
    1C        C  317   4.491   3.724   3.511
    1C        C  318   4.427   3.930   3.628
    1C        C  319   4.476   3.798   3.630
    1C        C  320   4.395   3.992   3.752
    1C        C  321   4.426   3.927   3.873
    1C        C  322   4.315   4.111   3.992
    1C        C  323   4.393   3.993   3.994
    1C        C  324   4.275   4.172   4.113
    1C        C  325   4.320   4.119   4.237
    1C        C  326   4.185   4.285   4.352
    1C        C  327   4.278   4.179   4.358
    1C        C  328   4.136   4.337   4.473
    1C        C  329   4.188   4.292   4.597
    1C        C  330   4.022   4.428   4.714
    1C        C  331   4.140   4.348   4.717
    1C        C  332   3.970   4.488   4.831
    1C        C  333   4.052   4.480   4.944
    1C        C  334   4.548   3.265   2.065
    1C        C  335   4.529   3.126   2.065
    1C        C  336   4.533   3.348   2.177
    1C        C  337   4.513   3.277   2.297
    1C        C  338   4.528   3.494   2.411
    1C        C  339   4.527   3.352   2.416
    1C        C  340   4.519   3.565   2.532
    1C        C  341   4.514   3.499   2.656
    1C        C  342   4.492   3.711   2.774
    1C        C  343   4.511   3.572   2.778
    1C        C  344   4.478   3.780   2.897
    1C        C  345   4.490   3.714   3.021
    1C        C  346   4.415   3.914   3.139
    1C        C  347   4.463   3.781   3.142
    1C        C  348   4.389   3.980   3.262
    1C        C  349   4.420   3.920   3.385
    1C        C  350   4.319   4.110   3.503
    1C        C  351   4.392   3.990   3.505
    1C        C  352   4.273   4.166   3.625
    1C        C  353   4.315   4.108   3.747
    1C        C  354   4.180   4.271   3.866
    1C        C  355   4.274   4.166   3.869
    1C        C  356   4.124   4.318   3.987
    1C        C  357   4.178   4.275   4.110
    1C        C  358   4.014   4.410   4.232
    1C        C  359   4.133   4.335   4.230
    1C        C  360   3.948   4.442   4.353
    1C        C  361   4.015   4.411   4.473
    1C        C  362   3.824   4.507   4.593
    1C        C  363   3.956   4.457   4.593
    1C        C  364   3.760   4.543   4.713
    1C        C  365   3.838   4.536   4.831
    1C        C  366   3.627   4.594   4.949
    1C        C  367   3.764   4.571   4.945
    1C        C  368   4.512   3.564   2.054
    1C        C  369   4.514   3.488   2.172
    1C        C  370   4.494   3.706   2.286
    1C        C  371   4.514   3.566   2.290
    1C        C  372   4.478   3.775   2.408
    1C        C  373   4.498   3.705   2.529
    1C        C  374   4.425   3.908   2.649
    1C        C  375   4.481   3.778   2.649
    1C        C  376   4.391   3.971   2.771
    1C        C  377   4.422   3.909   2.894
    1C        C  378   4.322   4.099   3.012
    1C        C  379   4.391   3.976   3.015
    1C        C  380   4.273   4.154   3.133
    1C        C  381   4.315   4.101   3.256
    1C        C  382   4.178   4.263   3.377
    1C        C  383   4.275   4.160   3.378
    1C        C  384   4.122   4.311   3.497
    1C        C  385   4.178   4.270   3.620
    1C        C  386   4.005   4.389   3.740
    1C        C  387   4.125   4.315   3.744
    1C        C  388   3.944   4.427   3.862
    1C        C  389   4.007   4.398   3.985
    1C        C  390   3.818   4.488   4.109
    1C        C  391   3.949   4.435   4.108
    1C        C  392   3.751   4.517   4.229
    1C        C  393   3.817   4.496   4.352
    1C        C  394   3.614   4.555   4.473
    1C        C  395   3.753   4.529   4.473
    1C        C  396   3.545   4.569   4.595
    1C        C  397   3.621   4.568   4.714
    1C        C  398   3.407   4.562   4.840
    1C        C  399   3.547   4.581   4.834
    1C        C  400   3.337   4.522   4.954
    1C        C  401   4.499   3.702   2.049
    1C        C  402   4.454   3.915   2.165
    1C        C  403   4.491   3.779   2.166
    1C        C  404   4.414   3.979   2.285
    1C        C  405   4.440   3.911   2.406
    1C        C  406   4.323   4.091   2.528
    1C        C  407   4.400   3.973   2.526
    1C        C  408   4.275   4.148   2.649
    1C        C  409   4.317   4.091   2.771
    1C        C  410   4.175   4.251   2.886
    1C        C  411   4.281   4.158   2.890
    1C        C  412   4.123   4.300   3.008
    1C        C  413   4.174   4.255   3.131
    1C        C  414   4.005   4.379   3.250
    1C        C  415   4.128   4.310   3.253
    1C        C  416   3.943   4.415   3.372
    1C        C  417   4.002   4.386   3.497
    1C        C  418   3.810   4.476   3.621
    1C        C  419   3.939   4.418   3.619
    1C        C  420   3.745   4.502   3.743
    1C        C  421   3.814   4.481   3.865
    1C        C  422   3.610   4.533   3.987
    1C        C  423   3.749   4.510   3.987
    1C        C  424   3.539   4.536   4.109
    1C        C  425   3.611   4.536   4.231
    1C        C  426   3.400   4.556   4.357
    1C        C  427   3.541   4.558   4.352
    1C        C  428   3.329   4.553   4.479
    1C        C  429   3.404   4.561   4.599
    1C        C  430   3.194   4.520   4.724
    1C        C  431   3.332   4.553   4.720
    1C        C  432   3.123   4.494   4.845
    1C        C  433   3.202   4.490   4.961
    1C        C  434   4.383   4.124   2.053
    1C        C  435   4.440   3.996   2.051
    1C        C  436   4.304   4.166   2.165
    1C        C  437   4.340   4.100   2.285
    1C        C  438   4.182   4.246   2.403
    1C        C  439   4.285   4.149   2.405
    1C        C  440   4.123   4.295   2.522
    1C        C  441   4.177   4.250   2.645
    1C        C  442   4.000   4.374   2.765
    1C        C  443   4.118   4.296   2.764
    1C        C  444   3.942   4.411   2.888
    1C        C  445   4.005   4.378   3.010
    1C        C  446   3.812   4.473   3.131
    1C        C  447   3.942   4.418   3.130
    1C        C  448   3.747   4.495   3.255
    1C        C  449   3.814   4.472   3.378
    1C        C  450   3.606   4.527   3.497
    1C        C  451   3.744   4.499   3.498
    1C        C  452   3.538   4.539   3.620
    1C        C  453   3.607   4.533   3.743
    1C        C  454   3.397   4.545   3.866
    1C        C  455   3.538   4.543   3.866
    1C        C  456   3.329   4.536   3.989
    1C        C  457   3.398   4.539   4.113
    1C        C  458   3.192   4.505   4.237
    1C        C  459   3.329   4.537   4.237
    1C        C  460   3.123   4.491   4.359
    1C        C  461   3.191   4.521   4.480
    1C        C  462   3.001   4.432   4.605
    1C        C  463   3.126   4.497   4.602
    1C        C  464   2.930   4.404   4.724
    1C        C  465   2.990   4.441   4.848
    1C        C  466   2.801   4.341   4.959
    1C        C  467   2.906   4.434   4.963
    1C        C  468   4.128   4.292   2.041
    1C        C  469   4.188   4.250   2.160
    1C        C  470   4.006   4.367   2.279
    1C        C  471   4.128   4.294   2.282
    1C        C  472   3.941   4.403   2.398
    1C        C  473   4.007   4.375   2.520
    1C        C  474   3.811   4.464   2.642
    1C        C  475   3.941   4.408   2.641
    1C        C  476   3.745   4.489   2.764
    1C        C  477   3.813   4.469   2.887
    1C        C  478   3.605   4.509   3.008
    1C        C  479   3.745   4.491   3.008
    1C        C  480   3.534   4.520   3.130
    1C        C  481   3.608   4.517   3.251
    1C        C  482   3.397   4.526   3.378
    1C        C  483   3.538   4.530   3.373
    1C        C  484   3.325   4.525   3.500
    1C        C  485   3.397   4.540   3.621
    1C        C  486   3.189   4.507   3.746
    1C        C  487   3.327   4.539   3.743
    1C        C  488   3.125   4.478   3.868
    1C        C  489   3.192   4.501   3.991
    1C        C  490   2.998   4.422   4.115
    1C        C  491   3.126   4.481   4.114
    1C        C  492   2.938   4.388   4.239
    1C        C  493   2.995   4.431   4.360
    1C        C  494   2.831   4.302   4.484
    1C        C  495   2.940   4.392   4.484
    1C        C  496   2.773   4.256   4.605
    1C        C  497   2.820   4.315   4.725
    1C        C  498   2.667   4.165   4.846
    1C        C  499   2.753   4.277   4.843
    1C        C  500   2.598   4.116   4.958
    1C        C  501   4.004   4.355   2.039
    1C        C  502   3.815   4.462   2.154
    1C        C  503   3.941   4.399   2.157
    1C        C  504   3.746   4.479   2.276
    1C        C  505   3.810   4.456   2.400
    1C        C  506   3.604   4.513   2.520
    1C        C  507   3.742   4.484   2.521
    1C        C  508   3.535   4.517   2.642
    1C        C  509   3.606   4.510   2.764
    1C        C  510   3.393   4.520   2.885
    1C        C  511   3.534   4.518   2.886
    1C        C  512   3.321   4.519   3.007
    1C        C  513   3.393   4.524   3.129
    1C        C  514   3.190   4.489   3.256
    1C        C  515   3.328   4.518   3.254
    1C        C  516   3.121   4.469   3.378
    1C        C  517   3.188   4.491   3.501
    1C        C  518   2.993   4.420   3.627
    1C        C  519   3.122   4.478   3.625
    1C        C  520   2.936   4.379   3.749
    1C        C  521   3.000   4.413   3.871
    1C        C  522   2.836   4.283   3.996
    1C        C  523   2.939   4.380   3.994
    1C        C  524   2.786   4.238   4.120
    1C        C  525   2.835   4.291   4.242
    1C        C  526   2.704   4.126   4.364
    1C        C  527   2.787   4.241   4.365
    1C        C  528   2.658   4.074   4.487
    1C        C  529   2.689   4.143   4.606
    1C        C  530   2.590   3.959   4.733
    1C        C  531   2.644   4.090   4.729
    1C        C  532   2.544   3.899   4.854
    1C        C  533   2.533   3.993   4.961
    1C        C  534   3.618   4.553   2.039
    1C        C  535   3.751   4.509   2.039
    1C        C  536   3.538   4.536   2.156
    1C        C  537   3.607   4.510   2.278
    1C        C  538   3.392   4.518   2.397
    1C        C  539   3.533   4.522   2.398
    1C        C  540   3.322   4.511   2.520
    1C        C  541   3.393   4.513   2.641
    1C        C  542   3.184   4.482   2.766
    1C        C  543   3.322   4.511   2.764
    1C        C  544   3.115   4.470   2.889
    1C        C  545   3.183   4.491   3.011
    1C        C  546   2.993   4.403   3.135
    1C        C  547   3.120   4.465   3.135
    1C        C  548   2.933   4.373   3.259
    1C        C  549   2.991   4.415   3.381
    1C        C  550   2.829   4.284   3.505
    1C        C  551   2.933   4.379   3.505
    1C        C  552   2.778   4.235   3.628
    1C        C  553   2.830   4.285   3.749
    1C        C  554   2.699   4.124   3.875
    1C        C  555   2.784   4.237   3.873
    1C        C  556   2.661   4.066   3.998
    1C        C  557   2.695   4.130   4.119
    1C        C  558   2.601   3.941   4.246
    1C        C  559   2.666   4.066   4.242
    1C        C  560   2.573   3.876   4.368
    1C        C  561   2.599   3.945   4.489
    1C        C  562   2.531   3.751   4.617
    1C        C  563   2.565   3.888   4.613
    1C        C  564   2.522   3.680   4.739
    1C        C  565   2.522   3.757   4.858
    1C        C  566   2.524   3.542   4.979
    1C        C  567   2.522   3.681   4.975
    1C        C  568   3.327   4.484   2.038
    1C        C  569   3.397   4.517   2.155
    1C        C  570   3.182   4.479   2.280
    1C        C  571   3.322   4.507   2.275
    1C        C  572   3.117   4.453   2.402
    1C        C  573   3.184   4.482   2.523
    1C        C  574   2.984   4.410   2.645
    1C        C  575   3.114   4.466   2.645
    1C        C  576   2.928   4.370   2.768
    1C        C  577   2.989   4.407   2.891
    1C        C  578   2.824   4.274   3.015
    1C        C  579   2.930   4.368   3.013
    1C        C  580   2.778   4.225   3.139
    1C        C  581   2.827   4.280   3.260
    1C        C  582   2.695   4.119   3.386
    1C        C  583   2.781   4.231   3.384
    1C        C  584   2.659   4.060   3.509
    1C        C  585   2.696   4.120   3.631
    1C        C  586   2.593   3.938   3.757
    1C        C  587   2.656   4.064   3.755
    1C        C  588   2.568   3.872   3.880
    1C        C  589   2.601   3.938   4.001
    1C        C  590   2.535   3.738   4.128
    1C        C  591   2.572   3.875   4.124
    1C        C  592   2.524   3.669   4.251
    1C        C  593   2.535   3.740   4.373
    1C        C  594   2.521   3.534   4.497
    1C        C  595   2.528   3.675   4.498
    1C        C  596   2.526   3.463   4.619
    1C        C  597   2.517   3.537   4.738
    1C        C  598   2.527   3.326   4.862
    1C        C  599   2.525   3.467   4.860
    1C        C  600   2.530   3.247   4.978
    1C        C  601   3.195   4.443   2.040
    1C        C  602   2.983   4.397   2.158
    1C        C  603   3.118   4.446   2.157
    1C        C  604   2.925   4.358   2.281
    1C        C  605   2.989   4.394   2.403
    1C        C  606   2.814   4.278   2.527
    1C        C  607   2.923   4.368   2.525
    1C        C  608   2.773   4.223   2.651
    1C        C  609   2.823   4.277   2.772
    1C        C  610   2.687   4.112   2.896
    1C        C  611   2.777   4.221   2.893
    1C        C  612   2.651   4.054   3.020
    1C        C  613   2.690   4.115   3.142
    1C        C  614   2.591   3.931   3.266
    1C        C  615   2.652   4.058   3.265
    1C        C  616   2.570   3.867   3.391
    1C        C  617   2.600   3.931   3.513
    1C        C  618   2.538   3.731   3.640
    1C        C  619   2.575   3.867   3.636
    1C        C  620   2.518   3.664   3.763
    1C        C  621   2.535   3.735   3.884
    1C        C  622   2.515   3.525   4.011
    1C        C  623   2.527   3.666   4.007
    1C        C  624   2.514   3.453   4.133
    1C        C  625   2.516   3.528   4.253
    1C        C  626   2.542   3.320   4.374
    1C        C  627   2.516   3.460   4.377
    1C        C  628   2.559   3.251   4.496
    1C        C  629   2.543   3.322   4.617
    1C        C  630   2.592   3.119   4.743
    1C        C  631   2.551   3.255   4.741
    1C        C  632   2.617   3.050   4.865
    1C        C  633   2.562   3.111   4.982
    1C        C  634   2.783   4.307   2.053
    1C        C  635   2.893   4.394   2.046
    1C        C  636   2.752   4.229   2.164
    1C        C  637   2.811   4.274   2.284
    1C        C  638   2.676   4.112   2.408
    1C        C  639   2.762   4.223   2.407
    1C        C  640   2.640   4.056   2.532
    1C        C  641   2.684   4.113   2.654
    1C        C  642   2.586   3.925   2.776
    1C        C  643   2.642   4.054   2.775
    1C        C  644   2.565   3.859   2.900
    1C        C  645   2.590   3.927   3.021
    1C        C  646   2.531   3.726   3.148
    1C        C  647   2.566   3.863   3.145
    1C        C  648   2.515   3.660   3.272
    1C        C  649   2.531   3.731   3.394
    1C        C  650   2.517   3.522   3.520
    1C        C  651   2.522   3.663   3.517
    1C        C  652   2.515   3.452   3.643
    1C        C  653   2.510   3.523   3.765
    1C        C  654   2.529   3.315   3.889
    1C        C  655   2.509   3.454   3.889
    1C        C  656   2.540   3.243   4.010
    1C        C  657   2.528   3.313   4.133
    1C        C  658   2.584   3.109   4.259
    1C        C  659   2.545   3.244   4.255
    1C        C  660   2.625   3.049   4.381
    1C        C  661   2.603   3.117   4.502
    1C        C  662   2.704   2.933   4.625
    1C        C  663   2.625   3.050   4.625
    1C        C  664   2.751   2.875   4.745
    1C        C  665   2.703   2.936   4.864
    1C        C  666   2.744   2.870   4.981
    1C        C  667   2.672   4.028   2.051
    1C        C  668   2.684   4.105   2.167
    1C        C  669   2.589   3.912   2.293
    1C        C  670   2.647   4.042   2.288
    1C        C  671   2.563   3.851   2.417
    1C        C  672   2.582   3.927   2.534
    1C        C  673   2.527   3.720   2.659
    1C        C  674   2.559   3.858   2.655
    1C        C  675   2.514   3.652   2.782
    1C        C  676   2.530   3.722   2.904
    1C        C  677   2.511   3.513   3.029
    1C        C  678   2.518   3.654   3.027
    1C        C  679   2.517   3.445   3.153
    1C        C  680   2.511   3.519   3.274
    1C        C  681   2.535   3.311   3.399
    1C        C  682   2.515   3.451   3.398
    1C        C  683   2.552   3.243   3.521
    1C        C  684   2.537   3.312   3.644
    1C        C  685   2.606   3.115   3.770
    1C        C  686   2.552   3.246   3.768
    1C        C  687   2.637   3.054   3.894
    1C        C  688   2.597   3.114   4.016
    1C        C  689   2.712   2.938   4.136
    1C        C  690   2.622   3.046   4.138
    1C        C  691   2.760   2.884   4.258
    1C        C  692   2.713   2.938   4.379
    1C        C  693   2.753   2.881   4.502
    1C        C  694   2.627   3.895   2.057
    1C        C  695   2.522   3.706   2.175
    1C        C  696   2.580   3.835   2.175
    1C        C  697   2.507   3.640   2.299
    1C        C  698   2.526   3.714   2.418
    1C        C  699   2.498   3.505   2.542
    1C        C  700   2.510   3.646   2.540
    1C        C  701   2.505   3.436   2.665
    1C        C  702   2.507   3.511   2.785
    1C        C  703   2.529   3.302   2.910
    1C        C  704   2.509   3.441   2.907
    1C        C  705   2.550   3.235   3.033
    1C        C  706   2.536   3.305   3.155
    1C        C  707   2.602   3.107   3.278
    1C        C  708   2.552   3.238   3.278
    1C        C  709   2.635   3.047   3.402
    1C        C  710   2.608   3.113   3.524
    1C        C  711   2.711   2.930   3.650
    1C        C  712   2.643   3.054   3.648
    1C        C  713   2.756   2.875   3.772
    1C        C  714   2.711   2.934   3.892
    1C        C  715   2.756   2.880   4.014
    1C        C  716   2.449   3.502   2.067
    1C        C  717   2.492   3.635   2.058
    1C        C  718   2.470   3.421   2.183
    1C        C  719   2.489   3.499   2.300
    1C        C  720   2.515   3.290   2.426
    1C        C  721   2.489   3.429   2.423
    1C        C  722   2.540   3.223   2.547
    1C        C  723   2.525   3.296   2.667
    1C        C  724   2.586   3.094   2.792
    1C        C  725   2.543   3.229   2.790
    1C        C  726   2.618   3.031   2.914
    1C        C  727   2.596   3.102   3.035
    1C        C  728   2.705   2.920   3.157
    1C        C  729   2.628   3.038   3.157
    1C        C  730   2.747   2.868   3.281
    1C        C  731   2.710   2.927   3.404
    1C        C  732   2.747   2.869   3.528
    1C        C  733   2.500   3.203   2.070
    1C        C  734   2.487   3.279   2.188
    1C        C  735   2.581   3.083   2.306
    1C        C  736   2.524   3.213   2.308
    1C        C  737   2.614   3.019   2.428
    1C        C  738   2.586   3.089   2.547
    1C        C  739   2.696   2.911   2.670
    1C        C  740   2.622   3.031   2.671
    1C        C  741   2.742   2.855   2.791
    1C        C  742   2.700   2.916   2.911
    1C        C  743   2.747   2.865   3.034
    1C        C  744   2.549   3.073   2.070
    1C        C  745   2.689   2.901   2.188
    1C        C  746   2.608   3.017   2.184
    1C        C  747   2.730   2.837   2.307
    1C        C  748   2.687   2.898   2.427
    1C        C  749   2.740   2.851   2.549
    1C        C  750   2.739   2.844   2.071
    1C        C  751   3.673   2.304   2.003
    1C        O  752   3.680   2.188   2.050
    1C        O  753   3.631   2.302   1.869
    1C        C  754   4.608   3.043   1.970
    1C        O  755   4.592   3.049   1.845
    1C        O  756   4.742   3.018   2.000
    1C        C  757   4.467   4.230   1.993
    1C        O  758   4.556   4.286   2.063
    1C        O  759   4.509   4.226   1.859
    1C        C  760   3.593   4.666   1.946
    1C        O  761   3.624   4.786   1.966
    1C        O  762   3.572   4.641   1.809
    1C        C  763   2.880   4.511   1.957
    1C        O  764   2.955   4.551   1.865
    1C        O  765   2.773   4.598   1.983
    1C        C  766   2.328   3.478   1.985
    1C        O  767   2.330   3.481   1.859
    1C        O  768   2.196   3.502   2.026
    1C        C  769   4.701   3.596   5.044
    1C        O  770   4.677   3.596   5.168
    1C        O  771   4.830   3.634   5.002
    1C        C  772   4.274   4.440   5.045
    1C        O  773   4.237   4.459   5.164
    1C        O  774   4.354   4.553   5.023
    1C        C  775   4.151   2.517   5.064
    1C        O  776   4.268   2.498   5.022
    1C        O  777   4.145   2.552   5.200
    1C        C  778   2.892   4.551   5.052
    1C        O  779   2.829   4.657   5.027
    1C        O  780   2.882   4.526   5.189
    1C        C  781   2.463   3.036   5.062
    1C        O  782   2.355   2.993   5.014
    1C        O  783   2.483   3.036   5.200
    1C        C  784   2.413   3.994   5.048
    1C        O  785   2.300   3.997   4.991
    1C        O  786   2.418   4.003   5.187
    1C        C  787   2.961   2.468   1.965
    1C        O  788   3.006   2.451   1.848
    1C        O  789   2.852   2.383   1.974
    1C        C  790   3.192   2.381   5.071
    1C        O  791   3.159   2.263   5.045
    1C        O  792   3.232   2.395   5.205
    1C        H  793   4.343   2.974   5.069
    1C        H  794   4.164   2.821   5.064
    1C        H  795   4.500   3.130   5.062
    1C        H  796   4.528   3.379   5.062
    1C        H  797   4.586   3.818   5.038
    1C        H  798   4.430   3.990   5.055
    1C        H  799   4.239   4.137   5.041
    1C        H  800   4.043   4.563   5.011
    1C        H  801   3.813   4.584   5.039
    1C        H  802   3.589   4.642   5.036
    1C        H  803   3.389   4.519   5.048
    1C        H  804   3.179   4.418   5.037
    1C        H  805   3.877   2.538   5.073
    1C        H  806   3.674   2.496   5.075
    1C        H  807   2.985   2.525   5.043
    1C        H  808   3.442   2.440   5.072
    1C        H  809   2.894   2.761   5.072
    1C        H  810   2.721   2.905   5.080
    1C        H  811   2.485   3.288   5.066
    1C        H  812   2.565   3.496   5.066
    1C        H  813   2.469   3.727   5.056
    1C        H  814   2.597   4.167   5.053
    1C        H  815   2.738   4.335   5.045
    1C        H  816   2.672   2.855   1.988
    1C        H  817   2.792   2.661   1.998
    1C        H  818   3.195   2.394   2.008
    1C        H  819   3.426   2.405   1.984
    1C        H  820   3.883   2.483   1.977
    1C        H  821   4.065   2.616   1.969
    1C        H  822   4.310   2.694   2.010
    1C        H  823   4.332   2.949   1.979
    1C        H  824   4.540   3.305   1.966
    1C        H  825   4.516   3.512   1.961
    1C        H  826   4.531   3.751   1.960
    1C        H  827   3.814   4.551   1.964
    1C        H  828   3.971   4.386   1.942
    1C        H  829   4.195   4.325   1.965
    1C        H  830   4.493   3.974   1.961
    1C        H  831   2.659   3.840   1.971
    1C        H  832   2.697   4.071   1.956
    1C        H  833   2.719   4.304   1.967
    1C        H  834   3.378   4.464   1.947
    1C        H  835   3.158   4.395   1.952
    1C        H  836   2.523   3.007   1.990
    1C        H  837   2.524   3.262   1.984
    1C        H  838   2.480   3.686   1.965
    2V3OU   H29  839   2.808   3.551   3.720
    2V3OU   C27  840   2.797   3.502   3.821
    2V3OU   H27  841   2.738   3.566   3.891
    2V3OU   H28  842   2.747   3.403   3.806
    2V3OU   O11  843   2.919   3.472   3.889
    2V3OU   C15  844   2.924   3.402   4.008
    2V3OU   C13  845   3.053   3.374   4.058
    2V3OU   C14  846   3.078   3.272   4.151
    2V3OU   C16  847   2.979   3.186   4.196
    2V3OU    H6  848   2.996   3.103   4.265
    2V3OU   C12  849   3.215   3.230   4.189
    2V3OU    O2  850   3.234   3.134   4.267
    2V3OU   C10  851   3.328   3.306   4.135
    2V3OU    C8  852   3.458   3.268   4.169
    2V3OU   O10  853   3.488   3.153   4.236
    2V3OU   H26  854   3.402   3.111   4.256
    2V3OU    C6  855   3.565   3.352   4.126
    2V3OU    C5  856   3.537   3.468   4.054
    2V3OU    C4  857   3.703   3.299   4.135
    2V3OU    H4  858   3.726   3.235   4.225
    2V3OU    H5  859   3.715   3.226   4.049
    2V3OU    C2  860   3.816   3.401   4.119
    2V3OU    O6  861   3.806   3.472   4.242
    2V3OU   H21  862   3.755   3.554   4.225
    2V3OU    C3  863   3.782   3.496   4.003
    2V3OU    H2  864   3.861   3.576   3.997
    2V3OU    H3  865   3.782   3.434   3.910
    2V3OU   C25  866   3.950   3.331   4.097
    2V3OU    O7  867   3.996   3.303   3.987
    2V3OU   C26  868   4.026   3.287   4.221
    2V3OU   H22  869   4.070   3.377   4.273
    2V3OU   H23  870   4.112   3.222   4.192
    2V3OU    O8  871   3.960   3.207   4.317
    2V3OU   H24  872   3.926   3.263   4.389
    2V3OU    C1  873   3.648   3.564   4.023
    2V3OU    H1  874   3.622   3.618   3.927
    2V3OU    O3  875   3.661   3.655   4.133
    2V3OU   C19  876   3.620   3.791   4.119
    2V3OU    H9  877   3.526   3.805   4.057
    2V3OU    O4  878   3.712   3.853   4.033
    2V3OU   C20  879   3.844   3.877   4.083
    2V3OU   H10  880   3.890   3.774   4.095
    2V3OU   C24  881   3.615   3.856   4.258
    2V3OU   H16  882   3.552   3.791   4.323
    2V3OU   H17  883   3.563   3.953   4.239
    2V3OU   C23  884   3.754   3.873   4.319
    2V3OU   H15  885   3.797   3.768   4.331
    2V3OU    N1  886   3.733   3.955   4.436
    2V3OU   H19  887   3.807   3.929   4.498
    2V3OU   H20  888   3.646   3.933   4.480
    2V3OU   C21  889   3.846   3.949   4.218
    2V3OU   H11  890   3.952   3.930   4.252
    2V3OU    O5  891   3.828   4.089   4.214
    2V3OU   H18  892   3.768   4.106   4.289
    2V3OU   C22  893   3.918   3.948   3.970
    2V3OU   H12  894   3.869   4.046   3.951
    2V3OU   H13  895   3.911   3.889   3.875
    2V3OU   H14  896   4.027   3.957   3.994
    2V3OU   C11  897   3.162   3.471   4.038
    2V3OU    O1  898   3.146   3.581   3.979
    2V3OU    C9  899   3.300   3.425   4.063
    2V3OU    C7  900   3.404   3.504   4.015
    2V3OU    O9  901   3.389   3.620   3.941
    2V3OU   H25  902   3.292   3.624   3.945
    2V3OU   C17  903   2.826   3.320   4.067
    2V3OU    H7  904   2.729   3.360   4.039
    2V3OU   C18  905   2.849   3.218   4.159
    2V3OU    H8  906   2.789   3.175   4.241
    3SOL     OW  907   2.709   4.337   5.557
    3SOL    HW1  908   2.688   4.366   5.464
    3SOL    HW2  909   2.721   4.418   5.615
    4SOL     OW  910   6.710   6.987   6.679
    4SOL    HW1  911   6.723   6.889   6.664
    4SOL    HW2  912   6.787   0.013   6.639
    5SOL     OW  913   4.593   1.601   2.778
    5SOL    HW1  914   4.524   1.533   2.752
    5SOL    HW2  915   4.558   1.656   2.854
    6SOL     OW  916   4.967   2.461   3.018
    6SOL    HW1  917   4.894   2.394   3.003
    6SOL    HW2  918   5.050   2.430   2.972
    7SOL     OW  919   0.992   4.014   4.059
    7SOL    HW1  920   1.007   3.954   4.138
    7SOL    HW2  921   0.894   4.020   4.039
    8SOL     OW  922   2.939   2.165   5.500
    8SOL    HW1  923   2.989   2.131   5.421
    8SOL    HW2  924   2.861   2.106   5.518
    9SOL     OW  925   6.484   1.625   6.033
    9SOL    HW1  926   6.440   1.608   6.122
    9SOL    HW2  927   6.511   1.538   5.992
   10SOL     OW  928   3.453   4.994   4.048
   10SOL    HW1  929   3.413   5.085   4.035
   10SOL    HW2  930   3.459   4.948   3.960
   11SOL     OW  931   1.713   1.222   6.961
   11SOL    HW1  932   1.672   1.294   7.016
   11SOL    HW2  933   1.651   1.198   6.886
   12SOL     OW  934   2.604   4.676   4.093
   12SOL    HW1  935   2.570   4.666   3.999
   12SOL    HW2  936   2.685   4.734   4.093
   13SOL     OW  937   3.619   6.153   2.831
   13SOL    HW1  938   3.663   6.206   2.758
   13SOL    HW2  939   3.629   6.055   2.812
   14SOL     OW  940   4.278   3.947   6.184
   14SOL    HW1  941   4.283   3.868   6.245
   14SOL    HW2  942   4.370   3.971   6.152
   15SOL     OW  943   0.959   6.741   6.399
   15SOL    HW1  944   0.934   6.668   6.335
   15SOL    HW2  945   0.881   6.802   6.410
   16SOL     OW  946   5.976   2.424   6.114
   16SOL    HW1  947   6.073   2.441   6.097
   16SOL    HW2  948   5.955   2.442   6.210
   17SOL     OW  949   5.170   0.472   6.392
   17SOL    HW1  950   5.092   0.427   6.436
   17SOL    HW2  951   5.252   0.415   6.402
   18SOL     OW  952   4.170   1.265   5.050
   18SOL    HW1  953   4.226   1.283   5.131
   18SOL    HW2  954   4.129   1.351   5.018
   19SOL     OW  955   0.602   2.204   2.402
   19SOL    HW1  956   0.691   2.159   2.409
   19SOL    HW2  957   0.533   2.150   2.449
   20SOL     OW  958   5.415   1.887   5.112
   20SOL    HW1  959   5.389   1.934   5.196
   20SOL    HW2  960   5.401   1.947   5.033
   21SOL     OW  961   2.891   0.449   2.819
   21SOL    HW1  962   2.967   0.403   2.866
   21SOL    HW2  963   2.810   0.391   2.822
   22SOL     OW  964   1.275   6.062   6.370
   22SOL    HW1  965   1.226   6.135   6.418
   22SOL    HW2  966   1.358   6.099   6.328
   23SOL     OW  967   3.975   5.609   2.316
   23SOL    HW1  968   3.880   5.587   2.335
   23SOL    HW2  969   4.035   5.537   2.351
   24SOL     OW  970   3.711   7.013   2.593
   24SOL    HW1  971   3.772   0.034   2.528
   24SOL    HW2  972   3.764   6.953   2.653
   25SOL     OW  973   2.629   6.958   4.169
   25SOL    HW1  974   2.703   6.895   4.146
   25SOL    HW2  975   2.547   6.934   4.117
   26SOL     OW  976   0.459   1.834   0.053
   26SOL    HW1  977   0.540   1.832   0.112
   26SOL    HW2  978   0.484   1.865   6.985
   27SOL     OW  979   1.324   1.428   2.097
   27SOL    HW1  980   1.324   1.427   2.197
   27SOL    HW2  981   1.307   1.522   2.065
   28SOL     OW  982   0.560   1.194   4.550
   28SOL    HW1  983   0.461   1.193   4.565
   28SOL    HW2  984   0.603   1.128   4.611
   29SOL     OW  985   6.342   0.876   1.047
   29SOL    HW1  986   6.366   0.821   1.127
   29SOL    HW2  987   6.393   0.962   1.048
   30SOL     OW  988   3.834   0.436   5.337
   30SOL    HW1  989   3.746   0.436   5.290
   30SOL    HW2  990   3.859   0.343   5.361
   31SOL     OW  991   0.491   2.336   5.595
   31SOL    HW1  992   0.532   2.360   5.683
   31SOL    HW2  993   0.524   2.399   5.525
   32SOL     OW  994   1.436   2.022   2.403
   32SOL    HW1  995   1.495   2.093   2.365
   32SOL    HW2  996   1.492   1.956   2.453
   33SOL     OW  997   0.728   4.152   5.127
   33SOL    HW1  998   0.698   4.065   5.167
   33SOL    HW2  999   0.764   4.211   5.198
   34SOL     OW 1000   2.373   5.874   4.879
   34SOL    HW1 1001   2.426   5.958   4.865
   34SOL    HW2 1002   2.275   5.896   4.875
   35SOL     OW 1003   4.486   1.963   5.524
   35SOL    HW1 1004   4.450   1.870   5.534
   35SOL    HW2 1005   4.458   2.000   5.435
   36SOL     OW 1006   5.066   1.299   3.824
   36SOL    HW1 1007   5.088   1.391   3.793
   36SOL    HW2 1008   5.095   1.287   3.919
   37SOL     OW 1009   2.027   1.517   4.814
   37SOL    HW1 1010   2.123   1.546   4.820
   37SOL    HW2 1011   1.968   1.589   4.849
   38SOL     OW 1012   2.287   4.087   1.791
   38SOL    HW1 1013   2.371   4.034   1.778
   38SOL    HW2 1014   2.213   4.045   1.739
   39SOL     OW 1015   6.491   4.935   6.335
   39SOL    HW1 1016   6.586   4.909   6.354
   39SOL    HW2 1017   6.459   4.885   6.254
   40SOL     OW 1018   3.330   1.427   6.384
   40SOL    HW1 1019   3.324   1.445   6.482
   40SOL    HW2 1020   3.370   1.336   6.369
   41SOL     OW 1021   6.407   3.636   2.566
   41SOL    HW1 1022   6.459   3.720   2.581
   41SOL    HW2 1023   6.309   3.655   2.576
   42SOL     OW 1024   3.327   6.013   4.358
   42SOL    HW1 1025   3.413   6.048   4.394
   42SOL    HW2 1026   3.261   6.088   4.351
   43SOL     OW 1027   4.087   0.155   5.578
   43SOL    HW1 1028   4.089   0.241   5.630
   43SOL    HW2 1029   4.027   0.165   5.499
   44SOL     OW 1030   6.253   2.693   4.758
   44SOL    HW1 1031   6.267   2.722   4.663
   44SOL    HW2 1032   6.311   2.747   4.818
   45SOL     OW 1033   4.102   5.447   1.329
   45SOL    HW1 1034   4.008   5.470   1.351
   45SOL    HW2 1035   4.145   5.524   1.283
   46SOL     OW 1036   0.271   2.733   4.104
   46SOL    HW1 1037   0.241   2.791   4.180
   46SOL    HW2 1038   0.325   2.787   4.040
   47SOL     OW 1039   5.158   3.743   1.280
   47SOL    HW1 1040   5.075   3.723   1.331
   47SOL    HW2 1041   5.152   3.835   1.241
   48SOL     OW 1042   0.068   2.697   6.186
   48SOL    HW1 1043   0.084   2.788   6.224
   48SOL    HW2 1044   0.101   2.628   6.250
   49SOL     OW 1045   5.233   3.045   1.552
   49SOL    HW1 1046   5.282   3.058   1.466
   49SOL    HW2 1047   5.264   2.961   1.597
   50SOL     OW 1048   5.959   1.763   5.219
   50SOL    HW1 1049   5.863   1.790   5.217
   50SOL    HW2 1050   6.001   1.797   5.304
   51SOL     OW 1051   2.260   6.329   2.835
   51SOL    HW1 1052   2.328   6.279   2.888
   51SOL    HW2 1053   2.254   6.289   2.743
   52SOL     OW 1054   5.121   2.680   1.848
   52SOL    HW1 1055   5.061   2.606   1.879
   52SOL    HW2 1056   5.113   2.690   1.749
   53SOL     OW 1057   5.101   0.289   3.577
   53SOL    HW1 1058   5.185   0.262   3.623
   53SOL    HW2 1059   5.099   0.251   3.484
   54SOL     OW 1060   5.627   6.964   0.016
   54SOL    HW1 1061   5.671   6.929   0.099
   54SOL    HW2 1062   5.530   6.981   0.035
   55SOL     OW 1063   2.497   2.301   5.456
   55SOL    HW1 1064   2.529   2.376   5.398
   55SOL    HW2 1065   2.573   2.265   5.509
   56SOL     OW 1066   1.197   1.896   1.228
   56SOL    HW1 1067   1.208   1.811   1.279
   56SOL    HW2 1068   1.181   1.972   1.291
   57SOL     OW 1069   3.727   1.421   6.970
   57SOL    HW1 1070   3.787   1.465   6.903
   57SOL    HW2 1071   3.782   1.359   0.004
   58SOL     OW 1072   0.637   0.051   5.932
   58SOL    HW1 1073   0.576   0.086   5.861
   58SOL    HW2 1074   0.659   0.125   5.996
   59SOL     OW 1075   6.421   3.730   6.144
   59SOL    HW1 1076   6.365   3.673   6.205
   59SOL    HW2 1077   6.369   3.753   6.062
   60SOL     OW 1078   5.321   1.974   3.725
   60SOL    HW1 1079   5.362   1.981   3.817
   60SOL    HW2 1080   5.223   1.989   3.731
   61SOL     OW 1081   6.789   0.961   4.349
   61SOL    HW1 1082   6.813   0.864   4.352
   61SOL    HW2 1083   6.697   0.970   4.309
   62SOL     OW 1084   1.924   1.398   1.516
   62SOL    HW1 1085   1.924   1.482   1.461
   62SOL    HW2 1086   2.012   1.387   1.562
   63SOL     OW 1087   3.906   0.365   4.200
   63SOL    HW1 1088   3.971   0.426   4.154
   63SOL    HW2 1089   3.865   0.414   4.277
   64SOL     OW 1090   0.688   3.475   6.685
   64SOL    HW1 1091   0.783   3.489   6.657
   64SOL    HW2 1092   0.627   3.520   6.621
   65SOL     OW 1093   1.409   6.395   5.681
   65SOL    HW1 1094   1.329   6.338   5.700
   65SOL    HW2 1095   1.378   6.487   5.655
   66SOL     OW 1096   3.543   0.318   3.129
   66SOL    HW1 1097   3.542   0.219   3.144
   66SOL    HW2 1098   3.637   0.348   3.110
   67SOL     OW 1099   0.237   3.085   6.099
   67SOL    HW1 1100   0.170   3.100   6.172
   67SOL    HW2 1101   0.297   3.165   6.092
   68SOL     OW 1102   6.788   1.447   6.065
   68SOL    HW1 1103   6.793   1.369   6.128
   68SOL    HW2 1104   6.744   1.419   5.980
   69SOL     OW 1105   1.891   3.134   5.975
   69SOL    HW1 1106   1.963   3.201   5.991
   69SOL    HW2 1107   1.932   3.043   5.966
   70SOL     OW 1108   5.418   4.989   4.861
   70SOL    HW1 1109   5.509   4.961   4.830
   70SOL    HW2 1110   5.355   4.987   4.784
   71SOL     OW 1111   4.836   1.566   3.528
   71SOL    HW1 1112   4.906   1.637   3.525
   71SOL    HW2 1113   4.762   1.590   3.465
   72SOL     OW 1114   0.437   1.042   3.074
   72SOL    HW1 1115   0.351   1.092   3.066
   72SOL    HW2 1116   0.434   0.982   3.154
   73SOL     OW 1117   2.873   0.151   0.885
   73SOL    HW1 1118   2.815   0.168   0.806
   73SOL    HW2 1119   2.854   0.060   0.922
   74SOL     OW 1120   2.479   1.577   6.759
   74SOL    HW1 1121   2.460   1.488   6.719
   74SOL    HW2 1122   2.398   1.611   6.806
   75SOL     OW 1123   3.468   1.110   1.765
   75SOL    HW1 1124   3.533   1.046   1.807
   75SOL    HW2 1125   3.479   1.200   1.805
   76SOL     OW 1126   1.833   4.053   5.972
   76SOL    HW1 1127   1.791   3.986   6.033
   76SOL    HW2 1128   1.778   4.136   5.970
   77SOL     OW 1129   2.349   5.740   3.541
   77SOL    HW1 1130   2.333   5.671   3.611
   77SOL    HW2 1131   2.396   5.699   3.463
   78SOL     OW 1132   4.230   1.393   0.866
   78SOL    HW1 1133   4.136   1.427   0.863
   78SOL    HW2 1134   4.232   1.308   0.918
   79SOL     OW 1135   2.322   5.870   1.995
   79SOL    HW1 1136   2.325   5.807   1.918
   79SOL    HW2 1137   2.374   5.952   1.974
   80SOL     OW 1138   4.670   1.908   4.700
   80SOL    HW1 1139   4.739   1.958   4.753
   80SOL    HW2 1140   4.671   1.811   4.726
   81SOL     OW 1141   1.790   0.109   0.619
   81SOL    HW1 1142   1.836   0.021   0.612
   81SOL    HW2 1143   1.781   0.149   0.528
   82SOL     OW 1144   0.514   6.137   1.681
   82SOL    HW1 1145   0.525   6.109   1.586
   82SOL    HW2 1146   0.530   6.235   1.690
   83SOL     OW 1147   0.138   1.529   6.108
   83SOL    HW1 1148   0.179   1.460   6.167
   83SOL    HW2 1149   0.095   1.485   6.029
   84SOL     OW 1150   6.461   3.899   2.885
   84SOL    HW1 1151   6.470   3.886   2.786
   84SOL    HW2 1152   6.552   3.900   2.927
   85SOL     OW 1153   1.887   0.200   3.389
   85SOL    HW1 1154   1.844   0.287   3.367
   85SOL    HW2 1155   1.912   0.153   3.303
   86SOL     OW 1156   6.672   1.036   6.516
   86SOL    HW1 1157   6.616   0.987   6.582
   86SOL    HW2 1158   6.664   1.135   6.532
   87SOL     OW 1159   3.870   3.847   0.816
   87SOL    HW1 1160   3.931   3.925   0.802
   87SOL    HW2 1161   3.906   3.789   0.889
   88SOL     OW 1162   3.216   1.978   6.335
   88SOL    HW1 1163   3.135   1.996   6.391
   88SOL    HW2 1164   3.284   2.050   6.349
   89SOL     OW 1165   3.323   3.675   1.002
   89SOL    HW1 1166   3.255   3.654   0.933
   89SOL    HW2 1167   3.414   3.651   0.968
   90SOL     OW 1168   4.625   4.715   2.240
   90SOL    HW1 1169   4.555   4.644   2.231
   90SOL    HW2 1170   4.585   4.796   2.284
   91SOL     OW 1171   5.906   5.302   6.322
   91SOL    HW1 1172   5.854   5.339   6.245
   91SOL    HW2 1173   6.003   5.319   6.307
   92SOL     OW 1174   5.585   3.875   1.202
   92SOL    HW1 1175   5.587   3.907   1.107
   92SOL    HW2 1176   5.677   3.878   1.240
   93SOL     OW 1177   3.073   3.683   0.273
   93SOL    HW1 1178   2.976   3.668   0.253
   93SOL    HW2 1179   3.099   3.776   0.246
   94SOL     OW 1180   2.484   6.027   0.759
   94SOL    HW1 1181   2.433   6.108   0.788
   94SOL    HW2 1182   2.437   5.945   0.794
   95SOL     OW 1183   1.333   1.068   3.387
   95SOL    HW1 1184   1.397   1.091   3.314
   95SOL    HW2 1185   1.376   1.005   3.451
   96SOL     OW 1186   4.481   5.780   6.789
   96SOL    HW1 1187   4.442   5.834   6.714
   96SOL    HW2 1188   4.565   5.824   6.821
   97SOL     OW 1189   1.959   4.126   4.987
   97SOL    HW1 1190   1.960   4.147   4.889
   97SOL    HW2 1191   2.049   4.092   5.015
   98SOL     OW 1192   0.784   2.412   1.070
   98SOL    HW1 1193   0.712   2.398   1.138
   98SOL    HW2 1194   0.743   2.435   0.981
   99SOL     OW 1195   3.787   4.068   2.944
   99SOL    HW1 1196   3.810   3.999   3.013
   99SOL    HW2 1197   3.831   4.154   2.968
  100SOL     OW 1198   6.390   7.008   4.313
  100SOL    HW1 1199   6.371   6.970   4.403
  100SOL    HW2 1200   6.330   0.063   4.296
  101SOL     OW 1201   0.543   5.353   2.213
  101SOL    HW1 1202   0.611   5.409   2.164
  101SOL    HW2 1203   0.503   5.407   2.287
  102SOL     OW 1204   3.193   5.981   2.421
  102SOL    HW1 1205   3.279   5.957   2.466
  102SOL    HW2 1206   3.180   5.923   2.340
  103SOL     OW 1207   1.749   1.900   2.203
  103SOL    HW1 1208   1.770   1.996   2.218
  103SOL    HW2 1209   1.654   1.890   2.175
  104SOL     OW 1210   1.547   5.050   2.372
  104SOL    HW1 1211   1.639   5.018   2.391
  104SOL    HW2 1212   1.483   4.973   2.375
  105SOL     OW 1213   5.179   1.771   6.155
  105SOL    HW1 1214   5.170   1.796   6.251
  105SOL    HW2 1215   5.237   1.691   6.146
  106SOL     OW 1216   4.609   4.998   1.885
  106SOL    HW1 1217   4.648   5.074   1.938
  106SOL    HW2 1218   4.620   4.913   1.937
  107SOL     OW 1219   6.219   0.617   6.913
  107SOL    HW1 1220   6.254   0.623   7.007
  107SOL    HW2 1221   6.285   0.659   6.851
  108SOL     OW 1222   3.290   6.828   5.346
  108SOL    HW1 1223   3.364   6.896   5.350
  108SOL    HW2 1224   3.225   6.845   5.419
  109SOL     OW 1225   3.073   0.685   2.352
  109SOL    HW1 1226   3.141   0.759   2.357
  109SOL    HW2 1227   3.046   0.659   2.444
  110SOL     OW 1228   2.685   5.329   4.877
  110SOL    HW1 1229   2.586   5.324   4.883
  110SOL    HW2 1230   2.726   5.293   4.960
  111SOL     OW 1231   0.708   1.547   2.599
  111SOL    HW1 1232   0.800   1.560   2.563
  111SOL    HW2 1233   0.656   1.631   2.589
  112SOL     OW 1234   5.120   6.649   6.528
  112SOL    HW1 1235   5.067   6.715   6.475
  112SOL    HW2 1236   5.204   6.692   6.562
  113SOL     OW 1237   0.205   5.967   2.489
  113SOL    HW1 1238   0.154   5.889   2.455
  113SOL    HW2 1239   0.210   5.963   2.589
  114SOL     OW 1240   1.094   5.336   2.349
  114SOL    HW1 1241   1.059   5.318   2.441
  114SOL    HW2 1242   1.162   5.267   2.325
  115SOL     OW 1243   5.804   0.889   3.527
  115SOL    HW1 1244   5.762   0.820   3.468
  115SOL    HW2 1245   5.755   0.975   3.518
  116SOL     OW 1246   0.252   6.253   1.384
  116SOL    HW1 1247   0.225   6.189   1.457
  116SOL    HW2 1248   0.188   6.329   1.382
  117SOL     OW 1249   2.319   0.617   0.374
  117SOL    HW1 1250   2.368   0.698   0.405
  117SOL    HW2 1251   2.308   0.553   0.450
  118SOL     OW 1252   1.478   1.554   3.724
  118SOL    HW1 1253   1.492   1.471   3.778
  118SOL    HW2 1254   1.397   1.603   3.759
  119SOL     OW 1255   0.192   6.678   6.509
  119SOL    HW1 1256   0.169   6.589   6.470
  119SOL    HW2 1257   0.291   6.693   6.500
  120SOL     OW 1258   4.443   0.619   4.775
  120SOL    HW1 1259   4.523   0.676   4.790
  120SOL    HW2 1260   4.441   0.589   4.679
  121SOL     OW 1261   1.936   3.731   0.098
  121SOL    HW1 1262   1.985   3.816   0.119
  121SOL    HW2 1263   1.848   3.730   0.145
  122SOL     OW 1264   1.829   3.545   0.335
  122SOL    HW1 1265   1.902   3.477   0.337
  122SOL    HW2 1266   1.743   3.501   0.310
  123SOL     OW 1267   1.074   0.969   1.663
  123SOL    HW1 1268   1.054   0.871   1.669
  123SOL    HW2 1269   1.009   1.020   1.720
  124SOL     OW 1270   3.249   1.880   0.505
  124SOL    HW1 1271   3.314   1.871   0.580
  124SOL    HW2 1272   3.225   1.976   0.493
  125SOL     OW 1273   3.632   2.789   0.383
  125SOL    HW1 1274   3.554   2.848   0.404
  125SOL    HW2 1275   3.691   2.781   0.463
  126SOL     OW 1276   3.333   3.300   3.284
  126SOL    HW1 1277   3.335   3.330   3.189
  126SOL    HW2 1278   3.338   3.201   3.289
  127SOL     OW 1279   6.785   6.564   6.055
  127SOL    HW1 1280   6.695   6.571   6.098
  127SOL    HW2 1281   6.776   6.575   5.956
  128SOL     OW 1282   5.118   3.164   2.568
  128SOL    HW1 1283   5.119   3.172   2.668
  128SOL    HW2 1284   5.170   3.239   2.528
  129SOL     OW 1285   3.072   4.313   0.856
  129SOL    HW1 1286   3.144   4.365   0.810
  129SOL    HW2 1287   3.025   4.372   0.922
  130SOL     OW 1288   6.376   0.866   4.876
  130SOL    HW1 1289   6.296   0.925   4.885
  130SOL    HW2 1290   6.361   0.781   4.927
  131SOL     OW 1291   5.738   0.795   4.588
  131SOL    HW1 1292   5.764   0.701   4.566
  131SOL    HW2 1293   5.717   0.802   4.686
  132SOL     OW 1294   3.805   3.439   1.458
  132SOL    HW1 1295   3.758   3.490   1.530
  132SOL    HW2 1296   3.781   3.343   1.464
  133SOL     OW 1297   5.440   1.328   3.248
  133SOL    HW1 1298   5.347   1.334   3.283
  133SOL    HW2 1299   5.476   1.236   3.260
  134SOL     OW 1300   0.496   0.796   2.618
  134SOL    HW1 1301   0.586   0.765   2.588
  134SOL    HW2 1302   0.502   0.834   2.710
  135SOL     OW 1303   4.981   3.345   4.179
  135SOL    HW1 1304   5.075   3.350   4.211
  135SOL    HW2 1305   4.945   3.253   4.194
  136SOL     OW 1306   2.515   6.460   4.252
  136SOL    HW1 1307   2.582   6.489   4.183
  136SOL    HW2 1308   2.437   6.418   4.206
  137SOL     OW 1309   4.339   1.154   4.303
  137SOL    HW1 1310   4.332   1.147   4.402
  137SOL    HW2 1311   4.255   1.120   4.261
  138SOL     OW 1312   0.795   4.864   3.360
  138SOL    HW1 1313   0.784   4.962   3.346
  138SOL    HW2 1314   0.719   4.815   3.318
  139SOL     OW 1315   2.344   5.376   6.669
  139SOL    HW1 1316   2.353   5.378   6.769
  139SOL    HW2 1317   2.346   5.470   6.634
  140SOL     OW 1318   1.870   6.402   2.746
  140SOL    HW1 1319   1.775   6.395   2.717
  140SOL    HW2 1320   1.930   6.364   2.675
  141SOL     OW 1321   6.707   3.583   6.403
  141SOL    HW1 1322   6.634   3.586   6.471
  141SOL    HW2 1323   6.786   3.634   6.437
  142SOL     OW 1324   2.249   3.810   1.505
  142SOL    HW1 1325   2.320   3.784   1.570
  142SOL    HW2 1326   2.205   3.895   1.536
  143SOL     OW 1327   5.876   6.130   0.970
  143SOL    HW1 1328   5.788   6.179   0.977
  143SOL    HW2 1329   5.901   6.094   1.060
  144SOL     OW 1330   3.117   4.889   4.095
  144SOL    HW1 1331   3.118   4.943   4.180
  144SOL    HW2 1332   3.181   4.929   4.029
  145SOL     OW 1333   1.282   5.149   2.296
  145SOL    HW1 1334   1.375   5.112   2.294
  145SOL    HW2 1335   1.220   5.081   2.335
  146SOL     OW 1336   5.388   0.634   5.548
  146SOL    HW1 1337   5.342   0.632   5.459
  146SOL    HW2 1338   5.401   0.729   5.576
  147SOL     OW 1339   5.142   1.337   4.722
  147SOL    HW1 1340   5.156   1.426   4.678
  147SOL    HW2 1341   5.229   1.289   4.729
  148SOL     OW 1342   1.393   5.138   1.594
  148SOL    HW1 1343   1.365   5.050   1.557
  148SOL    HW2 1344   1.374   5.210   1.527
  149SOL     OW 1345   3.086   2.143   5.278
  149SOL    HW1 1346   3.128   2.192   5.201
  149SOL    HW2 1347   3.156   2.122   5.346
  150SOL     OW 1348   4.515   0.781   6.210
  150SOL    HW1 1349   4.574   0.860   6.191
  150SOL    HW2 1350   4.570   0.709   6.253
  151SOL     OW 1351   4.122   0.636   1.554
  151SOL    HW1 1352   4.164   0.705   1.495
  151SOL    HW2 1353   4.150   0.545   1.525
  152SOL     OW 1354   6.966   1.360   0.579
  152SOL    HW1 1355   6.937   1.411   0.660
  152SOL    HW2 1356   6.981   1.264   0.603
  153SOL     OW 1357   2.578   0.508   3.504
  153SOL    HW1 1358   2.501   0.445   3.509
  153SOL    HW2 1359   2.647   0.472   3.441
  154SOL     OW 1360   6.594   2.312   0.088
  154SOL    HW1 1361   6.641   2.316   0.176
  154SOL    HW2 1362   6.495   2.313   0.103
  155SOL     OW 1363   0.744   7.021   2.006
  155SOL    HW1 1364   0.841   7.013   1.986
  155SOL    HW2 1365   0.696   0.031   1.925
  156SOL     OW 1366   6.241   1.672   0.296
  156SOL    HW1 1367   6.177   1.741   0.327
  156SOL    HW2 1368   6.334   1.697   0.324
  157SOL     OW 1369   5.876   2.952   6.826
  157SOL    HW1 1370   5.965   2.997   6.834
  157SOL    HW2 1371   5.806   3.007   6.870
  158SOL     OW 1372   1.554   2.559   1.699
  158SOL    HW1 1373   1.514   2.644   1.732
  158SOL    HW2 1374   1.652   2.557   1.720
  159SOL     OW 1375   4.488   4.372   1.187
  159SOL    HW1 1376   4.465   4.279   1.157
  159SOL    HW2 1377   4.449   4.438   1.123
  160SOL     OW 1378   6.625   0.304   1.674
  160SOL    HW1 1379   6.669   0.277   1.588
  160SOL    HW2 1380   6.549   0.367   1.654
  161SOL     OW 1381   1.042   6.796   1.327
  161SOL    HW1 1382   1.048   6.854   1.246
  161SOL    HW2 1383   1.108   6.721   1.319
  162SOL     OW 1384   2.649   6.658   0.254
  162SOL    HW1 1385   2.646   6.563   0.225
  162SOL    HW2 1386   2.740   6.696   0.237
  163SOL     OW 1387   0.380   5.256   3.179
  163SOL    HW1 1388   0.368   5.345   3.136
  163SOL    HW2 1389   0.332   5.186   3.126
  164SOL     OW 1390   0.715   1.891   2.657
  164SOL    HW1 1391   0.743   1.919   2.566
  164SOL    HW2 1392   0.726   1.968   2.721
  165SOL     OW 1393   6.291   5.779   1.573
  165SOL    HW1 1394   6.247   5.726   1.501
  165SOL    HW2 1395   6.389   5.783   1.555
  166SOL     OW 1396   6.700   3.513   1.536
  166SOL    HW1 1397   6.719   3.426   1.490
  166SOL    HW2 1398   6.682   3.496   1.633
  167SOL     OW 1399   5.585   1.727   6.746
  167SOL    HW1 1400   5.489   1.700   6.731
  167SOL    HW2 1401   5.587   1.811   6.800
  168SOL     OW 1402   3.996   2.268   1.511
  168SOL    HW1 1403   4.002   2.211   1.592
  168SOL    HW2 1404   3.899   2.286   1.490
  169SOL     OW 1405   6.080   3.355   6.852
  169SOL    HW1 1406   6.049   3.351   6.758
  169SOL    HW2 1407   6.163   3.411   6.858
  170SOL     OW 1408   6.903   5.699   3.286
  170SOL    HW1 1409   6.838   5.692   3.362
  170SOL    HW2 1410   6.899   5.792   3.248
  171SOL     OW 1411   1.766   3.598   6.665
  171SOL    HW1 1412   1.682   3.588   6.612
  171SOL    HW2 1413   1.812   3.509   6.672
  172SOL     OW 1414   6.441   2.639   2.277
  172SOL    HW1 1415   6.455   2.736   2.261
  172SOL    HW2 1416   6.344   2.621   2.292
  173SOL     OW 1417   5.701   1.449   4.269
  173SOL    HW1 1418   5.777   1.408   4.319
  173SOL    HW2 1419   5.634   1.379   4.247
  174SOL     OW 1420   5.398   5.402   4.659
  174SOL    HW1 1421   5.437   5.328   4.604
  174SOL    HW2 1422   5.300   5.386   4.672
  175SOL     OW 1423   2.930   0.384   1.290
  175SOL    HW1 1424   2.947   0.294   1.329
  175SOL    HW2 1425   2.913   0.374   1.192
  176SOL     OW 1426   4.897   4.421   3.528
  176SOL    HW1 1427   4.858   4.333   3.554
  176SOL    HW2 1428   4.980   4.406   3.473
  177SOL     OW 1429   5.376   2.542   5.220
  177SOL    HW1 1430   5.405   2.505   5.309
  177SOL    HW2 1431   5.447   2.602   5.184
  178SOL     OW 1432   3.188   4.925   4.431
  178SOL    HW1 1433   3.262   4.862   4.455
  178SOL    HW2 1434   3.209   5.016   4.465
  179SOL     OW 1435   4.174   6.484   0.056
  179SOL    HW1 1436   4.242   6.532   0.111
  179SOL    HW2 1437   4.141   6.404   0.107
  180SOL     OW 1438   2.348   6.599   6.945
  180SOL    HW1 1439   2.328   6.597   0.019
  180SOL    HW2 1440   2.421   6.533   6.925
  181SOL     OW 1441   3.415   2.465   5.857
  181SOL    HW1 1442   3.395   2.439   5.951
  181SOL    HW2 1443   3.514   2.467   5.843
  182SOL     OW 1444   4.884   3.183   6.730
  182SOL    HW1 1445   4.831   3.192   6.814
  182SOL    HW2 1446   4.938   3.266   6.716
  183SOL     OW 1447   4.037   2.171   3.580
  183SOL    HW1 1448   3.954   2.128   3.544
  183SOL    HW2 1449   4.047   2.262   3.541
  184SOL     OW 1450   0.837   6.805   3.331
  184SOL    HW1 1451   0.906   6.736   3.314
  184SOL    HW2 1452   0.769   6.769   3.395
  185SOL     OW 1453   1.177   1.393   3.736
  185SOL    HW1 1454   1.226   1.308   3.751
  185SOL    HW2 1455   1.106   1.380   3.667
  186SOL     OW 1456   5.781   6.683   4.326
  186SOL    HW1 1457   5.848   6.670   4.253
  186SOL    HW2 1458   5.726   6.764   4.307
  187SOL     OW 1459   4.611   6.168   2.319
  187SOL    HW1 1460   4.583   6.264   2.309
  187SOL    HW2 1461   4.594   6.120   2.233
  188SOL     OW 1462   1.048   2.072   3.213
  188SOL    HW1 1463   1.047   2.168   3.184
  188SOL    HW2 1464   0.989   2.019   3.152
  189SOL     OW 1465   0.125   4.693   6.549
  189SOL    HW1 1466   0.027   4.674   6.548
  189SOL    HW2 1467   0.147   4.757   6.475
  190SOL     OW 1468   5.624   4.796   7.008
  190SOL    HW1 1469   5.592   4.840   6.924
  190SOL    HW2 1470   5.716   4.829   0.006
  191SOL     OW 1471   6.548   1.328   5.572
  191SOL    HW1 1472   6.640   1.368   5.565
  191SOL    HW2 1473   6.502   1.334   5.484
  192SOL     OW 1474   0.537   4.679   1.624
  192SOL    HW1 1475   0.593   4.604   1.589
  192SOL    HW2 1476   0.508   4.737   1.548
  193SOL     OW 1477   5.065   4.625   5.346
  193SOL    HW1 1478   4.994   4.602   5.413
  193SOL    HW2 1479   5.102   4.542   5.306
  194SOL     OW 1480   4.176   6.871   1.945
  194SOL    HW1 1481   4.254   6.913   1.898
  194SOL    HW2 1482   4.181   6.893   2.043
  195SOL     OW 1483   2.225   0.505   3.873
  195SOL    HW1 1484   2.157   0.560   3.825
  195SOL    HW2 1485   2.314   0.550   3.867
  196SOL     OW 1486   3.413   6.875   6.901
  196SOL    HW1 1487   3.419   6.779   6.927
  196SOL    HW2 1488   3.500   6.905   6.863
  197SOL     OW 1489   3.225   5.707   6.878
  197SOL    HW1 1490   3.216   5.807   6.884
  197SOL    HW2 1491   3.160   5.672   6.810
  198SOL     OW 1492   4.696   6.549   0.733
  198SOL    HW1 1493   4.775   6.608   0.718
  198SOL    HW2 1494   4.725   6.466   0.782
  199SOL     OW 1495   6.407   1.096   2.861
  199SOL    HW1 1496   6.413   1.002   2.826
  199SOL    HW2 1497   6.337   1.100   2.932
  200SOL     OW 1498   0.724   3.523   2.625
  200SOL    HW1 1499   0.624   3.510   2.623
  200SOL    HW2 1500   0.759   3.493   2.714
  201SOL     OW 1501   3.174   6.554   5.802
  201SOL    HW1 1502   3.271   6.529   5.805
  201SOL    HW2 1503   3.123   6.498   5.866
  202SOL     OW 1504   5.050   0.614   5.327
  202SOL    HW1 1505   5.072   0.708   5.302
  202SOL    HW2 1506   4.951   0.603   5.332
  203SOL     OW 1507   4.857   2.367   5.117
  203SOL    HW1 1508   4.855   2.385   5.018
  203SOL    HW2 1509   4.951   2.370   5.150
  204SOL     OW 1510   0.675   6.917   6.885
  204SOL    HW1 1511   0.770   6.885   6.887
  204SOL    HW2 1512   0.626   6.881   6.964
  205SOL     OW 1513   0.851   1.248   1.719
  205SOL    HW1 1514   0.753   1.251   1.698
  205SOL    HW2 1515   0.868   1.185   1.794
  206SOL     OW 1516   0.526   4.818   2.196
  206SOL    HW1 1517   0.598   4.819   2.127
  206SOL    HW2 1518   0.539   4.894   2.260
  207SOL     OW 1519   3.844   0.707   5.406
  207SOL    HW1 1520   3.828   0.701   5.308
  207SOL    HW2 1521   3.865   0.616   5.442
  208SOL     OW 1522   5.272   4.062   5.569
  208SOL    HW1 1523   5.347   4.089   5.630
  208SOL    HW2 1524   5.304   4.064   5.474
  209SOL     OW 1525   0.896   5.646   5.755
  209SOL    HW1 1526   0.961   5.585   5.801
  209SOL    HW2 1527   0.819   5.664   5.816
  210SOL     OW 1528   4.089   2.243   2.442
  210SOL    HW1 1529   4.024   2.188   2.495
  210SOL    HW2 1530   4.089   2.212   2.347
  211SOL     OW 1531   0.753   6.121   3.474
  211SOL    HW1 1532   0.831   6.135   3.412
  211SOL    HW2 1533   0.785   6.082   3.560
  212SOL     OW 1534   1.522   4.392   1.942
  212SOL    HW1 1535   1.530   4.470   2.004
  212SOL    HW2 1536   1.601   4.390   1.880
  213SOL     OW 1537   4.065   1.110   6.888
  213SOL    HW1 1538   3.996   1.082   6.822
  213SOL    HW2 1539   4.024   1.116   6.979
  214SOL     OW 1540   2.428   5.883   2.441
  214SOL    HW1 1541   2.393   5.920   2.356
  214SOL    HW2 1542   2.460   5.957   2.500
  215SOL     OW 1543   3.377   4.102   2.073
  215SOL    HW1 1544   3.413   4.184   2.116
  215SOL    HW2 1545   3.289   4.078   2.114
  216SOL     OW 1546   1.465   6.854   4.554
  216SOL    HW1 1547   1.433   6.765   4.523
  216SOL    HW2 1548   1.476   6.853   4.653
  217SOL     OW 1549   2.024   2.717   4.842
  217SOL    HW1 1550   2.001   2.797   4.898
  217SOL    HW2 1551   2.123   2.706   4.839
  218SOL     OW 1552   1.296   2.737   5.106
  218SOL    HW1 1553   1.320   2.783   5.021
  218SOL    HW2 1554   1.373   2.683   5.138
  219SOL     OW 1555   3.737   4.947   5.727
  219SOL    HW1 1556   3.820   4.934   5.782
  219SOL    HW2 1557   3.670   4.877   5.750
  220SOL     OW 1558   3.345   5.109   6.896
  220SOL    HW1 1559   3.415   5.039   6.892
  220SOL    HW2 1560   3.387   5.199   6.885
  221SOL     OW 1561   5.915   4.034   2.502
  221SOL    HW1 1562   5.946   4.107   2.440
  221SOL    HW2 1563   5.820   4.012   2.483
  222SOL     OW 1564   1.842   4.851   5.655
  222SOL    HW1 1565   1.913   4.785   5.629
  222SOL    HW2 1566   1.754   4.823   5.615
  223SOL     OW 1567   0.549   3.243   0.667
  223SOL    HW1 1568   0.612   3.301   0.615
  223SOL    HW2 1569   0.559   3.148   0.637
  224SOL     OW 1570   2.916   2.215   3.731
  224SOL    HW1 1571   2.817   2.203   3.736
  224SOL    HW2 1572   2.939   2.312   3.730
  225SOL     OW 1573   5.302   1.173   6.477
  225SOL    HW1 1574   5.324   1.128   6.564
  225SOL    HW2 1575   5.312   1.272   6.487
  226SOL     OW 1576   0.839   6.431   6.747
  226SOL    HW1 1577   0.867   6.524   6.772
  226SOL    HW2 1578   0.740   6.426   6.740
  227SOL     OW 1579   1.075   4.442   2.642
  227SOL    HW1 1580   1.049   4.482   2.730
  227SOL    HW2 1581   1.139   4.502   2.595
  228SOL     OW 1582   2.871   0.149   3.764
  228SOL    HW1 1583   2.815   0.143   3.682
  228SOL    HW2 1584   2.821   0.110   3.841
  229SOL     OW 1585   6.205   5.653   0.920
  229SOL    HW1 1586   6.205   5.740   0.870
  229SOL    HW2 1587   6.241   5.667   1.012
  230SOL     OW 1588   3.083   4.988   3.722
  230SOL    HW1 1589   2.993   4.946   3.708
  230SOL    HW2 1590   3.118   5.022   3.635
  231SOL     OW 1591   6.547   2.459   5.587
  231SOL    HW1 1592   6.620   2.481   5.652
  231SOL    HW2 1593   6.584   2.408   5.510
  232SOL     OW 1594   0.467   4.459   6.119
  232SOL    HW1 1595   0.381   4.414   6.094
  232SOL    HW2 1596   0.470   4.472   6.218
  233SOL     OW 1597   2.451   1.067   4.681
  233SOL    HW1 1598   2.415   1.130   4.612
  233SOL    HW2 1599   2.550   1.080   4.690
  234SOL     OW 1600   2.278   5.430   5.315
  234SOL    HW1 1601   2.328   5.496   5.260
  234SOL    HW2 1602   2.181   5.430   5.287
  235SOL     OW 1603   3.702   2.835   2.207
  235SOL    HW1 1604   3.766   2.766   2.241
  235SOL    HW2 1605   3.665   2.807   2.118
  236SOL     OW 1606   5.730   3.411   6.590
  236SOL    HW1 1607   5.712   3.473   6.513
  236SOL    HW2 1608   5.701   3.455   6.675
  237SOL     OW 1609   0.306   6.679   0.440
  237SOL    HW1 1610   0.342   6.600   0.489
  237SOL    HW2 1611   0.367   6.757   0.454
  238SOL     OW 1612   6.723   2.916   0.665
  238SOL    HW1 1613   6.813   2.955   0.683
  238SOL    HW2 1614   6.672   2.977   0.604
  239SOL     OW 1615   6.681   4.546   6.992
  239SOL    HW1 1616   6.594   4.524   6.948
  239SOL    HW2 1617   6.667   4.620   0.034
  240SOL     OW 1618   0.454   2.954   5.652
  240SOL    HW1 1619   0.531   2.959   5.588
  240SOL    HW2 1620   0.385   2.891   5.616
  241SOL     OW 1621   0.490   0.477   3.792
  241SOL    HW1 1622   0.425   0.516   3.856
  241SOL    HW2 1623   0.476   0.516   3.701
  242SOL     OW 1624   1.549   2.572   6.299
  242SOL    HW1 1625   1.637   2.613   6.320
  242SOL    HW2 1626   1.476   2.635   6.326
  243SOL     OW 1627   4.520   0.130   5.808
  243SOL    HW1 1628   4.466   0.078   5.873
  243SOL    HW2 1629   4.523   0.226   5.837
  244SOL     OW 1630   4.756   2.755   4.371
  244SOL    HW1 1631   4.768   2.798   4.461
  244SOL    HW2 1632   4.723   2.662   4.383
  245SOL     OW 1633   6.928   2.958   4.516
  245SOL    HW1 1634   6.896   2.989   4.427
  245SOL    HW2 1635   6.993   2.883   4.505
  246SOL     OW 1636   5.301   3.455   3.682
  246SOL    HW1 1637   5.306   3.456   3.782
  246SOL    HW2 1638   5.247   3.533   3.650
  247SOL     OW 1639   2.430   1.802   2.880
  247SOL    HW1 1640   2.443   1.726   2.816
  247SOL    HW2 1641   2.520   1.832   2.914
  248SOL     OW 1642   4.393   2.453   4.090
  248SOL    HW1 1643   4.338   2.533   4.113
  248SOL    HW2 1644   4.443   2.470   4.005
  249SOL     OW 1645   3.439   0.017   5.028
  249SOL    HW1 1646   3.386   0.044   5.109
  249SOL    HW2 1647   3.377   7.006   4.958
  250SOL     OW 1648   5.296   1.743   5.696
  250SOL    HW1 1649   5.239   1.796   5.633
  250SOL    HW2 1650   5.368   1.696   5.644
  251SOL     OW 1651   4.216   3.609   5.750
  251SOL    HW1 1652   4.289   3.638   5.811
  251SOL    HW2 1653   4.167   3.689   5.715
  252SOL     OW 1654   7.013   1.416   5.913
  252SOL    HW1 1655   6.949   1.451   5.982
  252SOL    HW2 1656   6.963   1.359   5.848
  253SOL     OW 1657   2.668   4.347   0.212
  253SOL    HW1 1658   2.737   4.296   0.160
  253SOL    HW2 1659   2.601   4.284   0.250
  254SOL     OW 1660   6.522   2.555   3.683
  254SOL    HW1 1661   6.507   2.620   3.757
  254SOL    HW2 1662   6.482   2.466   3.707
  255SOL     OW 1663   2.822   1.708   4.162
  255SOL    HW1 1664   2.801   1.623   4.211
  255SOL    HW2 1665   2.904   1.750   4.200
  256SOL     OW 1666   6.709   4.712   6.739
  256SOL    HW1 1667   6.724   4.628   6.791
  256SOL    HW2 1668   6.612   4.736   6.740
  257SOL     OW 1669   3.236   5.423   5.487
  257SOL    HW1 1670   3.332   5.423   5.517
  257SOL    HW2 1671   3.195   5.512   5.508
  258SOL     OW 1672   5.116   3.584   4.766
  258SOL    HW1 1673   5.212   3.566   4.744
  258SOL    HW2 1674   5.102   3.576   4.865
  259SOL     OW 1675   1.632   2.720   2.941
  259SOL    HW1 1676   1.573   2.675   2.874
  259SOL    HW2 1677   1.582   2.728   3.028
  260SOL     OW 1678   4.475   0.059   0.709
  260SOL    HW1 1679   4.414   0.000   0.762
  260SOL    HW2 1680   4.432   0.079   0.621
  261SOL     OW 1681   0.570   3.624   1.100
  261SOL    HW1 1682   0.582   3.544   1.042
  261SOL    HW2 1683   0.480   3.620   1.145
  262SOL     OW 1684   1.115   3.891   2.033
  262SOL    HW1 1685   1.082   3.797   2.043
  262SOL    HW2 1686   1.037   3.952   2.013
  263SOL     OW 1687   6.976   1.746   4.500
  263SOL    HW1 1688   6.971   1.844   4.523
  263SOL    HW2 1689   0.014   1.733   4.423
  264SOL     OW 1690   6.481   3.919   5.777
  264SOL    HW1 1691   6.461   3.895   5.682
  264SOL    HW2 1692   6.429   3.858   5.838
  265SOL     OW 1693   5.005   4.123   3.220
  265SOL    HW1 1694   4.906   4.134   3.209
  265SOL    HW2 1695   5.024   4.035   3.262
  266SOL     OW 1696   3.343   2.369   6.891
  266SOL    HW1 1697   3.360   2.468   6.882
  266SOL    HW2 1698   3.345   2.327   6.800
  267SOL     OW 1699   1.222   3.173   7.015
  267SOL    HW1 1700   1.168   3.254   0.013
  267SOL    HW2 1701   1.170   3.113   6.953
  268SOL     OW 1702   4.917   5.154   5.038
  268SOL    HW1 1703   4.870   5.205   4.965
  268SOL    HW2 1704   4.972   5.081   4.997
  269SOL     OW 1705   1.969   2.284   0.184
  269SOL    HW1 1706   1.936   2.211   0.125
  269SOL    HW2 1707   2.068   2.279   0.192
  270SOL     OW 1708   4.985   1.048   2.219
  270SOL    HW1 1709   5.073   1.093   2.207
  270SOL    HW2 1710   4.994   0.971   2.282
  271SOL     OW 1711   2.055   2.214   0.872
  271SOL    HW1 1712   2.119   2.267   0.817
  271SOL    HW2 1713   2.016   2.272   0.943
  272SOL     OW 1714   3.866   5.525   4.113
  272SOL    HW1 1715   3.820   5.607   4.148
  272SOL    HW2 1716   3.798   5.454   4.097
  273SOL     OW 1717   1.249   5.579   5.079
  273SOL    HW1 1718   1.299   5.656   5.040
  273SOL    HW2 1719   1.304   5.496   5.071
  274SOL     OW 1720   4.943   2.689   3.443
  274SOL    HW1 1721   4.935   2.787   3.463
  274SOL    HW2 1722   4.977   2.641   3.523
  275SOL     OW 1723   0.996   5.420   6.498
  275SOL    HW1 1724   1.030   5.473   6.420
  275SOL    HW2 1725   0.992   5.479   6.579
  276SOL     OW 1726   6.395   5.367   4.075
  276SOL    HW1 1727   6.420   5.451   4.123
  276SOL    HW2 1728   6.300   5.374   4.045
  277SOL     OW 1729   2.906   0.729   5.790
  277SOL    HW1 1730   2.868   0.712   5.700
  277SOL    HW2 1731   2.837   0.776   5.846
  278SOL     OW 1732   5.413   3.348   2.608
  278SOL    HW1 1733   5.384   3.396   2.525
  278SOL    HW2 1734   5.446   3.257   2.584
  279SOL     OW 1735   6.691   3.082   3.792
  279SOL    HW1 1736   6.725   3.175   3.802
  279SOL    HW2 1737   6.592   3.083   3.781
  280SOL     OW 1738   4.612   6.755   3.726
  280SOL    HW1 1739   4.711   6.739   3.717
  280SOL    HW2 1740   4.586   6.831   3.667
  281SOL     OW 1741   3.050   5.427   3.673
  281SOL    HW1 1742   3.085   5.411   3.580
  281SOL    HW2 1743   3.007   5.343   3.706
  282SOL     OW 1744   3.646   2.165   5.388
  282SOL    HW1 1745   3.565   2.183   5.332
  282SOL    HW2 1746   3.649   2.230   5.464
  283SOL     OW 1747   6.373   0.114   5.336
  283SOL    HW1 1748   6.425   0.158   5.263
  283SOL    HW2 1749   6.284   0.159   5.345
  284SOL     OW 1750   0.785   4.525   4.140
  284SOL    HW1 1751   0.789   4.578   4.225
  284SOL    HW2 1752   0.729   4.444   4.154
  285SOL     OW 1753   5.528   6.327   0.249
  285SOL    HW1 1754   5.607   6.266   0.240
  285SOL    HW2 1755   5.445   6.271   0.259
  286SOL     OW 1756   3.827   5.037   5.488
  286SOL    HW1 1757   3.782   5.012   5.573
  286SOL    HW2 1758   3.905   5.097   5.507
  287SOL     OW 1759   1.539   5.370   6.379
  287SOL    HW1 1760   1.532   5.289   6.321
  287SOL    HW2 1761   1.521   5.345   6.474
  288SOL     OW 1762   4.233   0.798   1.041
  288SOL    HW1 1763   4.140   0.802   1.077
  288SOL    HW2 1764   4.236   0.738   0.961
  289SOL     OW 1765   1.287   5.592   6.012
  289SOL    HW1 1766   1.344   5.510   6.012
  289SOL    HW2 1767   1.325   5.660   6.075
  290SOL     OW 1768   4.409   0.344   3.429
  290SOL    HW1 1769   4.324   0.362   3.480
  290SOL    HW2 1770   4.429   0.423   3.371
  291SOL     OW 1771   3.937   1.259   3.655
  291SOL    HW1 1772   3.895   1.173   3.627
  291SOL    HW2 1773   4.023   1.240   3.703
  292SOL     OW 1774   4.306   1.001   3.663
  292SOL    HW1 1775   4.263   1.087   3.637
  292SOL    HW2 1776   4.367   1.015   3.741
  293SOL     OW 1777   4.636   6.109   1.618
  293SOL    HW1 1778   4.608   6.057   1.538
  293SOL    HW2 1779   4.562   6.112   1.684
  294SOL     OW 1780   6.047   5.980   6.492
  294SOL    HW1 1781   5.954   6.002   6.522
  294SOL    HW2 1782   6.093   5.926   6.562
  295SOL     OW 1783   1.670   2.310   5.684
  295SOL    HW1 1784   1.703   2.288   5.592
  295SOL    HW2 1785   1.734   2.275   5.752
  296SOL     OW 1786   6.286   2.265   1.182
  296SOL    HW1 1787   6.187   2.281   1.177
  296SOL    HW2 1788   6.323   2.253   1.090
  297SOL     OW 1789   4.375   5.050   3.594
  297SOL    HW1 1790   4.456   5.040   3.537
  297SOL    HW2 1791   4.400   5.089   3.682
  298SOL     OW 1792   3.977   0.378   0.675
  298SOL    HW1 1793   4.042   0.304   0.689
  298SOL    HW2 1794   3.906   0.349   0.610
  299SOL     OW 1795   3.448   1.734   6.892
  299SOL    HW1 1796   3.352   1.760   6.899
  299SOL    HW2 1797   3.504   1.817   6.885
  300SOL     OW 1798   3.937   0.783   2.796
  300SOL    HW1 1799   3.867   0.850   2.820
  300SOL    HW2 1800   3.996   0.820   2.724
  301SOL     OW 1801   5.249   0.830   1.427
  301SOL    HW1 1802   5.312   0.904   1.451
  301SOL    HW2 1803   5.214   0.787   1.510
  302SOL     OW 1804   0.915   0.310   2.398
  302SOL    HW1 1805   0.849   0.257   2.346
  302SOL    HW2 1806   0.869   0.384   2.447
  303SOL     OW 1807   5.907   6.201   1.743
  303SOL    HW1 1808   5.836   6.269   1.764
  303SOL    HW2 1809   5.906   6.129   1.812
  304SOL     OW 1810   2.079   6.175   6.395
  304SOL    HW1 1811   2.042   6.163   6.302
  304SOL    HW2 1812   2.178   6.187   6.390
  305SOL     OW 1813   1.522   3.122   0.746
  305SOL    HW1 1814   1.473   3.050   0.796
  305SOL    HW2 1815   1.457   3.174   0.691
  306SOL     OW 1816   0.203   0.876   2.774
  306SOL    HW1 1817   0.200   0.871   2.874
  306SOL    HW2 1818   0.279   0.821   2.741
  307SOL     OW 1819   3.683   3.969   0.460
  307SOL    HW1 1820   3.782   3.963   0.448
  307SOL    HW2 1821   3.663   4.020   0.543
  308SOL     OW 1822   6.294   2.907   4.275
  308SOL    HW1 1823   6.390   2.879   4.271
  308SOL    HW2 1824   6.289   3.005   4.293
  309SOL     OW 1825   1.609   6.720   0.512
  309SOL    HW1 1826   1.698   6.749   0.477
  309SOL    HW2 1827   1.549   6.697   0.435
  310SOL     OW 1828   5.663   6.433   4.112
  310SOL    HW1 1829   5.573   6.445   4.154
  310SOL    HW2 1830   5.693   6.520   4.071
  311SOL     OW 1831   2.247   4.347   2.471
  311SOL    HW1 1832   2.179   4.420   2.465
  311SOL    HW2 1833   2.296   4.353   2.557
  312SOL     OW 1834   4.025   2.162   4.378
  312SOL    HW1 1835   3.977   2.184   4.463
  312SOL    HW2 1836   3.979   2.086   4.332
  313SOL     OW 1837   3.002   3.649   3.054
  313SOL    HW1 1838   3.096   3.684   3.052
  313SOL    HW2 1839   3.004   3.552   3.080
  314SOL     OW 1840   1.836   4.864   4.900
  314SOL    HW1 1841   1.840   4.856   4.801
  314SOL    HW2 1842   1.844   4.774   4.942
  315SOL     OW 1843   0.271   1.916   3.800
  315SOL    HW1 1844   0.361   1.883   3.770
  315SOL    HW2 1845   0.269   2.016   3.797
  316SOL     OW 1846   4.110   1.324   4.490
  316SOL    HW1 1847   4.042   1.361   4.554
  316SOL    HW2 1848   4.198   1.369   4.505
  317SOL     OW 1849   1.297   1.479   1.386
  317SOL    HW1 1850   1.276   1.429   1.470
  317SOL    HW2 1851   1.336   1.416   1.319
  318SOL     OW 1852   6.123   0.986   6.407
  318SOL    HW1 1853   6.046   1.044   6.380
  318SOL    HW2 1854   6.129   0.907   6.346
  319SOL     OW 1855   6.803   2.077   3.170
  319SOL    HW1 1856   6.738   2.105   3.100
  319SOL    HW2 1857   6.859   2.002   3.136
  320SOL     OW 1858   6.333   3.497   6.667
  320SOL    HW1 1859   6.269   3.450   6.606
  320SOL    HW2 1860   6.399   3.549   6.613
  321SOL     OW 1861   4.254   2.247   0.671
  321SOL    HW1 1862   4.226   2.215   0.762
  321SOL    HW2 1863   4.200   2.202   0.601
  322SOL     OW 1864   3.825   3.058   4.515
  322SOL    HW1 1865   3.864   3.043   4.424
  322SOL    HW2 1866   3.878   3.128   4.562
  323SOL     OW 1867   1.265   2.289   4.647
  323SOL    HW1 1868   1.305   2.201   4.673
  323SOL    HW2 1869   1.306   2.319   4.560
  324SOL     OW 1870   2.203   7.019   3.621
  324SOL    HW1 1871   2.231   0.072   3.680
  324SOL    HW2 1872   2.103   7.011   3.624
  325SOL     OW 1873   1.311   3.793   2.662
  325SOL    HW1 1874   1.383   3.782   2.731
  325SOL    HW2 1875   1.286   3.704   2.625
  326SOL     OW 1876   0.961   4.266   5.967
  326SOL    HW1 1877   1.003   4.334   6.028
  326SOL    HW2 1878   0.944   4.308   5.877
  327SOL     OW 1879   2.439   4.384   2.647
  327SOL    HW1 1880   2.426   4.471   2.694
  327SOL    HW2 1881   2.500   4.397   2.569
  328SOL     OW 1882   1.869   4.997   1.304
  328SOL    HW1 1883   1.941   4.972   1.368
  328SOL    HW2 1884   1.781   5.000   1.352
  329SOL     OW 1885   2.543   3.819   6.014
  329SOL    HW1 1886   2.600   3.835   5.933
  329SOL    HW2 1887   2.575   3.876   6.090
  330SOL     OW 1888   3.546   6.124   0.216
  330SOL    HW1 1889   3.472   6.082   0.163
  330SOL    HW2 1890   3.573   6.210   0.173
  331SOL     OW 1891   5.556   5.367   1.191
  331SOL    HW1 1892   5.593   5.328   1.275
  331SOL    HW2 1893   5.507   5.297   1.139
  332SOL     OW 1894   5.800   1.972   3.898
  332SOL    HW1 1895   5.739   1.955   3.821
  332SOL    HW2 1896   5.776   2.059   3.941
  333SOL     OW 1897   4.190   0.752   5.405
  333SOL    HW1 1898   4.123   0.825   5.412
  333SOL    HW2 1899   4.255   0.773   5.332
  334SOL     OW 1900   3.766   2.213   0.748
  334SOL    HW1 1901   3.678   2.190   0.707
  334SOL    HW2 1902   3.840   2.169   0.696
  335SOL     OW 1903   4.201   0.591   6.626
  335SOL    HW1 1904   4.290   0.554   6.653
  335SOL    HW2 1905   4.171   0.547   6.541
  336SOL     OW 1906   2.765   1.095   3.000
  336SOL    HW1 1907   2.799   1.009   2.962
  336SOL    HW2 1908   2.665   1.092   3.004
  337SOL     OW 1909   1.142   2.315   5.959
  337SOL    HW1 1910   1.185   2.405   5.946
  337SOL    HW2 1911   1.082   2.319   6.039
  338SOL     OW 1912   3.209   2.904   1.950
  338SOL    HW1 1913   3.158   2.879   1.867
  338SOL    HW2 1914   3.145   2.935   2.020
  339SOL     OW 1915   4.647   5.117   4.867
  339SOL    HW1 1916   4.666   5.028   4.908
  339SOL    HW2 1917   4.573   5.107   4.799
  340SOL     OW 1918   4.844   3.131   4.789
  340SOL    HW1 1919   4.796   3.130   4.701
  340SOL    HW2 1920   4.826   3.217   4.836
  341SOL     OW 1921   5.183   6.778   4.465
  341SOL    HW1 1922   5.279   6.750   4.477
  341SOL    HW2 1923   5.171   6.819   4.374
  342SOL     OW 1924   4.886   3.030   0.352
  342SOL    HW1 1925   4.927   3.042   0.261
  342SOL    HW2 1926   4.952   2.987   0.413
  343SOL     OW 1927   0.270   6.449   2.506
  343SOL    HW1 1928   0.231   6.378   2.565
  343SOL    HW2 1929   0.365   6.467   2.534
  344SOL     OW 1930   0.986   2.519   1.853
  344SOL    HW1 1931   0.956   2.460   1.928
  344SOL    HW2 1932   0.921   2.594   1.842
  345SOL     OW 1933   6.132   2.101   4.154
  345SOL    HW1 1934   6.220   2.145   4.170
  345SOL    HW2 1935   6.126   2.015   4.205
  346SOL     OW 1936   1.597   0.243   2.915
  346SOL    HW1 1937   1.567   0.147   2.917
  346SOL    HW2 1938   1.685   0.249   2.869
  347SOL     OW 1939   3.140   5.694   0.137
  347SOL    HW1 1940   3.083   5.775   0.150
  347SOL    HW2 1941   3.134   5.664   0.042
  348SOL     OW 1942   4.699   4.739   3.445
  348SOL    HW1 1943   4.624   4.680   3.417
  348SOL    HW2 1944   4.667   4.833   3.453
  349SOL     OW 1945   6.596   4.528   2.205
  349SOL    HW1 1946   6.694   4.522   2.227
  349SOL    HW2 1947   6.576   4.465   2.129
  350SOL     OW 1948   3.132   3.159   1.096
  350SOL    HW1 1949   3.037   3.182   1.119
  350SOL    HW2 1950   3.193   3.199   1.164
  351SOL     OW 1951   2.598   3.594   0.663
  351SOL    HW1 1952   2.557   3.521   0.718
  351SOL    HW2 1953   2.550   3.680   0.682
  352SOL     OW 1954   3.823   6.939   3.715
  352SOL    HW1 1955   3.846   6.930   3.812
  352SOL    HW2 1956   3.742   6.884   3.695
  353SOL     OW 1957   3.200   0.323   6.591
  353SOL    HW1 1958   3.296   0.306   6.571
  353SOL    HW2 1959   3.178   0.287   6.682
  354SOL     OW 1960   4.638   2.433   1.435
  354SOL    HW1 1961   4.657   2.335   1.429
  354SOL    HW2 1962   4.714   2.483   1.394
  355SOL     OW 1963   1.668   3.823   2.705
  355SOL    HW1 1964   1.620   3.786   2.784
  355SOL    HW2 1965   1.618   3.801   2.621
  356SOL     OW 1966   2.595   0.987   5.689
  356SOL    HW1 1967   2.658   0.996   5.611
  356SOL    HW2 1968   2.531   1.063   5.689
  357SOL     OW 1969   6.465   5.864   4.749
  357SOL    HW1 1970   6.468   5.775   4.704
  357SOL    HW2 1971   6.478   5.853   4.847
  358SOL     OW 1972   5.085   6.681   0.730
  358SOL    HW1 1973   5.016   6.666   0.801
  358SOL    HW2 1974   5.128   6.594   0.707
  359SOL     OW 1975   3.246   1.250   2.228
  359SOL    HW1 1976   3.213   1.198   2.150
  359SOL    HW2 1977   3.345   1.266   2.218
  360SOL     OW 1978   1.765   3.491   4.813
  360SOL    HW1 1979   1.803   3.555   4.880
  360SOL    HW2 1980   1.764   3.533   4.722
  361SOL     OW 1981   6.408   6.078   2.911
  361SOL    HW1 1982   6.443   6.171   2.900
  361SOL    HW2 1983   6.457   6.017   2.849
  362SOL     OW 1984   3.402   2.685   1.807
  362SOL    HW1 1985   3.323   2.707   1.863
  362SOL    HW2 1986   3.385   2.600   1.756
  363SOL     OW 1987   5.726   4.507   3.190
  363SOL    HW1 1988   5.724   4.586   3.251
  363SOL    HW2 1989   5.639   4.459   3.195
  364SOL     OW 1990   6.867   5.037   6.856
  364SOL    HW1 1991   6.940   5.090   6.898
  364SOL    HW2 1992   6.871   4.942   6.888
  365SOL     OW 1993   4.861   0.019   0.978
  365SOL    HW1 1994   4.909   0.047   0.895
  365SOL    HW2 1995   4.870   0.089   1.048
  366SOL     OW 1996   6.209   2.091   6.528
  366SOL    HW1 1997   6.307   2.075   6.532
  366SOL    HW2 1998   6.170   2.042   6.450
  367SOL     OW 1999   5.938   2.437   6.407
  367SOL    HW1 2000   5.883   2.512   6.443
  367SOL    HW2 2001   5.987   2.392   6.482
  368SOL     OW 2002   0.104   2.497   5.584
  368SOL    HW1 2003   0.095   2.423   5.651
  368SOL    HW2 2004   0.169   2.470   5.513
  369SOL     OW 2005   5.920   5.025   2.755
  369SOL    HW1 2006   5.847   5.047   2.820
  369SOL    HW2 2007   5.926   4.926   2.745
  370SOL     OW 2008   0.909   2.169   4.203
  370SOL    HW1 2009   0.826   2.220   4.181
  370SOL    HW2 2010   0.942   2.198   4.293
  371SOL     OW 2011   1.941   4.459   6.443
  371SOL    HW1 2012   1.884   4.420   6.515
  371SOL    HW2 2013   1.932   4.558   6.443
  372SOL     OW 2014   2.105   6.656   5.742
  372SOL    HW1 2015   2.195   6.624   5.714
  372SOL    HW2 2016   2.114   6.709   5.827
  373SOL     OW 2017   5.734   6.424   5.641
  373SOL    HW1 2018   5.665   6.469   5.584
  373SOL    HW2 2019   5.825   6.437   5.599
  374SOL     OW 2020   2.744   2.136   3.279
  374SOL    HW1 2021   2.732   2.170   3.373
  374SOL    HW2 2022   2.778   2.042   3.282
  375SOL     OW 2023   1.077   4.232   3.873
  375SOL    HW1 2024   1.056   4.321   3.913
  375SOL    HW2 2025   1.044   4.159   3.934
  376SOL     OW 2026   1.239   1.247   5.279
  376SOL    HW1 2027   1.335   1.237   5.255
  376SOL    HW2 2028   1.226   1.333   5.327
  377SOL     OW 2029   1.491   2.131   0.160
  377SOL    HW1 2030   1.413   2.090   0.209
  377SOL    HW2 2031   1.568   2.068   0.164
  378SOL     OW 2032   3.928   1.719   0.704
  378SOL    HW1 2033   3.908   1.642   0.764
  378SOL    HW2 2034   3.978   1.687   0.623
  379SOL     OW 2035   5.586   2.822   0.411
  379SOL    HW1 2036   5.516   2.768   0.364
  379SOL    HW2 2037   5.571   2.819   0.509
  380SOL     OW 2038   2.831   1.469   1.444
  380SOL    HW1 2039   2.794   1.495   1.355
  380SOL    HW2 2040   2.773   1.508   1.516
  381SOL     OW 2041   1.760   3.697   3.475
  381SOL    HW1 2042   1.783   3.626   3.541
  381SOL    HW2 2043   1.811   3.683   3.390
  382SOL     OW 2044   6.128   1.386   0.241
  382SOL    HW1 2045   6.061   1.363   0.172
  382SOL    HW2 2046   6.158   1.481   0.228
  383SOL     OW 2047   3.846   3.063   0.151
  383SOL    HW1 2048   3.807   2.971   0.154
  383SOL    HW2 2049   3.805   3.115   0.077
  384SOL     OW 2050   6.811   5.378   4.730
  384SOL    HW1 2051   6.775   5.312   4.795
  384SOL    HW2 2052   6.786   5.471   4.759
  385SOL     OW 2053   2.838   5.196   5.449
  385SOL    HW1 2054   2.929   5.235   5.431
  385SOL    HW2 2055   2.830   5.108   5.404
  386SOL     OW 2056   3.072   6.484   4.002
  386SOL    HW1 2057   3.078   6.504   3.904
  386SOL    HW2 2058   3.141   6.537   4.052
  387SOL     OW 2059   0.642   5.545   2.701
  387SOL    HW1 2060   0.628   5.631   2.749
  387SOL    HW2 2061   0.726   5.550   2.648
  388SOL     OW 2062   1.858   2.104   6.518
  388SOL    HW1 2063   1.897   2.190   6.485
  388SOL    HW2 2064   1.773   2.086   6.470
  389SOL     OW 2065   3.690   3.686   2.498
  389SOL    HW1 2066   3.748   3.658   2.421
  389SOL    HW2 2067   3.744   3.683   2.582
  390SOL     OW 2068   2.586   1.134   3.281
  390SOL    HW1 2069   2.565   1.083   3.197
  390SOL    HW2 2070   2.608   1.229   3.257
  391SOL     OW 2071   2.326   2.284   6.230
  391SOL    HW1 2072   2.265   2.331   6.294
  391SOL    HW2 2073   2.272   2.224   6.170
  392SOL     OW 2074   1.969   4.404   1.066
  392SOL    HW1 2075   2.000   4.409   0.971
  392SOL    HW2 2076   2.041   4.437   1.127
  393SOL     OW 2077   0.755   4.477   6.713
  393SOL    HW1 2078   0.745   4.384   6.678
  393SOL    HW2 2079   0.759   4.542   6.637
  394SOL     OW 2080   0.132   0.753   6.991
  394SOL    HW1 2081   0.146   0.775   0.064
  394SOL    HW2 2082   0.035   0.734   6.974
  395SOL     OW 2083   4.880   3.504   3.353
  395SOL    HW1 2084   4.846   3.456   3.434
  395SOL    HW2 2085   4.864   3.602   3.363
  396SOL     OW 2086   3.930   3.756   2.326
  396SOL    HW1 2087   3.888   3.831   2.276
  396SOL    HW2 2088   4.010   3.722   2.275
  397SOL     OW 2089   4.556   2.272   5.438
  397SOL    HW1 2090   4.566   2.323   5.523
  397SOL    HW2 2091   4.459   2.249   5.424
  398SOL     OW 2092   1.049   6.243   2.574
  398SOL    HW1 2093   1.019   6.239   2.669
  398SOL    HW2 2094   1.034   6.154   2.530
  399SOL     OW 2095   5.344   6.108   2.707
  399SOL    HW1 2096   5.269   6.173   2.719
  399SOL    HW2 2097   5.308   6.015   2.716
  400SOL     OW 2098   6.255   6.912   5.873
  400SOL    HW1 2099   6.286   7.005   5.893
  400SOL    HW2 2100   6.279   6.888   5.778
  401SOL     OW 2101   5.136   0.902   5.559
  401SOL    HW1 2102   5.106   0.994   5.586
  401SOL    HW2 2103   5.075   0.834   5.599
  402SOL     OW 2104   5.529   0.452   3.523
  402SOL    HW1 2105   5.522   0.408   3.434
  402SOL    HW2 2106   5.625   0.458   3.550
  403SOL     OW 2107   4.583   1.901   4.414
  403SOL    HW1 2108   4.630   1.956   4.346
  403SOL    HW2 2109   4.634   1.903   4.500
  404SOL     OW 2110   1.266   6.135   4.036
  404SOL    HW1 2111   1.212   6.133   4.120
  404SOL    HW2 2112   1.273   6.043   3.998
  405SOL     OW 2113   1.814   3.469   1.866
  405SOL    HW1 2114   1.787   3.428   1.779
  405SOL    HW2 2115   1.865   3.553   1.849
  406SOL     OW 2116   1.216   4.256   4.390
  406SOL    HW1 2117   1.302   4.300   4.414
  406SOL    HW2 2118   1.232   4.187   4.320
  407SOL     OW 2119   1.745   0.724   3.346
  407SOL    HW1 2120   1.779   0.766   3.430
  407SOL    HW2 2121   1.727   0.795   3.278
  408SOL     OW 2122   1.362   2.376   3.288
  408SOL    HW1 2123   1.410   2.346   3.370
  408SOL    HW2 2124   1.294   2.445   3.312
  409SOL     OW 2125   6.777   2.512   1.022
  409SOL    HW1 2126   6.761   2.491   0.925
  409SOL    HW2 2127   6.696   2.488   1.075
  410SOL     OW 2128   1.243   0.489   1.180
  410SOL    HW1 2129   1.273   0.414   1.121
  410SOL    HW2 2130   1.170   0.457   1.240
  411SOL     OW 2131   5.149   0.231   0.129
  411SOL    HW1 2132   5.105   0.234   0.218
  411SOL    HW2 2133   5.120   0.308   0.073
  412SOL     OW 2134   5.489   6.331   3.747
  412SOL    HW1 2135   5.394   6.360   3.757
  412SOL    HW2 2136   5.514   6.270   3.822
  413SOL     OW 2137   5.580   4.893   2.102
  413SOL    HW1 2138   5.500   4.948   2.077
  413SOL    HW2 2139   5.620   4.927   2.187
  414SOL     OW 2140   3.628   5.369   3.533
  414SOL    HW1 2141   3.715   5.407   3.564
  414SOL    HW2 2142   3.554   5.401   3.592
  415SOL     OW 2143   1.261   5.662   6.705
  415SOL    HW1 2144   1.253   5.711   6.618
  415SOL    HW2 2145   1.201   5.583   6.704
  416SOL     OW 2146   4.927   5.694   4.044
  416SOL    HW1 2147   4.875   5.685   3.959
  416SOL    HW2 2148   4.916   5.610   4.098
  417SOL     OW 2149   2.854   5.198   0.033
  417SOL    HW1 2150   2.791   5.274   0.018
  417SOL    HW2 2151   2.824   5.119   7.003
  418SOL     OW 2152   3.960   5.879   0.977
  418SOL    HW1 2153   3.914   5.888   0.889
  418SOL    HW2 2154   3.947   5.786   1.012
  419SOL     OW 2155   1.513   0.526   1.417
  419SOL    HW1 2156   1.440   0.476   1.464
  419SOL    HW2 2157   1.568   0.576   1.484
  420SOL     OW 2158   5.863   1.784   6.973
  420SOL    HW1 2159   5.951   1.817   7.009
  420SOL    HW2 2160   5.853   1.815   6.878
  421SOL     OW 2161   6.953   4.405   6.050
  421SOL    HW1 2162   7.000   4.493   6.042
  421SOL    HW2 2163   6.943   4.365   5.959
  422SOL     OW 2164   5.650   4.116   0.154
  422SOL    HW1 2165   5.675   4.029   0.112
  422SOL    HW2 2166   5.717   4.140   0.224
  423SOL     OW 2167   0.964   2.406   6.967
  423SOL    HW1 2168   1.062   2.407   6.945
  423SOL    HW2 2169   0.911   2.407   6.883
  424SOL     OW 2170   2.316   4.095   0.756
  424SOL    HW1 2171   2.305   4.078   0.854
  424SOL    HW2 2172   2.228   4.081   0.710
  425SOL     OW 2173   5.686   1.262   2.797
  425SOL    HW1 2174   5.604   1.208   2.778
  425SOL    HW2 2175   5.699   1.267   2.896
  426SOL     OW 2176   4.506   2.490   3.822
  426SOL    HW1 2177   4.425   2.436   3.799
  426SOL    HW2 2178   4.527   2.553   3.747
  427SOL     OW 2179   4.952   5.759   2.744
  427SOL    HW1 2180   5.018   5.763   2.819
  427SOL    HW2 2181   4.960   5.841   2.688
  428SOL     OW 2182   4.455   0.523   4.518
  428SOL    HW1 2183   4.360   0.505   4.492
  428SOL    HW2 2184   4.492   0.598   4.463
  429SOL     OW 2185   1.812   3.392   1.113
  429SOL    HW1 2186   1.899   3.346   1.097
  429SOL    HW2 2187   1.752   3.376   1.034
  430SOL     OW 2188   6.734   0.387   5.322
  430SOL    HW1 2189   6.829   0.361   5.304
  430SOL    HW2 2190   6.673   0.331   5.265
  431SOL     OW 2191   3.198   6.984   0.462
  431SOL    HW1 2192   3.191   6.886   0.442
  431SOL    HW2 2193   3.236   0.008   0.383
  432SOL     OW 2194   6.610   1.482   1.324
  432SOL    HW1 2195   6.569   1.572   1.336
  432SOL    HW2 2196   6.654   1.476   1.234
  433SOL     OW 2197   2.941   6.367   4.859
  433SOL    HW1 2198   2.949   6.295   4.790
  433SOL    HW2 2199   2.845   6.377   4.886
  434SOL     OW 2200   3.333   6.127   2.201
  434SOL    HW1 2201   3.291   6.037   2.211
  434SOL    HW2 2202   3.261   6.197   2.198
  435SOL     OW 2203   5.465   2.497   6.426
  435SOL    HW1 2204   5.446   2.426   6.493
  435SOL    HW2 2205   5.445   2.587   6.464
  436SOL     OW 2206   3.372   6.428   1.074
  436SOL    HW1 2207   3.451   6.458   1.022
  436SOL    HW2 2208   3.303   6.391   1.012
  437SOL     OW 2209   1.199   0.611   6.974
  437SOL    HW1 2210   1.110   0.655   6.962
  437SOL    HW2 2211   1.248   0.655   0.026
  438SOL     OW 2212   2.010   3.820   2.590
  438SOL    HW1 2213   2.085   3.843   2.529
  438SOL    HW2 2214   2.029   3.732   2.633
  439SOL     OW 2215   6.006   4.812   2.994
  439SOL    HW1 2216   5.983   4.907   3.014
  439SOL    HW2 2217   6.003   4.758   3.078
  440SOL     OW 2218   1.905   1.245   5.147
  440SOL    HW1 2219   1.989   1.293   5.170
  440SOL    HW2 2220   1.922   1.147   5.147
  441SOL     OW 2221   0.918   2.635   4.236
  441SOL    HW1 2222   0.942   2.726   4.202
  441SOL    HW2 2223   0.993   2.572   4.216
  442SOL     OW 2224   3.138   4.794   5.946
  442SOL    HW1 2225   3.126   4.830   6.039
  442SOL    HW2 2226   3.177   4.865   5.888
  443SOL     OW 2227   5.974   4.289   4.757
  443SOL    HW1 2228   6.066   4.249   4.757
  443SOL    HW2 2229   5.956   4.331   4.668
  444SOL     OW 2230   4.981   1.495   5.596
  444SOL    HW1 2231   4.978   1.532   5.689
  444SOL    HW2 2232   4.947   1.565   5.532
  445SOL     OW 2233   0.694   5.233   2.818
  445SOL    HW1 2234   0.654   5.320   2.789
  445SOL    HW2 2235   0.627   5.160   2.806
  446SOL     OW 2236   3.589   4.894   3.184
  446SOL    HW1 2237   3.648   4.860   3.110
  446SOL    HW2 2238   3.495   4.898   3.152
  447SOL     OW 2239   0.466   2.829   6.228
  447SOL    HW1 2240   0.505   2.903   6.283
  447SOL    HW2 2241   0.404   2.867   6.159
  448SOL     OW 2242   1.862   0.618   3.704
  448SOL    HW1 2243   1.954   0.656   3.697
  448SOL    HW2 2244   1.862   0.541   3.768
  449SOL     OW 2245   3.977   1.381   4.039
  449SOL    HW1 2246   3.998   1.413   4.131
  449SOL    HW2 2247   4.027   1.297   4.020
  450SOL     OW 2248   1.313   6.042   3.706
  450SOL    HW1 2249   1.234   5.998   3.749
  450SOL    HW2 2250   1.309   6.141   3.722
  451SOL     OW 2251   1.941   1.516   3.882
  451SOL    HW1 2252   1.887   1.527   3.798
  451SOL    HW2 2253   1.971   1.605   3.914
  452SOL     OW 2254   6.151   5.914   0.815
  452SOL    HW1 2255   6.121   5.939   0.723
  452SOL    HW2 2256   6.131   5.988   0.878
  453SOL     OW 2257   4.164   1.210   5.984
  453SOL    HW1 2258   4.070   1.178   5.997
  453SOL    HW2 2259   4.193   1.263   6.064
  454SOL     OW 2260   6.868   4.657   6.525
  454SOL    HW1 2261   6.826   4.571   6.498
  454SOL    HW2 2262   6.843   4.679   6.619
  455SOL     OW 2263   6.298   2.936   3.122
  455SOL    HW1 2264   6.213   2.938   3.069
  455SOL    HW2 2265   6.357   2.863   3.087
  456SOL     OW 2266   5.901   6.653   4.095
  456SOL    HW1 2267   5.912   6.748   4.067
  456SOL    HW2 2268   5.931   6.593   4.021
  457SOL     OW 2269   2.146   2.852   4.157
  457SOL    HW1 2270   2.065   2.898   4.121
  457SOL    HW2 2271   2.147   2.861   4.257
  458SOL     OW 2272   4.305   5.441   3.807
  458SOL    HW1 2273   4.342   5.487   3.888
  458SOL    HW2 2274   4.213   5.474   3.788
  459SOL     OW 2275   1.670   6.650   4.992
  459SOL    HW1 2276   1.750   6.701   4.957
  459SOL    HW2 2277   1.598   6.651   4.923
  460SOL     OW 2278   1.647   6.996   3.685
  460SOL    HW1 2279   1.656   6.989   3.586
  460SOL    HW2 2280   1.601   0.058   3.709
  461SOL     OW 2281   6.851   0.107   6.482
  461SOL    HW1 2282   6.830   0.106   6.384
  461SOL    HW2 2283   6.949   0.125   6.494
  462SOL     OW 2284   3.303   3.046   6.235
  462SOL    HW1 2285   3.251   3.030   6.151
  462SOL    HW2 2286   3.393   3.082   6.212
  463SOL     OW 2287   6.529   5.916   3.173
  463SOL    HW1 2288   6.466   5.905   3.096
  463SOL    HW2 2289   6.567   6.009   3.171
  464SOL     OW 2290   2.577   2.038   4.954
  464SOL    HW1 2291   2.540   2.129   4.939
  464SOL    HW2 2292   2.576   2.017   5.052
  465SOL     OW 2293   0.633   2.471   5.801
  465SOL    HW1 2294   0.699   2.469   5.726
  465SOL    HW2 2295   0.590   2.561   5.804
  466SOL     OW 2296   0.869   5.803   2.896
  466SOL    HW1 2297   0.832   5.840   2.981
  466SOL    HW2 2298   0.969   5.802   2.901
  467SOL     OW 2299   1.909   1.193   0.666
  467SOL    HW1 2300   1.877   1.203   0.760
  467SOL    HW2 2301   2.005   1.220   0.660
  468SOL     OW 2302   3.427   0.188   6.094
  468SOL    HW1 2303   3.515   0.144   6.078
  468SOL    HW2 2304   3.354   0.119   6.095
  469SOL     OW 2305   2.485   3.117   6.371
  469SOL    HW1 2306   2.540   3.192   6.406
  469SOL    HW2 2307   2.530   3.076   6.292
  470SOL     OW 2308   3.905   6.932   1.850
  470SOL    HW1 2309   3.986   6.879   1.877
  470SOL    HW2 2310   3.929   0.005   1.848
  471SOL     OW 2311   2.325   2.384   3.985
  471SOL    HW1 2312   2.230   2.395   4.016
  471SOL    HW2 2313   2.340   2.290   3.957
  472SOL     OW 2314   5.338   3.283   6.132
  472SOL    HW1 2315   5.245   3.319   6.121
  472SOL    HW2 2316   5.351   3.256   6.228
  473SOL     OW 2317   1.264   2.763   3.266
  473SOL    HW1 2318   1.192   2.742   3.201
  473SOL    HW2 2319   1.275   2.862   3.272
  474SOL     OW 2320   5.043   5.928   4.102
  474SOL    HW1 2321   4.998   5.849   4.062
  474SOL    HW2 2322   5.142   5.916   4.098
  475SOL     OW 2323   5.897   1.117   6.366
  475SOL    HW1 2324   5.855   1.133   6.456
  475SOL    HW2 2325   5.847   1.045   6.318
  476SOL     OW 2326   0.275   3.439   3.494
  476SOL    HW1 2327   0.360   3.393   3.518
  476SOL    HW2 2328   0.293   3.536   3.477
  477SOL     OW 2329   1.512   5.301   3.391
  477SOL    HW1 2330   1.555   5.323   3.479
  477SOL    HW2 2331   1.439   5.233   3.406
  478SOL     OW 2332   3.160   6.337   2.265
  478SOL    HW1 2333   3.186   6.385   2.349
  478SOL    HW2 2334   3.189   6.391   2.186
  479SOL     OW 2335   4.308   1.950   5.791
  479SOL    HW1 2336   4.285   1.978   5.884
  479SOL    HW2 2337   4.278   2.021   5.727
  480SOL     OW 2338   2.435   0.933   0.349
  480SOL    HW1 2339   2.471   0.905   0.260
  480SOL    HW2 2340   2.336   0.919   0.351
  481SOL     OW 2341   1.637   6.964   0.302
  481SOL    HW1 2342   1.546   6.977   0.343
  481SOL    HW2 2343   1.689   0.025   0.309
  482SOL     OW 2344   4.447   4.909   2.201
  482SOL    HW1 2345   4.377   4.948   2.262
  482SOL    HW2 2346   4.516   4.979   2.183
  483SOL     OW 2347   6.543   1.461   1.880
  483SOL    HW1 2348   6.543   1.400   1.801
  483SOL    HW2 2349   6.597   1.543   1.858
  484SOL     OW 2350   2.147   3.428   4.689
  484SOL    HW1 2351   2.057   3.386   4.692
  484SOL    HW2 2352   2.217   3.357   4.677
  485SOL     OW 2353   3.213   5.553   2.534
  485SOL    HW1 2354   3.177   5.624   2.595
  485SOL    HW2 2355   3.157   5.550   2.451
  486SOL     OW 2356   6.820   1.155   0.370
  486SOL    HW1 2357   6.722   1.161   0.389
  486SOL    HW2 2358   6.853   1.244   0.336
  487SOL     OW 2359   0.968   0.698   1.658
  487SOL    HW1 2360   0.909   0.675   1.581
  487SOL    HW2 2361   0.991   0.614   1.709
  488SOL     OW 2362   1.099   1.269   2.017
  488SOL    HW1 2363   1.193   1.288   2.045
  488SOL    HW2 2364   1.057   1.354   1.984
  489SOL     OW 2365   3.816   6.528   5.845
  489SOL    HW1 2366   3.773   6.507   5.933
  489SOL    HW2 2367   3.852   6.621   5.847
  490SOL     OW 2368   6.162   6.222   2.845
  490SOL    HW1 2369   6.157   6.151   2.775
  490SOL    HW2 2370   6.214   6.187   2.924
  491SOL     OW 2371   0.583   2.944   2.738
  491SOL    HW1 2372   0.632   2.937   2.651
  491SOL    HW2 2373   0.648   2.965   2.811
  492SOL     OW 2374   1.810   0.369   5.100
  492SOL    HW1 2375   1.863   0.400   5.179
  492SOL    HW2 2376   1.873   0.334   5.030
  493SOL     OW 2377   5.030   5.800   5.466
  493SOL    HW1 2378   5.026   5.747   5.381
  493SOL    HW2 2379   4.946   5.855   5.475
  494SOL     OW 2380   0.285   6.464   6.275
  494SOL    HW1 2381   0.241   6.386   6.321
  494SOL    HW2 2382   0.378   6.476   6.311
  495SOL     OW 2383   4.800   6.031   3.308
  495SOL    HW1 2384   4.716   5.980   3.331
  495SOL    HW2 2385   4.847   6.056   3.393
  496SOL     OW 2386   5.302   3.729   1.779
  496SOL    HW1 2387   5.252   3.780   1.850
  496SOL    HW2 2388   5.299   3.780   1.693
  497SOL     OW 2389   2.892   1.242   4.696
  497SOL    HW1 2390   2.839   1.263   4.779
  497SOL    HW2 2391   2.950   1.320   4.673
  498SOL     OW 2392   1.861   3.965   1.590
  498SOL    HW1 2393   1.784   3.957   1.526
  498SOL    HW2 2394   1.828   4.006   1.676
  499SOL     OW 2395   1.836   6.685   4.700
  499SOL    HW1 2396   1.745   6.657   4.732
  499SOL    HW2 2397   1.880   6.741   4.770
  500SOL     OW 2398   0.657   3.412   4.482
  500SOL    HW1 2399   0.738   3.375   4.437
  500SOL    HW2 2400   0.679   3.435   4.577
  501SOL     OW 2401   3.433   5.603   1.057
  501SOL    HW1 2402   3.338   5.575   1.044
  501SOL    HW2 2403   3.493   5.535   1.016
  502SOL     OW 2404   0.207   4.110   0.146
  502SOL    HW1 2405   0.267   4.040   0.107
  502SOL    HW2 2406   0.138   4.067   0.204
  503SOL     OW 2407   6.773   5.152   0.059
  503SOL    HW1 2408   6.773   5.131   6.985
  503SOL    HW2 2409   6.757   5.250   0.072
  504SOL     OW 2410   1.003   5.420   2.104
  504SOL    HW1 2411   1.081   5.461   2.056
  504SOL    HW2 2412   1.037   5.362   2.179
  505SOL     OW 2413   2.851   5.752   5.199
  505SOL    HW1 2414   2.793   5.697   5.139
  505SOL    HW2 2415   2.829   5.849   5.187
  506SOL     OW 2416   2.295   4.837   4.196
  506SOL    HW1 2417   2.360   4.797   4.261
  506SOL    HW2 2418   2.227   4.892   4.245
  507SOL     OW 2419   3.455   6.841   3.132
  507SOL    HW1 2420   3.462   6.744   3.112
  507SOL    HW2 2421   3.528   6.891   3.085
  508SOL     OW 2422   0.041   3.852   2.383
  508SOL    HW1 2423   0.131   3.896   2.378
  508SOL    HW2 2424   7.002   3.913   2.432
  509SOL     OW 2425   3.079   1.634   1.415
  509SOL    HW1 2426   2.993   1.591   1.443
  509SOL    HW2 2427   3.150   1.564   1.409
  510SOL     OW 2428   6.620   4.780   0.122
  510SOL    HW1 2429   6.550   4.837   0.079
  510SOL    HW2 2430   6.693   4.838   0.157
  511SOL     OW 2431   0.867   1.386   5.346
  511SOL    HW1 2432   0.944   1.446   5.323
  511SOL    HW2 2433   0.842   1.398   5.442
  512SOL     OW 2434   0.115   3.262   0.113
  512SOL    HW1 2435   0.104   3.244   0.015
  512SOL    HW2 2436   0.173   3.192   0.153
  513SOL     OW 2437   5.957   0.083   3.302
  513SOL    HW1 2438   6.000   0.166   3.336
  513SOL    HW2 2439   5.865   0.103   3.270
  514SOL     OW 2440   6.579   2.008   3.760
  514SOL    HW1 2441   6.557   1.969   3.850
  514SOL    HW2 2442   6.577   1.935   3.691
  515SOL     OW 2443   1.075   1.005   6.506
  515SOL    HW1 2444   0.975   1.004   6.503
  515SOL    HW2 2445   1.107   0.930   6.564
  516SOL     OW 2446   2.513   4.541   1.920
  516SOL    HW1 2447   2.455   4.543   2.001
  516SOL    HW2 2448   2.607   4.561   1.947
  517SOL     OW 2449   4.501   5.872   1.789
  517SOL    HW1 2450   4.450   5.786   1.785
  517SOL    HW2 2451   4.439   5.949   1.773
  518SOL     OW 2452   2.982   1.918   3.272
  518SOL    HW1 2453   3.024   2.002   3.239
  518SOL    HW2 2454   3.038   1.880   3.346
  519SOL     OW 2455   0.242   0.506   4.755
  519SOL    HW1 2456   0.334   0.469   4.746
  519SOL    HW2 2457   0.246   0.606   4.752
  520SOL     OW 2458   6.614   4.154   0.895
  520SOL    HW1 2459   6.532   4.101   0.876
  520SOL    HW2 2460   6.622   4.229   0.828
  521SOL     OW 2461   6.557   4.824   4.974
  521SOL    HW1 2462   6.650   4.786   4.979
  521SOL    HW2 2463   6.537   4.847   4.879
  522SOL     OW 2464   3.572   2.938   4.577
  522SOL    HW1 2465   3.508   2.904   4.645
  522SOL    HW2 2466   3.644   2.990   4.622
  523SOL     OW 2467   0.113   5.327   1.871
  523SOL    HW1 2468   0.160   5.313   1.958
  523SOL    HW2 2469   0.178   5.362   1.804
  524SOL     OW 2470   0.549   1.366   2.309
  524SOL    HW1 2471   0.545   1.359   2.409
  524SOL    HW2 2472   0.461   1.398   2.275
  525SOL     OW 2473   1.953   3.110   5.672
  525SOL    HW1 2474   1.984   3.108   5.577
  525SOL    HW2 2475   2.026   3.145   5.730
  526SOL     OW 2476   3.967   6.540   3.943
  526SOL    HW1 2477   4.052   6.517   3.895
  526SOL    HW2 2478   3.984   6.618   4.003
  527SOL     OW 2479   6.113   2.616   6.703
  527SOL    HW1 2480   6.084   2.662   6.619
  527SOL    HW2 2481   6.206   2.644   6.726
  528SOL     OW 2482   0.862   1.726   3.651
  528SOL    HW1 2483   0.858   1.696   3.746
  528SOL    HW2 2484   0.769   1.741   3.617
  529SOL     OW 2485   1.935   6.926   4.341
  529SOL    HW1 2486   1.944   6.888   4.249
  529SOL    HW2 2487   1.859   6.880   4.388
  530SOL     OW 2488   3.561   3.258   4.501
  530SOL    HW1 2489   3.580   3.262   4.600
  530SOL    HW2 2490   3.535   3.165   4.477
  531SOL     OW 2491   0.362   1.182   3.493
  531SOL    HW1 2492   0.392   1.087   3.485
  531SOL    HW2 2493   0.322   1.197   3.584
  532SOL     OW 2494   1.377   2.613   6.879
  532SOL    HW1 2495   1.354   2.554   6.956
  532SOL    HW2 2496   1.477   2.621   6.872
  533SOL     OW 2497   4.299   6.967   3.965
  533SOL    HW1 2498   4.257   6.877   3.956
  533SOL    HW2 2499   4.376   6.974   3.902
  534SOL     OW 2500   5.247   6.358   2.540
  534SOL    HW1 2501   5.341   6.362   2.508
  534SOL    HW2 2502   5.187   6.330   2.465
  535SOL     OW 2503   1.103   3.506   4.628
  535SOL    HW1 2504   1.130   3.546   4.715
  535SOL    HW2 2505   1.013   3.463   4.637
  536SOL     OW 2506   6.963   5.075   1.542
  536SOL    HW1 2507   6.926   4.983   1.529
  536SOL    HW2 2508   6.934   5.110   1.630
  537SOL     OW 2509   2.929   6.590   4.468
  537SOL    HW1 2510   2.979   6.598   4.382
  537SOL    HW2 2511   2.902   6.495   4.483
  538SOL     OW 2512   1.434   4.604   3.120
  538SOL    HW1 2513   1.530   4.599   3.092
  538SOL    HW2 2514   1.421   4.547   3.201
  539SOL     OW 2515   1.395   5.664   0.933
  539SOL    HW1 2516   1.454   5.646   0.855
  539SOL    HW2 2517   1.433   5.739   0.988
  540SOL     OW 2518   1.038   0.309   3.194
  540SOL    HW1 2519   0.972   0.373   3.155
  540SOL    HW2 2520   0.989   0.234   3.237
  541SOL     OW 2521   4.721   5.842   3.934
  541SOL    HW1 2522   4.685   5.754   3.966
  541SOL    HW2 2523   4.709   5.911   4.006
  542SOL     OW 2524   6.564   6.690   0.069
  542SOL    HW1 2525   6.646   6.633   0.074
  542SOL    HW2 2526   6.523   6.681   7.002
  543SOL     OW 2527   1.565   4.082   5.505
  543SOL    HW1 2528   1.507   4.037   5.573
  543SOL    HW2 2529   1.621   4.152   5.549
  544SOL     OW 2530   3.185   4.206   0.210
  544SOL    HW1 2531   3.099   4.225   0.162
  544SOL    HW2 2532   3.201   4.107   0.213
  545SOL     OW 2533   2.946   1.220   2.367
  545SOL    HW1 2534   2.982   1.312   2.362
  545SOL    HW2 2535   2.998   1.166   2.433
  546SOL     OW 2536   2.126   3.063   0.575
  546SOL    HW1 2537   2.043   3.103   0.615
  546SOL    HW2 2538   2.203   3.125   0.591
  547SOL     OW 2539   3.377   1.180   0.064
  547SOL    HW1 2540   3.321   1.227   0.132
  547SOL    HW2 2541   3.399   1.088   0.097
  548SOL     OW 2542   3.397   3.020   2.534
  548SOL    HW1 2543   3.338   3.050   2.609
  548SOL    HW2 2544   3.346   2.958   2.474
  549SOL     OW 2545   5.108   2.995   0.513
  549SOL    HW1 2546   5.188   3.041   0.474
  549SOL    HW2 2547   5.054   3.061   0.565
  550SOL     OW 2548   0.007   5.150   3.567
  550SOL    HW1 2549   0.105   5.141   3.582
  550SOL    HW2 2550   6.989   5.198   3.644
  551SOL     OW 2551   0.886   0.547   2.580
  551SOL    HW1 2552   0.893   0.647   2.569
  551SOL    HW2 2553   0.917   0.522   2.672
  552SOL     OW 2554   4.988   4.297   0.310
  552SOL    HW1 2555   5.010   4.379   0.258
  552SOL    HW2 2556   4.935   4.234   0.252
  553SOL     OW 2557   1.666   6.153   2.032
  553SOL    HW1 2558   1.712   6.198   1.955
  553SOL    HW2 2559   1.639   6.221   2.099
  554SOL     OW 2560   5.594   0.232   5.805
  554SOL    HW1 2561   5.527   0.301   5.779
  554SOL    HW2 2562   5.664   0.224   5.734
  555SOL     OW 2563   1.396   5.313   2.958
  555SOL    HW1 2564   1.300   5.328   2.934
  555SOL    HW2 2565   1.403   5.294   3.056
  556SOL     OW 2566   5.142   2.290   3.888
  556SOL    HW1 2567   5.140   2.355   3.813
  556SOL    HW2 2568   5.219   2.311   3.948
  557SOL     OW 2569   0.576   4.615   0.228
  557SOL    HW1 2570   0.671   4.637   0.247
  557SOL    HW2 2571   0.563   4.516   0.231
  558SOL     OW 2572   2.902   3.567   4.647
  558SOL    HW1 2573   2.925   3.601   4.739
  558SOL    HW2 2574   2.919   3.469   4.642
  559SOL     OW 2575   6.294   5.680   6.993
  559SOL    HW1 2576   6.340   5.765   6.969
  559SOL    HW2 2577   6.276   5.677   0.068
  560SOL     OW 2578   4.615   4.167   6.986
  560SOL    HW1 2579   4.567   4.092   0.007
  560SOL    HW2 2580   4.586   4.173   6.891
  561SOL     OW 2581   6.523   1.165   0.467
  561SOL    HW1 2582   6.476   1.197   0.385
  561SOL    HW2 2583   6.469   1.190   0.548
  562SOL     OW 2584   5.369   0.857   5.731
  562SOL    HW1 2585   5.365   0.806   5.817
  562SOL    HW2 2586   5.276   0.879   5.702
  563SOL     OW 2587   2.128   0.527   3.278
  563SOL    HW1 2588   2.159   0.621   3.293
  563SOL    HW2 2589   2.028   0.523   3.286
  564SOL     OW 2590   2.538   2.378   6.699
  564SOL    HW1 2591   2.478   2.310   6.659
  564SOL    HW2 2592   2.518   2.387   6.797
  565SOL     OW 2593   3.851   2.689   5.692
  565SOL    HW1 2594   3.921   2.707   5.623
  565SOL    HW2 2595   3.799   2.774   5.708
  566SOL     OW 2596   6.123   5.362   4.069
  566SOL    HW1 2597   6.074   5.277   4.051
  566SOL    HW2 2598   6.063   5.440   4.050
  567SOL     OW 2599   3.779   3.221   2.445
  567SOL    HW1 2600   3.688   3.245   2.478
  567SOL    HW2 2601   3.847   3.277   2.492
  568SOL     OW 2602   4.166   1.667   0.206
  568SOL    HW1 2603   4.220   1.715   0.276
  568SOL    HW2 2604   4.178   1.713   0.118
  569SOL     OW 2605   1.217   3.479   6.271
  569SOL    HW1 2606   1.221   3.381   6.255
  569SOL    HW2 2607   1.211   3.497   6.370
  570SOL     OW 2608   3.001   6.232   0.144
  570SOL    HW1 2609   3.014   6.174   0.224
  570SOL    HW2 2610   2.917   6.204   0.097
  571SOL     OW 2611   3.327   0.285   2.557
  571SOL    HW1 2612   3.232   0.263   2.581
  571SOL    HW2 2613   3.384   0.204   2.567
  572SOL     OW 2614   2.793   4.900   5.674
  572SOL    HW1 2615   2.785   4.804   5.646
  572SOL    HW2 2616   2.881   4.936   5.643
  573SOL     OW 2617   5.376   1.253   5.699
  573SOL    HW1 2618   5.429   1.188   5.753
  573SOL    HW2 2619   5.291   1.210   5.669
  574SOL     OW 2620   3.536   2.134   4.496
  574SOL    HW1 2621   3.495   2.043   4.495
  574SOL    HW2 2622   3.548   2.166   4.403
  575SOL     OW 2623   5.393   3.785   0.050
  575SOL    HW1 2624   5.355   3.860   7.019
  575SOL    HW2 2625   5.396   3.812   0.146
  576SOL     OW 2626   1.081   2.240   2.937
  576SOL    HW1 2627   1.109   2.144   2.933
  576SOL    HW2 2628   1.144   2.295   2.882
  577SOL     OW 2629   1.886   1.491   2.694
  577SOL    HW1 2630   1.933   1.553   2.757
  577SOL    HW2 2631   1.925   1.502   2.602
  578SOL     OW 2632   6.346   4.868   3.199
  578SOL    HW1 2633   6.257   4.823   3.197
  578SOL    HW2 2634   6.333   4.967   3.211
  579SOL     OW 2635   1.388   3.081   1.964
  579SOL    HW1 2636   1.434   3.079   2.052
  579SOL    HW2 2637   1.453   3.108   1.893
  580SOL     OW 2638   6.455   4.887   6.749
  580SOL    HW1 2639   6.520   4.961   6.733
  580SOL    HW2 2640   6.376   4.897   6.688
  581SOL     OW 2641   2.960   3.149   2.865
  581SOL    HW1 2642   2.948   3.228   2.805
  581SOL    HW2 2643   3.009   3.177   2.948
  582SOL     OW 2644   5.500   5.789   2.617
  582SOL    HW1 2645   5.496   5.692   2.643
  582SOL    HW2 2646   5.588   5.827   2.645
  583SOL     OW 2647   2.962   5.132   6.003
  583SOL    HW1 2648   2.926   5.175   6.086
  583SOL    HW2 2649   2.908   5.050   5.983
  584SOL     OW 2650   2.016   3.828   6.454
  584SOL    HW1 2651   2.107   3.803   6.488
  584SOL    HW2 2652   1.999   3.781   6.367
  585SOL     OW 2653   5.651   3.256   6.127
  585SOL    HW1 2654   5.641   3.167   6.171
  585SOL    HW2 2655   5.607   3.254   6.037
  586SOL     OW 2656   3.976   1.881   6.588
  586SOL    HW1 2657   4.002   1.813   6.657
  586SOL    HW2 2658   3.912   1.840   6.523
  587SOL     OW 2659   2.977   1.561   5.272
  587SOL    HW1 2660   2.967   1.477   5.218
  587SOL    HW2 2661   3.040   1.623   5.225
  588SOL     OW 2662   2.675   4.468   0.916
  588SOL    HW1 2663   2.624   4.505   0.994
  588SOL    HW2 2664   2.612   4.433   0.847
  589SOL     OW 2665   3.111   5.333   1.464
  589SOL    HW1 2666   3.014   5.317   1.479
  589SOL    HW2 2667   3.126   5.357   1.368
  590SOL     OW 2668   5.170   2.724   2.406
  590SOL    HW1 2669   5.154   2.763   2.316
  590SOL    HW2 2670   5.089   2.673   2.435
  591SOL     OW 2671   3.616   5.782   3.432
  591SOL    HW1 2672   3.619   5.839   3.515
  591SOL    HW2 2673   3.550   5.820   3.368
  592SOL     OW 2674   3.010   0.165   1.434
  592SOL    HW1 2675   2.987   0.147   1.530
  592SOL    HW2 2676   3.099   0.210   1.430
  593SOL     OW 2677   4.195   2.298   3.264
  593SOL    HW1 2678   4.264   2.225   3.262
  593SOL    HW2 2679   4.236   2.383   3.233
  594SOL     OW 2680   5.240   2.047   6.358
  594SOL    HW1 2681   5.190   2.111   6.299
  594SOL    HW2 2682   5.338   2.066   6.352
  595SOL     OW 2683   5.717   0.288   3.866
  595SOL    HW1 2684   5.710   0.388   3.869
  595SOL    HW2 2685   5.808   0.262   3.835
  596SOL     OW 2686   1.706   4.697   3.068
  596SOL    HW1 2687   1.786   4.686   3.126
  596SOL    HW2 2688   1.733   4.743   2.983
  597SOL     OW 2689   4.056   6.935   6.469
  597SOL    HW1 2690   4.147   6.961   6.438
  597SOL    HW2 2691   4.010   6.882   6.397
  598SOL     OW 2692   3.093   3.673   6.242
  598SOL    HW1 2693   3.027   3.746   6.224
  598SOL    HW2 2694   3.131   3.684   6.334
  599SOL     OW 2695   2.190   6.393   2.323
  599SOL    HW1 2696   2.102   6.397   2.275
  599SOL    HW2 2697   2.211   6.299   2.347
  600SOL     OW 2698   0.559   0.759   1.220
  600SOL    HW1 2699   0.511   0.769   1.133
  600SOL    HW2 2700   0.640   0.818   1.220
  601SOL     OW 2701   3.116   6.040   4.016
  601SOL    HW1 2702   3.105   6.041   3.917
  601SOL    HW2 2703   3.080   6.125   4.054
  602SOL     OW 2704   1.828   2.948   6.597
  602SOL    HW1 2705   1.905   2.990   6.646
  602SOL    HW2 2706   1.862   2.894   6.520
  603SOL     OW 2707   3.852   1.763   4.097
  603SOL    HW1 2708   3.908   1.794   4.020
  603SOL    HW2 2709   3.838   1.665   4.091
  604SOL     OW 2710   0.795   3.258   1.683
  604SOL    HW1 2711   0.824   3.349   1.713
  604SOL    HW2 2712   0.846   3.189   1.734
  605SOL     OW 2713   6.197   6.028   2.652
  605SOL    HW1 2714   6.291   6.008   2.626
  605SOL    HW2 2715   6.153   6.083   2.581
  606SOL     OW 2716   4.921   0.735   6.795
  606SOL    HW1 2717   4.930   0.646   6.750
  606SOL    HW2 2718   4.974   0.803   6.745
  607SOL     OW 2719   5.505   0.904   5.494
  607SOL    HW1 2720   5.444   0.873   5.420
  607SOL    HW2 2721   5.458   0.893   5.581
  608SOL     OW 2722   3.721   6.174   6.544
  608SOL    HW1 2723   3.728   6.079   6.512
  608SOL    HW2 2724   3.701   6.175   6.642
  609SOL     OW 2725   4.025   3.373   3.742
  609SOL    HW1 2726   4.036   3.334   3.834
  609SOL    HW2 2727   3.998   3.301   3.678
  610SOL     OW 2728   4.982   2.347   2.343
  610SOL    HW1 2729   4.941   2.430   2.382
  610SOL    HW2 2730   5.039   2.372   2.264
  611SOL     OW 2731   2.535   0.432   6.630
  611SOL    HW1 2732   2.456   0.425   6.569
  611SOL    HW2 2733   2.557   0.529   6.645
  612SOL     OW 2734   4.034   6.647   6.229
  612SOL    HW1 2735   4.115   6.705   6.218
  612SOL    HW2 2736   3.960   6.702   6.268
  613SOL     OW 2737   4.397   6.768   5.956
  613SOL    HW1 2738   4.486   6.779   5.999
  613SOL    HW2 2739   4.405   6.785   5.858
  614SOL     OW 2740   5.107   4.106   1.550
  614SOL    HW1 2741   5.022   4.157   1.545
  614SOL    HW2 2742   5.136   4.080   1.458
  615SOL     OW 2743   0.585   1.650   0.567
  615SOL    HW1 2744   0.590   1.698   0.655
  615SOL    HW2 2745   0.579   1.552   0.584
  616SOL     OW 2746   0.308   2.222   3.763
  616SOL    HW1 2747   0.210   2.238   3.761
  616SOL    HW2 2748   0.340   2.221   3.857
  617SOL     OW 2749   6.912   3.674   6.551
  617SOL    HW1 2750   6.890   3.577   6.557
  617SOL    HW2 2751   7.011   3.685   6.537
  618SOL     OW 2752   0.146   3.353   6.717
  618SOL    HW1 2753   0.179   3.436   6.761
  618SOL    HW2 2754   0.148   3.277   6.783
  619SOL     OW 2755   4.954   0.245   6.410
  619SOL    HW1 2756   4.902   0.304   6.471
  619SOL    HW2 2757   4.892   0.208   6.340
  620SOL     OW 2758   4.926   2.296   1.656
  620SOL    HW1 2759   4.859   2.230   1.688
  620SOL    HW2 2760   4.880   2.376   1.618
  621SOL     OW 2761   2.398   6.855   6.106
  621SOL    HW1 2762   2.445   6.773   6.139
  621SOL    HW2 2763   2.349   6.898   6.181
  622SOL     OW 2764   0.921   1.771   5.139
  622SOL    HW1 2765   1.016   1.802   5.131
  622SOL    HW2 2766   0.859   1.849   5.132
  623SOL     OW 2767   0.940   6.127   5.913
  623SOL    HW1 2768   0.862   6.184   5.884
  623SOL    HW2 2769   0.922   6.090   6.004
  624SOL     OW 2770   0.230   1.120   0.514
  624SOL    HW1 2771   0.247   1.163   0.426
  624SOL    HW2 2772   0.149   1.062   0.508
  625SOL     OW 2773   1.897   2.299   1.090
  625SOL    HW1 2774   1.811   2.260   1.057
  625SOL    HW2 2775   1.912   2.273   1.185
  626SOL     OW 2776   0.447   5.966   3.038
  626SOL    HW1 2777   0.485   6.010   2.957
  626SOL    HW2 2778   0.351   5.945   3.022
  627SOL     OW 2779   6.355   6.164   0.672
  627SOL    HW1 2780   6.340   6.065   0.683
  627SOL    HW2 2781   6.355   6.208   0.761
  628SOL     OW 2782   5.228   5.479   5.354
  628SOL    HW1 2783   5.238   5.490   5.255
  628SOL    HW2 2784   5.276   5.397   5.383
  629SOL     OW 2785   0.734   0.546   6.460
  629SOL    HW1 2786   0.728   0.631   6.408
  629SOL    HW2 2787   0.685   0.474   6.412
  630SOL     OW 2788   0.434   1.575   0.216
  630SOL    HW1 2789   0.498   1.498   0.213
  630SOL    HW2 2790   0.341   1.542   0.196
  631SOL     OW 2791   3.948   0.784   5.635
  631SOL    HW1 2792   4.022   0.851   5.641
  631SOL    HW2 2793   3.914   0.781   5.541
  632SOL     OW 2794   4.708   1.810   1.424
  632SOL    HW1 2795   4.730   1.834   1.329
  632SOL    HW2 2796   4.779   1.846   1.484
  633SOL     OW 2797   2.922   3.701   6.834
  633SOL    HW1 2798   3.002   3.657   6.793
  633SOL    HW2 2799   2.857   3.727   6.762
  634SOL     OW 2800   3.332   4.094   3.292
  634SOL    HW1 2801   3.295   4.078   3.200
  634SOL    HW2 2802   3.349   4.006   3.336
  635SOL     OW 2803   4.834   5.955   1.114
  635SOL    HW1 2804   4.900   5.953   1.038
  635SOL    HW2 2805   4.829   6.048   1.150
  636SOL     OW 2806   3.013   6.750   6.408
  636SOL    HW1 2807   3.068   6.667   6.415
  636SOL    HW2 2808   2.958   6.746   6.324
  637SOL     OW 2809   0.344   3.058   3.426
  637SOL    HW1 2810   0.252   3.027   3.449
  637SOL    HW2 2811   0.354   3.062   3.326
  638SOL     OW 2812   5.579   3.343   3.918
  638SOL    HW1 2813   5.571   3.276   3.845
  638SOL    HW2 2814   5.488   3.376   3.944
  639SOL     OW 2815   4.850   3.375   2.887
  639SOL    HW1 2816   4.943   3.401   2.912
  639SOL    HW2 2817   4.839   3.382   2.788
  640SOL     OW 2818   0.052   5.103   4.369
  640SOL    HW1 2819   0.145   5.115   4.335
  640SOL    HW2 2820   0.050   5.118   4.468
  641SOL     OW 2821   0.584   4.662   4.921
  641SOL    HW1 2822   0.614   4.755   4.941
  641SOL    HW2 2823   0.485   4.655   4.935
  642SOL     OW 2824   0.587   3.422   4.120
  642SOL    HW1 2825   0.653   3.460   4.184
  642SOL    HW2 2826   0.529   3.495   4.084
  643SOL     OW 2827   6.150   0.163   6.294
  643SOL    HW1 2828   6.123   0.207   6.380
  643SOL    HW2 2829   6.088   0.088   6.273
  644SOL     OW 2830   1.329   0.246   4.360
  644SOL    HW1 2831   1.377   0.171   4.405
  644SOL    HW2 2832   1.239   0.215   4.328
  645SOL     OW 2833   4.177   0.041   5.150
  645SOL    HW1 2834   4.178   0.123   5.093
  645SOL    HW2 2835   4.233   0.055   5.232
  646SOL     OW 2836   3.792   0.918   4.951
  646SOL    HW1 2837   3.774   1.016   4.953
  646SOL    HW2 2838   3.784   0.884   4.858
  647SOL     OW 2839   5.363   2.008   4.865
  647SOL    HW1 2840   5.269   2.034   4.885
  647SOL    HW2 2841   5.364   1.944   4.788
  648SOL     OW 2842   0.662   4.300   4.150
  648SOL    HW1 2843   0.698   4.254   4.231
  648SOL    HW2 2844   0.562   4.295   4.151
  649SOL     OW 2845   2.439   3.821   1.136
  649SOL    HW1 2846   2.441   3.769   1.221
  649SOL    HW2 2847   2.491   3.906   1.148
  650SOL     OW 2848   6.358   4.109   1.070
  650SOL    HW1 2849   6.397   4.048   1.001
  650SOL    HW2 2850   6.278   4.156   1.033
  651SOL     OW 2851   1.771   0.244   5.887
  651SOL    HW1 2852   1.742   0.301   5.964
  651SOL    HW2 2853   1.822   0.165   5.921
  652SOL     OW 2854   4.843   0.345   3.414
  652SOL    HW1 2855   4.890   0.284   3.478
  652SOL    HW2 2856   4.744   0.338   3.426
  653SOL     OW 2857   0.821   5.660   0.235
  653SOL    HW1 2858   0.840   5.607   0.317
  653SOL    HW2 2859   0.865   5.617   0.156
  654SOL     OW 2860   0.931   6.126   0.263
  654SOL    HW1 2861   1.009   6.084   0.309
  654SOL    HW2 2862   0.959   6.213   0.222
  655SOL     OW 2863   0.104   5.650   1.331
  655SOL    HW1 2864   0.052   5.618   1.411
  655SOL    HW2 2865   0.124   5.572   1.271
  656SOL     OW 2866   2.524   5.817   0.511
  656SOL    HW1 2867   2.570   5.777   0.590
  656SOL    HW2 2868   2.494   5.910   0.532
  657SOL     OW 2869   3.142   3.660   1.222
  657SOL    HW1 2870   3.205   3.635   1.149
  657SOL    HW2 2871   3.119   3.578   1.275
  658SOL     OW 2872   1.716   3.851   6.432
  658SOL    HW1 2873   1.763   3.888   6.512
  658SOL    HW2 2874   1.774   3.783   6.388
  659SOL     OW 2875   2.291   6.155   4.326
  659SOL    HW1 2876   2.297   6.255   4.318
  659SOL    HW2 2877   2.223   6.131   4.395
  660SOL     OW 2878   5.840   3.716   2.985
  660SOL    HW1 2879   5.769   3.760   2.931
  660SOL    HW2 2880   5.805   3.630   3.022
  661SOL     OW 2881   4.837   3.917   3.875
  661SOL    HW1 2882   4.854   3.897   3.779
  661SOL    HW2 2883   4.833   3.831   3.927
  662SOL     OW 2884   4.047   0.400   5.705
  662SOL    HW1 2885   4.121   0.450   5.660
  662SOL    HW2 2886   3.985   0.464   5.748
  663SOL     OW 2887   1.624   3.862   0.137
  663SOL    HW1 2888   1.644   3.802   0.060
  663SOL    HW2 2889   1.552   3.821   0.194
  664SOL     OW 2890   0.781   5.386   6.157
  664SOL    HW1 2891   0.865   5.332   6.165
  664SOL    HW2 2892   0.726   5.351   6.081
  665SOL     OW 2893   4.592   5.046   1.108
  665SOL    HW1 2894   4.653   4.977   1.068
  665SOL    HW2 2895   4.511   5.001   1.145
  666SOL     OW 2896   4.373   2.324   2.131
  666SOL    HW1 2897   4.284   2.279   2.141
  666SOL    HW2 2898   4.431   2.299   2.208
  667SOL     OW 2899   6.374   4.358   3.304
  667SOL    HW1 2900   6.403   4.371   3.398
  667SOL    HW2 2901   6.448   4.385   3.242
  668SOL     OW 2902   5.003   5.899   6.924
  668SOL    HW1 2903   4.992   5.940   6.833
  668SOL    HW2 2904   4.978   5.803   6.920
  669SOL     OW 2905   3.079   6.015   2.717
  669SOL    HW1 2906   3.080   6.080   2.641
  669SOL    HW2 2907   3.170   6.008   2.757
  670SOL     OW 2908   2.719   3.123   1.756
  670SOL    HW1 2909   2.730   3.222   1.766
  670SOL    HW2 2910   2.808   3.080   1.744
  671SOL     OW 2911   2.331   5.638   6.674
  671SOL    HW1 2912   2.240   5.637   6.715
  671SOL    HW2 2913   2.343   5.723   6.622
  672SOL     OW 2914   0.813   4.417   1.744
  672SOL    HW1 2915   0.737   4.358   1.716
  672SOL    HW2 2916   0.834   4.482   1.672
  673SOL     OW 2917   6.468   0.459   1.299
  673SOL    HW1 2918   6.413   0.502   1.371
  673SOL    HW2 2919   6.451   0.360   1.299
  674SOL     OW 2920   6.466   4.222   4.940
  674SOL    HW1 2921   6.506   4.295   4.884
  674SOL    HW2 2922   6.412   4.263   5.013
  675SOL     OW 2923   6.865   1.376   5.243
  675SOL    HW1 2924   6.779   1.425   5.232
  675SOL    HW2 2925   6.859   1.286   5.199
  676SOL     OW 2926   3.693   5.340   2.304
  676SOL    HW1 2927   3.714   5.244   2.320
  676SOL    HW2 2928   3.597   5.350   2.276
  677SOL     OW 2929   6.294   1.747   6.398
  677SOL    HW1 2930   6.207   1.793   6.385
  677SOL    HW2 2931   6.366   1.814   6.415
  678SOL     OW 2932   1.067   1.546   5.297
  678SOL    HW1 2933   1.106   1.544   5.389
  678SOL    HW2 2934   1.039   1.639   5.274
  679SOL     OW 2935   4.726   1.223   3.835
  679SOL    HW1 2936   4.758   1.258   3.747
  679SOL    HW2 2937   4.796   1.165   3.876
  680SOL     OW 2938   5.310   5.433   6.077
  680SOL    HW1 2939   5.387   5.380   6.113
  680SOL    HW2 2940   5.326   5.454   5.981
  681SOL     OW 2941   5.836   6.845   1.648
  681SOL    HW1 2942   5.797   6.754   1.637
  681SOL    HW2 2943   5.829   6.873   1.744
  682SOL     OW 2944   1.440   6.921   0.004
  682SOL    HW1 2945   1.505   6.845   7.023
  682SOL    HW2 2946   1.371   6.903   0.074
  683SOL     OW 2947   3.568   1.724   6.647
  683SOL    HW1 2948   3.487   1.769   6.610
  683SOL    HW2 2949   3.541   1.662   6.721
  684SOL     OW 2950   5.840   1.166   6.993
  684SOL    HW1 2951   5.806   1.156   6.899
  684SOL    HW2 2952   5.917   1.230   6.993
  685SOL     OW 2953   4.671   1.104   4.826
  685SOL    HW1 2954   4.648   1.061   4.739
  685SOL    HW2 2955   4.590   1.105   4.885
  686SOL     OW 2956   6.037   2.956   3.407
  686SOL    HW1 2957   6.050   3.019   3.331
  686SOL    HW2 2958   5.941   2.930   3.412
  687SOL     OW 2959   0.036   2.703   4.427
  687SOL    HW1 2960   0.061   2.612   4.395
  687SOL    HW2 2961   0.112   2.743   4.479
  688SOL     OW 2962   1.746   3.030   0.220
  688SOL    HW1 2963   1.715   2.936   0.205
  688SOL    HW2 2964   1.786   3.066   0.135
  689SOL     OW 2965   0.458   4.460   5.668
  689SOL    HW1 2966   0.524   4.440   5.740
  689SOL    HW2 2967   0.370   4.486   5.708
  690SOL     OW 2968   1.044   4.120   3.615
  690SOL    HW1 2969   1.056   4.171   3.700
  690SOL    HW2 2970   1.003   4.179   3.546
  691SOL     OW 2971   2.582   1.133   6.307
  691SOL    HW1 2972   2.512   1.140   6.379
  691SOL    HW2 2973   2.647   1.061   6.330
  692SOL     OW 2974   3.892   6.347   3.248
  692SOL    HW1 2975   3.856   6.315   3.160
  692SOL    HW2 2976   3.991   6.331   3.250
  693SOL     OW 2977   6.583   1.858   3.074
  693SOL    HW1 2978   6.601   1.903   2.986
  693SOL    HW2 2979   6.670   1.830   3.115
  694SOL     OW 2980   3.387   6.793   2.536
  694SOL    HW1 2981   3.425   6.803   2.628
  694SOL    HW2 2982   3.425   6.711   2.493
  695SOL     OW 2983   4.359   4.718   5.693
  695SOL    HW1 2984   4.343   4.813   5.721
  695SOL    HW2 2985   4.452   4.708   5.659
  696SOL     OW 2986   2.890   5.297   2.111
  696SOL    HW1 2987   2.916   5.223   2.173
  696SOL    HW2 2988   2.803   5.337   2.141
  697SOL     OW 2989   1.531   2.971   4.784
  697SOL    HW1 2990   1.594   2.927   4.848
  697SOL    HW2 2991   1.539   3.070   4.791
  698SOL     OW 2992   5.564   0.150   6.656
  698SOL    HW1 2993   5.623   0.080   6.696
  698SOL    HW2 2994   5.620   0.225   6.623
  699SOL     OW 2995   1.231   3.953   6.952
  699SOL    HW1 2996   1.189   3.967   0.018
  699SOL    HW2 2997   1.313   4.009   6.945
  700SOL     OW 2998   2.634   1.157   3.914
  700SOL    HW1 2999   2.650   1.105   3.831
  700SOL    HW2 3000   2.646   1.098   3.994
  701SOL     OW 3001   6.542   4.450   5.298
  701SOL    HW1 3002   6.638   4.434   5.276
  701SOL    HW2 3003   6.506   4.369   5.345
  702SOL     OW 3004   6.249   6.434   6.062
  702SOL    HW1 3005   6.226   6.392   5.974
  702SOL    HW2 3006   6.173   6.424   6.125
  703SOL     OW 3007   3.943   3.730   6.311
  703SOL    HW1 3008   4.002   3.658   6.275
  703SOL    HW2 3009   3.938   3.722   6.411
  704SOL     OW 3010   1.648   1.397   6.545
  704SOL    HW1 3011   1.568   1.347   6.580
  704SOL    HW2 3012   1.731   1.355   6.580
  705SOL     OW 3013   5.274   6.875   3.664
  705SOL    HW1 3014   5.311   6.965   3.685
  705SOL    HW2 3015   5.181   6.867   3.699
  706SOL     OW 3016   4.338   2.101   4.424
  706SOL    HW1 3017   4.238   2.098   4.427
  706SOL    HW2 3018   4.374   2.010   4.402
  707SOL     OW 3019   4.639   0.072   2.800
  707SOL    HW1 3020   4.570   0.003   2.822
  707SOL    HW2 3021   4.712   0.030   2.747
  708SOL     OW 3022   4.150   0.441   1.303
  708SOL    HW1 3023   4.134   0.522   1.246
  708SOL    HW2 3024   4.120   0.360   1.253
  709SOL     OW 3025   1.234   5.349   0.654
  709SOL    HW1 3026   1.152   5.386   0.612
  709SOL    HW2 3027   1.311   5.358   0.590
  710SOL     OW 3028   3.738   3.124   2.167
  710SOL    HW1 3029   3.741   3.176   2.252
  710SOL    HW2 3030   3.723   3.027   2.187
  711SOL     OW 3031   0.026   2.157   6.024
  711SOL    HW1 3032   6.984   2.195   5.958
  711SOL    HW2 3033   7.003   2.139   6.110
  712SOL     OW 3034   3.262   3.963   0.540
  712SOL    HW1 3035   3.313   3.893   0.591
  712SOL    HW2 3036   3.164   3.949   0.554
  713SOL     OW 3037   3.298   2.805   0.312
  713SOL    HW1 3038   3.268   2.880   0.371
  713SOL    HW2 3039   3.321   2.725   0.368
  714SOL     OW 3040   6.312   4.869   4.597
  714SOL    HW1 3041   6.287   4.965   4.598
  714SOL    HW2 3042   6.404   4.858   4.635
  715SOL     OW 3043   5.349   6.228   0.665
  715SOL    HW1 3044   5.302   6.198   0.582
  715SOL    HW2 3045   5.447   6.238   0.646
  716SOL     OW 3046   1.072   6.864   0.822
  716SOL    HW1 3047   1.018   6.925   0.880
  716SOL    HW2 3048   1.018   6.838   0.742
  717SOL     OW 3049   5.496   5.167   6.364
  717SOL    HW1 3050   5.526   5.165   6.269
  717SOL    HW2 3051   5.574   5.184   6.424
  718SOL     OW 3052   4.951   2.360   5.803
  718SOL    HW1 3053   5.027   2.401   5.853
  718SOL    HW2 3054   4.876   2.340   5.866
  719SOL     OW 3055   6.907   2.251   1.170
  719SOL    HW1 3056   6.914   2.271   1.073
  719SOL    HW2 3057   6.812   2.230   1.193
  720SOL     OW 3058   3.475   0.871   6.503
  720SOL    HW1 3059   3.535   0.943   6.469
  720SOL    HW2 3060   3.411   0.843   6.431
  721SOL     OW 3061   2.291   0.560   4.474
  721SOL    HW1 3062   2.279   0.466   4.441
  721SOL    HW2 3063   2.365   0.563   4.540
  722SOL     OW 3064   2.164   0.030   4.743
  722SOL    HW1 3065   2.174   0.119   4.698
  722SOL    HW2 3066   2.067   0.004   4.743
  723SOL     OW 3067   2.083   3.286   3.313
  723SOL    HW1 3068   1.984   3.278   3.319
  723SOL    HW2 3069   2.127   3.216   3.370
  724SOL     OW 3070   1.228   2.420   5.126
  724SOL    HW1 3071   1.315   2.470   5.130
  724SOL    HW2 3072   1.172   2.456   5.052
  725SOL     OW 3073   3.301   5.602   0.539
  725SOL    HW1 3074   3.340   5.509   0.537
  725SOL    HW2 3075   3.346   5.657   0.469
  726SOL     OW 3076   4.138   4.592   0.378
  726SOL    HW1 3077   4.049   4.638   0.384
  726SOL    HW2 3078   4.210   4.660   0.369
  727SOL     OW 3079   5.046   5.415   6.109
  727SOL    HW1 3080   5.018   5.441   6.017
  727SOL    HW2 3081   5.142   5.439   6.123
  728SOL     OW 3082   7.018   3.246   4.344
  728SOL    HW1 3083   0.080   3.280   4.304
  728SOL    HW2 3084   6.961   3.324   4.369
  729SOL     OW 3085   1.600   2.128   0.501
  729SOL    HW1 3086   1.660   2.088   0.432
  729SOL    HW2 3087   1.558   2.055   0.555
  730SOL     OW 3088   5.169   1.172   2.440
  730SOL    HW1 3089   5.221   1.255   2.460
  730SOL    HW2 3090   5.081   1.176   2.488
  731SOL     OW 3091   5.974   4.200   6.033
  731SOL    HW1 3092   5.911   4.277   6.019
  731SOL    HW2 3093   5.922   4.117   6.052
  732SOL     OW 3094   0.646   2.926   0.869
  732SOL    HW1 3095   0.724   2.901   0.927
  732SOL    HW2 3096   0.606   2.843   0.831
  733SOL     OW 3097   5.528   5.489   5.588
  733SOL    HW1 3098   5.596   5.529   5.650
  733SOL    HW2 3099   5.454   5.554   5.573
  734SOL     OW 3100   6.638   4.151   2.531
  734SOL    HW1 3101   6.563   4.217   2.538
  734SOL    HW2 3102   6.672   4.129   2.623
  735SOL     OW 3103   4.287   2.711   0.098
  735SOL    HW1 3104   4.323   2.751   0.014
  735SOL    HW2 3105   4.191   2.737   0.110
  736SOL     OW 3106   0.366   0.385   2.612
  736SOL    HW1 3107   0.334   0.434   2.531
  736SOL    HW2 3108   0.463   0.405   2.626
  737SOL     OW 3109   4.731   2.188   6.476
  737SOL    HW1 3110   4.787   2.127   6.420
  737SOL    HW2 3111   4.783   2.216   6.557
  738SOL     OW 3112   2.001   4.095   2.416
  738SOL    HW1 3113   1.925   4.034   2.396
  738SOL    HW2 3114   2.083   4.065   2.366
  739SOL     OW 3115   3.654   0.185   4.919
  739SOL    HW1 3116   3.583   0.116   4.929
  739SOL    HW2 3117   3.613   0.270   4.884
  740SOL     OW 3118   4.972   6.977   0.428
  740SOL    HW1 3119   4.912   6.898   0.433
  740SOL    HW2 3120   5.068   6.947   0.432
  741SOL     OW 3121   2.452   6.419   3.197
  741SOL    HW1 3122   2.412   6.355   3.263
  741SOL    HW2 3123   2.489   6.368   3.119
  742SOL     OW 3124   1.858   6.341   1.163
  742SOL    HW1 3125   1.855   6.319   1.260
  742SOL    HW2 3126   1.872   6.439   1.151
  743SOL     OW 3127   0.323   4.347   4.384
  743SOL    HW1 3128   0.239   4.392   4.412
  743SOL    HW2 3129   0.397   4.372   4.448
  744SOL     OW 3130   5.996   6.840   6.508
  744SOL    HW1 3131   6.023   6.897   6.586
  744SOL    HW2 3132   5.996   6.896   6.425
  745SOL     OW 3133   0.804   5.109   4.580
  745SOL    HW1 3134   0.741   5.186   4.572
  745SOL    HW2 3135   0.875   5.117   4.510
  746SOL     OW 3136   0.590   5.458   5.946
  746SOL    HW1 3137   0.619   5.455   5.851
  746SOL    HW2 3138   0.619   5.544   5.988
  747SOL     OW 3139   4.270   6.861   5.004
  747SOL    HW1 3140   4.197   6.837   4.941
  747SOL    HW2 3141   4.246   6.944   5.054
  748SOL     OW 3142   3.119   4.913   2.402
  748SOL    HW1 3143   3.057   4.836   2.385
  748SOL    HW2 3144   3.163   4.939   2.316
  749SOL     OW 3145   6.704   4.420   4.990
  749SOL    HW1 3146   6.757   4.380   5.065
  749SOL    HW2 3147   6.636   4.484   5.028
  750SOL     OW 3148   2.237   2.660   1.375
  750SOL    HW1 3149   2.254   2.673   1.277
  750SOL    HW2 3150   2.268   2.741   1.425
  751SOL     OW 3151   4.210   2.803   6.354
  751SOL    HW1 3152   4.215   2.722   6.412
  751SOL    HW2 3153   4.115   2.819   6.327
  752SOL     OW 3154   3.776   1.455   2.254
  752SOL    HW1 3155   3.864   1.430   2.294
  752SOL    HW2 3156   3.768   1.554   2.250
  753SOL     OW 3157   1.653   2.775   4.573
  753SOL    HW1 3158   1.590   2.704   4.604
  753SOL    HW2 3159   1.657   2.849   4.641
  754SOL     OW 3160   5.489   3.239   5.885
  754SOL    HW1 3161   5.436   3.253   5.968
  754SOL    HW2 3162   5.427   3.236   5.806
  755SOL     OW 3163   1.579   4.612   5.728
  755SOL    HW1 3164   1.566   4.690   5.666
  755SOL    HW2 3165   1.672   4.578   5.719
  756SOL     OW 3166   3.552   0.220   1.430
  756SOL    HW1 3167   3.627   0.202   1.493
  756SOL    HW2 3168   3.589   0.251   1.342
  757SOL     OW 3169   0.765   0.024   3.454
  757SOL    HW1 3170   0.821   0.053   3.532
  757SOL    HW2 3171   0.802   6.963   3.416
  758SOL     OW 3172   4.017   0.143   2.003
  758SOL    HW1 3173   4.054   0.186   1.920
  758SOL    HW2 3174   4.022   0.207   2.079
  759SOL     OW 3175   0.993   1.326   0.753
  759SOL    HW1 3176   1.004   1.235   0.715
  759SOL    HW2 3177   1.076   1.352   0.802
  760SOL     OW 3178   4.910   0.318   5.669
  760SOL    HW1 3179   4.848   0.265   5.610
  760SOL    HW2 3180   4.984   0.356   5.613
  761SOL     OW 3181   5.504   3.096   5.625
  761SOL    HW1 3182   5.543   3.072   5.714
  761SOL    HW2 3183   5.540   3.034   5.555
  762SOL     OW 3184   2.379   0.288   4.803
  762SOL    HW1 3185   2.326   0.255   4.725
  762SOL    HW2 3186   2.424   0.374   4.780
  763SOL     OW 3187   4.118   4.715   6.793
  763SOL    HW1 3188   4.089   4.668   6.876
  763SOL    HW2 3189   4.055   4.695   6.718
  764SOL     OW 3190   4.474   1.113   3.863
  764SOL    HW1 3191   4.432   1.051   3.930
  764SOL    HW2 3192   4.558   1.150   3.901
  765SOL     OW 3193   1.097   5.996   1.052
  765SOL    HW1 3194   1.076   5.905   1.016
  765SOL    HW2 3195   1.044   6.065   1.001
  766SOL     OW 3196   2.151   3.876   6.892
  766SOL    HW1 3197   2.104   3.965   6.885
  766SOL    HW2 3198   2.095   3.806   6.847
  767SOL     OW 3199   5.888   5.804   2.390
  767SOL    HW1 3200   5.926   5.712   2.394
  767SOL    HW2 3201   5.827   5.818   2.468
  768SOL     OW 3202   1.834   6.312   1.434
  768SOL    HW1 3203   1.861   6.405   1.460
  768SOL    HW2 3204   1.745   6.290   1.475
  769SOL     OW 3205   3.278   0.646   4.508
  769SOL    HW1 3206   3.333   0.563   4.496
  769SOL    HW2 3207   3.279   0.699   4.423
  770SOL     OW 3208   2.174   3.556   3.290
  770SOL    HW1 3209   2.154   3.462   3.318
  770SOL    HW2 3210   2.227   3.554   3.205
  771SOL     OW 3211   2.059   5.364   2.112
  771SOL    HW1 3212   2.067   5.423   2.193
  771SOL    HW2 3213   2.122   5.288   2.119
  772SOL     OW 3214   5.955   5.208   0.819
  772SOL    HW1 3215   6.030   5.181   0.759
  772SOL    HW2 3216   5.982   5.289   0.872
  773SOL     OW 3217   0.684   3.990   4.206
  773SOL    HW1 3218   0.684   4.071   4.147
  773SOL    HW2 3219   0.707   4.017   4.300
  774SOL     OW 3220   1.532   2.047   1.436
  774SOL    HW1 3221   1.566   1.977   1.498
  774SOL    HW2 3222   1.592   2.127   1.440
  775SOL     OW 3223   0.799   2.406   2.668
  775SOL    HW1 3224   0.700   2.419   2.663
  775SOL    HW2 3225   0.818   2.323   2.721
  776SOL     OW 3226   0.845   0.048   5.735
  776SOL    HW1 3227   0.770   0.068   5.798
  776SOL    HW2 3228   0.826   0.089   5.646
  777SOL     OW 3229   3.029   5.127   1.025
  777SOL    HW1 3230   2.973   5.180   0.962
  777SOL    HW2 3231   3.117   5.173   1.038
  778SOL     OW 3232   3.204   1.012   2.791
  778SOL    HW1 3233   3.257   1.091   2.760
  778SOL    HW2 3234   3.267   0.940   2.821
  779SOL     OW 3235   0.524   2.290   2.766
  779SOL    HW1 3236   0.509   2.346   2.847
  779SOL    HW2 3237   0.438   2.248   2.738
  780SOL     OW 3238   5.838   3.900   3.597
  780SOL    HW1 3239   5.883   3.814   3.574
  780SOL    HW2 3240   5.830   3.957   3.515
  781SOL     OW 3241   5.391   1.334   0.224
  781SOL    HW1 3242   5.356   1.407   0.165
  781SOL    HW2 3243   5.315   1.278   0.256
  782SOL     OW 3244   1.834   3.982   6.695
  782SOL    HW1 3245   1.771   4.050   6.658
  782SOL    HW2 3246   1.783   3.911   6.742
  783SOL     OW 3247   3.934   5.022   1.062
  783SOL    HW1 3248   3.843   5.056   1.085
  783SOL    HW2 3249   4.003   5.080   1.106
  784SOL     OW 3250   5.189   6.756   0.027
  784SOL    HW1 3251   5.113   6.748   6.986
  784SOL    HW2 3252   5.272   6.720   7.008
  785SOL     OW 3253   0.365   2.767   2.626
  785SOL    HW1 3254   0.284   2.822   2.605
  785SOL    HW2 3255   0.414   2.808   2.702
  786SOL     OW 3256   0.758   0.949   1.209
  786SOL    HW1 3257   0.787   0.980   1.118
  786SOL    HW2 3258   0.745   1.028   1.269
  787SOL     OW 3259   3.032   0.822   6.596
  787SOL    HW1 3260   2.943   0.866   6.588
  787SOL    HW2 3261   3.104   0.891   6.593
  788SOL     OW 3262   3.435   2.759   5.826
  788SOL    HW1 3263   3.438   2.659   5.821
  788SOL    HW2 3264   3.410   2.786   5.919
  789SOL     OW 3265   5.885   3.689   1.350
  789SOL    HW1 3266   5.915   3.719   1.441
  789SOL    HW2 3267   5.794   3.649   1.356
  790SOL     OW 3268   2.478   0.947   4.180
  790SOL    HW1 3269   2.535   0.866   4.189
  790SOL    HW2 3270   2.435   0.948   4.089
  791SOL     OW 3271   3.849   5.681   3.365
  791SOL    HW1 3272   3.889   5.713   3.279
  791SOL    HW2 3273   3.763   5.729   3.382
  792SOL     OW 3274   0.242   0.615   1.600
  792SOL    HW1 3275   0.174   0.654   1.662
  792SOL    HW2 3276   0.215   0.523   1.573
  793SOL     OW 3277   5.099   5.599   3.366
  793SOL    HW1 3278   5.072   5.654   3.445
  793SOL    HW2 3279   5.104   5.657   3.285
  794SOL     OW 3280   2.720   3.963   5.510
  794SOL    HW1 3281   2.791   3.895   5.492
  794SOL    HW2 3282   2.729   4.038   5.444
  795SOL     OW 3283   3.914   6.774   4.557
  795SOL    HW1 3284   3.970   6.842   4.509
  795SOL    HW2 3285   3.817   6.797   4.543
  796SOL     OW 3286   1.433   1.854   6.332
  796SOL    HW1 3287   1.357   1.907   6.369
  796SOL    HW2 3288   1.515   1.910   6.330
  797SOL     OW 3289   5.094   2.656   1.504
  797SOL    HW1 3290   5.056   2.717   1.436
  797SOL    HW2 3291   5.153   2.588   1.460
  798SOL     OW 3292   4.752   0.021   1.811
  798SOL    HW1 3293   4.729   0.105   1.762
  798SOL    HW2 3294   4.730   6.965   1.754
  799SOL     OW 3295   6.157   1.090   5.483
  799SOL    HW1 3296   6.213   1.096   5.566
  799SOL    HW2 3297   6.099   1.171   5.476
  800SOL     OW 3298   5.208   1.734   2.888
  800SOL    HW1 3299   5.167   1.644   2.903
  800SOL    HW2 3300   5.164   1.801   2.948
  801SOL     OW 3301   1.902   3.237   4.404
  801SOL    HW1 3302   1.946   3.228   4.314
  801SOL    HW2 3303   1.963   3.202   4.475
  802SOL     OW 3304   4.389   0.848   0.646
  802SOL    HW1 3305   4.344   0.774   0.596
  802SOL    HW2 3306   4.441   0.904   0.582
  803SOL     OW 3307   6.944   6.163   5.385
  803SOL    HW1 3308   6.979   6.205   5.469
  803SOL    HW2 3309   6.997   6.196   5.307
  804SOL     OW 3310   5.481   5.846   0.160
  804SOL    HW1 3311   5.554   5.803   0.213
  804SOL    HW2 3312   5.500   5.834   0.062
  805SOL     OW 3313   3.514   1.482   5.216
  805SOL    HW1 3314   3.462   1.556   5.259
  805SOL    HW2 3315   3.490   1.395   5.258
  806SOL     OW 3316   5.578   0.834   4.111
  806SOL    HW1 3317   5.640   0.892   4.059
  806SOL    HW2 3318   5.571   0.744   4.068
  807SOL     OW 3319   0.777   2.013   4.601
  807SOL    HW1 3320   0.801   1.984   4.509
  807SOL    HW2 3321   0.702   1.957   4.636
  808SOL     OW 3322   4.885   3.204   5.996
  808SOL    HW1 3323   4.896   3.177   6.091
  808SOL    HW2 3324   4.828   3.286   5.991
  809SOL     OW 3325   0.242   4.962   1.600
  809SOL    HW1 3326   0.155   4.982   1.555
  809SOL    HW2 3327   0.224   4.926   1.692
  810SOL     OW 3328   3.374   2.813   0.791
  810SOL    HW1 3329   3.281   2.777   0.794
  810SOL    HW2 3330   3.439   2.738   0.795
  811SOL     OW 3331   3.998   5.615   4.702
  811SOL    HW1 3332   3.991   5.715   4.710
  811SOL    HW2 3333   4.051   5.592   4.621
  812SOL     OW 3334   0.590   1.281   1.673
  812SOL    HW1 3335   0.522   1.242   1.735
  812SOL    HW2 3336   0.552   1.288   1.581
  813SOL     OW 3337   3.062   5.730   5.021
  813SOL    HW1 3338   3.133   5.688   5.077
  813SOL    HW2 3339   2.984   5.754   5.079
  814SOL     OW 3340   5.796   6.300   2.745
  814SOL    HW1 3341   5.701   6.332   2.735
  814SOL    HW2 3342   5.798   6.222   2.808
  815SOL     OW 3343   0.804   3.917   3.021
  815SOL    HW1 3344   0.787   3.963   3.108
  815SOL    HW2 3345   0.723   3.924   2.963
  816SOL     OW 3346   6.425   6.719   0.320
  816SOL    HW1 3347   6.464   6.768   0.398
  816SOL    HW2 3348   6.487   6.725   0.242
  817SOL     OW 3349   2.456   3.745   1.686
  817SOL    HW1 3350   2.482   3.840   1.703
  817SOL    HW2 3351   2.423   3.704   1.770
  818SOL     OW 3352   6.503   2.614   1.378
  818SOL    HW1 3353   6.586   2.578   1.336
  818SOL    HW2 3354   6.458   2.678   1.316
  819SOL     OW 3355   5.495   2.943   3.302
  819SOL    HW1 3356   5.583   2.930   3.349
  819SOL    HW2 3357   5.505   2.916   3.206
  820SOL     OW 3358   2.566   3.360   5.810
  820SOL    HW1 3359   2.585   3.312   5.895
  820SOL    HW2 3360   2.480   3.325   5.771
  821SOL     OW 3361   1.746   3.995   0.332
  821SOL    HW1 3362   1.845   3.986   0.318
  821SOL    HW2 3363   1.698   3.958   0.252
  822SOL     OW 3364   1.657   4.000   4.674
  822SOL    HW1 3365   1.722   3.993   4.750
  822SOL    HW2 3366   1.568   4.031   4.709
  823SOL     OW 3367   4.913   3.950   5.960
  823SOL    HW1 3368   4.985   3.951   5.891
  823SOL    HW2 3369   4.855   4.031   5.948
  824SOL     OW 3370   5.518   1.279   5.305
  824SOL    HW1 3371   5.592   1.213   5.320
  824SOL    HW2 3372   5.556   1.363   5.267
  825SOL     OW 3373   1.675   4.119   0.698
  825SOL    HW1 3374   1.648   4.153   0.788
  825SOL    HW2 3375   1.715   4.193   0.644
  826SOL     OW 3376   5.156   3.191   5.869
  826SOL    HW1 3377   5.086   3.262   5.881
  826SOL    HW2 3378   5.152   3.127   5.945
  827SOL     OW 3379   3.214   4.605   6.264
  827SOL    HW1 3380   3.134   4.571   6.214
  827SOL    HW2 3381   3.276   4.530   6.283
  828SOL     OW 3382   5.365   6.348   5.581
  828SOL    HW1 3383   5.298   6.369   5.511
  828SOL    HW2 3384   5.320   6.341   5.670
  829SOL     OW 3385   3.014   3.312   3.622
  829SOL    HW1 3386   2.989   3.366   3.701
  829SOL    HW2 3387   3.029   3.217   3.650
  830SOL     OW 3388   4.744   4.608   7.020
  830SOL    HW1 3389   4.690   4.555   0.062
  830SOL    HW2 3390   4.725   4.576   6.927
  831SOL     OW 3391   5.408   0.896   6.431
  831SOL    HW1 3392   5.335   0.961   6.410
  831SOL    HW2 3393   5.443   0.857   6.345
  832SOL     OW 3394   3.030   0.591   1.468
  832SOL    HW1 3395   3.000   0.523   1.402
  832SOL    HW2 3396   2.988   0.680   1.446
  833SOL     OW 3397   0.536   3.874   6.399
  833SOL    HW1 3398   0.534   3.897   6.302
  833SOL    HW2 3399   0.513   3.956   6.453
  834SOL     OW 3400   2.870   3.777   0.865
  834SOL    HW1 3401   2.945   3.711   0.874
  834SOL    HW2 3402   2.785   3.736   0.897
  835SOL     OW 3403   3.678   0.543   4.690
  835SOL    HW1 3404   3.611   0.484   4.734
  835SOL    HW2 3405   3.661   0.638   4.717
  836SOL     OW 3406   3.821   6.767   6.352
  836SOL    HW1 3407   3.740   6.738   6.403
  836SOL    HW2 3408   3.810   6.862   6.323
  837SOL     OW 3409   5.596   6.578   0.147
  837SOL    HW1 3410   5.515   6.597   0.091
  837SOL    HW2 3411   5.590   6.485   0.184
  838SOL     OW 3412   1.930   0.118   4.503
  838SOL    HW1 3413   1.941   0.045   4.436
  838SOL    HW2 3414   1.845   0.167   4.486
  839SOL     OW 3415   2.636   2.382   2.114
  839SOL    HW1 3416   2.699   2.349   2.043
  839SOL    HW2 3417   2.635   2.482   2.111
  840SOL     OW 3418   5.994   6.871   6.822
  840SOL    HW1 3419   5.984   6.948   6.886
  840SOL    HW2 3420   6.090   6.846   6.815
  841SOL     OW 3421   4.471   5.199   0.340
  841SOL    HW1 3422   4.531   5.161   0.270
  841SOL    HW2 3423   4.480   5.299   0.339
  842SOL     OW 3424   4.487   6.049   4.629
  842SOL    HW1 3425   4.553   5.981   4.598
  842SOL    HW2 3426   4.476   6.042   4.728
  843SOL     OW 3427   2.252   1.963   6.904
  843SOL    HW1 3428   2.248   2.059   6.876
  843SOL    HW2 3429   2.348   1.934   6.912
  844SOL     OW 3430   6.124   0.200   1.251
  844SOL    HW1 3431   6.132   0.259   1.171
  844SOL    HW2 3432   6.154   0.250   1.332
  845SOL     OW 3433   5.441   4.500   5.188
  845SOL    HW1 3434   5.449   4.449   5.273
  845SOL    HW2 3435   5.512   4.472   5.124
  846SOL     OW 3436   2.392   1.856   0.273
  846SOL    HW1 3437   2.421   1.762   0.289
  846SOL    HW2 3438   2.311   1.857   0.215
  847SOL     OW 3439   1.431   3.915   0.718
  847SOL    HW1 3440   1.359   3.968   0.673
  847SOL    HW2 3441   1.510   3.975   0.736
  848SOL     OW 3442   6.015   0.918   6.676
  848SOL    HW1 3443   5.956   0.837   6.676
  848SOL    HW2 3444   6.072   0.917   6.593
  849SOL     OW 3445   0.428   4.885   5.553
  849SOL    HW1 3446   0.493   4.862   5.480
  849SOL    HW2 3447   0.456   4.970   5.597
  850SOL     OW 3448   5.823   1.065   4.332
  850SOL    HW1 3449   5.858   1.051   4.424
  850SOL    HW2 3450   5.868   1.001   4.269
  851SOL     OW 3451   0.594   1.087   2.245
  851SOL    HW1 3452   0.521   1.027   2.278
  851SOL    HW2 3453   0.585   1.177   2.287
  852SOL     OW 3454   1.204   2.439   0.317
  852SOL    HW1 3455   1.205   2.539   0.328
  852SOL    HW2 3456   1.252   2.397   0.395
  853SOL     OW 3457   1.855   4.306   2.332
  853SOL    HW1 3458   1.916   4.238   2.374
  853SOL    HW2 3459   1.760   4.276   2.343
  854SOL     OW 3460   4.385   6.338   1.941
  854SOL    HW1 3461   4.286   6.336   1.931
  854SOL    HW2 3462   4.409   6.390   2.023
  855SOL     OW 3463   0.378   0.345   1.357
  855SOL    HW1 3464   0.287   0.315   1.383
  855SOL    HW2 3465   0.433   0.266   1.330
  856SOL     OW 3466   1.813   1.650   5.246
  856SOL    HW1 3467   1.817   1.690   5.338
  856SOL    HW2 3468   1.900   1.667   5.199
  857SOL     OW 3469   6.056   4.211   2.351
  857SOL    HW1 3470   6.030   4.294   2.400
  857SOL    HW2 3471   6.126   4.233   2.283
  858SOL     OW 3472   2.728   4.035   1.327
  858SOL    HW1 3473   2.773   4.122   1.347
  858SOL    HW2 3474   2.685   4.040   1.236
  859SOL     OW 3475   4.679   5.697   6.575
  859SOL    HW1 3476   4.659   5.633   6.648
  859SOL    HW2 3477   4.742   5.655   6.509
  860SOL     OW 3478   4.068   4.191   0.265
  860SOL    HW1 3479   3.978   4.233   0.253
  860SOL    HW2 3480   4.125   4.251   0.322
  861SOL     OW 3481   3.002   0.383   4.559
  861SOL    HW1 3482   3.076   0.335   4.608
  861SOL    HW2 3483   3.026   0.391   4.462
  862SOL     OW 3484   0.442   4.174   5.707
  862SOL    HW1 3485   0.428   4.252   5.647
  862SOL    HW2 3486   0.472   4.206   5.797
  863SOL     OW 3487   0.474   0.079   0.108
  863SOL    HW1 3488   0.568   0.108   0.086
  863SOL    HW2 3489   0.410   0.140   0.062
  864SOL     OW 3490   4.791   4.673   3.713
  864SOL    HW1 3491   4.720   4.630   3.768
  864SOL    HW2 3492   4.772   4.658   3.616
  865SOL     OW 3493   1.905   6.456   5.756
  865SOL    HW1 3494   1.958   6.540   5.752
  865SOL    HW2 3495   1.861   6.440   5.668
  866SOL     OW 3496   2.055   2.863   1.552
  866SOL    HW1 3497   2.021   2.772   1.530
  866SOL    HW2 3498   2.125   2.889   1.485
  867SOL     OW 3499   3.835   3.070   0.785
  867SOL    HW1 3500   3.859   2.973   0.775
  867SOL    HW2 3501   3.859   3.101   0.877
  868SOL     OW 3502   6.053   6.975   1.291
  868SOL    HW1 3503   5.956   6.971   1.317
  868SOL    HW2 3504   6.082   0.047   1.286
  869SOL     OW 3505   6.424   5.386   3.509
  869SOL    HW1 3506   6.449   5.290   3.494
  869SOL    HW2 3507   6.325   5.393   3.517
  870SOL     OW 3508   5.514   3.632   0.633
  870SOL    HW1 3509   5.462   3.709   0.671
  870SOL    HW2 3510   5.574   3.666   0.561
  871SOL     OW 3511   5.307   3.893   2.733
  871SOL    HW1 3512   5.398   3.924   2.761
  871SOL    HW2 3513   5.259   3.968   2.689
  872SOL     OW 3514   6.029   4.595   4.006
  872SOL    HW1 3515   5.943   4.645   4.018
  872SOL    HW2 3516   6.021   4.534   3.927
  873SOL     OW 3517   5.907   6.918   3.948
  873SOL    HW1 3518   5.811   6.926   3.975
  873SOL    HW2 3519   5.965   6.929   4.029
  874SOL     OW 3520   1.023   4.715   4.964
  874SOL    HW1 3521   1.085   4.753   5.033
  874SOL    HW2 3522   1.003   4.785   4.895
  875SOL     OW 3523   3.925   2.805   0.728
  875SOL    HW1 3524   3.849   2.743   0.710
  875SOL    HW2 3525   4.009   2.752   0.744
  876SOL     OW 3526   0.252   5.804   3.278
  876SOL    HW1 3527   0.347   5.834   3.267
  876SOL    HW2 3528   0.221   5.826   3.370
  877SOL     OW 3529   3.533   4.340   0.365
  877SOL    HW1 3530   3.467   4.315   0.435
  877SOL    HW2 3531   3.490   4.334   0.275
  878SOL     OW 3532   4.239   6.295   5.472
  878SOL    HW1 3533   4.262   6.200   5.451
  878SOL    HW2 3534   4.308   6.334   5.533
  879SOL     OW 3535   2.797   2.133   1.904
  879SOL    HW1 3536   2.844   2.110   1.819
  879SOL    HW2 3537   2.831   2.221   1.938
  880SOL     OW 3538   2.967   4.475   6.161
  880SOL    HW1 3539   2.930   4.515   6.245
  880SOL    HW2 3540   2.909   4.400   6.131
  881SOL     OW 3541   4.282   4.577   5.468
  881SOL    HW1 3542   4.274   4.478   5.481
  881SOL    HW2 3543   4.336   4.616   5.543
  882SOL     OW 3544   1.596   1.427   4.342
  882SOL    HW1 3545   1.553   1.473   4.264
  882SOL    HW2 3546   1.593   1.328   4.329
  883SOL     OW 3547   4.940   5.513   5.867
  883SOL    HW1 3548   4.967   5.453   5.792
  883SOL    HW2 3549   4.897   5.596   5.830
  884SOL     OW 3550   0.060   3.236   0.450
  884SOL    HW1 3551   0.094   3.288   0.372
  884SOL    HW2 3552   6.999   3.277   0.483
  885SOL     OW 3553   4.969   6.290   0.088
  885SOL    HW1 3554   5.004   6.198   0.105
  885SOL    HW2 3555   5.015   6.329   0.008
  886SOL     OW 3556   3.438   0.250   0.725
  886SOL    HW1 3557   3.366   0.309   0.689
  886SOL    HW2 3558   3.418   0.155   0.702
  887SOL     OW 3559   4.553   0.271   4.268
  887SOL    HW1 3560   4.632   0.246   4.324
  887SOL    HW2 3561   4.563   0.364   4.235
  888SOL     OW 3562   5.741   6.736   3.094
  888SOL    HW1 3563   5.822   6.682   3.116
  888SOL    HW2 3564   5.709   6.784   3.175
  889SOL     OW 3565   1.521   6.496   5.179
  889SOL    HW1 3566   1.428   6.491   5.143
  889SOL    HW2 3567   1.580   6.543   5.113
  890SOL     OW 3568   2.492   5.021   1.998
  890SOL    HW1 3569   2.430   4.946   1.973
  890SOL    HW2 3570   2.450   5.076   2.070
  891SOL     OW 3571   6.416   3.611   1.561
  891SOL    HW1 3572   6.376   3.647   1.645
  891SOL    HW2 3573   6.402   3.676   1.486
  892SOL     OW 3574   4.222   3.801   0.064
  892SOL    HW1 3575   4.205   3.899   0.066
  892SOL    HW2 3576   4.136   3.753   0.046
  893SOL     OW 3577   2.140   1.319   2.248
  893SOL    HW1 3578   2.044   1.331   2.222
  893SOL    HW2 3579   2.149   1.239   2.307
  894SOL     OW 3580   1.766   2.512   4.345
  894SOL    HW1 3581   1.814   2.599   4.347
  894SOL    HW2 3582   1.805   2.454   4.274
  895SOL     OW 3583   1.759   5.644   4.602
  895SOL    HW1 3584   1.811   5.559   4.599
  895SOL    HW2 3585   1.809   5.712   4.657
  896SOL     OW 3586   5.163   0.039   2.127
  896SOL    HW1 3587   5.085   0.005   2.074
  896SOL    HW2 3588   5.214   6.986   2.166
  897SOL     OW 3589   5.658   0.791   6.900
  897SOL    HW1 3590   5.660   0.705   6.849
  897SOL    HW2 3591   5.748   0.835   6.894
  898SOL     OW 3592   4.121   5.617   2.873
  898SOL    HW1 3593   4.205   5.567   2.850
  898SOL    HW2 3594   4.052   5.553   2.906
  899SOL     OW 3595   6.899   4.916   0.148
  899SOL    HW1 3596   6.857   4.996   0.107
  899SOL    HW2 3597   6.909   4.930   0.247
  900SOL     OW 3598   5.121   6.703   1.544
  900SOL    HW1 3599   5.098   6.776   1.608
  900SOL    HW2 3600   5.053   6.701   1.470
  901SOL     OW 3601   0.819   1.069   5.475
  901SOL    HW1 3602   0.859   1.106   5.391
  901SOL    HW2 3603   0.719   1.069   5.467
  902SOL     OW 3604   0.133   2.488   6.332
  902SOL    HW1 3605   0.139   2.409   6.271
  902SOL    HW2 3606   0.150   2.459   6.427
  903SOL     OW 3607   6.947   4.023   6.324
  903SOL    HW1 3608   6.891   4.008   6.405
  903SOL    HW2 3609   0.018   3.995   6.343
  904SOL     OW 3610   1.388   1.804   4.088
  904SOL    HW1 3611   1.367   1.862   4.167
  904SOL    HW2 3612   1.461   1.847   4.034
  905SOL     OW 3613   4.082   3.278   5.970
  905SOL    HW1 3614   3.984   3.294   5.986
  905SOL    HW2 3615   4.115   3.208   6.032
  906SOL     OW 3616   0.068   3.765   5.678
  906SOL    HW1 3617   0.136   3.838   5.681
  906SOL    HW2 3618   7.002   3.803   5.658
  907SOL     OW 3619   5.323   3.029   3.484
  907SOL    HW1 3620   5.315   3.129   3.475
  907SOL    HW2 3621   5.385   2.995   3.414
  908SOL     OW 3622   1.729   6.289   3.594
  908SOL    HW1 3623   1.731   6.312   3.692
  908SOL    HW2 3624   1.664   6.348   3.547
  909SOL     OW 3625   1.958   6.621   1.164
  909SOL    HW1 3626   2.018   6.581   1.096
  909SOL    HW2 3627   2.013   6.665   1.235
  910SOL     OW 3628   2.541   0.042   0.553
  910SOL    HW1 3629   2.587   0.019   0.467
  910SOL    HW2 3630   2.605   0.091   0.612
  911SOL     OW 3631   0.068   5.908   1.162
  911SOL    HW1 3632   6.993   5.923   1.149
  911SOL    HW2 3633   0.082   5.825   1.216
  912SOL     OW 3634   6.418   1.283   4.934
  912SOL    HW1 3635   6.491   1.283   4.866
  912SOL    HW2 3636   6.331   1.305   4.889
  913SOL     OW 3637   2.133   0.297   3.000
  913SOL    HW1 3638   2.175   0.388   2.995
  913SOL    HW2 3639   2.171   0.239   2.928
  914SOL     OW 3640   2.424   5.672   5.199
  914SOL    HW1 3641   2.448   5.701   5.291
  914SOL    HW2 3642   2.394   5.752   5.146
  915SOL     OW 3643   1.328   3.046   0.201
  915SOL    HW1 3644   1.402   3.102   0.238
  915SOL    HW2 3645   1.283   3.096   0.126
  916SOL     OW 3646   1.472   2.797   2.098
  916SOL    HW1 3647   1.373   2.814   2.100
  916SOL    HW2 3648   1.510   2.815   2.188
  917SOL     OW 3649   5.349   0.555   1.347
  917SOL    HW1 3650   5.300   0.475   1.383
  917SOL    HW2 3651   5.304   0.638   1.380
  918SOL     OW 3652   2.733   5.890   6.844
  918SOL    HW1 3653   2.820   5.846   6.865
  918SOL    HW2 3654   2.748   5.970   6.787
  919SOL     OW 3655   6.899   5.784   2.682
  919SOL    HW1 3656   6.987   5.738   2.673
  919SOL    HW2 3657   6.834   5.746   2.616
  920SOL     OW 3658   1.646   6.961   3.423
  920SOL    HW1 3659   1.667   6.968   3.325
  920SOL    HW2 3660   1.555   6.999   3.440
  921SOL     OW 3661   5.168   4.750   4.206
  921SOL    HW1 3662   5.179   4.675   4.141
  921SOL    HW2 3663   5.106   4.819   4.167
  922SOL     OW 3664   3.155   2.985   6.946
  922SOL    HW1 3665   3.210   2.908   6.980
  922SOL    HW2 3666   3.204   3.070   6.964
  923SOL     OW 3667   3.204   4.954   6.693
  923SOL    HW1 3668   3.261   4.980   6.771
  923SOL    HW2 3669   3.135   4.888   6.723
  924SOL     OW 3670   6.180   2.896   2.025
  924SOL    HW1 3671   6.111   2.930   2.088
  924SOL    HW2 3672   6.144   2.817   1.975
  925SOL     OW 3673   6.395   1.657   5.338
  925SOL    HW1 3674   6.380   1.706   5.424
  925SOL    HW2 3675   6.377   1.719   5.262
  926SOL     OW 3676   6.330   1.042   0.046
  926SOL    HW1 3677   6.406   0.977   0.060
  926SOL    HW2 3678   6.243   0.993   0.050
  927SOL     OW 3679   5.243   4.375   3.705
  927SOL    HW1 3680   5.254   4.303   3.637
  927SOL    HW2 3681   5.327   4.385   3.757
  928SOL     OW 3682   1.935   0.418   0.272
  928SOL    HW1 3683   1.919   0.473   0.353
  928SOL    HW2 3684   2.025   0.438   0.235
  929SOL     OW 3685   0.205   1.607   0.546
  929SOL    HW1 3686   0.155   1.603   0.633
  929SOL    HW2 3687   0.296   1.569   0.559
  930SOL     OW 3688   5.836   5.830   4.639
  930SOL    HW1 3689   5.916   5.887   4.621
  930SOL    HW2 3690   5.821   5.767   4.563
  931SOL     OW 3691   6.366   3.482   3.369
  931SOL    HW1 3692   6.283   3.503   3.317
  931SOL    HW2 3693   6.357   3.393   3.412
  932SOL     OW 3694   2.172   0.118   1.660
  932SOL    HW1 3695   2.131   0.064   1.587
  932SOL    HW2 3696   2.101   0.145   1.725
  933SOL     OW 3697   0.356   5.721   2.710
  933SOL    HW1 3698   0.397   5.688   2.795
  933SOL    HW2 3699   0.387   5.814   2.692
  934SOL     OW 3700   1.879   0.446   4.559
  934SOL    HW1 3701   1.853   0.395   4.477
  934SOL    HW2 3702   1.815   0.425   4.633
  935SOL     OW 3703   5.188   3.623   5.034
  935SOL    HW1 3704   5.145   3.656   5.118
  935SOL    HW2 3705   5.262   3.560   5.058
  936SOL     OW 3706   1.485   1.044   6.469
  936SOL    HW1 3707   1.484   1.011   6.374
  936SOL    HW2 3708   1.498   0.967   6.531
  937SOL     OW 3709   5.051   1.890   5.101
  937SOL    HW1 3710   4.967   1.862   5.147
  937SOL    HW2 3711   5.078   1.981   5.133
  938SOL     OW 3712   0.231   5.128   6.348
  938SOL    HW1 3713   0.256   5.203   6.409
  938SOL    HW2 3714   0.256   5.152   6.254
  939SOL     OW 3715   5.133   1.689   4.939
  939SOL    HW1 3716   5.082   1.761   4.985
  939SOL    HW2 3717   5.093   1.600   4.961
  940SOL     OW 3718   0.299   3.039   2.668
  940SOL    HW1 3719   0.315   3.073   2.576
  940SOL    HW2 3720   0.383   2.998   2.704
  941SOL     OW 3721   6.518   0.583   4.403
  941SOL    HW1 3722   6.451   0.616   4.337
  941SOL    HW2 3723   6.554   0.495   4.373
  942SOL     OW 3724   4.954   1.072   3.975
  942SOL    HW1 3725   5.017   1.143   4.008
  942SOL    HW2 3726   5.004   1.006   3.919
  943SOL     OW 3727   1.474   2.926   3.696
  943SOL    HW1 3728   1.420   2.946   3.614
  943SOL    HW2 3729   1.571   2.925   3.671
  944SOL     OW 3730   6.226   3.458   6.013
  944SOL    HW1 3731   6.290   3.421   6.080
  944SOL    HW2 3732   6.245   3.420   5.923
  945SOL     OW 3733   6.676   4.074   5.883
  945SOL    HW1 3734   6.693   4.016   5.962
  945SOL    HW2 3735   6.619   4.025   5.817
  946SOL     OW 3736   5.196   2.513   6.304
  946SOL    HW1 3737   5.169   2.419   6.281
  946SOL    HW2 3738   5.289   2.513   6.341
  947SOL     OW 3739   3.046   3.298   4.901
  947SOL    HW1 3740   2.977   3.281   4.973
  947SOL    HW2 3741   3.129   3.246   4.921
  948SOL     OW 3742   4.295   0.630   0.828
  948SOL    HW1 3743   4.385   0.674   0.828
  948SOL    HW2 3744   4.270   0.607   0.733
  949SOL     OW 3745   6.874   6.235   6.544
  949SOL    HW1 3746   6.928   6.179   6.481
  949SOL    HW2 3747   6.794   6.271   6.497
  950SOL     OW 3748   4.032   5.202   1.881
  950SOL    HW1 3749   4.088   5.130   1.840
  950SOL    HW2 3750   4.023   5.186   1.979
  951SOL     OW 3751   1.399   0.646   2.457
  951SOL    HW1 3752   1.474   0.580   2.460
  951SOL    HW2 3753   1.416   0.713   2.385
  952SOL     OW 3754   5.724   1.802   2.181
  952SOL    HW1 3755   5.766   1.831   2.267
  952SOL    HW2 3756   5.795   1.775   2.116
  953SOL     OW 3757   5.301   6.037   5.265
  953SOL    HW1 3758   5.344   5.948   5.249
  953SOL    HW2 3759   5.266   6.041   5.359
  954SOL     OW 3760   4.914   5.619   0.629
  954SOL    HW1 3761   4.947   5.525   0.621
  954SOL    HW2 3762   4.985   5.682   0.597
  955SOL     OW 3763   7.017   4.880   3.619
  955SOL    HW1 3764   6.972   4.932   3.691
  955SOL    HW2 3765   0.036   4.943   3.554
  956SOL     OW 3766   0.929   2.211   2.243
  956SOL    HW1 3767   0.907   2.260   2.158
  956SOL    HW2 3768   0.922   2.274   2.320
  957SOL     OW 3769   1.066   4.884   4.611
  957SOL    HW1 3770   1.000   4.873   4.686
  957SOL    HW2 3771   1.152   4.838   4.635
  958SOL     OW 3772   4.630   2.547   1.847
  958SOL    HW1 3773   4.533   2.522   1.846
  958SOL    HW2 3774   4.667   2.543   1.754
  959SOL     OW 3775   2.680   4.691   3.129
  959SOL    HW1 3776   2.683   4.597   3.096
  959SOL    HW2 3777   2.699   4.753   3.052
  960SOL     OW 3778   0.011   5.770   3.904
  960SOL    HW1 3779   0.036   5.725   3.818
  960SOL    HW2 3780   6.998   5.862   3.884
  961SOL     OW 3781   5.074   0.080   3.370
  961SOL    HW1 3782   5.157   0.026   3.386
  961SOL    HW2 3783   5.038   0.060   3.279
  962SOL     OW 3784   1.843   1.215   4.474
  962SOL    HW1 3785   1.761   1.178   4.431
  962SOL    HW2 3786   1.820   1.302   4.519
  963SOL     OW 3787   6.559   1.423   5.862
  963SOL    HW1 3788   6.553   1.340   5.918
  963SOL    HW2 3789   6.549   1.398   5.765
  964SOL     OW 3790   6.428   3.660   0.605
  964SOL    HW1 3791   6.375   3.697   0.681
  964SOL    HW2 3792   6.488   3.588   0.639
  965SOL     OW 3793   5.529   2.014   1.165
  965SOL    HW1 3794   5.595   2.089   1.157
  965SOL    HW2 3795   5.449   2.035   1.110
  966SOL     OW 3796   5.543   1.871   2.472
  966SOL    HW1 3797   5.477   1.945   2.457
  966SOL    HW2 3798   5.497   1.783   2.464
  967SOL     OW 3799   2.457   4.990   1.311
  967SOL    HW1 3800   2.555   4.969   1.312
  967SOL    HW2 3801   2.444   5.088   1.302
  968SOL     OW 3802   4.591   2.550   2.415
  968SOL    HW1 3803   4.655   2.499   2.473
  968SOL    HW2 3804   4.640   2.623   2.367
  969SOL     OW 3805   4.238   5.933   6.894
  969SOL    HW1 3806   4.264   6.025   6.923
  969SOL    HW2 3807   4.139   5.928   6.885
  970SOL     OW 3808   4.550   1.336   4.683
  970SOL    HW1 3809   4.476   1.277   4.717
  970SOL    HW2 3810   4.568   1.408   4.749
  971SOL     OW 3811   0.518   1.931   3.070
  971SOL    HW1 3812   0.564   1.949   3.158
  971SOL    HW2 3813   0.571   1.865   3.018
  972SOL     OW 3814   5.740   4.006   1.479
  972SOL    HW1 3815   5.668   3.963   1.533
  972SOL    HW2 3816   5.800   4.058   1.540
  973SOL     OW 3817   6.710   4.325   0.174
  973SOL    HW1 3818   6.699   4.402   0.111
  973SOL    HW2 3819   6.705   4.239   0.123
  974SOL     OW 3820   4.830   0.283   2.406
  974SOL    HW1 3821   4.863   0.283   2.501
  974SOL    HW2 3822   4.794   0.373   2.383
  975SOL     OW 3823   1.995   5.928   6.256
  975SOL    HW1 3824   1.939   5.977   6.189
  975SOL    HW2 3825   1.943   5.852   6.294
  976SOL     OW 3826   6.291   3.047   2.681
  976SOL    HW1 3827   6.248   2.994   2.608
  976SOL    HW2 3828   6.228   3.054   2.758
  977SOL     OW 3829   2.148   0.987   3.974
  977SOL    HW1 3830   2.130   1.080   3.942
  977SOL    HW2 3831   2.223   0.947   3.921
  978SOL     OW 3832   4.285   4.315   5.535
  978SOL    HW1 3833   4.324   4.253   5.602
  978SOL    HW2 3834   4.192   4.285   5.512
  979SOL     OW 3835   0.096   1.647   1.551
  979SOL    HW1 3836   0.033   1.589   1.601
  979SOL    HW2 3837   0.096   1.622   1.454
  980SOL     OW 3838   4.374   2.130   3.973
  980SOL    HW1 3839   4.382   2.140   3.874
  980SOL    HW2 3840   4.361   2.220   4.015
  981SOL     OW 3841   1.680   1.369   5.059
  981SOL    HW1 3842   1.680   1.466   5.085
  981SOL    HW2 3843   1.751   1.321   5.110
  982SOL     OW 3844   2.780   1.730   3.288
  982SOL    HW1 3845   2.855   1.797   3.285
  982SOL    HW2 3846   2.805   1.650   3.234
  983SOL     OW 3847   5.559   2.365   3.908
  983SOL    HW1 3848   5.647   2.405   3.881
  983SOL    HW2 3849   5.513   2.329   3.828
  984SOL     OW 3850   2.975   1.029   3.651
  984SOL    HW1 3851   3.036   1.033   3.572
  984SOL    HW2 3852   2.898   1.091   3.636
  985SOL     OW 3853   4.952   4.797   6.332
  985SOL    HW1 3854   4.885   4.724   6.314
  985SOL    HW2 3855   5.044   4.764   6.311
  986SOL     OW 3856   5.355   4.363   0.364
  986SOL    HW1 3857   5.388   4.458   0.364
  986SOL    HW2 3858   5.379   4.319   0.450
  987SOL     OW 3859   4.665   6.490   1.324
  987SOL    HW1 3860   4.694   6.430   1.398
  987SOL    HW2 3861   4.657   6.584   1.358
  988SOL     OW 3862   3.313   3.191   2.161
  988SOL    HW1 3863   3.220   3.203   2.195
  988SOL    HW2 3864   3.312   3.187   2.061
  989SOL     OW 3865   6.300   1.295   5.654
  989SOL    HW1 3866   6.240   1.337   5.586
  989SOL    HW2 3867   6.395   1.323   5.635
  990SOL     OW 3868   4.492   1.229   1.944
  990SOL    HW1 3869   4.423   1.184   2.002
  990SOL    HW2 3870   4.579   1.181   1.954
  991SOL     OW 3871   1.807   2.644   5.142
  991SOL    HW1 3872   1.813   2.610   5.048
  991SOL    HW2 3873   1.840   2.738   5.146
  992SOL     OW 3874   0.810   3.612   1.364
  992SOL    HW1 3875   0.763   3.617   1.275
  992SOL    HW2 3876   0.748   3.574   1.432
  993SOL     OW 3877   1.239   4.579   1.950
  993SOL    HW1 3878   1.142   4.561   1.967
  993SOL    HW2 3879   1.264   4.546   1.859
  994SOL     OW 3880   3.271   3.714   3.072
  994SOL    HW1 3881   3.306   3.751   3.158
  994SOL    HW2 3882   3.347   3.684   3.014
  995SOL     OW 3883   3.388   2.783   6.276
  995SOL    HW1 3884   3.487   2.779   6.283
  995SOL    HW2 3885   3.359   2.879   6.269
  996SOL     OW 3886   1.903   4.435   4.615
  996SOL    HW1 3887   1.902   4.470   4.709
  996SOL    HW2 3888   1.994   4.449   4.575
  997SOL     OW 3889   6.818   0.776   2.506
  997SOL    HW1 3890   6.763   0.810   2.429
  997SOL    HW2 3891   6.817   0.843   2.580
  998SOL     OW 3892   4.514   6.694   3.997
  998SOL    HW1 3893   4.575   6.708   4.075
  998SOL    HW2 3894   4.563   6.712   3.912
  999SOL     OW 3895   5.448   5.084   1.779
  999SOL    HW1 3896   5.433   5.076   1.878
  999SOL    HW2 3897   5.364   5.061   1.730
 1000SOL     OW 3898   1.097   1.017   2.128
 1000SOL    HW1 3899   1.016   1.050   2.177
 1000SOL    HW2 3900   1.142   1.094   2.083
 1001SOL     OW 3901   5.734   6.946   0.553
 1001SOL    HW1 3902   5.748   6.909   0.645
 1001SOL    HW2 3903   5.694   6.876   0.495
 1002SOL     OW 3904   6.385   2.340   6.692
 1002SOL    HW1 3905   6.403   2.438   6.685
 1002SOL    HW2 3906   6.300   2.326   6.743
 1003SOL     OW 3907   2.167   6.350   1.414
 1003SOL    HW1 3908   2.082   6.303   1.387
 1003SOL    HW2 3909   2.152   6.398   1.501
 1004SOL     OW 3910   0.097   0.390   1.641
 1004SOL    HW1 3911   0.108   0.317   1.573
 1004SOL    HW2 3912   0.000   0.402   1.660
 1005SOL     OW 3913   0.605   1.513   2.857
 1005SOL    HW1 3914   0.517   1.473   2.883
 1005SOL    HW2 3915   0.624   1.494   2.761
 1006SOL     OW 3916   1.518   5.260   1.253
 1006SOL    HW1 3917   1.425   5.294   1.238
 1006SOL    HW2 3918   1.583   5.319   1.206
 1007SOL     OW 3919   5.391   0.101   4.373
 1007SOL    HW1 3920   5.297   0.136   4.375
 1007SOL    HW2 3921   5.398   0.023   4.435
 1008SOL     OW 3922   2.138   2.980   5.150
 1008SOL    HW1 3923   2.140   2.923   5.232
 1008SOL    HW2 3924   2.228   2.977   5.106
 1009SOL     OW 3925   0.117   6.494   4.618
 1009SOL    HW1 3926   0.067   6.578   4.641
 1009SOL    HW2 3927   0.103   6.472   4.522
 1010SOL     OW 3928   3.609   2.180   6.103
 1010SOL    HW1 3929   3.591   2.112   6.032
 1010SOL    HW2 3930   3.536   2.176   6.172
 1011SOL     OW 3931   2.288   5.506   2.634
 1011SOL    HW1 3932   2.320   5.591   2.592
 1011SOL    HW2 3933   2.365   5.445   2.649
 1012SOL     OW 3934   6.537   6.874   0.505
 1012SOL    HW1 3935   6.636   6.880   0.517
 1012SOL    HW2 3936   6.492   6.932   0.573
 1013SOL     OW 3937   1.132   1.569   6.239
 1013SOL    HW1 3938   1.082   1.529   6.316
 1013SOL    HW2 3939   1.228   1.580   6.264
 1014SOL     OW 3940   4.970   6.033   6.677
 1014SOL    HW1 3941   4.989   6.130   6.665
 1014SOL    HW2 3942   4.906   6.003   6.606
 1015SOL     OW 3943   2.163   6.293   5.472
 1015SOL    HW1 3944   2.076   6.247   5.456
 1015SOL    HW2 3945   2.216   6.241   5.540
 1016SOL     OW 3946   3.404   3.381   0.153
 1016SOL    HW1 3947   3.406   3.467   0.204
 1016SOL    HW2 3948   3.483   3.325   0.178
 1017SOL     OW 3949   4.433   2.772   1.309
 1017SOL    HW1 3950   4.407   2.702   1.242
 1017SOL    HW2 3951   4.353   2.826   1.334
 1018SOL     OW 3952   1.481   3.208   4.521
 1018SOL    HW1 3953   1.545   3.274   4.483
 1018SOL    HW2 3954   1.469   3.225   4.618
 1019SOL     OW 3955   0.613   0.334   6.903
 1019SOL    HW1 3956   0.701   0.292   6.882
 1019SOL    HW2 3957   0.589   0.399   6.831
 1020SOL     OW 3958   1.195   6.623   1.028
 1020SOL    HW1 3959   1.188   6.723   1.029
 1020SOL    HW2 3960   1.286   6.596   0.996
 1021SOL     OW 3961   5.975   1.423   1.324
 1021SOL    HW1 3962   5.949   1.457   1.414
 1021SOL    HW2 3963   6.052   1.360   1.333
 1022SOL     OW 3964   3.966   4.346   6.090
 1022SOL    HW1 3965   4.019   4.351   6.005
 1022SOL    HW2 3966   4.010   4.281   6.153
 1023SOL     OW 3967   0.428   6.940   1.824
 1023SOL    HW1 3968   0.472   6.863   1.777
 1023SOL    HW2 3969   0.475   0.001   1.800
 1024SOL     OW 3970   5.938   3.719   3.888
 1024SOL    HW1 3971   5.867   3.671   3.836
 1024SOL    HW2 3972   5.996   3.770   3.826
 1025SOL     OW 3973   3.602   3.678   0.894
 1025SOL    HW1 3974   3.621   3.582   0.914
 1025SOL    HW2 3975   3.668   3.712   0.827
 1026SOL     OW 3976   2.081   2.412   1.714
 1026SOL    HW1 3977   2.092   2.463   1.799
 1026SOL    HW2 3978   2.043   2.472   1.643
 1027SOL     OW 3979   2.947   6.187   0.813
 1027SOL    HW1 3980   2.963   6.222   0.906
 1027SOL    HW2 3981   2.864   6.131   0.813
 1028SOL     OW 3982   3.840   5.798   0.292
 1028SOL    HW1 3983   3.798   5.710   0.272
 1028SOL    HW2 3984   3.876   5.797   0.385
 1029SOL     OW 3985   1.352   0.375   6.970
 1029SOL    HW1 3986   1.284   0.449   6.963
 1029SOL    HW2 3987   1.361   0.329   6.882
 1030SOL     OW 3988   3.709   3.995   1.646
 1030SOL    HW1 3989   3.617   4.035   1.646
 1030SOL    HW2 3990   3.758   4.027   1.565
 1031SOL     OW 3991   5.072   5.485   0.926
 1031SOL    HW1 3992   5.090   5.507   0.830
 1031SOL    HW2 3993   4.993   5.424   0.932
 1032SOL     OW 3994   1.779   1.896   4.699
 1032SOL    HW1 3995   1.735   1.863   4.615
 1032SOL    HW2 3996   1.719   1.961   4.745
 1033SOL     OW 3997   1.635   6.473   0.982
 1033SOL    HW1 3998   1.581   6.558   0.984
 1033SOL    HW2 3999   1.722   6.490   0.936
 1034SOL     OW 4000   0.786   6.035   5.020
 1034SOL    HW1 4001   0.832   6.120   4.995
 1034SOL    HW2 4002   0.849   5.978   5.073
 1035SOL     OW 4003   1.353   0.672   3.412
 1035SOL    HW1 4004   1.448   0.642   3.410
 1035SOL    HW2 4005   1.297   0.604   3.458
 1036SOL     OW 4006   2.942   0.635   1.929
 1036SOL    HW1 4007   2.918   0.565   1.861
 1036SOL    HW2 4008   2.888   0.717   1.913
 1037SOL     OW 4009   1.799   0.969   1.351
 1037SOL    HW1 4010   1.842   0.917   1.278
 1037SOL    HW2 4011   1.869   1.016   1.404
 1038SOL     OW 4012   1.105   0.598   5.422
 1038SOL    HW1 4013   1.050   0.674   5.454
 1038SOL    HW2 4014   1.048   0.534   5.371
 1039SOL     OW 4015   3.088   2.650   5.774
 1039SOL    HW1 4016   3.162   2.596   5.735
 1039SOL    HW2 4017   3.125   2.737   5.808
 1040SOL     OW 4018   4.748   2.763   2.318
 1040SOL    HW1 4019   4.820   2.819   2.277
 1040SOL    HW2 4020   4.659   2.796   2.286
 1041SOL     OW 4021   6.368   6.688   4.264
 1041SOL    HW1 4022   6.287   6.634   4.243
 1041SOL    HW2 4023   6.369   6.770   4.208
 1042SOL     OW 4024   3.593   4.925   2.192
 1042SOL    HW1 4025   3.495   4.941   2.182
 1042SOL    HW2 4026   3.623   4.860   2.122
 1043SOL     OW 4027   4.527   1.476   5.121
 1043SOL    HW1 4028   4.442   1.429   5.145
 1043SOL    HW2 4029   4.601   1.442   5.180
 1044SOL     OW 4030   4.855   4.358   1.967
 1044SOL    HW1 4031   4.844   4.381   2.064
 1044SOL    HW2 4032   4.766   4.362   1.922
 1045SOL     OW 4033   2.963   6.359   2.698
 1045SOL    HW1 4034   3.030   6.290   2.671
 1045SOL    HW2 4035   2.934   6.343   2.792
 1046SOL     OW 4036   1.231   6.713   0.539
 1046SOL    HW1 4037   1.203   6.628   0.586
 1046SOL    HW2 4038   1.160   6.782   0.553
 1047SOL     OW 4039   1.133   6.288   2.097
 1047SOL    HW1 4040   1.186   6.224   2.153
 1047SOL    HW2 4041   1.112   6.369   2.150
 1048SOL     OW 4042   5.086   6.036   5.795
 1048SOL    HW1 4043   5.017   6.108   5.804
 1048SOL    HW2 4044   5.042   5.946   5.800
 1049SOL     OW 4045   6.437   4.825   3.976
 1049SOL    HW1 4046   6.497   4.755   4.015
 1049SOL    HW2 4047   6.442   4.907   4.032
 1050SOL     OW 4048   3.444   5.605   0.247
 1050SOL    HW1 4049   3.363   5.660   0.268
 1050SOL    HW2 4050   3.517   5.627   0.312
 1051SOL     OW 4051   2.713   5.400   1.138
 1051SOL    HW1 4052   2.737   5.456   1.217
 1051SOL    HW2 4053   2.709   5.457   1.056
 1052SOL     OW 4054   4.107   0.108   4.383
 1052SOL    HW1 4055   4.163   0.179   4.339
 1052SOL    HW2 4056   4.131   0.102   4.480
 1053SOL     OW 4057   5.096   5.241   3.448
 1053SOL    HW1 4058   5.151   5.273   3.371
 1053SOL    HW2 4059   5.042   5.161   3.419
 1054SOL     OW 4060   2.362   4.015   5.705
 1054SOL    HW1 4061   2.287   4.001   5.640
 1054SOL    HW2 4062   2.357   3.945   5.777
 1055SOL     OW 4063   6.142   6.535   4.264
 1055SOL    HW1 4064   6.094   6.447   4.264
 1055SOL    HW2 4065   6.086   6.604   4.218
 1056SOL     OW 4066   1.426   5.349   6.028
 1056SOL    HW1 4067   1.439   5.295   6.111
 1056SOL    HW2 4068   1.451   5.294   5.948
 1057SOL     OW 4069   3.760   3.278   3.001
 1057SOL    HW1 4070   3.683   3.251   2.943
 1057SOL    HW2 4071   3.844   3.238   2.966
 1058SOL     OW 4072   5.061   1.437   1.974
 1058SOL    HW1 4073   5.052   1.425   2.073
 1058SOL    HW2 4074   5.133   1.504   1.955
 1059SOL     OW 4075   2.362   6.839   1.340
 1059SOL    HW1 4076   2.399   6.812   1.251
 1059SOL    HW2 4077   2.371   6.938   1.351
 1060SOL     OW 4078   0.003   3.439   3.999
 1060SOL    HW1 4079   0.036   3.419   3.907
 1060SOL    HW2 4080   7.006   3.536   4.006
 1061SOL     OW 4081   4.988   3.729   2.027
 1061SOL    HW1 4082   5.069   3.770   1.984
 1061SOL    HW2 4083   4.947   3.795   2.090
 1062SOL     OW 4084   5.919   5.061   5.364
 1062SOL    HW1 4085   5.867   5.145   5.347
 1062SOL    HW2 4086   5.916   5.003   5.283
 1063SOL     OW 4087   1.378   4.495   1.714
 1063SOL    HW1 4088   1.342   4.434   1.644
 1063SOL    HW2 4089   1.413   4.442   1.791
 1064SOL     OW 4090   1.555   3.926   2.209
 1064SOL    HW1 4091   1.457   3.906   2.202
 1064SOL    HW2 4092   1.582   3.988   2.135
 1065SOL     OW 4093   4.582   0.538   4.171
 1065SOL    HW1 4094   4.530   0.618   4.201
 1065SOL    HW2 4095   4.676   0.566   4.149
 1066SOL     OW 4096   5.246   0.581   4.245
 1066SOL    HW1 4097   5.209   0.663   4.201
 1066SOL    HW2 4098   5.217   0.578   4.341
 1067SOL     OW 4099   1.489   3.155   6.850
 1067SOL    HW1 4100   1.450   3.071   6.812
 1067SOL    HW2 4101   1.424   3.195   6.915
 1068SOL     OW 4102   4.733   4.520   2.490
 1068SOL    HW1 4103   4.787   4.567   2.560
 1068SOL    HW2 4104   4.736   4.572   2.405
 1069SOL     OW 4105   5.188   4.995   1.025
 1069SOL    HW1 4106   5.169   4.995   0.927
 1069SOL    HW2 4107   5.119   4.942   1.073
 1070SOL     OW 4108   1.446   1.217   1.548
 1070SOL    HW1 4109   1.363   1.178   1.508
 1070SOL    HW2 4110   1.506   1.144   1.580
 1071SOL     OW 4111   3.262   6.439   3.750
 1071SOL    HW1 4112   3.176   6.393   3.730
 1071SOL    HW2 4113   3.317   6.382   3.810
 1072SOL     OW 4114   1.741   6.181   0.950
 1072SOL    HW1 4115   1.642   6.194   0.948
 1072SOL    HW2 4116   1.782   6.241   1.019
 1073SOL     OW 4117   3.536   6.521   2.863
 1073SOL    HW1 4118   3.480   6.443   2.837
 1073SOL    HW2 4119   3.631   6.505   2.837
 1074SOL     OW 4120   2.619   5.106   0.347
 1074SOL    HW1 4121   2.682   5.039   0.307
 1074SOL    HW2 4122   2.645   5.123   0.442
 1075SOL     OW 4123   4.404   6.007   4.072
 1075SOL    HW1 4124   4.340   5.930   4.079
 1075SOL    HW2 4125   4.479   5.993   4.137
 1076SOL     OW 4126   0.200   4.696   5.314
 1076SOL    HW1 4127   0.109   4.718   5.280
 1076SOL    HW2 4128   0.195   4.619   5.377
 1077SOL     OW 4129   5.799   0.392   0.647
 1077SOL    HW1 4130   5.708   0.408   0.683
 1077SOL    HW2 4131   5.809   0.438   0.559
 1078SOL     OW 4132   1.330   1.105   2.613
 1078SOL    HW1 4133   1.279   1.037   2.667
 1078SOL    HW2 4134   1.288   1.113   2.522
 1079SOL     OW 4135   1.620   5.975   2.244
 1079SOL    HW1 4136   1.648   6.036   2.170
 1079SOL    HW2 4137   1.691   5.908   2.261
 1080SOL     OW 4138   1.919   4.906   3.711
 1080SOL    HW1 4139   1.925   4.872   3.805
 1080SOL    HW2 4140   2.003   4.953   3.687
 1081SOL     OW 4141   0.308   6.553   5.748
 1081SOL    HW1 4142   0.373   6.479   5.731
 1081SOL    HW2 4143   0.357   6.639   5.757
 1082SOL     OW 4144   3.185   1.342   5.964
 1082SOL    HW1 4145   3.115   1.401   5.924
 1082SOL    HW2 4146   3.143   1.284   6.033
 1083SOL     OW 4147   3.951   4.136   1.102
 1083SOL    HW1 4148   3.884   4.186   1.158
 1083SOL    HW2 4149   3.927   4.039   1.102
 1084SOL     OW 4150   6.674   6.231   0.718
 1084SOL    HW1 4151   6.592   6.183   0.686
 1084SOL    HW2 4152   6.670   6.243   0.817
 1085SOL     OW 4153   1.273   4.282   3.404
 1085SOL    HW1 4154   1.353   4.321   3.358
 1085SOL    HW2 4155   1.283   4.292   3.503
 1086SOL     OW 4156   0.027   5.819   2.335
 1086SOL    HW1 4157   0.039   5.722   2.353
 1086SOL    HW2 4158   6.953   5.840   2.323
 1087SOL     OW 4159   6.226   3.343   5.750
 1087SOL    HW1 4160   6.224   3.392   5.663
 1087SOL    HW2 4161   6.175   3.257   5.741
 1088SOL     OW 4162   6.214   4.669   3.526
 1088SOL    HW1 4163   6.280   4.741   3.505
 1088SOL    HW2 4164   6.128   4.711   3.556
 1089SOL     OW 4165   1.046   0.625   4.128
 1089SOL    HW1 4166   1.136   0.643   4.168
 1089SOL    HW2 4167   0.988   0.706   4.138
 1090SOL     OW 4168   2.352   1.613   3.323
 1090SOL    HW1 4169   2.315   1.706   3.324
 1090SOL    HW2 4170   2.427   1.606   3.388
 1091SOL     OW 4171   1.727   2.889   4.929
 1091SOL    HW1 4172   1.803   2.920   4.872
 1091SOL    HW2 4173   1.756   2.890   5.025
 1092SOL     OW 4174   2.185   3.516   0.662
 1092SOL    HW1 4175   2.273   3.557   0.686
 1092SOL    HW2 4176   2.111   3.578   0.686
 1093SOL     OW 4177   2.171   1.804   2.396
 1093SOL    HW1 4178   2.100   1.871   2.416
 1093SOL    HW2 4179   2.249   1.849   2.354
 1094SOL     OW 4180   1.287   6.176   3.136
 1094SOL    HW1 4181   1.274   6.098   3.197
 1094SOL    HW2 4182   1.361   6.234   3.170
 1095SOL     OW 4183   0.227   2.279   5.775
 1095SOL    HW1 4184   0.139   2.272   5.822
 1095SOL    HW2 4185   0.299   2.298   5.842
 1096SOL     OW 4186   3.386   4.694   1.596
 1096SOL    HW1 4187   3.460   4.699   1.663
 1096SOL    HW2 4188   3.374   4.600   1.566
 1097SOL     OW 4189   1.491   4.028   3.974
 1097SOL    HW1 4190   1.444   3.975   3.904
 1097SOL    HW2 4191   1.508   3.970   4.054
 1098SOL     OW 4192   5.652   3.408   0.686
 1098SOL    HW1 4193   5.579   3.474   0.672
 1098SOL    HW2 4194   5.678   3.366   0.599
 1099SOL     OW 4195   3.926   1.504   4.921
 1099SOL    HW1 4196   3.995   1.574   4.902
 1099SOL    HW2 4197   3.846   1.547   4.962
 1100SOL     OW 4198   2.931   1.781   0.004
 1100SOL    HW1 4199   2.918   1.822   0.094
 1100SOL    HW2 4200   2.895   1.687   0.005
 1101SOL     OW 4201   6.114   2.638   0.150
 1101SOL    HW1 4202   6.188   2.635   0.083
 1101SOL    HW2 4203   6.073   2.729   0.151
 1102SOL     OW 4204   0.811   5.649   3.817
 1102SOL    HW1 4205   0.858   5.614   3.898
 1102SOL    HW2 4206   0.870   5.640   3.737
 1103SOL     OW 4207   2.942   1.524   0.895
 1103SOL    HW1 4208   3.019   1.531   0.832
 1103SOL    HW2 4209   2.899   1.434   0.885
 1104SOL     OW 4210   2.359   3.305   5.569
 1104SOL    HW1 4211   2.292   3.379   5.562
 1104SOL    HW2 4212   2.439   3.326   5.513
 1105SOL     OW 4213   5.628   3.622   4.762
 1105SOL    HW1 4214   5.703   3.686   4.775
 1105SOL    HW2 4215   5.664   3.529   4.752
 1106SOL     OW 4216   0.803   1.949   0.327
 1106SOL    HW1 4217   0.758   1.869   0.367
 1106SOL    HW2 4218   0.742   2.028   0.333
 1107SOL     OW 4219   1.182   0.424   6.163
 1107SOL    HW1 4220   1.282   0.429   6.169
 1107SOL    HW2 4221   1.147   0.366   6.237
 1108SOL     OW 4222   2.742   0.424   6.039
 1108SOL    HW1 4223   2.725   0.326   6.046
 1108SOL    HW2 4224   2.824   0.440   5.984
 1109SOL     OW 4225   4.390   6.528   4.863
 1109SOL    HW1 4226   4.319   6.565   4.922
 1109SOL    HW2 4227   4.351   6.459   4.803
 1110SOL     OW 4228   2.857   1.301   2.822
 1110SOL    HW1 4229   2.857   1.237   2.746
 1110SOL    HW2 4230   2.822   1.256   2.904
 1111SOL     OW 4231   5.397   5.477   0.211
 1111SOL    HW1 4232   5.397   5.538   0.290
 1111SOL    HW2 4233   5.421   5.529   0.129
 1112SOL     OW 4234   5.891   1.444   2.650
 1112SOL    HW1 4235   5.948   1.471   2.727
 1112SOL    HW2 4236   5.800   1.417   2.683
 1113SOL     OW 4237   0.078   3.700   3.107
 1113SOL    HW1 4238   0.079   3.648   3.022
 1113SOL    HW2 4239   0.113   3.792   3.090
 1114SOL     OW 4240   4.333   1.254   6.542
 1114SOL    HW1 4241   4.339   1.195   6.622
 1114SOL    HW2 4242   4.424   1.279   6.510
 1115SOL     OW 4243   4.574   3.057   0.032
 1115SOL    HW1 4244   4.591   2.978   0.092
 1115SOL    HW2 4245   4.509   3.118   0.076
 1116SOL     OW 4246   5.716   5.914   4.860
 1116SOL    HW1 4247   5.774   5.926   4.941
 1116SOL    HW2 4248   5.764   5.858   4.792
 1117SOL     OW 4249   2.307   2.924   1.447
 1117SOL    HW1 4250   2.385   2.945   1.388
 1117SOL    HW2 4251   2.307   2.986   1.525
 1118SOL     OW 4252   2.160   4.329   1.567
 1118SOL    HW1 4253   2.247   4.371   1.592
 1118SOL    HW2 4254   2.085   4.383   1.604
 1119SOL     OW 4255   4.289   4.210   1.470
 1119SOL    HW1 4256   4.202   4.185   1.513
 1119SOL    HW2 4257   4.290   4.177   1.376
 1120SOL     OW 4258   5.435   7.006   5.606
 1120SOL    HW1 4259   5.402   0.075   5.590
 1120SOL    HW2 4260   5.506   6.984   5.539
 1121SOL     OW 4261   5.107   4.307   2.406
 1121SOL    HW1 4262   5.044   4.283   2.480
 1121SOL    HW2 4263   5.108   4.406   2.394
 1122SOL     OW 4264   4.617   3.112   6.199
 1122SOL    HW1 4265   4.605   3.025   6.246
 1122SOL    HW2 4266   4.528   3.152   6.178
 1123SOL     OW 4267   5.339   1.376   2.746
 1123SOL    HW1 4268   5.242   1.396   2.738
 1123SOL    HW2 4269   5.373   1.409   2.834
 1124SOL     OW 4270   5.948   4.406   5.426
 1124SOL    HW1 4271   5.883   4.329   5.432
 1124SOL    HW2 4272   5.902   4.485   5.387
 1125SOL     OW 4273   2.700   1.568   5.362
 1125SOL    HW1 4274   2.702   1.500   5.436
 1125SOL    HW2 4275   2.789   1.570   5.317
 1126SOL     OW 4276   5.739   6.468   0.583
 1126SOL    HW1 4277   5.691   6.382   0.570
 1126SOL    HW2 4278   5.675   6.544   0.578
 1127SOL     OW 4279   4.735   5.558   5.014
 1127SOL    HW1 4280   4.760   5.528   5.107
 1127SOL    HW2 4281   4.720   5.478   4.957
 1128SOL     OW 4282   5.615   2.617   5.058
 1128SOL    HW1 4283   5.656   2.698   5.017
 1128SOL    HW2 4284   5.565   2.566   4.988
 1129SOL     OW 4285   3.578   0.432   6.682
 1129SOL    HW1 4286   3.673   0.406   6.664
 1129SOL    HW2 4287   3.570   0.532   6.678
 1130SOL     OW 4288   1.647   4.258   0.931
 1130SOL    HW1 4289   1.705   4.326   0.885
 1130SOL    HW2 4290   1.562   4.301   0.960
 1131SOL     OW 4291   0.466   6.482   6.028
 1131SOL    HW1 4292   0.396   6.442   6.088
 1131SOL    HW2 4293   0.428   6.561   5.981
 1132SOL     OW 4294   5.476   0.285   0.416
 1132SOL    HW1 4295   5.404   0.289   0.347
 1132SOL    HW2 4296   5.493   0.376   0.453
 1133SOL     OW 4297   0.774   1.247   0.569
 1133SOL    HW1 4298   0.846   1.287   0.626
 1133SOL    HW2 4299   0.686   1.287   0.594
 1134SOL     OW 4300   5.067   1.571   1.420
 1134SOL    HW1 4301   5.104   1.496   1.365
 1134SOL    HW2 4302   4.984   1.540   1.467
 1135SOL     OW 4303   2.824   1.213   2.027
 1135SOL    HW1 4304   2.750   1.257   2.078
 1135SOL    HW2 4305   2.870   1.146   2.085
 1136SOL     OW 4306   3.703   5.313   4.937
 1136SOL    HW1 4307   3.649   5.325   5.021
 1136SOL    HW2 4308   3.799   5.327   4.957
 1137SOL     OW 4309   1.545   2.125   6.424
 1137SOL    HW1 4310   1.450   2.113   6.395
 1137SOL    HW2 4311   1.570   2.053   6.489
 1138SOL     OW 4312   0.496   1.346   6.301
 1138SOL    HW1 4313   0.550   1.297   6.369
 1138SOL    HW2 4314   0.550   1.421   6.263
 1139SOL     OW 4315   2.894   6.013   1.193
 1139SOL    HW1 4316   2.921   6.016   1.289
 1139SOL    HW2 4317   2.810   5.959   1.184
 1140SOL     OW 4318   3.432   0.729   1.923
 1140SOL    HW1 4319   3.339   0.723   1.887
 1140SOL    HW2 4320   3.449   0.650   1.983
 1141SOL     OW 4321   6.366   6.528   6.660
 1141SOL    HW1 4322   6.270   6.554   6.648
 1141SOL    HW2 4323   6.411   6.593   6.722
 1142SOL     OW 4324   4.171   0.548   4.421
 1142SOL    HW1 4325   4.213   0.634   4.393
 1142SOL    HW2 4326   4.097   0.567   4.486
 1143SOL     OW 4327   2.168   3.074   2.372
 1143SOL    HW1 4328   2.241   3.011   2.344
 1143SOL    HW2 4329   2.184   3.104   2.466
 1144SOL     OW 4330   6.150   4.509   5.573
 1144SOL    HW1 4331   6.120   4.578   5.639
 1144SOL    HW2 4332   6.078   4.496   5.504
 1145SOL     OW 4333   0.236   4.696   2.485
 1145SOL    HW1 4334   0.241   4.621   2.420
 1145SOL    HW2 4335   0.203   4.778   2.439
 1146SOL     OW 4336   5.684   0.825   1.420
 1146SOL    HW1 4337   5.675   0.921   1.446
 1146SOL    HW2 4338   5.630   0.769   1.482
 1147SOL     OW 4339   1.948   4.668   0.667
 1147SOL    HW1 4340   1.973   4.751   0.718
 1147SOL    HW2 4341   1.916   4.692   0.576
 1148SOL     OW 4342   4.553   6.883   6.801
 1148SOL    HW1 4343   4.644   6.843   6.817
 1148SOL    HW2 4344   4.485   6.831   6.853
 1149SOL     OW 4345   6.169   3.851   3.456
 1149SOL    HW1 4346   6.137   3.917   3.388
 1149SOL    HW2 4347   6.248   3.801   3.419
 1150SOL     OW 4348   2.367   4.341   0.992
 1150SOL    HW1 4349   2.366   4.366   0.895
 1150SOL    HW2 4350   2.364   4.242   1.000
 1151SOL     OW 4351   4.792   5.421   0.007
 1151SOL    HW1 4352   4.716   5.368   6.994
 1151SOL    HW2 4353   4.759   5.483   0.077
 1152SOL     OW 4354   0.541   5.852   5.754
 1152SOL    HW1 4355   0.543   5.817   5.848
 1152SOL    HW2 4356   0.626   5.902   5.735
 1153SOL     OW 4357   2.275   0.107   1.988
 1153SOL    HW1 4358   2.217   0.161   1.928
 1153SOL    HW2 4359   2.274   0.011   1.958
 1154SOL     OW 4360   0.736   3.861   2.170
 1154SOL    HW1 4361   0.763   3.802   2.094
 1154SOL    HW2 4362   0.783   3.832   2.253
 1155SOL     OW 4363   2.740   5.009   6.943
 1155SOL    HW1 4364   2.733   4.914   6.915
 1155SOL    HW2 4365   2.684   5.067   6.883
 1156SOL     OW 4366   1.878   0.717   4.969
 1156SOL    HW1 4367   1.789   0.682   4.940
 1156SOL    HW2 4368   1.875   0.738   5.067
 1157SOL     OW 4369   6.183   1.039   4.890
 1157SOL    HW1 4370   6.182   1.138   4.899
 1157SOL    HW2 4371   6.167   0.998   4.980
 1158SOL     OW 4372   0.359   5.630   5.861
 1158SOL    HW1 4373   0.434   5.564   5.853
 1158SOL    HW2 4374   0.314   5.640   5.772
 1159SOL     OW 4375   5.284   6.894   3.391
 1159SOL    HW1 4376   5.246   6.813   3.346
 1159SOL    HW2 4377   5.320   6.869   3.480
 1160SOL     OW 4378   3.949   3.655   1.512
 1160SOL    HW1 4379   3.910   3.570   1.475
 1160SOL    HW2 4380   3.933   3.729   1.447
 1161SOL     OW 4381   4.878   0.379   6.101
 1161SOL    HW1 4382   4.846   0.286   6.119
 1161SOL    HW2 4383   4.978   0.381   6.099
 1162SOL     OW 4384   3.507   2.224   0.365
 1162SOL    HW1 4385   3.460   2.275   0.293
 1162SOL    HW2 4386   3.582   2.171   0.325
 1163SOL     OW 4387   6.448   3.203   1.817
 1163SOL    HW1 4388   6.500   3.131   1.862
 1163SOL    HW2 4389   6.359   3.169   1.790
 1164SOL     OW 4390   5.780   2.630   4.463
 1164SOL    HW1 4391   5.751   2.725   4.452
 1164SOL    HW2 4392   5.716   2.570   4.416
 1165SOL     OW 4393   1.704   4.433   4.439
 1165SOL    HW1 4394   1.772   4.413   4.510
 1165SOL    HW2 4395   1.747   4.432   4.349
 1166SOL     OW 4396   3.637   0.958   0.350
 1166SOL    HW1 4397   3.623   1.057   0.364
 1166SOL    HW2 4398   3.677   0.919   0.433
 1167SOL     OW 4399   3.705   0.026   6.285
 1167SOL    HW1 4400   3.622   0.036   6.341
 1167SOL    HW2 4401   3.680   0.026   6.189
 1168SOL     OW 4402   6.981   1.127   3.414
 1168SOL    HW1 4403   6.885   1.150   3.397
 1168SOL    HW2 4404   7.001   1.037   3.375
 1169SOL     OW 4405   5.993   3.341   6.558
 1169SOL    HW1 4406   5.897   3.361   6.577
 1169SOL    HW2 4407   6.001   3.283   6.477
 1170SOL     OW 4408   4.967   0.880   1.874
 1170SOL    HW1 4409   4.942   0.852   1.967
 1170SOL    HW2 4410   4.886   0.912   1.826
 1171SOL     OW 4411   2.606   6.330   6.595
 1171SOL    HW1 4412   2.522   6.313   6.647
 1171SOL    HW2 4413   2.629   6.427   6.599
 1172SOL     OW 4414   3.711   4.003   2.691
 1172SOL    HW1 4415   3.726   4.031   2.786
 1172SOL    HW2 4416   3.614   3.982   2.677
 1173SOL     OW 4417   3.128   6.901   5.577
 1173SOL    HW1 4418   3.062   6.849   5.631
 1173SOL    HW2 4419   3.106   6.998   5.582
 1174SOL     OW 4420   3.453   4.644   0.254
 1174SOL    HW1 4421   3.539   4.604   0.286
 1174SOL    HW2 4422   3.376   4.594   0.294
 1175SOL     OW 4423   4.407   3.356   6.546
 1175SOL    HW1 4424   4.387   3.297   6.469
 1175SOL    HW2 4425   4.435   3.301   6.625
 1176SOL     OW 4426   5.487   4.315   0.983
 1176SOL    HW1 4427   5.542   4.359   1.053
 1176SOL    HW2 4428   5.522   4.223   0.965
 1177SOL     OW 4429   0.199   1.570   5.799
 1177SOL    HW1 4430   0.173   1.658   5.758
 1177SOL    HW2 4431   0.117   1.524   5.833
 1178SOL     OW 4432   3.813   3.126   1.418
 1178SOL    HW1 4433   3.847   3.033   1.408
 1178SOL    HW2 4434   3.713   3.126   1.417
 1179SOL     OW 4435   2.955   5.573   6.913
 1179SOL    HW1 4436   3.028   5.516   6.952
 1179SOL    HW2 4437   2.880   5.581   6.979
 1180SOL     OW 4438   2.681   6.532   4.023
 1180SOL    HW1 4439   2.662   6.620   3.979
 1180SOL    HW2 4440   2.700   6.463   3.953
 1181SOL     OW 4441   6.884   3.023   4.841
 1181SOL    HW1 4442   6.845   2.941   4.799
 1181SOL    HW2 4443   6.894   3.094   4.771
 1182SOL     OW 4444   2.141   5.271   3.501
 1182SOL    HW1 4445   2.125   5.306   3.409
 1182SOL    HW2 4446   2.056   5.276   3.554
 1183SOL     OW 4447   3.708   6.221   1.351
 1183SOL    HW1 4448   3.728   6.296   1.414
 1183SOL    HW2 4449   3.783   6.155   1.354
 1184SOL     OW 4450   4.413   1.027   5.642
 1184SOL    HW1 4451   4.437   1.068   5.730
 1184SOL    HW2 4452   4.354   0.948   5.657
 1185SOL     OW 4453   1.781   0.171   0.331
 1185SOL    HW1 4454   1.827   0.260   0.328
 1185SOL    HW2 4455   1.815   0.113   0.256
 1186SOL     OW 4456   6.001   6.257   6.237
 1186SOL    HW1 4457   5.946   6.332   6.271
 1186SOL    HW2 4458   5.942   6.181   6.211
 1187SOL     OW 4459   5.107   6.274   5.459
 1187SOL    HW1 4460   5.130   6.177   5.461
 1187SOL    HW2 4461   5.057   6.299   5.542
 1188SOL     OW 4462   3.429   6.100   6.588
 1188SOL    HW1 4463   3.410   6.095   6.490
 1188SOL    HW2 4464   3.528   6.094   6.603
 1189SOL     OW 4465   5.456   0.668   2.002
 1189SOL    HW1 4466   5.378   0.611   1.975
 1189SOL    HW2 4467   5.448   0.758   1.959
 1190SOL     OW 4468   3.977   4.825   4.262
 1190SOL    HW1 4469   3.929   4.814   4.174
 1190SOL    HW2 4470   3.910   4.836   4.335
 1191SOL     OW 4471   4.262   6.220   5.060
 1191SOL    HW1 4472   4.179   6.226   5.116
 1191SOL    HW2 4473   4.308   6.133   5.079
 1192SOL     OW 4474   5.368   5.577   2.897
 1192SOL    HW1 4475   5.400   5.580   2.991
 1192SOL    HW2 4476   5.269   5.565   2.895
 1193SOL     OW 4477   0.079   0.258   5.289
 1193SOL    HW1 4478   0.032   0.327   5.234
 1193SOL    HW2 4479   0.014   0.218   5.354
 1194SOL     OW 4480   6.814   1.571   0.767
 1194SOL    HW1 4481   6.778   1.585   0.859
 1194SOL    HW2 4482   6.911   1.594   0.765
 1195SOL     OW 4483   6.169   3.068   1.507
 1195SOL    HW1 4484   6.074   3.056   1.479
 1195SOL    HW2 4485   6.175   3.069   1.607
 1196SOL     OW 4486   6.933   4.340   1.792
 1196SOL    HW1 4487   6.949   4.388   1.706
 1196SOL    HW2 4488   7.009   4.359   1.855
 1197SOL     OW 4489   4.413   6.836   4.745
 1197SOL    HW1 4490   4.368   6.834   4.655
 1197SOL    HW2 4491   4.355   6.789   4.812
 1198SOL     OW 4492   1.788   2.938   3.050
 1198SOL    HW1 4493   1.710   2.876   3.059
 1198SOL    HW2 4494   1.873   2.889   3.070
 1199SOL     OW 4495   3.658   2.909   3.606
 1199SOL    HW1 4496   3.727   2.837   3.618
 1199SOL    HW2 4497   3.701   2.989   3.565
 1200SOL     OW 4498   3.891   4.168   4.970
 1200SOL    HW1 4499   3.900   4.149   4.873
 1200SOL    HW2 4500   3.966   4.229   4.999
 1201SOL     OW 4501   0.186   1.289   4.129
 1201SOL    HW1 4502   0.133   1.295   4.213
 1201SOL    HW2 4503   0.275   1.248   4.148
 1202SOL     OW 4504   5.570   1.092   6.533
 1202SOL    HW1 4505   5.558   1.159   6.459
 1202SOL    HW2 4506   5.519   1.009   6.512
 1203SOL     OW 4507   6.466   6.556   1.413
 1203SOL    HW1 4508   6.380   6.587   1.454
 1203SOL    HW2 4509   6.505   6.631   1.358
 1204SOL     OW 4510   4.294   1.503   1.516
 1204SOL    HW1 4511   4.206   1.471   1.552
 1204SOL    HW2 4512   4.285   1.521   1.418
 1205SOL     OW 4513   4.290   3.189   6.341
 1205SOL    HW1 4514   4.315   3.210   6.246
 1205SOL    HW2 4515   4.343   3.110   6.372
 1206SOL     OW 4516   0.986   2.437   4.665
 1206SOL    HW1 4517   1.080   2.464   4.686
 1206SOL    HW2 4518   0.941   2.404   4.748
 1207SOL     OW 4519   0.418   6.688   6.967
 1207SOL    HW1 4520   0.394   6.763   6.905
 1207SOL    HW2 4521   0.336   6.654   7.012
 1208SOL     OW 4522   3.272   4.118   2.493
 1208SOL    HW1 4523   3.216   4.108   2.575
 1208SOL    HW2 4524   3.285   4.215   2.473
 1209SOL     OW 4525   5.262   0.066   4.809
 1209SOL    HW1 4526   5.205   0.000   4.759
 1209SOL    HW2 4527   5.355   0.030   4.815
 1210SOL     OW 4528   4.330   6.682   3.742
 1210SOL    HW1 4529   4.289   6.614   3.803
 1210SOL    HW2 4530   4.428   6.689   3.759
 1211SOL     OW 4531   1.327   3.020   3.230
 1211SOL    HW1 4532   1.385   3.100   3.222
 1211SOL    HW2 4533   1.275   3.007   3.145
 1212SOL     OW 4534   6.840   1.305   5.752
 1212SOL    HW1 4535   6.774   1.229   5.755
 1212SOL    HW2 4536   6.842   1.344   5.660
 1213SOL     OW 4537   5.602   3.099   3.785
 1213SOL    HW1 4538   5.592   3.001   3.805
 1213SOL    HW2 4539   5.670   3.112   3.713
 1214SOL     OW 4540   1.199   2.693   5.534
 1214SOL    HW1 4541   1.170   2.785   5.509
 1214SOL    HW2 4542   1.299   2.689   5.536
 1215SOL     OW 4543   1.781   5.188   2.118
 1215SOL    HW1 4544   1.826   5.267   2.076
 1215SOL    HW2 4545   1.774   5.203   2.216
 1216SOL     OW 4546   0.266   0.671   0.652
 1216SOL    HW1 4547   0.272   0.747   0.717
 1216SOL    HW2 4548   0.236   0.706   0.563
 1217SOL     OW 4549   3.315   5.541   1.495
 1217SOL    HW1 4550   3.379   5.481   1.446
 1217SOL    HW2 4551   3.241   5.485   1.533
 1218SOL     OW 4552   0.758   3.496   5.849
 1218SOL    HW1 4553   0.822   3.570   5.830
 1218SOL    HW2 4554   0.672   3.533   5.882
 1219SOL     OW 4555   4.804   5.101   2.272
 1219SOL    HW1 4556   4.898   5.067   2.275
 1219SOL    HW2 4557   4.792   5.159   2.192
 1220SOL     OW 4558   6.220   3.804   2.853
 1220SOL    HW1 4559   6.311   3.845   2.846
 1220SOL    HW2 4560   6.181   3.826   2.943
 1221SOL     OW 4561   5.813   3.973   6.113
 1221SOL    HW1 4562   5.745   3.938   6.176
 1221SOL    HW2 4563   5.879   3.901   6.091
 1222SOL     OW 4564   0.408   0.658   0.047
 1222SOL    HW1 4565   0.312   0.670   0.020
 1222SOL    HW2 4566   0.412   0.606   0.132
 1223SOL     OW 4567   4.531   1.149   0.787
 1223SOL    HW1 4568   4.504   1.238   0.823
 1223SOL    HW2 4569   4.590   1.103   0.854
 1224SOL     OW 4570   3.010   5.678   6.683
 1224SOL    HW1 4571   3.035   5.614   6.611
 1224SOL    HW2 4572   2.973   5.628   6.762
 1225SOL     OW 4573   3.719   2.425   1.161
 1225SOL    HW1 4574   3.704   2.333   1.196
 1225SOL    HW2 4575   3.655   2.488   1.205
 1226SOL     OW 4576   5.156   6.413   0.755
 1226SOL    HW1 4577   5.236   6.360   0.726
 1226SOL    HW2 4578   5.081   6.351   0.776
 1227SOL     OW 4579   5.270   5.088   6.502
 1227SOL    HW1 4580   5.346   5.120   6.445
 1227SOL    HW2 4581   5.282   5.122   6.596
 1228SOL     OW 4582   3.742   2.462   0.872
 1228SOL    HW1 4583   3.752   2.450   0.971
 1228SOL    HW2 4584   3.747   2.372   0.827
 1229SOL     OW 4585   1.857   5.782   1.144
 1229SOL    HW1 4586   1.855   5.804   1.242
 1229SOL    HW2 4587   1.843   5.684   1.131
 1230SOL     OW 4588   5.471   5.221   2.415
 1230SOL    HW1 4589   5.429   5.296   2.467
 1230SOL    HW2 4590   5.564   5.207   2.446
 1231SOL     OW 4591   1.385   1.791   5.668
 1231SOL    HW1 4592   1.435   1.807   5.583
 1231SOL    HW2 4593   1.393   1.872   5.727
 1232SOL     OW 4594   5.711   1.540   5.619
 1232SOL    HW1 4595   5.774   1.553   5.543
 1232SOL    HW2 4596   5.756   1.488   5.691
 1233SOL     OW 4597   0.549   5.850   4.080
 1233SOL    HW1 4598   0.646   5.869   4.060
 1233SOL    HW2 4599   0.493   5.878   4.003
 1234SOL     OW 4600   6.294   2.780   5.482
 1234SOL    HW1 4601   6.271   2.869   5.442
 1234SOL    HW2 4602   6.286   2.709   5.413
 1235SOL     OW 4603   6.289   4.449   1.323
 1235SOL    HW1 4604   6.258   4.355   1.337
 1235SOL    HW2 4605   6.366   4.449   1.258
 1236SOL     OW 4606   4.204   1.465   1.903
 1236SOL    HW1 4607   4.161   1.505   1.984
 1236SOL    HW2 4608   4.291   1.512   1.885
 1237SOL     OW 4609   1.501   5.667   4.834
 1237SOL    HW1 4610   1.436   5.730   4.874
 1237SOL    HW2 4611   1.486   5.661   4.735
 1238SOL     OW 4612   0.600   0.630   4.951
 1238SOL    HW1 4613   0.616   0.696   4.878
 1238SOL    HW2 4614   0.556   0.676   5.028
 1239SOL     OW 4615   6.490   6.431   5.743
 1239SOL    HW1 4616   6.466   6.424   5.647
 1239SOL    HW2 4617   6.438   6.505   5.785
 1240SOL     OW 4618   6.098   5.324   2.246
 1240SOL    HW1 4619   6.106   5.403   2.185
 1240SOL    HW2 4620   6.046   5.252   2.200
 1241SOL     OW 4621   6.281   5.023   5.082
 1241SOL    HW1 4622   6.377   5.036   5.104
 1241SOL    HW2 4623   6.258   4.925   5.085
 1242SOL     OW 4624   2.096   3.413   0.388
 1242SOL    HW1 4625   2.107   3.426   0.487
 1242SOL    HW2 4626   2.174   3.454   0.340
 1243SOL     OW 4627   0.005   1.297   4.373
 1243SOL    HW1 4628   6.958   1.356   4.332
 1243SOL    HW2 4629   0.044   1.343   4.452
 1244SOL     OW 4630   5.265   6.801   5.078
 1244SOL    HW1 4631   5.168   6.807   5.054
 1244SOL    HW2 4632   5.305   6.892   5.075
 1245SOL     OW 4633   5.792   4.961   0.508
 1245SOL    HW1 4634   5.742   4.879   0.481
 1245SOL    HW2 4635   5.870   4.934   0.566
 1246SOL     OW 4636   3.436   0.902   2.157
 1246SOL    HW1 4637   3.419   0.854   2.071
 1246SOL    HW2 4638   3.514   0.963   2.146
 1247SOL     OW 4639   5.646   0.224   5.366
 1247SOL    HW1 4640   5.667   0.214   5.464
 1247SOL    HW2 4641   5.574   0.292   5.355
 1248SOL     OW 4642   1.297   6.571   3.883
 1248SOL    HW1 4643   1.282   6.622   3.799
 1248SOL    HW2 4644   1.215   6.575   3.940
 1249SOL     OW 4645   0.305   3.525   1.757
 1249SOL    HW1 4646   0.291   3.438   1.709
 1249SOL    HW2 4647   0.225   3.544   1.814
 1250SOL     OW 4648   6.282   4.299   4.026
 1250SOL    HW1 4649   6.249   4.218   3.978
 1250SOL    HW2 4650   6.293   4.374   3.961
 1251SOL     OW 4651   2.403   0.833   2.381
 1251SOL    HW1 4652   2.471   0.854   2.452
 1251SOL    HW2 4653   2.312   0.856   2.415
 1252SOL     OW 4654   4.047   4.565   6.426
 1252SOL    HW1 4655   4.009   4.639   6.481
 1252SOL    HW2 4656   3.995   4.557   6.341
 1253SOL     OW 4657   2.637   0.305   1.697
 1253SOL    HW1 4658   2.662   0.237   1.628
 1253SOL    HW2 4659   2.539   0.297   1.718
 1254SOL     OW 4660   6.819   2.650   3.599
 1254SOL    HW1 4661   6.827   2.654   3.499
 1254SOL    HW2 4662   6.737   2.598   3.624
 1255SOL     OW 4663   6.178   2.622   5.900
 1255SOL    HW1 4664   6.259   2.640   5.956
 1255SOL    HW2 4665   6.097   2.663   5.943
 1256SOL     OW 4666   0.250   6.408   4.065
 1256SOL    HW1 4667   0.179   6.345   4.096
 1256SOL    HW2 4668   0.290   6.375   3.980
 1257SOL     OW 4669   6.814   5.200   4.279
 1257SOL    HW1 4670   6.898   5.176   4.329
 1257SOL    HW2 4671   6.743   5.227   4.344
 1258SOL     OW 4672   2.094   5.159   3.003
 1258SOL    HW1 4673   2.152   5.207   3.069
 1258SOL    HW2 4674   2.032   5.225   2.959
 1259SOL     OW 4675   3.749   6.254   5.097
 1259SOL    HW1 4676   3.787   6.180   5.153
 1259SOL    HW2 4677   3.669   6.219   5.047
 1260SOL     OW 4678   3.133   1.278   1.168
 1260SOL    HW1 4679   3.058   1.332   1.206
 1260SOL    HW2 4680   3.194   1.337   1.115
 1261SOL     OW 4681   0.144   4.291   6.998
 1261SOL    HW1 4682   0.181   4.241   0.053
 1261SOL    HW2 4683   0.216   4.347   6.958
 1262SOL     OW 4684   5.227   5.693   1.749
 1262SOL    HW1 4685   5.281   5.753   1.690
 1262SOL    HW2 4686   5.187   5.619   1.695
 1263SOL     OW 4687   6.499   1.259   1.206
 1263SOL    HW1 4688   6.545   1.198   1.142
 1263SOL    HW2 4689   6.567   1.300   1.268
 1264SOL     OW 4690   0.672   3.962   1.354
 1264SOL    HW1 4691   0.679   3.891   1.425
 1264SOL    HW2 4692   0.584   4.009   1.362
 1265SOL     OW 4693   6.479   5.016   3.763
 1265SOL    HW1 4694   6.520   4.959   3.692
 1265SOL    HW2 4695   6.456   4.959   3.842
 1266SOL     OW 4696   1.363   0.998   4.244
 1266SOL    HW1 4697   1.322   0.909   4.224
 1266SOL    HW2 4698   1.297   1.054   4.294
 1267SOL     OW 4699   5.725   6.736   1.237
 1267SOL    HW1 4700   5.657   6.694   1.297
 1267SOL    HW2 4701   5.686   6.751   1.147
 1268SOL     OW 4702   4.925   2.276   0.265
 1268SOL    HW1 4703   4.839   2.272   0.316
 1268SOL    HW2 4704   4.975   2.191   0.278
 1269SOL     OW 4705   6.099   6.400   5.776
 1269SOL    HW1 4706   6.146   6.328   5.724
 1269SOL    HW2 4707   6.040   6.358   5.845
 1270SOL     OW 4708   2.199   3.006   4.763
 1270SOL    HW1 4709   2.232   3.022   4.856
 1270SOL    HW2 4710   2.266   2.952   4.713
 1271SOL     OW 4711   3.369   2.100   3.520
 1271SOL    HW1 4712   3.389   2.003   3.532
 1271SOL    HW2 4713   3.275   2.119   3.551
 1272SOL     OW 4714   6.073   5.660   0.519
 1272SOL    HW1 4715   6.172   5.665   0.534
 1272SOL    HW2 4716   6.045   5.564   0.519
 1273SOL     OW 4717   0.940   4.394   0.243
 1273SOL    HW1 4718   0.906   4.363   0.155
 1273SOL    HW2 4719   0.945   4.494   0.244
 1274SOL     OW 4720   6.269   2.930   1.147
 1274SOL    HW1 4721   6.222   2.999   1.091
 1274SOL    HW2 4722   6.318   2.976   1.221
 1275SOL     OW 4723   3.932   6.944   4.282
 1275SOL    HW1 4724   4.001   6.872   4.289
 1275SOL    HW2 4725   3.977   0.010   4.279
 1276SOL     OW 4726   0.005   0.737   4.446
 1276SOL    HW1 4727   6.940   0.728   4.400
 1276SOL    HW2 4728   0.043   0.645   4.462
 1277SOL     OW 4729   1.178   0.182   5.624
 1277SOL    HW1 4730   1.240   0.115   5.667
 1277SOL    HW2 4731   1.215   0.274   5.635
 1278SOL     OW 4732   1.043   0.685   5.079
 1278SOL    HW1 4733   1.106   0.753   5.116
 1278SOL    HW2 4734   1.056   0.599   5.128
 1279SOL     OW 4735   3.781   5.161   6.968
 1279SOL    HW1 4736   3.861   5.220   6.955
 1279SOL    HW2 4737   3.784   5.086   6.901
 1280SOL     OW 4738   3.396   5.636   4.116
 1280SOL    HW1 4739   3.395   5.559   4.053
 1280SOL    HW2 4740   3.472   5.696   4.095
 1281SOL     OW 4741   0.890   5.569   2.568
 1281SOL    HW1 4742   0.930   5.479   2.584
 1281SOL    HW2 4743   0.936   5.637   2.625
 1282SOL     OW 4744   0.134   1.006   6.438
 1282SOL    HW1 4745   0.063   0.941   6.465
 1282SOL    HW2 4746   0.111   1.045   6.349
 1283SOL     OW 4747   5.321   3.128   5.361
 1283SOL    HW1 4748   5.256   3.193   5.400
 1283SOL    HW2 4749   5.401   3.176   5.326
 1284SOL     OW 4750   4.547   2.203   2.332
 1284SOL    HW1 4751   4.582   2.112   2.352
 1284SOL    HW2 4752   4.509   2.245   2.415
 1285SOL     OW 4753   4.709   3.373   6.254
 1285SOL    HW1 4754   4.663   3.285   6.245
 1285SOL    HW2 4755   4.712   3.419   6.165
 1286SOL     OW 4756   5.152   3.651   2.565
 1286SOL    HW1 4757   5.166   3.717   2.639
 1286SOL    HW2 4758   5.063   3.607   2.576
 1287SOL     OW 4759   4.574   4.048   5.427
 1287SOL    HW1 4760   4.618   3.967   5.387
 1287SOL    HW2 4761   4.477   4.050   5.399
 1288SOL     OW 4762   5.861   3.481   0.232
 1288SOL    HW1 4763   5.766   3.508   0.218
 1288SOL    HW2 4764   5.875   3.389   0.195
 1289SOL     OW 4765   0.196   6.183   1.117
 1289SOL    HW1 4766   0.136   6.103   1.111
 1289SOL    HW2 4767   0.220   6.199   1.213
 1290SOL     OW 4768   0.948   0.309   0.038
 1290SOL    HW1 4769   0.924   0.397   0.080
 1290SOL    HW2 4770   0.922   0.309   6.965
 1291SOL     OW 4771   6.986   3.556   5.533
 1291SOL    HW1 4772   6.891   3.539   5.559
 1291SOL    HW2 4773   0.006   3.614   5.602
 1292SOL     OW 4774   6.428   5.933   2.523
 1292SOL    HW1 4775   6.488   5.904   2.596
 1292SOL    HW2 4776   6.357   5.864   2.508
 1293SOL     OW 4777   1.328   1.557   6.790
 1293SOL    HW1 4778   1.328   1.650   6.753
 1293SOL    HW2 4779   1.365   1.494   6.723
 1294SOL     OW 4780   1.748   3.647   6.956
 1294SOL    HW1 4781   1.745   3.655   6.856
 1294SOL    HW2 4782   1.837   3.677   6.989
 1295SOL     OW 4783   0.214   3.918   2.940
 1295SOL    HW1 4784   0.281   3.876   2.879
 1295SOL    HW2 4785   0.123   3.913   2.899
 1296SOL     OW 4786   3.542   0.448   6.081
 1296SOL    HW1 4787   3.491   0.363   6.091
 1296SOL    HW2 4788   3.479   0.523   6.062
 1297SOL     OW 4789   5.812   0.526   6.989
 1297SOL    HW1 4790   5.836   0.552   6.896
 1297SOL    HW2 4791   5.715   0.502   6.992
 1298SOL     OW 4792   6.581   4.574   3.116
 1298SOL    HW1 4793   6.622   4.618   3.196
 1298SOL    HW2 4794   6.529   4.642   3.064
 1299SOL     OW 4795   0.109   4.010   3.164
 1299SOL    HW1 4796   0.191   4.032   3.218
 1299SOL    HW2 4797   0.136   3.988   3.070
 1300SOL     OW 4798   3.550   3.869   2.040
 1300SOL    HW1 4799   3.505   3.956   2.061
 1300SOL    HW2 4800   3.483   3.795   2.040
 1301SOL     OW 4801   0.306   5.330   2.079
 1301SOL    HW1 4802   0.395   5.312   2.121
 1301SOL    HW2 4803   0.300   5.427   2.055
 1302SOL     OW 4804   3.500   7.010   5.328
 1302SOL    HW1 4805   3.555   7.004   5.411
 1302SOL    HW2 4806   3.503   0.079   5.292
 1303SOL     OW 4807   4.566   1.598   1.372
 1303SOL    HW1 4808   4.519   1.561   1.452
 1303SOL    HW2 4809   4.630   1.669   1.402
 1304SOL     OW 4810   1.077   1.060   6.909
 1304SOL    HW1 4811   1.078   1.097   7.002
 1304SOL    HW2 4812   1.074   1.135   6.843
 1305SOL     OW 4813   5.138   3.508   6.991
 1305SOL    HW1 4814   5.226   3.463   6.976
 1305SOL    HW2 4815   5.151   3.607   6.987
 1306SOL     OW 4816   0.927   4.133   5.615
 1306SOL    HW1 4817   0.975   4.220   5.627
 1306SOL    HW2 4818   0.957   4.090   5.530
 1307SOL     OW 4819   1.305   3.198   5.019
 1307SOL    HW1 4820   1.358   3.271   4.975
 1307SOL    HW2 4821   1.285   3.224   5.113
 1308SOL     OW 4822   4.069   5.482   5.190
 1308SOL    HW1 4823   4.023   5.571   5.183
 1308SOL    HW2 4824   4.041   5.424   5.114
 1309SOL     OW 4825   5.296   2.841   5.719
 1309SOL    HW1 4826   5.249   2.921   5.683
 1309SOL    HW2 4827   5.357   2.869   5.793
 1310SOL     OW 4828   0.154   4.079   5.048
 1310SOL    HW1 4829   0.237   4.096   5.101
 1310SOL    HW2 4830   0.160   4.127   4.961
 1311SOL     OW 4831   0.018   0.682   4.106
 1311SOL    HW1 4832   0.066   0.761   4.145
 1311SOL    HW2 4833   0.026   0.684   4.006
 1312SOL     OW 4834   0.833   0.093   6.265
 1312SOL    HW1 4835   0.806   0.144   6.183
 1312SOL    HW2 4836   0.905   0.143   6.314
 1313SOL     OW 4837   1.310   4.395   4.113
 1313SOL    HW1 4838   1.403   4.357   4.117
 1313SOL    HW2 4839   1.251   4.347   4.178
 1314SOL     OW 4840   3.714   1.561   5.525
 1314SOL    HW1 4841   3.627   1.561   5.574
 1314SOL    HW2 4842   3.773   1.489   5.560
 1315SOL     OW 4843   0.551   0.619   0.720
 1315SOL    HW1 4844   0.615   0.645   0.647
 1315SOL    HW2 4845   0.458   0.618   0.683
 1316SOL     OW 4846   2.594   6.434   4.527
 1316SOL    HW1 4847   2.596   6.523   4.572
 1316SOL    HW2 4848   2.561   6.445   4.433
 1317SOL     OW 4849   1.249   4.105   4.149
 1317SOL    HW1 4850   1.159   4.071   4.121
 1317SOL    HW2 4851   1.304   4.126   4.069
 1318SOL     OW 4852   0.484   1.063   0.611
 1318SOL    HW1 4853   0.400   1.091   0.564
 1318SOL    HW2 4854   0.553   1.036   0.544
 1319SOL     OW 4855   0.110   0.756   0.254
 1319SOL    HW1 4856   0.096   0.657   0.252
 1319SOL    HW2 4857   0.030   0.802   0.216
 1320SOL     OW 4858   5.758   4.269   0.666
 1320SOL    HW1 4859   5.815   4.209   0.724
 1320SOL    HW2 4860   5.665   4.234   0.664
 1321SOL     OW 4861   4.693   2.106   6.037
 1321SOL    HW1 4862   4.737   2.180   6.087
 1321SOL    HW2 4863   4.763   2.050   5.993
 1322SOL     OW 4864   4.243   0.394   3.780
 1322SOL    HW1 4865   4.233   0.318   3.843
 1322SOL    HW2 4866   4.326   0.445   3.802
 1323SOL     OW 4867   5.362   2.123   4.487
 1323SOL    HW1 4868   5.370   2.138   4.388
 1323SOL    HW2 4869   5.401   2.201   4.536
 1324SOL     OW 4870   0.830   2.695   0.633
 1324SOL    HW1 4871   0.862   2.602   0.651
 1324SOL    HW2 4872   0.896   2.761   0.671
 1325SOL     OW 4873   1.569   6.668   2.176
 1325SOL    HW1 4874   1.625   6.625   2.248
 1325SOL    HW2 4875   1.618   6.748   2.140
 1326SOL     OW 4876   4.644   2.817   5.243
 1326SOL    HW1 4877   4.724   2.873   5.219
 1326SOL    HW2 4878   4.611   2.771   5.160
 1327SOL     OW 4879   2.098   4.675   1.812
 1327SOL    HW1 4880   2.175   4.642   1.758
 1327SOL    HW2 4881   2.029   4.714   1.751
 1328SOL     OW 4882   1.702   2.881   0.954
 1328SOL    HW1 4883   1.741   2.840   0.872
 1328SOL    HW2 4884   1.612   2.917   0.933
 1329SOL     OW 4885   1.147   2.532   0.737
 1329SOL    HW1 4886   1.167   2.606   0.674
 1329SOL    HW2 4887   1.056   2.495   0.718
 1330SOL     OW 4888   6.769   1.261   1.590
 1330SOL    HW1 4889   6.747   1.167   1.617
 1330SOL    HW2 4890   6.684   1.310   1.571
 1331SOL     OW 4891   4.964   2.201   3.211
 1331SOL    HW1 4892   4.974   2.233   3.306
 1331SOL    HW2 4893   5.043   2.145   3.186
 1332SOL     OW 4894   3.066   6.910   0.139
 1332SOL    HW1 4895   3.123   6.862   0.205
 1332SOL    HW2 4896   3.121   6.935   0.059
 1333SOL     OW 4897   2.887   3.345   6.023
 1333SOL    HW1 4898   2.975   3.385   6.049
 1333SOL    HW2 4899   2.904   3.259   5.974
 1334SOL     OW 4900   6.883   2.563   4.762
 1334SOL    HW1 4901   6.870   2.479   4.709
 1334SOL    HW2 4902   6.837   2.639   4.715
 1335SOL     OW 4903   2.597   0.403   3.016
 1335SOL    HW1 4904   2.564   0.310   2.998
 1335SOL    HW2 4905   2.565   0.464   2.943
 1336SOL     OW 4906   2.036   0.809   6.698
 1336SOL    HW1 4907   2.033   0.818   6.599
 1336SOL    HW2 4908   1.949   0.838   6.737
 1337SOL     OW 4909   1.506   1.246   5.240
 1337SOL    HW1 4910   1.573   1.290   5.179
 1337SOL    HW2 4911   1.552   1.215   5.323
 1338SOL     OW 4912   5.499   2.807   6.174
 1338SOL    HW1 4913   5.546   2.885   6.215
 1338SOL    HW2 4914   5.563   2.731   6.164
 1339SOL     OW 4915   0.497   0.390   0.130
 1339SOL    HW1 4916   0.407   0.353   0.107
 1339SOL    HW2 4917   0.564   0.356   0.065
 1340SOL     OW 4918   0.398   1.756   1.839
 1340SOL    HW1 4919   0.399   1.823   1.913
 1340SOL    HW2 4920   0.336   1.787   1.767
 1341SOL     OW 4921   4.698   0.948   5.919
 1341SOL    HW1 4922   4.642   1.004   5.857
 1341SOL    HW2 4923   4.712   0.858   5.878
 1342SOL     OW 4924   1.439   4.781   6.161
 1342SOL    HW1 4925   1.343   4.766   6.185
 1342SOL    HW2 4926   1.493   4.701   6.187
 1343SOL     OW 4927   4.572   5.984   2.546
 1343SOL    HW1 4928   4.476   5.986   2.574
 1343SOL    HW2 4929   4.582   6.031   2.458
 1344SOL     OW 4930   6.784   4.397   3.878
 1344SOL    HW1 4931   6.820   4.452   3.954
 1344SOL    HW2 4932   6.861   4.365   3.823
 1345SOL     OW 4933   2.076   1.504   3.431
 1345SOL    HW1 4934   2.144   1.564   3.390
 1345SOL    HW2 4935   2.118   1.453   3.506
 1346SOL     OW 4936   1.186   6.749   3.692
 1346SOL    HW1 4937   1.109   6.775   3.634
 1346SOL    HW2 4938   1.204   6.821   3.759
 1347SOL     OW 4939   6.188   6.181   4.442
 1347SOL    HW1 4940   6.237   6.232   4.372
 1347SOL    HW2 4941   6.111   6.234   4.475
 1348SOL     OW 4942   5.242   4.695   3.059
 1348SOL    HW1 4943   5.326   4.667   3.105
 1348SOL    HW2 4944   5.235   4.648   2.971
 1349SOL     OW 4945   4.892   2.188   6.702
 1349SOL    HW1 4946   4.979   2.169   6.658
 1349SOL    HW2 4947   4.870   2.115   6.767
 1350SOL     OW 4948   4.779   4.189   6.035
 1350SOL    HW1 4949   4.806   4.246   6.113
 1350SOL    HW2 4950   4.811   4.230   5.950
 1351SOL     OW 4951   0.004   2.289   2.791
 1351SOL    HW1 4952   6.996   2.366   2.847
 1351SOL    HW2 4953   6.953   2.258   2.732
 1352SOL     OW 4954   6.701   0.309   3.217
 1352SOL    HW1 4955   6.648   0.354   3.145
 1352SOL    HW2 4956   6.780   0.263   3.177
 1353SOL     OW 4957   6.213   4.343   5.918
 1353SOL    HW1 4958   6.215   4.432   5.963
 1353SOL    HW2 4959   6.149   4.282   5.965
 1354SOL     OW 4960   1.051   2.084   0.310
 1354SOL    HW1 4961   1.070   2.124   0.220
 1354SOL    HW2 4962   0.959   2.046   0.311
 1355SOL     OW 4963   6.386   2.089   5.053
 1355SOL    HW1 4964   6.433   2.162   5.103
 1355SOL    HW2 4965   6.439   2.066   4.971
 1356SOL     OW 4966   3.086   3.078   3.730
 1356SOL    HW1 4967   3.031   2.996   3.714
 1356SOL    HW2 4968   3.149   3.060   3.807
 1357SOL     OW 4969   2.095   4.162   5.688
 1357SOL    HW1 4970   2.092   4.192   5.592
 1357SOL    HW2 4971   2.172   4.206   5.734
 1358SOL     OW 4972   4.409   1.429   5.863
 1358SOL    HW1 4973   4.372   1.503   5.918
 1358SOL    HW2 4974   4.374   1.436   5.770
 1359SOL     OW 4975   0.405   4.724   1.235
 1359SOL    HW1 4976   0.468   4.745   1.161
 1359SOL    HW2 4977   0.428   4.779   1.316
 1360SOL     OW 4978   4.138   3.790   1.792
 1360SOL    HW1 4979   4.169   3.868   1.737
 1360SOL    HW2 4980   4.113   3.821   1.883
 1361SOL     OW 4981   0.096   5.769   5.616
 1361SOL    HW1 4982   0.078   5.726   5.705
 1361SOL    HW2 4983   0.194   5.784   5.606
 1362SOL     OW 4984   2.956   3.817   3.921
 1362SOL    HW1 4985   3.041   3.853   3.960
 1362SOL    HW2 4986   2.885   3.887   3.927
 1363SOL     OW 4987   6.393   5.802   3.637
 1363SOL    HW1 4988   6.448   5.796   3.553
 1363SOL    HW2 4989   6.299   5.773   3.617
 1364SOL     OW 4990   0.464   2.406   0.128
 1364SOL    HW1 4991   0.550   2.375   0.168
 1364SOL    HW2 4992   0.394   2.335   0.139
 1365SOL     OW 4993   1.079   2.955   5.505
 1365SOL    HW1 4994   1.014   2.960   5.580
 1365SOL    HW2 4995   1.171   2.972   5.539
 1366SOL     OW 4996   1.113   4.155   0.273
 1366SOL    HW1 4997   1.056   4.232   0.245
 1366SOL    HW2 4998   1.112   4.146   0.372
 1367SOL     OW 4999   1.341   5.516   2.683
 1367SOL    HW1 5000   1.417   5.581   2.679
 1367SOL    HW2 5001   1.369   5.436   2.737
 1368SOL     OW 5002   6.925   6.922   3.534
 1368SOL    HW1 5003   6.919   6.822   3.530
 1368SOL    HW2 5004   6.917   6.960   3.442
 1369SOL     OW 5005   1.852   0.370   2.379
 1369SOL    HW1 5006   1.951   0.380   2.391
 1369SOL    HW2 5007   1.833   0.280   2.339
 1370SOL     OW 5008   4.871   1.638   3.931
 1370SOL    HW1 5009   4.877   1.729   3.972
 1370SOL    HW2 5010   4.826   1.575   3.996
 1371SOL     OW 5011   5.720   1.488   4.578
 1371SOL    HW1 5012   5.659   1.488   4.499
 1371SOL    HW2 5013   5.808   1.449   4.551
 1372SOL     OW 5014   1.264   2.229   0.898
 1372SOL    HW1 5015   1.180   2.262   0.941
 1372SOL    HW2 5016   1.264   2.129   0.897
 1373SOL     OW 5017   4.315   2.520   0.593
 1373SOL    HW1 5018   4.353   2.540   0.683
 1373SOL    HW2 5019   4.309   2.421   0.581
 1374SOL     OW 5020   4.371   2.108   1.284
 1374SOL    HW1 5021   4.435   2.071   1.352
 1374SOL    HW2 5022   4.278   2.083   1.310
 1375SOL     OW 5023   6.914   6.792   6.329
 1375SOL    HW1 5024   6.973   6.735   6.272
 1375SOL    HW2 5025   6.822   6.751   6.331
 1376SOL     OW 5026   4.380   4.814   5.055
 1376SOL    HW1 5027   4.320   4.890   5.030
 1376SOL    HW2 5028   4.363   4.736   4.994
 1377SOL     OW 5029   1.031   3.774   3.879
 1377SOL    HW1 5030   1.061   3.862   3.915
 1377SOL    HW2 5031   0.975   3.727   3.948
 1378SOL     OW 5032   6.189   2.338   4.451
 1378SOL    HW1 5033   6.125   2.366   4.522
 1378SOL    HW2 5034   6.167   2.386   4.366
 1379SOL     OW 5035   4.402   6.185   3.573
 1379SOL    HW1 5036   4.423   6.122   3.648
 1379SOL    HW2 5037   4.308   6.217   3.582
 1380SOL     OW 5038   0.519   6.524   3.450
 1380SOL    HW1 5039   0.453   6.452   3.428
 1380SOL    HW2 5040   0.602   6.511   3.395
 1381SOL     OW 5041   5.806   2.052   0.451
 1381SOL    HW1 5042   5.728   2.114   0.440
 1381SOL    HW2 5043   5.782   1.979   0.514
 1382SOL     OW 5044   5.966   3.289   1.209
 1382SOL    HW1 5045   6.059   3.309   1.177
 1382SOL    HW2 5046   5.902   3.351   1.162
 1383SOL     OW 5047   1.087   0.641   1.935
 1383SOL    HW1 5048   1.051   0.732   1.917
 1383SOL    HW2 5049   1.118   0.636   2.030
 1384SOL     OW 5050   4.340   0.833   1.873
 1384SOL    HW1 5051   4.395   0.847   1.791
 1384SOL    HW2 5052   4.381   0.884   1.949
 1385SOL     OW 5053   2.523   4.703   3.363
 1385SOL    HW1 5054   2.546   4.759   3.442
 1385SOL    HW2 5055   2.604   4.692   3.305
 1386SOL     OW 5056   3.091   1.133   4.208
 1386SOL    HW1 5057   3.138   1.060   4.159
 1386SOL    HW2 5058   3.093   1.217   4.153
 1387SOL     OW 5059   3.765   5.288   2.640
 1387SOL    HW1 5060   3.770   5.368   2.701
 1387SOL    HW2 5061   3.669   5.264   2.626
 1388SOL     OW 5062   6.768   0.363   2.893
 1388SOL    HW1 5063   6.684   0.394   2.937
 1388SOL    HW2 5064   6.794   0.428   2.821
 1389SOL     OW 5065   6.408   0.697   3.940
 1389SOL    HW1 5066   6.442   0.763   4.006
 1389SOL    HW2 5067   6.449   0.607   3.958
 1390SOL     OW 5068   6.749   2.889   6.190
 1390SOL    HW1 5069   6.827   2.933   6.146
 1390SOL    HW2 5070   6.664   2.922   6.148
 1391SOL     OW 5071   6.128   6.601   4.903
 1391SOL    HW1 5072   6.219   6.569   4.877
 1391SOL    HW2 5073   6.115   6.586   5.001
 1392SOL     OW 5074   6.176   6.609   5.600
 1392SOL    HW1 5075   6.154   6.562   5.685
 1392SOL    HW2 5076   6.099   6.601   5.536
 1393SOL     OW 5077   6.948   4.297   6.288
 1393SOL    HW1 5078   6.940   4.197   6.286
 1393SOL    HW2 5079   6.952   4.332   6.194
 1394SOL     OW 5080   3.733   5.406   5.750
 1394SOL    HW1 5081   3.688   5.468   5.814
 1394SOL    HW2 5082   3.666   5.344   5.710
 1395SOL     OW 5083   2.059   4.521   4.818
 1395SOL    HW1 5084   2.116   4.573   4.754
 1395SOL    HW2 5085   2.116   4.456   4.868
 1396SOL     OW 5086   0.547   1.868   5.126
 1396SOL    HW1 5087   0.599   1.808   5.186
 1396SOL    HW2 5088   0.593   1.956   5.118
 1397SOL     OW 5089   0.290   0.117   4.530
 1397SOL    HW1 5090   0.321   0.022   4.530
 1397SOL    HW2 5091   0.192   0.120   4.510
 1398SOL     OW 5092   3.031   1.290   6.936
 1398SOL    HW1 5093   3.046   1.205   6.885
 1398SOL    HW2 5094   3.045   1.368   6.876
 1399SOL     OW 5095   4.089   5.208   0.852
 1399SOL    HW1 5096   4.159   5.137   0.856
 1399SOL    HW2 5097   4.075   5.236   0.756
 1400SOL     OW 5098   0.051   1.700   4.252
 1400SOL    HW1 5099   0.069   1.726   4.157
 1400SOL    HW2 5100   0.137   1.704   4.304
 1401SOL     OW 5101   6.241   0.551   4.700
 1401SOL    HW1 5102   6.173   0.611   4.742
 1401SOL    HW2 5103   6.291   0.503   4.772
 1402SOL     OW 5104   5.778   3.872   6.441
 1402SOL    HW1 5105   5.757   3.821   6.525
 1402SOL    HW2 5106   5.870   3.909   6.447
 1403SOL     OW 5107   2.165   2.005   1.074
 1403SOL    HW1 5108   2.128   2.061   1.001
 1403SOL    HW2 5109   2.091   1.967   1.129
 1404SOL     OW 5110   6.649   0.206   6.790
 1404SOL    HW1 5111   6.561   0.212   6.837
 1404SOL    HW2 5112   6.658   0.115   6.748
 1405SOL     OW 5113   2.382   3.481   0.865
 1405SOL    HW1 5114   2.333   3.395   0.877
 1405SOL    HW2 5115   2.473   3.474   0.905
 1406SOL     OW 5116   0.745   5.514   0.591
 1406SOL    HW1 5117   0.688   5.577   0.643
 1406SOL    HW2 5118   0.690   5.470   0.520
 1407SOL     OW 5119   0.472   3.870   3.121
 1407SOL    HW1 5120   0.463   3.907   3.029
 1407SOL    HW2 5121   0.455   3.943   3.188
 1408SOL     OW 5122   5.443   1.488   5.597
 1408SOL    HW1 5123   5.541   1.499   5.584
 1408SOL    HW2 5124   5.423   1.394   5.625
 1409SOL     OW 5125   0.180   0.526   5.051
 1409SOL    HW1 5126   0.147   0.594   5.117
 1409SOL    HW2 5127   0.140   0.543   4.962
 1410SOL     OW 5128   1.497   4.311   6.175
 1410SOL    HW1 5129   1.542   4.320   6.086
 1410SOL    HW2 5130   1.546   4.243   6.230
 1411SOL     OW 5131   3.861   6.601   0.653
 1411SOL    HW1 5132   3.902   6.648   0.575
 1411SOL    HW2 5133   3.764   6.627   0.659
 1412SOL     OW 5134   1.225   2.237   1.250
 1412SOL    HW1 5135   1.209   2.334   1.270
 1412SOL    HW2 5136   1.167   2.208   1.174
 1413SOL     OW 5137   2.127   1.697   5.200
 1413SOL    HW1 5138   2.108   1.789   5.167
 1413SOL    HW2 5139   2.132   1.698   5.300
 1414SOL     OW 5140   2.537   1.689   1.867
 1414SOL    HW1 5141   2.577   1.781   1.859
 1414SOL    HW2 5142   2.579   1.629   1.799
 1415SOL     OW 5143   1.942   1.054   4.797
 1415SOL    HW1 5144   1.865   1.105   4.759
 1415SOL    HW2 5145   2.016   1.118   4.819
 1416SOL     OW 5146   4.107   5.064   4.286
 1416SOL    HW1 5147   4.030   5.126   4.271
 1416SOL    HW2 5148   4.075   4.970   4.290
 1417SOL     OW 5149   3.298   2.303   0.768
 1417SOL    HW1 5150   3.231   2.361   0.721
 1417SOL    HW2 5151   3.260   2.270   0.854
 1418SOL     OW 5152   3.426   4.121   2.861
 1418SOL    HW1 5153   3.467   4.121   2.770
 1418SOL    HW2 5154   3.498   4.108   2.930
 1419SOL     OW 5155   2.823   5.569   3.259
 1419SOL    HW1 5156   2.828   5.470   3.243
 1419SOL    HW2 5157   2.807   5.586   3.356
 1420SOL     OW 5158   1.736   6.363   1.849
 1420SOL    HW1 5159   1.693   6.411   1.772
 1420SOL    HW2 5160   1.770   6.430   1.915
 1421SOL     OW 5161   2.573   5.030   3.077
 1421SOL    HW1 5162   2.532   5.079   3.154
 1421SOL    HW2 5163   2.565   4.931   3.092
 1422SOL     OW 5164   0.975   4.134   6.800
 1422SOL    HW1 5165   0.905   4.093   6.859
 1422SOL    HW2 5166   1.061   4.084   6.811
 1423SOL     OW 5167   5.134   6.899   4.221
 1423SOL    HW1 5168   5.096   6.992   4.218
 1423SOL    HW2 5169   5.085   6.841   4.156
 1424SOL     OW 5170   6.758   4.238   6.895
 1424SOL    HW1 5171   6.662   4.211   6.895
 1424SOL    HW2 5172   6.769   4.322   6.841
 1425SOL     OW 5173   2.011   5.454   5.235
 1425SOL    HW1 5174   1.942   5.521   5.263
 1425SOL    HW2 5175   1.981   5.362   5.262
 1426SOL     OW 5176   2.187   3.308   6.568
 1426SOL    HW1 5177   2.235   3.373   6.511
 1426SOL    HW2 5178   2.253   3.244   6.609
 1427SOL     OW 5179   6.772   0.427   3.431
 1427SOL    HW1 5180   6.687   0.463   3.469
 1427SOL    HW2 5181   6.751   0.364   3.356
 1428SOL     OW 5182   0.584   2.226   6.806
 1428SOL    HW1 5183   0.625   2.137   6.791
 1428SOL    HW2 5184   0.655   2.292   6.831
 1429SOL     OW 5185   4.570   1.527   0.171
 1429SOL    HW1 5186   4.527   1.541   0.260
 1429SOL    HW2 5187   4.659   1.572   0.169
 1430SOL     OW 5188   1.676   5.158   4.030
 1430SOL    HW1 5189   1.740   5.099   4.079
 1430SOL    HW2 5190   1.719   5.246   4.011
 1431SOL     OW 5191   3.119   2.237   7.012
 1431SOL    HW1 5192   3.179   2.298   6.960
 1431SOL    HW2 5193   3.024   2.265   6.998
 1432SOL     OW 5194   2.695   1.887   1.302
 1432SOL    HW1 5195   2.790   1.862   1.285
 1432SOL    HW2 5196   2.635   1.810   1.276
 1433SOL     OW 5197   4.745   0.193   5.483
 1433SOL    HW1 5198   4.665   0.227   5.434
 1433SOL    HW2 5199   4.729   0.098   5.510
 1434SOL     OW 5200   1.197   0.655   5.909
 1434SOL    HW1 5201   1.174   0.696   5.997
 1434SOL    HW2 5202   1.148   0.703   5.836
 1435SOL     OW 5203   6.935   0.009   3.282
 1435SOL    HW1 5204   6.876   0.003   3.202
 1435SOL    HW2 5205   6.950   0.105   3.306
 1436SOL     OW 5206   5.219   3.856   6.102
 1436SOL    HW1 5207   5.140   3.862   6.164
 1436SOL    HW2 5208   5.246   3.948   6.074
 1437SOL     OW 5209   2.846   2.154   5.157
 1437SOL    HW1 5210   2.859   2.178   5.061
 1437SOL    HW2 5211   2.935   2.156   5.204
 1438SOL     OW 5212   2.281   6.516   1.789
 1438SOL    HW1 5213   2.360   6.508   1.728
 1438SOL    HW2 5214   2.300   6.582   1.861
 1439SOL     OW 5215   6.436   5.214   1.069
 1439SOL    HW1 5216   6.406   5.212   1.165
 1439SOL    HW2 5217   6.534   5.199   1.064
 1440SOL     OW 5218   3.388   3.175   6.535
 1440SOL    HW1 5219   3.347   3.136   6.453
 1440SOL    HW2 5220   3.319   3.183   6.607
 1441SOL     OW 5221   6.502   1.113   3.552
 1441SOL    HW1 5222   6.473   1.153   3.639
 1441SOL    HW2 5223   6.482   1.015   3.551
 1442SOL     OW 5224   6.496   5.805   6.640
 1442SOL    HW1 5225   6.421   5.740   6.636
 1442SOL    HW2 5226   6.461   5.898   6.627
 1443SOL     OW 5227   1.013   2.892   4.082
 1443SOL    HW1 5228   0.985   2.855   3.994
 1443SOL    HW2 5229   0.985   2.988   4.089
 1444SOL     OW 5230   4.911   5.252   0.946
 1444SOL    HW1 5231   4.824   5.260   0.996
 1444SOL    HW2 5232   4.894   5.208   0.858
 1445SOL     OW 5233   0.432   3.362   2.748
 1445SOL    HW1 5234   0.382   3.279   2.721
 1445SOL    HW2 5235   0.483   3.344   2.832
 1446SOL     OW 5236   5.271   2.392   0.232
 1446SOL    HW1 5237   5.303   2.472   0.183
 1446SOL    HW2 5238   5.271   2.411   0.330
 1447SOL     OW 5239   6.011   7.021   5.100
 1447SOL    HW1 5240   5.948   6.944   5.100
 1447SOL    HW2 5241   5.977   0.069   5.160
 1448SOL     OW 5242   0.139   2.158   5.398
 1448SOL    HW1 5243   0.055   2.212   5.389
 1448SOL    HW2 5244   0.128   2.071   5.350
 1449SOL     OW 5245   0.990   1.124   0.127
 1449SOL    HW1 5246   0.997   1.199   0.193
 1449SOL    HW2 5247   0.976   1.038   0.176
 1450SOL     OW 5248   0.739   2.170   1.200
 1450SOL    HW1 5249   0.729   2.131   1.292
 1450SOL    HW2 5250   0.820   2.229   1.197
 1451SOL     OW 5251   1.525   6.964   2.013
 1451SOL    HW1 5252   1.604   6.914   2.047
 1451SOL    HW2 5253   1.502   6.931   1.922
 1452SOL     OW 5254   4.316   1.040   4.592
 1452SOL    HW1 5255   4.331   1.100   4.671
 1452SOL    HW2 5256   4.219   1.017   4.586
 1453SOL     OW 5257   0.003   3.853   5.057
 1453SOL    HW1 5258   0.075   3.921   5.040
 1453SOL    HW2 5259   6.938   3.890   5.028
 1454SOL     OW 5260   0.247   3.091   1.898
 1454SOL    HW1 5261   0.210   3.144   1.974
 1454SOL    HW2 5262   0.226   3.137   1.812
 1455SOL     OW 5263   1.204   1.110   1.471
 1455SOL    HW1 5264   1.145   1.067   1.539
 1455SOL    HW2 5265   1.182   1.075   1.380
 1456SOL     OW 5266   6.725   6.292   5.456
 1456SOL    HW1 5267   6.704   6.376   5.406
 1456SOL    HW2 5268   6.792   6.239   5.404
 1457SOL     OW 5269   1.402   6.661   1.326
 1457SOL    HW1 5270   1.476   6.595   1.312
 1457SOL    HW2 5271   1.315   6.612   1.338
 1458SOL     OW 5272   5.558   5.461   3.586
 1458SOL    HW1 5273   5.520   5.390   3.527
 1458SOL    HW2 5274   5.502   5.469   3.668
 1459SOL     OW 5275   2.678   5.773   5.583
 1459SOL    HW1 5276   2.773   5.756   5.555
 1459SOL    HW2 5277   2.661   5.729   5.671
 1460SOL     OW 5278   0.540   6.187   5.048
 1460SOL    HW1 5279   0.540   6.227   5.140
 1460SOL    HW2 5280   0.629   6.147   5.029
 1461SOL     OW 5281   6.394   4.699   2.945
 1461SOL    HW1 5282   6.378   4.794   2.972
 1461SOL    HW2 5283   6.351   4.682   2.856
 1462SOL     OW 5284   1.372   0.211   6.753
 1462SOL    HW1 5285   1.399   0.169   6.667
 1462SOL    HW2 5286   1.321   0.144   6.808
 1463SOL     OW 5287   6.755   5.529   6.400
 1463SOL    HW1 5288   6.670   5.485   6.429
 1463SOL    HW2 5289   6.823   5.460   6.377
 1464SOL     OW 5290   7.006   6.457   1.430
 1464SOL    HW1 5291   0.019   6.539   1.386
 1464SOL    HW2 5292   0.002   6.459   1.528
 1465SOL     OW 5293   1.469   1.107   3.161
 1465SOL    HW1 5294   1.408   1.093   3.083
 1465SOL    HW2 5295   1.545   1.043   3.157
 1466SOL     OW 5296   1.780   2.168   2.193
 1466SOL    HW1 5297   1.879   2.184   2.199
 1466SOL    HW2 5298   1.743   2.216   2.113
 1467SOL     OW 5299   1.685   1.416   2.868
 1467SOL    HW1 5300   1.600   1.406   2.816
 1467SOL    HW2 5301   1.747   1.477   2.820
 1468SOL     OW 5302   3.716   6.115   2.198
 1468SOL    HW1 5303   3.642   6.149   2.255
 1468SOL    HW2 5304   3.803   6.157   2.226
 1469SOL     OW 5305   0.524   1.513   1.906
 1469SOL    HW1 5306   0.468   1.453   1.848
 1469SOL    HW2 5307   0.499   1.608   1.889
 1470SOL     OW 5308   1.239   2.126   2.598
 1470SOL    HW1 5309   1.149   2.120   2.555
 1470SOL    HW2 5310   1.308   2.089   2.536
 1471SOL     OW 5311   0.440   6.984   1.069
 1471SOL    HW1 5312   0.426   6.985   0.970
 1471SOL    HW2 5313   0.520   6.927   1.091
 1472SOL     OW 5314   3.591   5.180   5.661
 1472SOL    HW1 5315   3.658   5.106   5.674
 1472SOL    HW2 5316   3.543   5.196   5.747
 1473SOL     OW 5317   4.291   5.974   5.257
 1473SOL    HW1 5318   4.327   5.881   5.256
 1473SOL    HW2 5319   4.330   6.025   5.333
 1474SOL     OW 5320   5.664   5.499   2.386
 1474SOL    HW1 5321   5.674   5.512   2.484
 1474SOL    HW2 5322   5.721   5.422   2.356
 1475SOL     OW 5323   5.987   0.471   2.041
 1475SOL    HW1 5324   6.025   0.537   2.106
 1475SOL    HW2 5325   5.971   0.384   2.088
 1476SOL     OW 5326   3.241   0.761   0.950
 1476SOL    HW1 5327   3.149   0.742   0.982
 1476SOL    HW2 5328   3.308   0.731   1.018
 1477SOL     OW 5329   3.274   0.037   5.887
 1477SOL    HW1 5330   3.237   0.126   5.862
 1477SOL    HW2 5331   3.325   7.023   5.809
 1478SOL     OW 5332   5.710   5.860   6.276
 1478SOL    HW1 5333   5.613   5.837   6.283
 1478SOL    HW2 5334   5.760   5.815   6.349
 1479SOL     OW 5335   1.317   2.341   0.562
 1479SOL    HW1 5336   1.356   2.252   0.589
 1479SOL    HW2 5337   1.240   2.363   0.622
 1480SOL     OW 5338   3.132   1.178   5.055
 1480SOL    HW1 5339   3.207   1.241   5.036
 1480SOL    HW2 5340   3.139   1.098   4.995
 1481SOL     OW 5341   6.350   3.046   5.875
 1481SOL    HW1 5342   6.313   3.112   5.809
 1481SOL    HW2 5343   6.383   2.965   5.827
 1482SOL     OW 5344   4.803   1.501   1.492
 1482SOL    HW1 5345   4.780   1.412   1.531
 1482SOL    HW2 5346   4.728   1.533   1.435
 1483SOL     OW 5347   5.135   2.110   6.607
 1483SOL    HW1 5348   5.180   2.069   6.528
 1483SOL    HW2 5349   5.166   2.204   6.619
 1484SOL     OW 5350   5.503   4.066   5.027
 1484SOL    HW1 5351   5.411   4.094   5.052
 1484SOL    HW2 5352   5.504   3.968   5.010
 1485SOL     OW 5353   3.478   1.778   3.399
 1485SOL    HW1 5354   3.419   1.785   3.318
 1485SOL    HW2 5355   3.440   1.709   3.461
 1486SOL     OW 5356   4.875   1.601   2.387
 1486SOL    HW1 5357   4.970   1.617   2.411
 1486SOL    HW2 5358   4.866   1.513   2.340
 1487SOL     OW 5359   6.928   2.116   6.290
 1487SOL    HW1 5360   6.866   2.184   6.331
 1487SOL    HW2 5361   6.914   2.028   6.334
 1488SOL     OW 5362   5.152   1.127   3.529
 1488SOL    HW1 5363   5.143   1.128   3.628
 1488SOL    HW2 5364   5.074   1.078   3.489
 1489SOL     OW 5365   4.523   4.748   5.340
 1489SOL    HW1 5366   4.596   4.816   5.333
 1489SOL    HW2 5367   4.547   4.681   5.410
 1490SOL     OW 5368   0.763   3.159   2.385
 1490SOL    HW1 5369   0.809   3.213   2.455
 1490SOL    HW2 5370   0.713   3.084   2.428
 1491SOL     OW 5371   6.571   3.862   2.637
 1491SOL    HW1 5372   6.541   3.949   2.596
 1491SOL    HW2 5373   6.664   3.842   2.607
 1492SOL     OW 5374   5.765   1.042   2.604
 1492SOL    HW1 5375   5.706   0.973   2.647
 1492SOL    HW2 5376   5.718   1.131   2.607
 1493SOL     OW 5377   4.017   6.696   5.425
 1493SOL    HW1 5378   3.996   6.768   5.358
 1493SOL    HW2 5379   4.101   6.649   5.397
 1494SOL     OW 5380   4.821   1.908   0.061
 1494SOL    HW1 5381   4.883   1.846   0.013
 1494SOL    HW2 5382   4.844   2.003   0.038
 1495SOL     OW 5383   6.505   3.586   5.610
 1495SOL    HW1 5384   6.540   3.615   5.521
 1495SOL    HW2 5385   6.570   3.523   5.653
 1496SOL     OW 5386   0.255   1.877   1.613
 1496SOL    HW1 5387   0.199   1.958   1.598
 1496SOL    HW2 5388   0.198   1.795   1.606
 1497SOL     OW 5389   6.231   3.319   2.856
 1497SOL    HW1 5390   6.308   3.291   2.915
 1497SOL    HW2 5391   6.266   3.340   2.765
 1498SOL     OW 5392   2.555   5.216   6.781
 1498SOL    HW1 5393   2.479   5.254   6.729
 1498SOL    HW2 5394   2.636   5.273   6.768
 1499SOL     OW 5395   0.564   2.573   6.210
 1499SOL    HW1 5396   0.510   2.657   6.201
 1499SOL    HW2 5397   0.505   2.497   6.235
 1500SOL     OW 5398   7.008   0.086   0.353
 1500SOL    HW1 5399   0.061   0.029   0.324
 1500SOL    HW2 5400   6.958   0.118   0.272
 1501SOL     OW 5401   5.439   2.291   6.612
 1501SOL    HW1 5402   5.444   2.252   6.520
 1501SOL    HW2 5403   5.508   2.248   6.670
 1502SOL     OW 5404   4.270   0.442   0.191
 1502SOL    HW1 5405   4.225   0.399   0.113
 1502SOL    HW2 5406   4.299   0.534   0.166
 1503SOL     OW 5407   0.708   3.813   1.591
 1503SOL    HW1 5408   0.789   3.837   1.643
 1503SOL    HW2 5409   0.665   3.732   1.630
 1504SOL     OW 5410   0.429   0.502   5.203
 1504SOL    HW1 5411   0.353   0.507   5.139
 1504SOL    HW2 5412   0.459   0.595   5.227
 1505SOL     OW 5413   4.942   0.338   5.069
 1505SOL    HW1 5414   4.962   0.435   5.054
 1505SOL    HW2 5415   4.941   0.318   5.167
 1506SOL     OW 5416   0.513   6.114   0.535
 1506SOL    HW1 5417   0.581   6.148   0.471
 1506SOL    HW2 5418   0.556   6.098   0.624
 1507SOL     OW 5419   1.104   1.847   5.734
 1507SOL    HW1 5420   1.191   1.834   5.686
 1507SOL    HW2 5421   1.084   1.945   5.739
 1508SOL     OW 5422   6.629   1.533   2.133
 1508SOL    HW1 5423   6.627   1.469   2.057
 1508SOL    HW2 5424   6.703   1.509   2.196
 1509SOL     OW 5425   3.955   1.642   5.732
 1509SOL    HW1 5426   3.937   1.736   5.762
 1509SOL    HW2 5427   3.883   1.582   5.767
 1510SOL     OW 5428   5.120   1.875   4.737
 1510SOL    HW1 5429   5.140   1.789   4.783
 1510SOL    HW2 5430   5.054   1.927   4.791
 1511SOL     OW 5431   3.751   2.965   2.899
 1511SOL    HW1 5432   3.841   3.005   2.879
 1511SOL    HW2 5433   3.717   2.916   2.819
 1512SOL     OW 5434   0.316   5.206   1.332
 1512SOL    HW1 5435   0.219   5.226   1.349
 1512SOL    HW2 5436   0.325   5.160   1.244
 1513SOL     OW 5437   3.798   0.929   4.642
 1513SOL    HW1 5438   3.701   0.948   4.625
 1513SOL    HW2 5439   3.846   0.919   4.555
 1514SOL     OW 5440   4.033   2.139   5.612
 1514SOL    HW1 5441   3.995   2.210   5.671
 1514SOL    HW2 5442   4.132   2.147   5.608
 1515SOL     OW 5443   6.161   2.088   2.852
 1515SOL    HW1 5444   6.104   2.032   2.913
 1515SOL    HW2 5445   6.103   2.150   2.799
 1516SOL     OW 5446   6.646   6.271   0.143
 1516SOL    HW1 5447   6.648   6.303   0.048
 1516SOL    HW2 5448   6.623   6.347   0.203
 1517SOL     OW 5449   4.816   6.242   3.155
 1517SOL    HW1 5450   4.833   6.163   3.214
 1517SOL    HW2 5451   4.727   6.231   3.110
 1518SOL     OW 5452   1.665   2.360   6.908
 1518SOL    HW1 5453   1.677   2.413   6.824
 1518SOL    HW2 5454   1.723   2.398   6.980
 1519SOL     OW 5455   6.838   5.419   1.367
 1519SOL    HW1 5456   6.894   5.338   1.387
 1519SOL    HW2 5457   6.797   5.453   1.451
 1520SOL     OW 5458   0.535   3.987   1.765
 1520SOL    HW1 5459   0.612   3.938   1.726
 1520SOL    HW2 5460   0.455   3.927   1.768
 1521SOL     OW 5461   1.674   4.118   6.310
 1521SOL    HW1 5462   1.668   4.024   6.343
 1521SOL    HW2 5463   1.768   4.140   6.286
 1522SOL     OW 5464   5.972   6.564   5.148
 1522SOL    HW1 5465   5.884   6.518   5.162
 1522SOL    HW2 5466   6.045   6.496   5.153
 1523SOL     OW 5467   5.244   6.083   1.140
 1523SOL    HW1 5468   5.173   6.064   1.071
 1523SOL    HW2 5469   5.316   6.014   1.133
 1524SOL     OW 5470   2.293   2.020   2.201
 1524SOL    HW1 5471   2.340   2.086   2.142
 1524SOL    HW2 5472   2.313   2.040   2.297
 1525SOL     OW 5473   0.102   2.852   0.346
 1525SOL    HW1 5474   0.104   2.753   0.330
 1525SOL    HW2 5475   0.155   2.873   0.428
 1526SOL     OW 5476   6.420   0.115   6.510
 1526SOL    HW1 5477   6.327   0.139   6.538
 1526SOL    HW2 5478   6.474   0.199   6.498
 1527SOL     OW 5479   4.079   0.493   5.401
 1527SOL    HW1 5480   4.105   0.590   5.398
 1527SOL    HW2 5481   3.981   0.485   5.387
 1528SOL     OW 5482   4.525   5.366   2.479
 1528SOL    HW1 5483   4.555   5.426   2.553
 1528SOL    HW2 5484   4.564   5.398   2.393
 1529SOL     OW 5485   3.688   0.827   0.107
 1529SOL    HW1 5486   3.783   0.810   0.079
 1529SOL    HW2 5487   3.686   0.898   0.177
 1530SOL     OW 5488   3.349   1.778   1.868
 1530SOL    HW1 5489   3.423   1.835   1.903
 1530SOL    HW2 5490   3.276   1.772   1.937
 1531SOL     OW 5491   4.475   0.390   5.573
 1531SOL    HW1 5492   4.505   0.392   5.668
 1531SOL    HW2 5493   4.440   0.299   5.550
 1532SOL     OW 5494   3.142   3.221   6.651
 1532SOL    HW1 5495   3.052   3.177   6.654
 1532SOL    HW2 5496   3.131   3.320   6.643
 1533SOL     OW 5497   5.275   4.332   6.708
 1533SOL    HW1 5498   5.372   4.314   6.694
 1533SOL    HW2 5499   5.256   4.344   6.805
 1534SOL     OW 5500   2.382   4.722   6.441
 1534SOL    HW1 5501   2.321   4.801   6.447
 1534SOL    HW2 5502   2.328   4.639   6.427
 1535SOL     OW 5503   4.724   6.484   4.123
 1535SOL    HW1 5504   4.737   6.583   4.129
 1535SOL    HW2 5505   4.801   6.437   4.167
 1536SOL     OW 5506   3.737   4.857   5.297
 1536SOL    HW1 5507   3.770   4.931   5.355
 1536SOL    HW2 5508   3.799   4.779   5.304
 1537SOL     OW 5509   5.043   6.345   3.160
 1537SOL    HW1 5510   4.950   6.306   3.156
 1537SOL    HW2 5511   5.075   6.343   3.254
 1538SOL     OW 5512   4.123   5.795   6.474
 1538SOL    HW1 5513   4.169   5.709   6.453
 1538SOL    HW2 5514   4.182   5.852   6.532
 1539SOL     OW 5515   4.589   3.841   1.276
 1539SOL    HW1 5516   4.608   3.801   1.366
 1539SOL    HW2 5517   4.645   3.796   1.207
 1540SOL     OW 5518   1.659   6.118   5.985
 1540SOL    HW1 5519   1.726   6.054   5.946
 1540SOL    HW2 5520   1.692   6.212   5.974
 1541SOL     OW 5521   3.791   3.063   3.410
 1541SOL    HW1 5522   3.886   3.083   3.388
 1541SOL    HW2 5523   3.740   3.045   3.326
 1542SOL     OW 5524   5.984   6.070   2.339
 1542SOL    HW1 5525   5.965   5.972   2.349
 1542SOL    HW2 5526   5.938   6.121   2.412
 1543SOL     OW 5527   3.486   4.972   5.330
 1543SOL    HW1 5528   3.567   4.922   5.302
 1543SOL    HW2 5529   3.505   5.070   5.330
 1544SOL     OW 5530   3.355   3.380   3.019
 1544SOL    HW1 5531   3.400   3.468   3.030
 1544SOL    HW2 5532   3.415   3.317   2.971
 1545SOL     OW 5533   4.886   0.882   3.577
 1545SOL    HW1 5534   4.790   0.909   3.589
 1545SOL    HW2 5535   4.924   0.930   3.498
 1546SOL     OW 5536   4.162   6.698   5.801
 1546SOL    HW1 5537   4.243   6.712   5.858
 1546SOL    HW2 5538   4.159   6.768   5.730
 1547SOL     OW 5539   1.678   3.388   2.817
 1547SOL    HW1 5540   1.662   3.364   2.721
 1547SOL    HW2 5541   1.757   3.337   2.851
 1548SOL     OW 5542   5.304   3.764   5.531
 1548SOL    HW1 5543   5.396   3.770   5.569
 1548SOL    HW2 5544   5.278   3.853   5.494
 1549SOL     OW 5545   4.502   1.263   2.587
 1549SOL    HW1 5546   4.436   1.188   2.587
 1549SOL    HW2 5547   4.573   1.245   2.655
 1550SOL     OW 5548   3.336   3.774   6.945
 1550SOL    HW1 5549   3.325   3.807   6.851
 1550SOL    HW2 5550   3.433   3.769   6.968
 1551SOL     OW 5551   1.800   4.713   6.165
 1551SOL    HW1 5552   1.882   4.668   6.202
 1551SOL    HW2 5553   1.822   4.754   6.076
 1552SOL     OW 5554   0.261   5.785   6.895
 1552SOL    HW1 5555   0.350   5.821   6.924
 1552SOL    HW2 5556   0.225   5.724   6.965
 1553SOL     OW 5557   0.185   1.751   5.510
 1553SOL    HW1 5558   0.164   1.828   5.449
 1553SOL    HW2 5559   0.131   1.671   5.482
 1554SOL     OW 5560   3.957   1.756   2.879
 1554SOL    HW1 5561   4.012   1.680   2.915
 1554SOL    HW2 5562   3.900   1.793   2.953
 1555SOL     OW 5563   4.868   2.545   0.235
 1555SOL    HW1 5564   4.882   2.447   0.225
 1555SOL    HW2 5565   4.836   2.566   0.327
 1556SOL     OW 5566   3.355   0.999   0.850
 1556SOL    HW1 5567   3.312   0.918   0.890
 1556SOL    HW2 5568   3.349   0.994   0.751
 1557SOL     OW 5569   2.236   1.066   6.285
 1557SOL    HW1 5570   2.226   1.002   6.209
 1557SOL    HW2 5571   2.150   1.117   6.297
 1558SOL     OW 5572   5.154   0.532   4.505
 1558SOL    HW1 5573   5.177   0.436   4.518
 1558SOL    HW2 5574   5.228   0.589   4.541
 1559SOL     OW 5575   0.401   2.785   6.880
 1559SOL    HW1 5576   0.360   2.818   6.795
 1559SOL    HW2 5577   0.394   2.686   6.886
 1560SOL     OW 5578   1.811   1.364   5.881
 1560SOL    HW1 5579   1.750   1.350   5.803
 1560SOL    HW2 5580   1.771   1.430   5.943
 1561SOL     OW 5581   5.937   6.337   4.200
 1561SOL    HW1 5582   5.873   6.414   4.199
 1561SOL    HW2 5583   5.928   6.286   4.115
 1562SOL     OW 5584   3.830   5.846   2.766
 1562SOL    HW1 5585   3.897   5.899   2.817
 1562SOL    HW2 5586   3.814   5.889   2.677
 1563SOL     OW 5587   1.995   0.784   6.151
 1563SOL    HW1 5588   2.038   0.860   6.102
 1563SOL    HW2 5589   2.059   0.709   6.159
 1564SOL     OW 5590   1.188   3.004   3.003
 1564SOL    HW1 5591   1.184   2.971   2.908
 1564SOL    HW2 5592   1.110   3.063   3.021
 1565SOL     OW 5593   4.422   4.854   4.561
 1565SOL    HW1 5594   4.340   4.840   4.505
 1565SOL    HW2 5595   4.416   4.799   4.644
 1566SOL     OW 5596   4.996   4.676   3.381
 1566SOL    HW1 5597   4.917   4.633   3.426
 1566SOL    HW2 5598   4.978   4.773   3.369
 1567SOL     OW 5599   5.739   5.286   0.169
 1567SOL    HW1 5600   5.696   5.215   0.225
 1567SOL    HW2 5601   5.711   5.377   0.203
 1568SOL     OW 5602   1.507   5.902   1.035
 1568SOL    HW1 5603   1.498   5.876   1.131
 1568SOL    HW2 5604   1.475   5.996   1.022
 1569SOL     OW 5605   3.872   6.294   3.617
 1569SOL    HW1 5606   3.878   6.270   3.714
 1569SOL    HW2 5607   3.898   6.390   3.605
 1570SOL     OW 5608   1.848   6.858   0.650
 1570SOL    HW1 5609   1.846   6.837   0.748
 1570SOL    HW2 5610   1.878   6.776   0.600
 1571SOL     OW 5611   5.597   1.813   1.809
 1571SOL    HW1 5612   5.608   1.759   1.892
 1571SOL    HW2 5613   5.564   1.753   1.735
 1572SOL     OW 5614   0.479   6.890   0.503
 1572SOL    HW1 5615   0.492   6.917   0.598
 1572SOL    HW2 5616   0.415   6.953   0.459
 1573SOL     OW 5617   5.926   3.740   2.170
 1573SOL    HW1 5618   5.919   3.643   2.146
 1573SOL    HW2 5619   5.998   3.752   2.239
 1574SOL     OW 5620   0.034   0.815   2.400
 1574SOL    HW1 5621   6.978   0.781   2.449
 1574SOL    HW2 5622   0.011   0.902   2.355
 1575SOL     OW 5623   3.143   1.636   0.752
 1575SOL    HW1 5624   3.148   1.723   0.801
 1575SOL    HW2 5625   3.233   1.613   0.715
 1576SOL     OW 5626   1.587   0.619   3.129
 1576SOL    HW1 5627   1.565   0.522   3.132
 1576SOL    HW2 5628   1.625   0.647   3.218
 1577SOL     OW 5629   2.649   0.674   5.208
 1577SOL    HW1 5630   2.595   0.612   5.150
 1577SOL    HW2 5631   2.716   0.723   5.152
 1578SOL     OW 5632   6.083   3.089   5.637
 1578SOL    HW1 5633   6.136   3.045   5.565
 1578SOL    HW2 5634   5.987   3.093   5.610
 1579SOL     OW 5635   0.665   1.787   2.269
 1579SOL    HW1 5636   0.567   1.767   2.274
 1579SOL    HW2 5637   0.710   1.715   2.215
 1580SOL     OW 5638   3.127   4.023   4.594
 1580SOL    HW1 5639   3.071   3.961   4.539
 1580SOL    HW2 5640   3.105   4.012   4.690
 1581SOL     OW 5641   0.169   4.254   4.808
 1581SOL    HW1 5642   0.099   4.240   4.739
 1581SOL    HW2 5643   0.215   4.342   4.792
 1582SOL     OW 5644   1.976   0.071   3.925
 1582SOL    HW1 5645   1.989   0.055   3.827
 1582SOL    HW2 5646   1.880   0.093   3.943
 1583SOL     OW 5647   1.148   4.676   3.147
 1583SOL    HW1 5648   1.185   4.729   3.224
 1583SOL    HW2 5649   1.222   4.629   3.100
 1584SOL     OW 5650   1.497   6.518   5.961
 1584SOL    HW1 5651   1.453   6.483   6.043
 1584SOL    HW2 5652   1.484   6.452   5.886
 1585SOL     OW 5653   5.604   1.425   3.596
 1585SOL    HW1 5654   5.561   1.489   3.533
 1585SOL    HW2 5655   5.681   1.470   3.643
 1586SOL     OW 5656   3.326   4.949   2.210
 1586SOL    HW1 5657   3.351   5.046   2.209
 1586SOL    HW2 5658   3.314   4.917   2.116
 1587SOL     OW 5659   3.305   5.494   6.082
 1587SOL    HW1 5660   3.223   5.543   6.109
 1587SOL    HW2 5661   3.297   5.398   6.109
 1588SOL     OW 5662   4.504   1.450   3.209
 1588SOL    HW1 5663   4.462   1.397   3.283
 1588SOL    HW2 5664   4.491   1.402   3.122
 1589SOL     OW 5665   5.931   3.420   1.568
 1589SOL    HW1 5666   5.862   3.367   1.518
 1589SOL    HW2 5667   6.022   3.401   1.531
 1590SOL     OW 5668   3.591   5.892   5.901
 1590SOL    HW1 5669   3.513   5.835   5.927
 1590SOL    HW2 5670   3.569   5.943   5.818
 1591SOL     OW 5671   6.564   4.977   2.700
 1591SOL    HW1 5672   6.567   5.010   2.606
 1591SOL    HW2 5673   6.653   4.940   2.725
 1592SOL     OW 5674   2.256   4.561   6.871
 1592SOL    HW1 5675   2.291   4.654   6.870
 1592SOL    HW2 5676   2.214   4.540   6.782
 1593SOL     OW 5677   1.109   6.407   4.571
 1593SOL    HW1 5678   1.053   6.426   4.490
 1593SOL    HW2 5679   1.093   6.313   4.601
 1594SOL     OW 5680   0.421   6.022   2.107
 1594SOL    HW1 5681   0.407   5.938   2.056
 1594SOL    HW2 5682   0.503   6.069   2.073
 1595SOL     OW 5683   1.673   5.530   0.648
 1595SOL    HW1 5684   1.624   5.454   0.692
 1595SOL    HW2 5685   1.680   5.606   0.713
 1596SOL     OW 5686   0.477   2.488   3.791
 1596SOL    HW1 5687   0.526   2.559   3.740
 1596SOL    HW2 5688   0.393   2.463   3.743
 1597SOL     OW 5689   1.752   6.582   6.773
 1597SOL    HW1 5690   1.809   6.594   6.691
 1597SOL    HW2 5691   1.696   6.501   6.762
 1598SOL     OW 5692   0.999   4.042   6.355
 1598SOL    HW1 5693   1.001   4.130   6.308
 1598SOL    HW2 5694   0.990   4.058   6.454
 1599SOL     OW 5695   4.584   4.603   5.591
 1599SOL    HW1 5696   4.563   4.510   5.562
 1599SOL    HW2 5697   4.638   4.601   5.675
 1600SOL     OW 5698   4.864   1.861   4.167
 1600SOL    HW1 5699   4.900   1.899   4.253
 1600SOL    HW2 5700   4.823   1.771   4.184
 1601SOL     OW 5701   0.305   4.493   4.727
 1601SOL    HW1 5702   0.259   4.562   4.782
 1601SOL    HW2 5703   0.363   4.538   4.658
 1602SOL     OW 5704   2.783   4.940   3.463
 1602SOL    HW1 5705   2.796   5.038   3.453
 1602SOL    HW2 5706   2.694   4.922   3.506
 1603SOL     OW 5707   0.499   5.867   2.352
 1603SOL    HW1 5708   0.534   5.938   2.412
 1603SOL    HW2 5709   0.425   5.904   2.295
 1604SOL     OW 5710   5.706   5.162   1.825
 1604SOL    HW1 5711   5.626   5.144   1.767
 1604SOL    HW2 5712   5.758   5.077   1.837
 1605SOL     OW 5713   6.908   6.135   1.407
 1605SOL    HW1 5714   6.846   6.080   1.463
 1605SOL    HW2 5715   7.002   6.120   1.437
 1606SOL     OW 5716   3.427   0.853   4.996
 1606SOL    HW1 5717   3.495   0.912   5.040
 1606SOL    HW2 5718   3.366   0.910   4.941
 1607SOL     OW 5719   4.217   1.144   1.012
 1607SOL    HW1 5720   4.119   1.139   1.033
 1607SOL    HW2 5721   4.242   1.069   0.951
 1608SOL     OW 5722   0.708   0.626   3.894
 1608SOL    HW1 5723   0.672   0.595   3.982
 1608SOL    HW2 5724   0.670   0.568   3.821
 1609SOL     OW 5725   3.682   0.059   0.814
 1609SOL    HW1 5726   3.629   7.014   0.864
 1609SOL    HW2 5727   3.620   0.126   0.775
 1610SOL     OW 5728   5.707   4.542   6.948
 1610SOL    HW1 5729   5.645   4.483   6.896
 1610SOL    HW2 5730   5.662   4.631   6.964
 1611SOL     OW 5731   2.546   3.716   1.412
 1611SOL    HW1 5732   2.506   3.705   1.503
 1611SOL    HW2 5733   2.640   3.749   1.420
 1612SOL     OW 5734   2.813   0.655   5.547
 1612SOL    HW1 5735   2.726   0.621   5.510
 1612SOL    HW2 5736   2.861   0.707   5.476
 1613SOL     OW 5737   1.848   5.223   1.819
 1613SOL    HW1 5738   1.785   5.274   1.877
 1613SOL    HW2 5739   1.892   5.285   1.754
 1614SOL     OW 5740   5.784   3.561   6.880
 1614SOL    HW1 5741   5.739   3.497   6.942
 1614SOL    HW2 5742   5.875   3.527   6.857
 1615SOL     OW 5743   6.452   4.791   0.996
 1615SOL    HW1 5744   6.535   4.822   0.949
 1615SOL    HW2 5745   6.387   4.867   1.002
 1616SOL     OW 5746   3.193   1.573   4.897
 1616SOL    HW1 5747   3.194   1.651   4.836
 1616SOL    HW2 5748   3.143   1.596   4.980
 1617SOL     OW 5749   5.861   0.645   2.638
 1617SOL    HW1 5750   5.865   0.550   2.608
 1617SOL    HW2 5751   5.772   0.663   2.681
 1618SOL     OW 5752   1.919   4.280   1.868
 1618SOL    HW1 5753   1.838   4.316   1.821
 1618SOL    HW2 5754   1.895   4.194   1.913
 1619SOL     OW 5755   1.241   3.074   2.584
 1619SOL    HW1 5756   1.212   3.138   2.655
 1619SOL    HW2 5757   1.213   3.110   2.494
 1620SOL     OW 5758   2.487   5.023   1.723
 1620SOL    HW1 5759   2.579   5.001   1.758
 1620SOL    HW2 5760   2.422   4.954   1.754
 1621SOL     OW 5761   0.614   0.744   0.464
 1621SOL    HW1 5762   0.526   0.740   0.417
 1621SOL    HW2 5763   0.663   0.826   0.436
 1622SOL     OW 5764   0.407   2.834   4.686
 1622SOL    HW1 5765   0.368   2.924   4.704
 1622SOL    HW2 5766   0.463   2.806   4.764
 1623SOL     OW 5767   1.953   3.406   5.614
 1623SOL    HW1 5768   1.945   3.324   5.559
 1623SOL    HW2 5769   2.033   3.458   5.585
 1624SOL     OW 5770   2.864   0.806   5.103
 1624SOL    HW1 5771   2.817   0.889   5.075
 1624SOL    HW2 5772   2.916   0.769   5.025
 1625SOL     OW 5773   0.996   5.616   1.552
 1625SOL    HW1 5774   1.028   5.551   1.622
 1625SOL    HW2 5775   1.034   5.591   1.463
 1626SOL     OW 5776   4.099   1.990   6.368
 1626SOL    HW1 5777   4.060   1.963   6.456
 1626SOL    HW2 5778   4.109   2.089   6.365
 1627SOL     OW 5779   6.963   3.113   4.020
 1627SOL    HW1 5780   7.021   3.164   4.083
 1627SOL    HW2 5781   6.961   3.160   3.932
 1628SOL     OW 5782   4.272   5.035   0.436
 1628SOL    HW1 5783   4.316   5.096   0.370
 1628SOL    HW2 5784   4.317   5.044   0.525
 1629SOL     OW 5785   2.992   0.893   3.904
 1629SOL    HW1 5786   2.934   0.938   3.835
 1629SOL    HW2 5787   2.937   0.829   3.957
 1630SOL     OW 5788   1.646   5.831   5.911
 1630SOL    HW1 5789   1.665   5.813   6.007
 1630SOL    HW2 5790   1.559   5.880   5.902
 1631SOL     OW 5791   0.440   2.287   6.279
 1631SOL    HW1 5792   0.435   2.340   6.363
 1631SOL    HW2 5793   0.527   2.237   6.276
 1632SOL     OW 5794   0.048   1.756   0.149
 1632SOL    HW1 5795   0.018   1.813   0.225
 1632SOL    HW2 5796   6.991   1.723   0.098
 1633SOL     OW 5797   5.143   3.196   4.637
 1633SOL    HW1 5798   5.110   3.255   4.710
 1633SOL    HW2 5799   5.072   3.187   4.567
 1634SOL     OW 5800   3.994   5.216   6.319
 1634SOL    HW1 5801   3.992   5.316   6.314
 1634SOL    HW2 5802   3.984   5.178   6.227
 1635SOL     OW 5803   6.998   5.868   6.005
 1635SOL    HW1 5804   0.070   5.840   5.995
 1635SOL    HW2 5805   6.961   5.830   6.090
 1636SOL     OW 5806   3.103   4.357   1.709
 1636SOL    HW1 5807   3.048   4.399   1.780
 1636SOL    HW2 5808   3.150   4.277   1.746
 1637SOL     OW 5809   0.859   0.084   2.996
 1637SOL    HW1 5810   0.895   0.004   2.948
 1637SOL    HW2 5811   0.784   0.124   2.943
 1638SOL     OW 5812   0.231   4.303   3.522
 1638SOL    HW1 5813   0.175   4.333   3.445
 1638SOL    HW2 5814   0.198   4.214   3.553
 1639SOL     OW 5815   5.041   6.576   3.017
 1639SOL    HW1 5816   5.090   6.531   2.942
 1639SOL    HW2 5817   5.016   6.508   3.086
 1640SOL     OW 5818   6.064   1.405   0.495
 1640SOL    HW1 5819   6.097   1.384   0.403
 1640SOL    HW2 5820   6.102   1.492   0.525
 1641SOL     OW 5821   5.190   2.569   4.199
 1641SOL    HW1 5822   5.176   2.541   4.294
 1641SOL    HW2 5823   5.112   2.539   4.144
 1642SOL     OW 5824   5.694   3.761   6.665
 1642SOL    HW1 5825   5.678   3.843   6.720
 1642SOL    HW2 5826   5.729   3.688   6.724
 1643SOL     OW 5827   2.800   5.303   3.993
 1643SOL    HW1 5828   2.707   5.309   3.955
 1643SOL    HW2 5829   2.810   5.369   4.068
 1644SOL     OW 5830   0.208   2.937   0.997
 1644SOL    HW1 5831   0.178   2.864   0.936
 1644SOL    HW2 5832   0.298   2.970   0.969
 1645SOL     OW 5833   3.270   5.972   5.799
 1645SOL    HW1 5834   3.211   5.945   5.723
 1645SOL    HW2 5835   3.256   5.909   5.876
 1646SOL     OW 5836   3.007   5.733   0.530
 1646SOL    HW1 5837   3.075   5.719   0.601
 1646SOL    HW2 5838   3.048   5.783   0.454
 1647SOL     OW 5839   6.614   3.046   4.944
 1647SOL    HW1 5840   6.686   2.980   4.966
 1647SOL    HW2 5841   6.656   3.133   4.916
 1648SOL     OW 5842   6.014   5.457   0.914
 1648SOL    HW1 5843   5.940   5.468   0.981
 1648SOL    HW2 5844   6.076   5.535   0.921
 1649SOL     OW 5845   3.405   0.222   4.666
 1649SOL    HW1 5846   3.345   0.188   4.594
 1649SOL    HW2 5847   3.492   0.173   4.663
 1650SOL     OW 5848   2.117   5.963   5.473
 1650SOL    HW1 5849   2.044   5.911   5.427
 1650SOL    HW2 5850   2.076   6.033   5.531
 1651SOL     OW 5851   0.351   1.417   0.861
 1651SOL    HW1 5852   0.258   1.434   0.894
 1651SOL    HW2 5853   0.384   1.331   0.899
 1652SOL     OW 5854   0.891   3.315   2.564
 1652SOL    HW1 5855   0.956   3.323   2.640
 1652SOL    HW2 5856   0.833   3.396   2.561
 1653SOL     OW 5857   1.042   0.090   1.286
 1653SOL    HW1 5858   1.136   0.064   1.310
 1653SOL    HW2 5859   1.003   0.145   1.359
 1654SOL     OW 5860   6.435   3.271   1.479
 1654SOL    HW1 5861   6.485   3.350   1.442
 1654SOL    HW2 5862   6.494   3.223   1.544
 1655SOL     OW 5863   6.675   2.417   5.156
 1655SOL    HW1 5864   6.768   2.387   5.136
 1655SOL    HW2 5865   6.678   2.505   5.204
 1656SOL     OW 5866   2.300   4.863   1.861
 1656SOL    HW1 5867   2.257   4.954   1.865
 1656SOL    HW2 5868   2.229   4.793   1.856
 1657SOL     OW 5869   6.564   0.750   3.721
 1657SOL    HW1 5870   6.504   0.739   3.800
 1657SOL    HW2 5871   6.510   0.776   3.641
 1658SOL     OW 5872   0.780   0.121   1.135
 1658SOL    HW1 5873   0.793   0.073   1.048
 1658SOL    HW2 5874   0.864   0.114   1.190
 1659SOL     OW 5875   3.600   0.678   6.256
 1659SOL    HW1 5876   3.517   0.688   6.311
 1659SOL    HW2 5877   3.611   0.582   6.231
 1660SOL     OW 5878   1.013   5.234   3.783
 1660SOL    HW1 5879   0.960   5.235   3.868
 1660SOL    HW2 5880   1.036   5.139   3.759
 1661SOL     OW 5881   2.709   1.339   1.780
 1661SOL    HW1 5882   2.629   1.280   1.781
 1661SOL    HW2 5883   2.765   1.320   1.860
 1662SOL     OW 5884   6.650   6.745   3.762
 1662SOL    HW1 5885   6.656   6.782   3.670
 1662SOL    HW2 5886   6.739   6.706   3.788
 1663SOL     OW 5887   4.282   6.727   2.894
 1663SOL    HW1 5888   4.284   6.720   2.994
 1663SOL    HW2 5889   4.190   6.704   2.861
 1664SOL     OW 5890   2.012   6.479   4.634
 1664SOL    HW1 5891   1.943   6.543   4.667
 1664SOL    HW2 5892   2.049   6.512   4.547
 1665SOL     OW 5893   0.480   1.557   3.431
 1665SOL    HW1 5894   0.518   1.642   3.466
 1665SOL    HW2 5895   0.515   1.480   3.485
 1666SOL     OW 5896   5.426   2.918   7.018
 1666SOL    HW1 5897   5.334   2.951   0.016
 1666SOL    HW2 5898   5.422   2.820   6.996
 1667SOL     OW 5899   6.688   6.543   1.565
 1667SOL    HW1 5900   6.618   6.513   1.501
 1667SOL    HW2 5901   6.644   6.575   1.649
 1668SOL     OW 5902   5.555   6.542   5.486
 1668SOL    HW1 5903   5.553   6.634   5.525
 1668SOL    HW2 5904   5.476   6.490   5.520
 1669SOL     OW 5905   0.164   5.753   6.334
 1669SOL    HW1 5906   0.177   5.770   6.236
 1669SOL    HW2 5907   0.191   5.659   6.356
 1670SOL     OW 5908   0.351   4.196   6.280
 1670SOL    HW1 5909   0.396   4.132   6.217
 1670SOL    HW2 5910   0.295   4.260   6.228
 1671SOL     OW 5911   4.828   2.321   1.066
 1671SOL    HW1 5912   4.739   2.338   1.024
 1671SOL    HW2 5913   4.854   2.398   1.124
 1672SOL     OW 5914   1.870   3.075   1.032
 1672SOL    HW1 5915   1.918   3.081   1.120
 1672SOL    HW2 5916   1.805   2.999   1.035
 1673SOL     OW 5917   0.208   2.493   3.993
 1673SOL    HW1 5918   0.234   2.587   4.014
 1673SOL    HW2 5919   0.165   2.490   3.903
 1674SOL     OW 5920   0.268   4.045   2.351
 1674SOL    HW1 5921   0.339   3.976   2.335
 1674SOL    HW2 5922   0.251   4.096   2.267
 1675SOL     OW 5923   4.048   0.772   6.397
 1675SOL    HW1 5924   4.120   0.840   6.411
 1675SOL    HW2 5925   4.089   0.682   6.384
 1676SOL     OW 5926   1.896   1.849   1.953
 1676SOL    HW1 5927   1.919   1.936   1.911
 1676SOL    HW2 5928   1.848   1.864   2.039
 1677SOL     OW 5929   3.400   3.075   5.218
 1677SOL    HW1 5930   3.378   2.983   5.186
 1677SOL    HW2 5931   3.488   3.073   5.265
 1678SOL     OW 5932   4.639   4.771   4.819
 1678SOL    HW1 5933   4.676   4.701   4.880
 1678SOL    HW2 5934   4.597   4.843   4.874
 1679SOL     OW 5935   2.300   2.740   5.071
 1679SOL    HW1 5936   2.328   2.833   5.049
 1679SOL    HW2 5937   2.254   2.739   5.160
 1680SOL     OW 5938   0.671   3.098   4.747
 1680SOL    HW1 5939   0.759   3.144   4.740
 1680SOL    HW2 5940   0.687   3.001   4.767
 1681SOL     OW 5941   6.304   5.637   0.245
 1681SOL    HW1 5942   6.354   5.712   0.289
 1681SOL    HW2 5943   6.357   5.553   0.252
 1682SOL     OW 5944   0.273   1.746   4.931
 1682SOL    HW1 5945   0.329   1.676   4.975
 1682SOL    HW2 5946   0.289   1.745   4.832
 1683SOL     OW 5947   4.376   5.778   1.090
 1683SOL    HW1 5948   4.429   5.821   1.163
 1683SOL    HW2 5949   4.426   5.787   1.004
 1684SOL     OW 5950   1.637   6.328   2.667
 1684SOL    HW1 5951   1.543   6.359   2.677
 1684SOL    HW2 5952   1.652   6.296   2.574
 1685SOL     OW 5953   2.363   1.149   5.993
 1685SOL    HW1 5954   2.462   1.140   5.999
 1685SOL    HW2 5955   2.333   1.229   6.046
 1686SOL     OW 5956   2.441   5.041   4.879
 1686SOL    HW1 5957   2.525   5.004   4.919
 1686SOL    HW2 5958   2.373   5.053   4.951
 1687SOL     OW 5959   2.618   3.600   1.005
 1687SOL    HW1 5960   2.552   3.674   1.001
 1687SOL    HW2 5961   2.699   3.630   1.056
 1688SOL     OW 5962   1.825   2.308   4.167
 1688SOL    HW1 5963   1.859   2.231   4.221
 1688SOL    HW2 5964   1.811   2.279   4.072
 1689SOL     OW 5965   5.215   1.041   2.029
 1689SOL    HW1 5966   5.251   1.131   2.006
 1689SOL    HW2 5967   5.136   1.021   1.972
 1690SOL     OW 5968   1.520   2.626   3.481
 1690SOL    HW1 5969   1.592   2.561   3.455
 1690SOL    HW2 5970   1.489   2.675   3.400
 1691SOL     OW 5971   5.820   4.112   3.425
 1691SOL    HW1 5972   5.881   4.159   3.488
 1691SOL    HW2 5973   5.845   4.135   3.331
 1692SOL     OW 5974   5.809   0.553   1.857
 1692SOL    HW1 5975   5.867   0.504   1.921
 1692SOL    HW2 5976   5.763   0.628   1.904
 1693SOL     OW 5977   0.399   2.514   2.159
 1693SOL    HW1 5978   0.347   2.599   2.151
 1693SOL    HW2 5979   0.384   2.475   2.250
 1694SOL     OW 5980   5.564   0.698   3.726
 1694SOL    HW1 5981   5.555   0.666   3.820
 1694SOL    HW2 5982   5.645   0.655   3.684
 1695SOL     OW 5983   3.248   1.541   6.162
 1695SOL    HW1 5984   3.223   1.466   6.100
 1695SOL    HW2 5985   3.292   1.503   6.243
 1696SOL     OW 5986   4.904   4.275   0.546
 1696SOL    HW1 5987   4.923   4.282   0.448
 1696SOL    HW2 5988   4.911   4.366   0.587
 1697SOL     OW 5989   5.287   6.525   1.651
 1697SOL    HW1 5990   5.358   6.575   1.700
 1697SOL    HW2 5991   5.219   6.589   1.616
 1698SOL     OW 5992   4.530   0.928   0.032
 1698SOL    HW1 5993   4.441   0.940   7.013
 1698SOL    HW2 5994   4.582   1.013   0.025
 1699SOL     OW 5995   2.802   1.301   0.840
 1699SOL    HW1 5996   2.731   1.261   0.899
 1699SOL    HW2 5997   2.768   1.306   0.746
 1700SOL     OW 5998   5.533   1.984   3.474
 1700SOL    HW1 5999   5.475   1.906   3.499
 1700SOL    HW2 6000   5.627   1.966   3.506
 1701SOL     OW 6001   5.573   4.714   5.502
 1701SOL    HW1 6002   5.671   4.709   5.481
 1701SOL    HW2 6003   5.554   4.799   5.552
 1702SOL     OW 6004   6.916   2.927   0.041
 1702SOL    HW1 6005   7.015   2.927   0.032
 1702SOL    HW2 6006   6.891   2.937   0.137
 1703SOL     OW 6007   3.457   3.414   2.340
 1703SOL    HW1 6008   3.476   3.507   2.370
 1703SOL    HW2 6009   3.359   3.401   2.333
 1704SOL     OW 6010   0.959   2.144   1.574
 1704SOL    HW1 6011   1.044   2.092   1.566
 1704SOL    HW2 6012   0.887   2.097   1.523
 1705SOL     OW 6013   3.686   2.133   1.504
 1705SOL    HW1 6014   3.614   2.075   1.544
 1705SOL    HW2 6015   3.722   2.089   1.422
 1706SOL     OW 6016   4.984   1.038   1.530
 1706SOL    HW1 6017   4.993   0.948   1.574
 1706SOL    HW2 6018   4.946   1.026   1.439
 1707SOL     OW 6019   4.765   1.751   2.631
 1707SOL    HW1 6020   4.769   1.735   2.533
 1707SOL    HW2 6021   4.693   1.695   2.672
 1708SOL     OW 6022   4.935   5.102   2.584
 1708SOL    HW1 6023   4.953   5.166   2.659
 1708SOL    HW2 6024   4.954   5.147   2.497
 1709SOL     OW 6025   2.730   5.539   1.366
 1709SOL    HW1 6026   2.635   5.537   1.397
 1709SOL    HW2 6027   2.775   5.454   1.393
 1710SOL     OW 6028   5.859   4.894   3.944
 1710SOL    HW1 6029   5.942   4.950   3.943
 1710SOL    HW2 6030   5.826   4.881   3.851
 1711SOL     OW 6031   1.393   4.948   4.144
 1711SOL    HW1 6032   1.419   4.935   4.049
 1711SOL    HW2 6033   1.297   4.925   4.157
 1712SOL     OW 6034   0.323   3.476   6.076
 1712SOL    HW1 6035   0.375   3.395   6.052
 1712SOL    HW2 6036   0.256   3.496   6.004
 1713SOL     OW 6037   4.077   2.206   1.804
 1713SOL    HW1 6038   3.978   2.209   1.796
 1713SOL    HW2 6039   4.104   2.212   1.900
 1714SOL     OW 6040   4.020   2.002   5.373
 1714SOL    HW1 6041   3.980   1.918   5.408
 1714SOL    HW2 6042   3.998   2.078   5.435
 1715SOL     OW 6043   0.051   4.209   2.649
 1715SOL    HW1 6044   7.012   4.278   2.685
 1715SOL    HW2 6045   0.118   4.252   2.589
 1716SOL     OW 6046   4.468   6.926   2.928
 1716SOL    HW1 6047   4.511   6.886   3.009
 1716SOL    HW2 6048   4.425   6.854   2.874
 1717SOL     OW 6049   2.271   5.900   6.277
 1717SOL    HW1 6050   2.174   5.910   6.259
 1717SOL    HW2 6051   2.321   5.899   6.190
 1718SOL     OW 6052   2.063   2.208   2.274
 1718SOL    HW1 6053   2.047   2.131   2.336
 1718SOL    HW2 6054   2.161   2.221   2.262
 1719SOL     OW 6055   2.055   3.962   0.864
 1719SOL    HW1 6056   1.977   3.915   0.823
 1719SOL    HW2 6057   2.043   3.967   0.963
 1720SOL     OW 6058   0.755   2.592   0.213
 1720SOL    HW1 6059   0.779   2.671   0.156
 1720SOL    HW2 6060   0.824   2.521   0.201
 1721SOL     OW 6061   1.408   6.851   1.793
 1721SOL    HW1 6062   1.390   6.756   1.766
 1721SOL    HW2 6063   1.380   6.913   1.720
 1722SOL     OW 6064   4.445   2.465   4.595
 1722SOL    HW1 6065   4.353   2.457   4.558
 1722SOL    HW2 6066   4.451   2.414   4.681
 1723SOL     OW 6067   0.019   2.835   2.023
 1723SOL    HW1 6068   6.959   2.880   1.990
 1723SOL    HW2 6069   0.047   2.764   1.957
 1724SOL     OW 6070   6.295   2.349   0.535
 1724SOL    HW1 6071   6.306   2.397   0.448
 1724SOL    HW2 6072   6.363   2.382   0.600
 1725SOL     OW 6073   2.483   4.958   6.641
 1725SOL    HW1 6074   2.538   5.027   6.688
 1725SOL    HW2 6075   2.432   4.904   6.708
 1726SOL     OW 6076   4.646   4.902   5.714
 1726SOL    HW1 6077   4.625   4.992   5.751
 1726SOL    HW2 6078   4.688   4.912   5.623
 1727SOL     OW 6079   3.839   3.368   4.488
 1727SOL    HW1 6080   3.835   3.417   4.401
 1727SOL    HW2 6081   3.757   3.312   4.498
 1728SOL     OW 6082   5.063   5.118   5.438
 1728SOL    HW1 6083   4.999   5.192   5.420
 1728SOL    HW2 6084   5.052   5.047   5.368
 1729SOL     OW 6085   2.130   3.787   3.446
 1729SOL    HW1 6086   2.044   3.827   3.414
 1729SOL    HW2 6087   2.155   3.711   3.386
 1730SOL     OW 6088   0.450   0.135   5.739
 1730SOL    HW1 6089   0.489   0.226   5.730
 1730SOL    HW2 6090   0.416   0.104   5.650
 1731SOL     OW 6091   6.881   4.557   2.334
 1731SOL    HW1 6092   6.976   4.567   2.363
 1731SOL    HW2 6093   6.831   4.504   2.402
 1732SOL     OW 6094   2.575   4.644   5.681
 1732SOL    HW1 6095   2.553   4.740   5.663
 1732SOL    HW2 6096   2.674   4.630   5.668
 1733SOL     OW 6097   1.536   4.106   1.997
 1733SOL    HW1 6098   1.455   4.051   1.977
 1733SOL    HW2 6099   1.513   4.203   1.991
 1734SOL     OW 6100   4.725   3.232   1.707
 1734SOL    HW1 6101   4.821   3.203   1.704
 1734SOL    HW2 6102   4.673   3.171   1.768
 1735SOL     OW 6103   5.305   5.872   1.540
 1735SOL    HW1 6104   5.383   5.894   1.599
 1735SOL    HW2 6105   5.261   5.956   1.508
 1736SOL     OW 6106   3.636   2.987   1.171
 1736SOL    HW1 6107   3.639   2.902   1.118
 1736SOL    HW2 6108   3.542   3.021   1.174
 1737SOL     OW 6109   2.247   1.176   4.290
 1737SOL    HW1 6110   2.295   1.263   4.302
 1737SOL    HW2 6111   2.203   1.175   4.200
 1738SOL     OW 6112   2.356   1.843   4.000
 1738SOL    HW1 6113   2.330   1.804   3.912
 1738SOL    HW2 6114   2.399   1.773   4.056
 1739SOL     OW 6115   6.050   2.376   5.299
 1739SOL    HW1 6116   6.099   2.462   5.311
 1739SOL    HW2 6117   6.006   2.374   5.209
 1740SOL     OW 6118   6.700   2.012   6.077
 1740SOL    HW1 6119   6.720   1.918   6.103
 1740SOL    HW2 6120   6.665   2.062   6.156
 1741SOL     OW 6121   1.705   0.772   4.154
 1741SOL    HW1 6122   1.795   0.803   4.125
 1741SOL    HW2 6123   1.635   0.837   4.123
 1742SOL     OW 6124   5.078   0.198   5.915
 1742SOL    HW1 6125   5.026   0.248   5.846
 1742SOL    HW2 6126   5.137   0.262   5.965
 1743SOL     OW 6127   1.412   2.788   1.797
 1743SOL    HW1 6128   1.385   2.875   1.837
 1743SOL    HW2 6129   1.360   2.714   1.840
 1744SOL     OW 6130   0.629   0.633   2.164
 1744SOL    HW1 6131   0.713   0.671   2.203
 1744SOL    HW2 6132   0.585   0.573   2.231
 1745SOL     OW 6133   5.822   0.267   3.549
 1745SOL    HW1 6134   5.858   0.198   3.611
 1745SOL    HW2 6135   5.883   0.277   3.471
 1746SOL     OW 6136   2.435   4.833   5.104
 1746SOL    HW1 6137   2.422   4.781   5.020
 1746SOL    HW2 6138   2.373   4.912   5.104
 1747SOL     OW 6139   5.817   1.821   2.914
 1747SOL    HW1 6140   5.871   1.804   2.832
 1747SOL    HW2 6141   5.721   1.800   2.896
 1748SOL     OW 6142   1.007   0.887   4.234
 1748SOL    HW1 6143   1.006   0.903   4.333
 1748SOL    HW2 6144   0.930   0.935   4.192
 1749SOL     OW 6145   2.754   6.853   4.817
 1749SOL    HW1 6146   2.728   6.904   4.734
 1749SOL    HW2 6147   2.741   6.912   4.897
 1750SOL     OW 6148   6.652   0.050   4.242
 1750SOL    HW1 6149   6.562   0.018   4.273
 1750SOL    HW2 6150   6.668   0.142   4.277
 1751SOL     OW 6151   4.015   5.966   4.972
 1751SOL    HW1 6152   3.959   5.901   5.024
 1751SOL    HW2 6153   4.072   6.018   5.035
 1752SOL     OW 6154   0.262   2.450   1.638
 1752SOL    HW1 6155   0.329   2.392   1.590
 1752SOL    HW2 6156   0.229   2.402   1.720
 1753SOL     OW 6157   0.441   2.018   0.625
 1753SOL    HW1 6158   0.378   1.976   0.560
 1753SOL    HW2 6159   0.481   1.947   0.683
 1754SOL     OW 6160   2.464   3.833   0.759
 1754SOL    HW1 6161   2.444   3.926   0.727
 1754SOL    HW2 6162   2.387   3.800   0.813
 1755SOL     OW 6163   6.306   5.986   1.977
 1755SOL    HW1 6164   6.362   6.063   1.946
 1755SOL    HW2 6165   6.366   5.914   2.012
 1756SOL     OW 6166   3.968   4.899   5.891
 1756SOL    HW1 6167   3.971   4.803   5.921
 1756SOL    HW2 6168   4.061   4.936   5.886
 1757SOL     OW 6169   2.218   4.695   4.578
 1757SOL    HW1 6170   2.249   4.787   4.600
 1757SOL    HW2 6171   2.295   4.631   4.585
 1758SOL     OW 6172   1.767   0.266   3.979
 1758SOL    HW1 6173   1.739   0.361   3.990
 1758SOL    HW2 6174   1.689   0.206   3.996
 1759SOL     OW 6175   2.300   5.267   6.303
 1759SOL    HW1 6176   2.229   5.317   6.252
 1759SOL    HW2 6177   2.268   5.251   6.397
 1760SOL     OW 6178   5.654   1.725   2.720
 1760SOL    HW1 6179   5.746   1.736   2.682
 1760SOL    HW2 6180   5.594   1.686   2.650
 1761SOL     OW 6181   0.270   0.233   0.012
 1761SOL    HW1 6182   0.173   0.243   0.032
 1761SOL    HW2 6183   0.288   0.261   6.941
 1762SOL     OW 6184   0.235   1.988   4.593
 1762SOL    HW1 6185   0.258   2.085   4.596
 1762SOL    HW2 6186   0.139   1.977   4.567
 1763SOL     OW 6187   1.361   3.468   3.682
 1763SOL    HW1 6188   1.423   3.534   3.640
 1763SOL    HW2 6189   1.379   3.464   3.780
 1764SOL     OW 6190   2.130   3.756   2.144
 1764SOL    HW1 6191   2.186   3.826   2.100
 1764SOL    HW2 6192   2.144   3.668   2.098
 1765SOL     OW 6193   3.971   1.456   0.889
 1765SOL    HW1 6194   3.896   1.422   0.946
 1765SOL    HW2 6195   3.979   1.399   0.807
 1766SOL     OW 6196   4.863   2.939   2.771
 1766SOL    HW1 6197   4.877   2.950   2.673
 1766SOL    HW2 6198   4.870   2.842   2.795
 1767SOL     OW 6199   0.210   3.312   3.141
 1767SOL    HW1 6200   0.306   3.340   3.149
 1767SOL    HW2 6201   0.173   3.294   3.232
 1768SOL     OW 6202   4.282   1.485   5.233
 1768SOL    HW1 6203   4.195   1.487   5.284
 1768SOL    HW2 6204   4.265   1.508   5.137
 1769SOL     OW 6205   4.353   2.861   5.838
 1769SOL    HW1 6206   4.353   2.796   5.762
 1769SOL    HW2 6207   4.338   2.953   5.803
 1770SOL     OW 6208   6.875   5.036   4.861
 1770SOL    HW1 6209   6.828   4.991   4.784
 1770SOL    HW2 6210   6.950   5.092   4.825
 1771SOL     OW 6211   2.640   5.362   0.014
 1771SOL    HW1 6212   2.597   5.295   6.976
 1771SOL    HW2 6213   2.602   5.453   7.020
 1772SOL     OW 6214   3.568   6.552   3.139
 1772SOL    HW1 6215   3.567   6.549   3.039
 1772SOL    HW2 6216   3.657   6.523   3.173
 1773SOL     OW 6217   3.166   4.110   6.605
 1773SOL    HW1 6218   3.088   4.051   6.582
 1773SOL    HW2 6219   3.196   4.159   6.523
 1774SOL     OW 6220   3.986   7.022   1.534
 1774SOL    HW1 6221   4.040   0.026   1.613
 1774SOL    HW2 6222   4.018   6.933   1.502
 1775SOL     OW 6223   1.314   5.477   4.160
 1775SOL    HW1 6224   1.240   5.481   4.228
 1775SOL    HW2 6225   1.333   5.382   4.137
 1776SOL     OW 6226   3.657   0.824   6.010
 1776SOL    HW1 6227   3.674   0.785   6.101
 1776SOL    HW2 6228   3.576   0.882   6.013
 1777SOL     OW 6229   3.234   5.130   5.455
 1777SOL    HW1 6230   3.332   5.112   5.454
 1777SOL    HW2 6231   3.219   5.229   5.462
 1778SOL     OW 6232   4.649   2.246   4.922
 1778SOL    HW1 6233   4.696   2.178   4.978
 1778SOL    HW2 6234   4.557   2.215   4.902
 1779SOL     OW 6235   5.188   1.578   4.551
 1779SOL    HW1 6236   5.148   1.664   4.582
 1779SOL    HW2 6237   5.232   1.592   4.462
 1780SOL     OW 6238   2.413   4.732   6.014
 1780SOL    HW1 6239   2.360   4.649   6.001
 1780SOL    HW2 6240   2.414   4.784   5.928
 1781SOL     OW 6241   3.964   5.292   3.715
 1781SOL    HW1 6242   3.954   5.290   3.815
 1781SOL    HW2 6243   4.036   5.228   3.688
 1782SOL     OW 6244   3.144   1.595   2.969
 1782SOL    HW1 6245   3.105   1.560   3.054
 1782SOL    HW2 6246   3.129   1.528   2.896
 1783SOL     OW 6247   1.749   3.359   6.457
 1783SOL    HW1 6248   1.708   3.371   6.367
 1783SOL    HW2 6249   1.708   3.279   6.502
 1784SOL     OW 6250   3.256   0.482   3.900
 1784SOL    HW1 6251   3.276   0.486   3.802
 1784SOL    HW2 6252   3.157   0.481   3.913
 1785SOL     OW 6253   5.137   6.086   3.811
 1785SOL    HW1 6254   5.181   6.141   3.881
 1785SOL    HW2 6255   5.206   6.041   3.754
 1786SOL     OW 6256   1.181   3.188   0.844
 1786SOL    HW1 6257   1.171   3.107   0.901
 1786SOL    HW2 6258   1.177   3.270   0.901
 1787SOL     OW 6259   2.125   1.140   4.525
 1787SOL    HW1 6260   2.175   1.148   4.438
 1787SOL    HW2 6261   2.042   1.195   4.521
 1788SOL     OW 6262   3.221   3.036   0.448
 1788SOL    HW1 6263   3.231   3.123   0.399
 1788SOL    HW2 6264   3.206   3.055   0.545
 1789SOL     OW 6265   6.888   2.376   2.030
 1789SOL    HW1 6266   6.840   2.305   2.080
 1789SOL    HW2 6267   6.856   2.379   1.936
 1790SOL     OW 6268   4.167   6.377   4.440
 1790SOL    HW1 6269   4.217   6.362   4.354
 1790SOL    HW2 6270   4.228   6.420   4.507
 1791SOL     OW 6271   0.647   2.217   4.416
 1791SOL    HW1 6272   0.726   2.159   4.396
 1791SOL    HW2 6273   0.611   2.256   4.331
 1792SOL     OW 6274   0.951   2.475   3.868
 1792SOL    HW1 6275   0.964   2.570   3.898
 1792SOL    HW2 6276   1.024   2.418   3.907
 1793SOL     OW 6277   6.537   0.161   3.382
 1793SOL    HW1 6278   6.609   0.201   3.324
 1793SOL    HW2 6279   6.453   0.214   3.372
 1794SOL     OW 6280   5.058   6.273   6.609
 1794SOL    HW1 6281   5.094   6.324   6.687
 1794SOL    HW2 6282   5.133   6.252   6.546
 1795SOL     OW 6283   0.831   3.707   2.459
 1795SOL    HW1 6284   0.796   3.800   2.473
 1795SOL    HW2 6285   0.801   3.649   2.535
 1796SOL     OW 6286   2.115   1.271   4.882
 1796SOL    HW1 6287   2.047   1.344   4.880
 1796SOL    HW2 6288   2.203   1.307   4.851
 1797SOL     OW 6289   1.235   1.199   6.437
 1797SOL    HW1 6290   1.153   1.149   6.413
 1797SOL    HW2 6291   1.314   1.137   6.437
 1798SOL     OW 6292   4.652   2.479   5.698
 1798SOL    HW1 6293   4.696   2.568   5.713
 1798SOL    HW2 6294   4.714   2.419   5.649
 1799SOL     OW 6295   6.842   1.871   6.442
 1799SOL    HW1 6296   6.813   1.918   6.525
 1799SOL    HW2 6297   6.763   1.828   6.399
 1800SOL     OW 6298   4.383   5.306   3.324
 1800SOL    HW1 6299   4.347   5.324   3.416
 1800SOL    HW2 6300   4.442   5.382   3.296
 1801SOL     OW 6301   1.233   1.106   2.377
 1801SOL    HW1 6302   1.157   1.058   2.333
 1801SOL    HW2 6303   1.236   1.200   2.345
 1802SOL     OW 6304   5.708   4.999   2.325
 1802SOL    HW1 6305   5.803   4.969   2.310
 1802SOL    HW2 6306   5.681   4.977   2.419
 1803SOL     OW 6307   6.641   5.654   0.757
 1803SOL    HW1 6308   6.659   5.614   0.667
 1803SOL    HW2 6309   6.715   5.717   0.781
 1804SOL     OW 6310   2.022   3.561   6.087
 1804SOL    HW1 6311   2.056   3.468   6.075
 1804SOL    HW2 6312   1.995   3.599   5.999
 1805SOL     OW 6313   0.366   3.972   5.278
 1805SOL    HW1 6314   0.319   3.925   5.353
 1805SOL    HW2 6315   0.406   3.904   5.216
 1806SOL     OW 6316   1.162   1.026   1.203
 1806SOL    HW1 6317   1.172   0.926   1.203
 1806SOL    HW2 6318   1.113   1.055   1.121
 1807SOL     OW 6319   5.164   2.246   6.171
 1807SOL    HW1 6320   5.135   2.167   6.117
 1807SOL    HW2 6321   5.087   2.280   6.225
 1808SOL     OW 6322   6.111   3.634   5.206
 1808SOL    HW1 6323   6.171   3.713   5.196
 1808SOL    HW2 6324   6.054   3.646   5.287
 1809SOL     OW 6325   2.138   2.874   4.419
 1809SOL    HW1 6326   2.204   2.801   4.439
 1809SOL    HW2 6327   2.058   2.864   4.478
 1810SOL     OW 6328   2.560   0.712   5.709
 1810SOL    HW1 6329   2.551   0.812   5.704
 1810SOL    HW2 6330   2.539   0.673   5.619
 1811SOL     OW 6331   4.027   4.817   3.267
 1811SOL    HW1 6332   3.978   4.819   3.180
 1811SOL    HW2 6333   3.963   4.803   3.342
 1812SOL     OW 6334   4.550   0.182   6.459
 1812SOL    HW1 6335   4.507   0.162   6.547
 1812SOL    HW2 6336   4.608   0.263   6.468
 1813SOL     OW 6337   3.991   4.572   1.211
 1813SOL    HW1 6338   3.985   4.481   1.169
 1813SOL    HW2 6339   3.984   4.642   1.140
 1814SOL     OW 6340   6.566   0.513   0.033
 1814SOL    HW1 6341   6.625   0.498   0.111
 1814SOL    HW2 6342   6.587   0.446   6.985
 1815SOL     OW 6343   6.685   2.054   1.854
 1815SOL    HW1 6344   6.690   2.056   1.754
 1815SOL    HW2 6345   6.723   1.967   1.887
 1816SOL     OW 6346   1.836   4.177   1.121
 1816SOL    HW1 6347   1.891   4.261   1.119
 1816SOL    HW2 6348   1.761   4.186   1.056
 1817SOL     OW 6349   3.222   6.587   2.933
 1817SOL    HW1 6350   3.321   6.576   2.925
 1817SOL    HW2 6351   3.181   6.500   2.961
 1818SOL     OW 6352   2.869   5.962   2.166
 1818SOL    HW1 6353   2.897   6.055   2.142
 1818SOL    HW2 6354   2.780   5.943   2.124
 1819SOL     OW 6355   0.760   5.551   1.154
 1819SOL    HW1 6356   0.796   5.553   1.060
 1819SOL    HW2 6357   0.767   5.459   1.190
 1820SOL     OW 6358   2.828   1.049   2.662
 1820SOL    HW1 6359   2.819   0.975   2.728
 1820SOL    HW2 6360   2.910   1.035   2.607
 1821SOL     OW 6361   2.854   0.483   1.699
 1821SOL    HW1 6362   2.862   0.546   1.622
 1821SOL    HW2 6363   2.761   0.444   1.700
 1822SOL     OW 6364   2.269   3.283   1.158
 1822SOL    HW1 6365   2.258   3.312   1.253
 1822SOL    HW2 6366   2.239   3.188   1.149
 1823SOL     OW 6367   2.609   5.831   2.791
 1823SOL    HW1 6368   2.697   5.784   2.786
 1823SOL    HW2 6369   2.610   5.911   2.731
 1824SOL     OW 6370   3.486   4.169   1.682
 1824SOL    HW1 6371   3.538   4.250   1.709
 1824SOL    HW2 6372   3.432   4.137   1.760
 1825SOL     OW 6373   1.340   2.577   3.868
 1825SOL    HW1 6374   1.310   2.483   3.886
 1825SOL    HW2 6375   1.323   2.633   3.949
 1826SOL     OW 6376   3.401   0.552   1.391
 1826SOL    HW1 6377   3.377   0.545   1.488
 1826SOL    HW2 6378   3.384   0.464   1.346
 1827SOL     OW 6379   0.363   5.464   1.397
 1827SOL    HW1 6380   0.457   5.440   1.423
 1827SOL    HW2 6381   0.334   5.407   1.320
 1828SOL     OW 6382   1.285   2.785   0.664
 1828SOL    HW1 6383   1.352   2.712   0.676
 1828SOL    HW2 6384   1.296   2.826   0.574
 1829SOL     OW 6385   2.524   0.724   3.087
 1829SOL    HW1 6386   2.622   0.743   3.081
 1829SOL    HW2 6387   2.493   0.684   3.001
 1830SOL     OW 6388   6.042   6.524   3.845
 1830SOL    HW1 6389   5.980   6.545   3.770
 1830SOL    HW2 6390   6.099   6.446   3.821
 1831SOL     OW 6391   5.777   0.356   2.506
 1831SOL    HW1 6392   5.819   0.275   2.548
 1831SOL    HW2 6393   5.801   0.359   2.409
 1832SOL     OW 6394   4.581   1.193   1.358
 1832SOL    HW1 6395   4.551   1.098   1.364
 1832SOL    HW2 6396   4.515   1.246   1.305
 1833SOL     OW 6397   5.825   0.777   0.229
 1833SOL    HW1 6398   5.784   0.863   0.199
 1833SOL    HW2 6399   5.863   0.729   0.150
 1834SOL     OW 6400   3.095   3.621   0.816
 1834SOL    HW1 6401   3.082   3.650   0.721
 1834SOL    HW2 6402   3.144   3.533   0.817
 1835SOL     OW 6403   0.214   4.501   2.275
 1835SOL    HW1 6404   0.290   4.488   2.212
 1835SOL    HW2 6405   0.209   4.424   2.338
 1836SOL     OW 6406   4.875   1.924   1.605
 1836SOL    HW1 6407   4.856   1.999   1.668
 1836SOL    HW2 6408   4.876   1.838   1.655
 1837SOL     OW 6409   0.948   0.337   4.895
 1837SOL    HW1 6410   0.953   0.372   4.988
 1837SOL    HW2 6411   0.882   0.391   4.842
 1838SOL     OW 6412   0.003   1.230   4.775
 1838SOL    HW1 6413   6.932   1.197   4.778
 1838SOL    HW2 6414   0.012   1.301   4.705
 1839SOL     OW 6415   6.258   2.436   4.859
 1839SOL    HW1 6416   6.255   2.533   4.839
 1839SOL    HW2 6417   6.327   2.418   4.929
 1840SOL     OW 6418   3.740   6.839   1.463
 1840SOL    HW1 6419   3.834   6.817   1.487
 1840SOL    HW2 6420   3.680   6.822   1.541
 1841SOL     OW 6421   2.228   1.147   3.025
 1841SOL    HW1 6422   2.195   1.180   2.936
 1841SOL    HW2 6423   2.232   1.224   3.089
 1842SOL     OW 6424   1.831   5.687   0.206
 1842SOL    HW1 6425   1.773   5.664   0.284
 1842SOL    HW2 6426   1.775   5.723   0.131
 1843SOL     OW 6427   6.226   2.106   3.303
 1843SOL    HW1 6428   6.145   2.048   3.305
 1843SOL    HW2 6429   6.211   2.186   3.361
 1844SOL     OW 6430   3.266   6.353   5.493
 1844SOL    HW1 6431   3.177   6.375   5.533
 1844SOL    HW2 6432   3.295   6.430   5.435
 1845SOL     OW 6433   2.705   0.009   4.630
 1845SOL    HW1 6434   2.707   0.108   4.613
 1845SOL    HW2 6435   2.753   6.985   4.556
 1846SOL     OW 6436   3.374   1.706   1.612
 1846SOL    HW1 6437   3.312   1.637   1.575
 1846SOL    HW2 6438   3.358   1.716   1.710
 1847SOL     OW 6439   1.380   0.960   6.948
 1847SOL    HW1 6440   1.445   0.991   7.017
 1847SOL    HW2 6441   1.335   1.039   6.906
 1848SOL     OW 6442   1.556   6.019   3.418
 1848SOL    HW1 6443   1.575   5.973   3.505
 1848SOL    HW2 6444   1.468   5.987   3.383
 1849SOL     OW 6445   4.101   2.658   1.332
 1849SOL    HW1 6446   4.005   2.665   1.358
 1849SOL    HW2 6447   4.143   2.581   1.380
 1850SOL     OW 6448   0.687   2.948   1.470
 1850SOL    HW1 6449   0.679   2.924   1.567
 1850SOL    HW2 6450   0.778   2.984   1.451
 1851SOL     OW 6451   0.338   2.612   0.251
 1851SOL    HW1 6452   0.394   2.548   0.200
 1851SOL    HW2 6453   0.253   2.567   0.279
 1852SOL     OW 6454   6.213   4.404   2.609
 1852SOL    HW1 6455   6.273   4.432   2.534
 1852SOL    HW2 6456   6.244   4.316   2.645
 1853SOL     OW 6457   0.263   2.257   2.705
 1853SOL    HW1 6458   0.173   2.256   2.749
 1853SOL    HW2 6459   0.281   2.348   2.667
 1854SOL     OW 6460   2.294   5.885   3.143
 1854SOL    HW1 6461   2.350   5.849   3.218
 1854SOL    HW2 6462   2.220   5.941   3.181
 1855SOL     OW 6463   5.180   2.661   5.512
 1855SOL    HW1 6464   5.223   2.716   5.583
 1855SOL    HW2 6465   5.169   2.717   5.429
 1856SOL     OW 6466   6.119   4.021   5.871
 1856SOL    HW1 6467   6.066   4.087   5.925
 1856SOL    HW2 6468   6.116   4.048   5.774
 1857SOL     OW 6469   4.877   1.896   5.920
 1857SOL    HW1 6470   4.863   1.921   5.824
 1857SOL    HW2 6471   4.876   1.797   5.929
 1858SOL     OW 6472   5.858   4.175   3.820
 1858SOL    HW1 6473   5.855   4.075   3.822
 1858SOL    HW2 6474   5.860   4.210   3.914
 1859SOL     OW 6475   5.961   2.617   3.489
 1859SOL    HW1 6476   5.980   2.527   3.451
 1859SOL    HW2 6477   6.041   2.650   3.539
 1860SOL     OW 6478   6.569   0.624   5.767
 1860SOL    HW1 6479   6.572   0.597   5.670
 1860SOL    HW2 6480   6.521   0.711   5.775
 1861SOL     OW 6481   6.241   6.786   2.255
 1861SOL    HW1 6482   6.155   6.786   2.203
 1861SOL    HW2 6483   6.222   6.776   2.352
 1862SOL     OW 6484   2.918   0.103   6.124
 1862SOL    HW1 6485   2.963   0.032   6.068
 1862SOL    HW2 6486   2.988   0.161   6.166
 1863SOL     OW 6487   0.892   3.000   3.635
 1863SOL    HW1 6488   0.911   3.005   3.537
 1863SOL    HW2 6489   0.846   3.084   3.665
 1864SOL     OW 6490   1.743   6.792   4.463
 1864SOL    HW1 6491   1.778   6.740   4.541
 1864SOL    HW2 6492   1.644   6.802   4.471
 1865SOL     OW 6493   3.417   6.627   6.646
 1865SOL    HW1 6494   3.319   6.637   6.662
 1865SOL    HW2 6495   3.466   6.637   6.733
 1866SOL     OW 6496   4.995   5.035   2.855
 1866SOL    HW1 6497   4.913   5.011   2.803
 1866SOL    HW2 6498   5.075   4.997   2.810
 1867SOL     OW 6499   0.677   3.806   0.422
 1867SOL    HW1 6500   0.577   3.805   0.433
 1867SOL    HW2 6501   0.712   3.895   0.452
 1868SOL     OW 6502   5.061   3.121   6.233
 1868SOL    HW1 6503   5.010   3.054   6.286
 1868SOL    HW2 6504   5.151   3.084   6.208
 1869SOL     OW 6505   5.771   3.421   5.599
 1869SOL    HW1 6506   5.772   3.392   5.504
 1869SOL    HW2 6507   5.676   3.426   5.631
 1870SOL     OW 6508   0.954   2.989   5.251
 1870SOL    HW1 6509   0.997   2.900   5.237
 1870SOL    HW2 6510   0.977   3.025   5.341
 1871SOL     OW 6511   0.883   0.275   6.780
 1871SOL    HW1 6512   0.891   0.177   6.798
 1871SOL    HW2 6513   0.965   0.307   6.732
 1872SOL     OW 6514   4.235   1.639   6.809
 1872SOL    HW1 6515   4.301   1.571   6.839
 1872SOL    HW2 6516   4.230   1.713   6.876
 1873SOL     OW 6517   5.103   0.879   6.648
 1873SOL    HW1 6518   5.182   0.919   6.693
 1873SOL    HW2 6519   5.052   0.951   6.600
 1874SOL     OW 6520   2.658   0.809   0.807
 1874SOL    HW1 6521   2.609   0.813   0.720
 1874SOL    HW2 6522   2.756   0.821   0.791
 1875SOL     OW 6523   7.019   0.279   0.030
 1875SOL    HW1 6524   6.953   0.232   0.088
 1875SOL    HW2 6525   6.971   0.327   6.980
 1876SOL     OW 6526   3.736   5.951   6.408
 1876SOL    HW1 6527   3.696   5.978   6.320
 1876SOL    HW2 6528   3.800   5.875   6.394
 1877SOL     OW 6529   0.996   1.375   3.513
 1877SOL    HW1 6530   1.036   1.306   3.453
 1877SOL    HW2 6531   0.900   1.353   3.528
 1878SOL     OW 6532   0.166   3.260   4.144
 1878SOL    HW1 6533   0.256   3.300   4.159
 1878SOL    HW2 6534   0.111   3.322   4.087
 1879SOL     OW 6535   2.090   5.191   3.800
 1879SOL    HW1 6536   2.009   5.232   3.757
 1879SOL    HW2 6537   2.136   5.131   3.735
 1880SOL     OW 6538   6.459   0.427   3.974
 1880SOL    HW1 6539   6.369   0.438   3.934
 1880SOL    HW2 6540   6.515   0.367   3.916
 1881SOL     OW 6541   6.794   3.373   2.887
 1881SOL    HW1 6542   6.734   3.440   2.843
 1881SOL    HW2 6543   6.826   3.410   2.974
 1882SOL     OW 6544   1.212   3.754   6.757
 1882SOL    HW1 6545   1.232   3.826   6.824
 1882SOL    HW2 6546   1.114   3.752   6.740
 1883SOL     OW 6547   1.346   2.322   3.641
 1883SOL    HW1 6548   1.258   2.275   3.628
 1883SOL    HW2 6549   1.333   2.421   3.635
 1884SOL     OW 6550   6.418   3.216   0.014
 1884SOL    HW1 6551   6.477   3.221   0.094
 1884SOL    HW2 6552   6.325   3.242   0.040
 1885SOL     OW 6553   1.128   1.630   5.980
 1885SOL    HW1 6554   1.214   1.616   5.930
 1885SOL    HW2 6555   1.142   1.607   6.076
 1886SOL     OW 6556   2.315   0.037   1.101
 1886SOL    HW1 6557   2.253   6.989   1.069
 1886SOL    HW2 6558   2.325   0.030   1.201
 1887SOL     OW 6559   1.590   5.699   5.460
 1887SOL    HW1 6560   1.622   5.656   5.544
 1887SOL    HW2 6561   1.491   5.684   5.451
 1888SOL     OW 6562   3.312   2.797   0.030
 1888SOL    HW1 6563   3.319   2.757   0.121
 1888SOL    HW2 6564   3.320   2.725   6.984
 1889SOL     OW 6565   6.735   3.219   6.044
 1889SOL    HW1 6566   6.777   3.303   6.012
 1889SOL    HW2 6567   6.804   3.147   6.052
 1890SOL     OW 6568   1.858   6.335   4.252
 1890SOL    HW1 6569   1.876   6.300   4.343
 1890SOL    HW2 6570   1.885   6.267   4.184
 1891SOL     OW 6571   6.077   2.522   2.838
 1891SOL    HW1 6572   6.095   2.608   2.792
 1891SOL    HW2 6573   6.050   2.540   2.933
 1892SOL     OW 6574   3.004   1.128   0.783
 1892SOL    HW1 6575   2.927   1.192   0.780
 1892SOL    HW2 6576   3.084   1.174   0.821
 1893SOL     OW 6577   3.971   2.722   0.163
 1893SOL    HW1 6578   3.978   2.677   0.073
 1893SOL    HW2 6579   3.877   2.750   0.179
 1894SOL     OW 6580   4.044   3.776   3.663
 1894SOL    HW1 6581   3.947   3.767   3.683
 1894SOL    HW2 6582   4.056   3.813   3.570
 1895SOL     OW 6583   5.652   1.068   1.933
 1895SOL    HW1 6584   5.715   1.018   1.992
 1895SOL    HW2 6585   5.704   1.116   1.862
 1896SOL     OW 6586   6.211   0.466   1.726
 1896SOL    HW1 6587   6.116   0.439   1.711
 1896SOL    HW2 6588   6.243   0.427   1.813
 1897SOL     OW 6589   1.331   4.307   2.324
 1897SOL    HW1 6590   1.309   4.249   2.246
 1897SOL    HW2 6591   1.255   4.306   2.389
 1898SOL     OW 6592   2.789   5.020   2.604
 1898SOL    HW1 6593   2.754   4.964   2.528
 1898SOL    HW2 6594   2.815   5.110   2.570
 1899SOL     OW 6595   1.020   1.546   2.280
 1899SOL    HW1 6596   1.099   1.562   2.220
 1899SOL    HW2 6597   0.944   1.509   2.227
 1900SOL     OW 6598   1.427   0.777   6.598
 1900SOL    HW1 6599   1.335   0.814   6.610
 1900SOL    HW2 6600   1.465   0.754   6.688
 1901SOL     OW 6601   1.930   2.592   0.946
 1901SOL    HW1 6602   1.926   2.501   0.985
 1901SOL    HW2 6603   1.935   2.660   1.020
 1902SOL     OW 6604   2.685   1.757   5.007
 1902SOL    HW1 6605   2.658   1.843   4.965
 1902SOL    HW2 6606   2.733   1.775   5.093
 1903SOL     OW 6607   6.861   2.992   2.646
 1903SOL    HW1 6608   6.763   2.984   2.663
 1903SOL    HW2 6609   6.881   3.081   2.605
 1904SOL     OW 6610   5.918   6.183   3.961
 1904SOL    HW1 6611   5.864   6.104   3.990
 1904SOL    HW2 6612   6.015   6.165   3.978
 1905SOL     OW 6613   1.763   0.730   4.411
 1905SOL    HW1 6614   1.825   0.807   4.424
 1905SOL    HW2 6615   1.724   0.734   4.319
 1906SOL     OW 6616   1.965   0.263   4.918
 1906SOL    HW1 6617   1.939   0.182   4.868
 1906SOL    HW2 6618   2.061   0.256   4.946
 1907SOL     OW 6619   3.141   6.864   2.422
 1907SOL    HW1 6620   3.232   6.828   2.445
 1907SOL    HW2 6621   3.079   6.852   2.499
 1908SOL     OW 6622   3.808   6.846   4.867
 1908SOL    HW1 6623   3.789   6.907   4.944
 1908SOL    HW2 6624   3.775   6.754   4.887
 1909SOL     OW 6625   0.663   3.954   2.506
 1909SOL    HW1 6626   0.614   4.013   2.570
 1909SOL    HW2 6627   0.677   4.002   2.420
 1910SOL     OW 6628   0.004   2.908   6.399
 1910SOL    HW1 6629   7.017   2.813   6.428
 1910SOL    HW2 6630   6.937   2.949   6.387
 1911SOL     OW 6631   5.678   3.547   5.117
 1911SOL    HW1 6632   5.664   3.535   5.216
 1911SOL    HW2 6633   5.595   3.584   5.076
 1912SOL     OW 6634   3.605   6.104   0.629
 1912SOL    HW1 6635   3.618   6.203   0.615
 1912SOL    HW2 6636   3.551   6.088   0.711
 1913SOL     OW 6637   1.759   6.271   4.767
 1913SOL    HW1 6638   1.785   6.287   4.862
 1913SOL    HW2 6639   1.842   6.260   4.711
 1914SOL     OW 6640   3.875   2.640   6.345
 1914SOL    HW1 6641   3.924   2.637   6.258
 1914SOL    HW2 6642   3.787   2.594   6.336
 1915SOL     OW 6643   4.301   2.309   5.311
 1915SOL    HW1 6644   4.303   2.261   5.224
 1915SOL    HW2 6645   4.208   2.343   5.328
 1916SOL     OW 6646   4.077   5.769   1.299
 1916SOL    HW1 6647   4.096   5.851   1.244
 1916SOL    HW2 6648   4.015   5.709   1.250
 1917SOL     OW 6649   2.861   2.987   5.355
 1917SOL    HW1 6650   2.939   3.027   5.307
 1917SOL    HW2 6651   2.847   2.893   5.323
 1918SOL     OW 6652   0.676   1.249   4.928
 1918SOL    HW1 6653   0.638   1.210   5.012
 1918SOL    HW2 6654   0.744   1.318   4.951
 1919SOL     OW 6655   1.938   0.437   1.703
 1919SOL    HW1 6656   1.845   0.473   1.692
 1919SOL    HW2 6657   1.934   0.348   1.747
 1920SOL     OW 6658   1.453   4.596   2.566
 1920SOL    HW1 6659   1.409   4.592   2.476
 1920SOL    HW2 6660   1.547   4.628   2.556
 1921SOL     OW 6661   1.275   4.535   6.526
 1921SOL    HW1 6662   1.183   4.570   6.540
 1921SOL    HW2 6663   1.341   4.610   6.533
 1922SOL     OW 6664   2.073   4.019   1.144
 1922SOL    HW1 6665   2.075   3.947   1.213
 1922SOL    HW2 6666   1.989   4.072   1.153
 1923SOL     OW 6667   3.323   0.567   5.409
 1923SOL    HW1 6668   3.277   0.644   5.453
 1923SOL    HW2 6669   3.405   0.600   5.362
 1924SOL     OW 6670   4.752   5.571   1.353
 1924SOL    HW1 6671   4.707   5.598   1.438
 1924SOL    HW2 6672   4.698   5.500   1.308
 1925SOL     OW 6673   2.037   5.063   0.474
 1925SOL    HW1 6674   2.076   5.125   0.541
 1925SOL    HW2 6675   1.951   5.100   0.440
 1926SOL     OW 6676   2.169   6.651   3.402
 1926SOL    HW1 6677   2.210   6.740   3.382
 1926SOL    HW2 6678   2.239   6.589   3.437
 1927SOL     OW 6679   2.885   4.582   6.641
 1927SOL    HW1 6680   2.799   4.604   6.687
 1927SOL    HW2 6681   2.886   4.485   6.617
 1928SOL     OW 6682   6.865   4.297   5.812
 1928SOL    HW1 6683   6.811   4.234   5.868
 1928SOL    HW2 6684   6.810   4.327   5.734
 1929SOL     OW 6685   1.299   5.624   1.456
 1929SOL    HW1 6686   1.323   5.700   1.516
 1929SOL    HW2 6687   1.289   5.657   1.363
 1930SOL     OW 6688   3.531   4.179   6.304
 1930SOL    HW1 6689   3.609   4.225   6.262
 1930SOL    HW2 6690   3.473   4.246   6.350
 1931SOL     OW 6691   0.841   3.472   2.183
 1931SOL    HW1 6692   0.834   3.373   2.177
 1931SOL    HW2 6693   0.920   3.497   2.238
 1932SOL     OW 6694   4.791   2.923   3.179
 1932SOL    HW1 6695   4.787   2.994   3.108
 1932SOL    HW2 6696   4.887   2.900   3.197
 1933SOL     OW 6697   2.210   3.250   0.854
 1933SOL    HW1 6698   2.234   3.318   0.784
 1933SOL    HW2 6699   2.112   3.232   0.850
 1934SOL     OW 6700   0.331   0.045   5.405
 1934SOL    HW1 6701   0.422   0.038   5.365
 1934SOL    HW2 6702   0.291   0.134   5.381
 1935SOL     OW 6703   4.157   6.294   3.579
 1935SOL    HW1 6704   4.107   6.208   3.576
 1935SOL    HW2 6705   4.119   6.358   3.511
 1936SOL     OW 6706   5.583   3.693   3.470
 1936SOL    HW1 6707   5.580   3.738   3.560
 1936SOL    HW2 6708   5.623   3.755   3.403
 1937SOL     OW 6709   4.222   6.309   1.290
 1937SOL    HW1 6710   4.235   6.380   1.220
 1937SOL    HW2 6711   4.147   6.336   1.351
 1938SOL     OW 6712   2.345   1.673   1.516
 1938SOL    HW1 6713   2.326   1.770   1.501
 1938SOL    HW2 6714   2.351   1.626   1.429
 1939SOL     OW 6715   6.554   6.829   4.530
 1939SOL    HW1 6716   6.458   6.836   4.556
 1939SOL    HW2 6717   6.565   6.757   4.461
 1940SOL     OW 6718   5.710   5.049   0.760
 1940SOL    HW1 6719   5.713   5.074   0.663
 1940SOL    HW2 6720   5.781   5.100   0.810
 1941SOL     OW 6721   1.322   3.518   4.481
 1941SOL    HW1 6722   1.308   3.429   4.437
 1941SOL    HW2 6723   1.244   3.539   4.539
 1942SOL     OW 6724   5.047   1.799   1.310
 1942SOL    HW1 6725   5.055   1.711   1.357
 1942SOL    HW2 6726   4.957   1.839   1.329
 1943SOL     OW 6727   2.482   6.251   4.025
 1943SOL    HW1 6728   2.545   6.227   4.099
 1943SOL    HW2 6729   2.533   6.290   3.949
 1944SOL     OW 6730   6.455   2.960   0.063
 1944SOL    HW1 6731   6.420   3.049   0.036
 1944SOL    HW2 6732   6.522   2.928   7.019
 1945SOL     OW 6733   3.358   5.307   0.801
 1945SOL    HW1 6734   3.359   5.218   0.755
 1945SOL    HW2 6735   3.275   5.356   0.778
 1946SOL     OW 6736   6.059   6.544   1.001
 1946SOL    HW1 6737   6.151   6.545   0.961
 1946SOL    HW2 6738   6.004   6.474   0.955
 1947SOL     OW 6739   5.161   6.405   4.350
 1947SOL    HW1 6740   5.069   6.398   4.313
 1947SOL    HW2 6741   5.158   6.401   4.449
 1948SOL     OW 6742   5.818   5.097   3.395
 1948SOL    HW1 6743   5.886   5.118   3.465
 1948SOL    HW2 6744   5.749   5.035   3.432
 1949SOL     OW 6745   3.370   3.550   5.933
 1949SOL    HW1 6746   3.463   3.543   5.970
 1949SOL    HW2 6747   3.369   3.511   5.841
 1950SOL     OW 6748   4.416   3.067   0.379
 1950SOL    HW1 6749   4.332   3.013   0.390
 1950SOL    HW2 6750   4.412   3.117   0.293
 1951SOL     OW 6751   5.973   4.397   7.019
 1951SOL    HW1 6752   5.997   4.319   6.962
 1951SOL    HW2 6753   5.904   4.453   6.972
 1952SOL     OW 6754   4.765   3.429   1.528
 1952SOL    HW1 6755   4.719   3.387   1.450
 1952SOL    HW2 6756   4.754   3.371   1.609
 1953SOL     OW 6757   6.101   1.629   5.722
 1953SOL    HW1 6758   6.091   1.611   5.819
 1953SOL    HW2 6759   6.031   1.694   5.693
 1954SOL     OW 6760   6.671   0.867   2.261
 1954SOL    HW1 6761   6.583   0.846   2.219
 1954SOL    HW2 6762   6.744   0.822   2.209
 1955SOL     OW 6763   0.834   0.857   3.079
 1955SOL    HW1 6764   0.770   0.801   3.131
 1955SOL    HW2 6765   0.921   0.863   3.129
 1956SOL     OW 6766   4.667   0.136   2.136
 1956SOL    HW1 6767   4.602   0.074   2.092
 1956SOL    HW2 6768   4.640   0.151   2.231
 1957SOL     OW 6769   5.807   4.304   4.060
 1957SOL    HW1 6770   5.767   4.395   4.047
 1957SOL    HW2 6771   5.888   4.311   4.117
 1958SOL     OW 6772   4.828   1.545   1.894
 1958SOL    HW1 6773   4.848   1.626   1.838
 1958SOL    HW2 6774   4.903   1.480   1.886
 1959SOL     OW 6775   1.382   0.352   4.116
 1959SOL    HW1 6776   1.359   0.312   4.204
 1959SOL    HW2 6777   1.479   0.380   4.117
 1960SOL     OW 6778   0.333   4.450   1.646
 1960SOL    HW1 6779   0.285   4.410   1.724
 1960SOL    HW2 6780   0.371   4.539   1.673
 1961SOL     OW 6781   6.066   4.625   4.950
 1961SOL    HW1 6782   6.100   4.633   4.857
 1961SOL    HW2 6783   6.001   4.549   4.957
 1962SOL     OW 6784   1.370   6.425   2.739
 1962SOL    HW1 6785   1.325   6.380   2.816
 1962SOL    HW2 6786   1.312   6.418   2.658
 1963SOL     OW 6787   1.141   1.701   1.405
 1963SOL    HW1 6788   1.105   1.751   1.484
 1963SOL    HW2 6789   1.203   1.629   1.437
 1964SOL     OW 6790   4.673   4.394   1.391
 1964SOL    HW1 6791   4.633   4.349   1.470
 1964SOL    HW2 6792   4.603   4.408   1.321
 1965SOL     OW 6793   1.345   2.973   4.573
 1965SOL    HW1 6794   1.406   2.954   4.650
 1965SOL    HW2 6795   1.385   3.046   4.516
 1966SOL     OW 6796   0.259   6.179   0.552
 1966SOL    HW1 6797   0.358   6.166   0.538
 1966SOL    HW2 6798   0.210   6.101   0.512
 1967SOL     OW 6799   5.722   3.100   5.162
 1967SOL    HW1 6800   5.736   3.113   5.064
 1967SOL    HW2 6801   5.670   3.016   5.178
 1968SOL     OW 6802   1.325   6.803   5.481
 1968SOL    HW1 6803   1.274   6.879   5.441
 1968SOL    HW2 6804   1.400   6.838   5.537
 1969SOL     OW 6805   2.165   1.923   0.562
 1969SOL    HW1 6806   2.153   1.824   0.554
 1969SOL    HW2 6807   2.147   1.952   0.656
 1970SOL     OW 6808   3.012   6.181   6.374
 1970SOL    HW1 6809   3.006   6.268   6.326
 1970SOL    HW2 6810   2.924   6.134   6.370
 1971SOL     OW 6811   0.312   0.465   5.628
 1971SOL    HW1 6812   0.277   0.371   5.623
 1971SOL    HW2 6813   0.275   0.518   5.551
 1972SOL     OW 6814   4.880   1.917   2.033
 1972SOL    HW1 6815   4.880   1.998   2.092
 1972SOL    HW2 6816   4.807   1.856   2.061
 1973SOL     OW 6817   3.465   2.932   0.565
 1973SOL    HW1 6818   3.436   2.888   0.650
 1973SOL    HW2 6819   3.386   2.942   0.504
 1974SOL     OW 6820   5.731   0.117   4.730
 1974SOL    HW1 6821   5.758   0.191   4.669
 1974SOL    HW2 6822   5.677   0.050   4.679
 1975SOL     OW 6823   2.142   1.759   4.384
 1975SOL    HW1 6824   2.055   1.744   4.431
 1975SOL    HW2 6825   2.212   1.782   4.451
 1976SOL     OW 6826   6.267   0.127   0.617
 1976SOL    HW1 6827   6.266   0.072   0.534
 1976SOL    HW2 6828   6.174   0.131   0.655
 1977SOL     OW 6829   1.956   3.001   4.871
 1977SOL    HW1 6830   2.046   2.994   4.828
 1977SOL    HW2 6831   1.911   3.084   4.840
 1978SOL     OW 6832   2.090   6.341   3.185
 1978SOL    HW1 6833   2.074   6.397   3.104
 1978SOL    HW2 6834   2.085   6.398   3.267
 1979SOL     OW 6835   5.667   4.414   0.175
 1979SOL    HW1 6836   5.617   4.347   0.120
 1979SOL    HW2 6837   5.722   4.472   0.115
 1980SOL     OW 6838   3.043   6.857   4.024
 1980SOL    HW1 6839   3.083   6.789   3.962
 1980SOL    HW2 6840   3.056   6.948   3.986
 1981SOL     OW 6841   6.838   3.190   1.941
 1981SOL    HW1 6842   6.830   3.181   2.040
 1981SOL    HW2 6843   6.856   3.101   1.900
 1982SOL     OW 6844   1.001   4.050   4.527
 1982SOL    HW1 6845   1.051   4.136   4.523
 1982SOL    HW2 6846   1.019   4.005   4.615
 1983SOL     OW 6847   1.213   0.734   2.165
 1983SOL    HW1 6848   1.311   0.719   2.168
 1983SOL    HW2 6849   1.194   0.829   2.140
 1984SOL     OW 6850   5.361   2.426   4.889
 1984SOL    HW1 6851   5.301   2.347   4.882
 1984SOL    HW2 6852   5.334   2.482   4.968
 1985SOL     OW 6853   0.839   6.389   2.412
 1985SOL    HW1 6854   0.781   6.334   2.352
 1985SOL    HW2 6855   0.920   6.337   2.438
 1986SOL     OW 6856   2.846   1.007   6.899
 1986SOL    HW1 6857   2.823   1.062   6.979
 1986SOL    HW2 6858   2.819   1.056   6.816
 1987SOL     OW 6859   2.101   1.595   2.845
 1987SOL    HW1 6860   2.129   1.671   2.787
 1987SOL    HW2 6861   2.159   1.591   2.926
 1988SOL     OW 6862   6.079   3.766   0.564
 1988SOL    HW1 6863   6.009   3.828   0.530
 1988SOL    HW2 6864   6.069   3.677   0.520
 1989SOL     OW 6865   1.941   5.730   4.799
 1989SOL    HW1 6866   1.987   5.660   4.855
 1989SOL    HW2 6867   1.993   5.815   4.804
 1990SOL     OW 6868   3.773   5.548   0.799
 1990SOL    HW1 6869   3.733   5.639   0.788
 1990SOL    HW2 6870   3.872   5.557   0.810
 1991SOL     OW 6871   3.155   4.699   6.517
 1991SOL    HW1 6872   3.063   4.671   6.541
 1991SOL    HW2 6873   3.174   4.674   6.422
 1992SOL     OW 6874   0.357   0.755   0.374
 1992SOL    HW1 6875   0.384   0.658   0.374
 1992SOL    HW2 6876   0.261   0.763   0.347
 1993SOL     OW 6877   3.706   2.467   5.807
 1993SOL    HW1 6878   3.773   2.532   5.772
 1993SOL    HW2 6879   3.735   2.436   5.898
 1994SOL     OW 6880   0.618   1.380   0.268
 1994SOL    HW1 6881   0.709   1.421   0.275
 1994SOL    HW2 6882   0.626   1.287   0.231
 1995SOL     OW 6883   5.168   2.485   3.605
 1995SOL    HW1 6884   5.165   2.558   3.673
 1995SOL    HW2 6885   5.262   2.467   3.579
 1996SOL     OW 6886   2.363   2.892   0.447
 1996SOL    HW1 6887   2.299   2.859   0.377
 1996SOL    HW2 6888   2.334   2.857   0.536
 1997SOL     OW 6889   2.942   2.174   4.911
 1997SOL    HW1 6890   3.033   2.208   4.934
 1997SOL    HW2 6891   2.931   2.176   4.811
 1998SOL     OW 6892   2.789   3.692   0.237
 1998SOL    HW1 6893   2.776   3.661   0.143
 1998SOL    HW2 6894   2.781   3.614   0.299
 1999SOL     OW 6895   2.239   6.474   5.958
 1999SOL    HW1 6896   2.167   6.428   5.905
 1999SOL    HW2 6897   2.201   6.504   6.045
 2000SOL     OW 6898   4.046   2.797   5.379
 2000SOL    HW1 6899   4.112   2.739   5.331
 2000SOL    HW2 6900   4.091   2.881   5.409
 2001SOL     OW 6901   2.402   0.069   1.379
 2001SOL    HW1 6902   2.374   0.071   1.475
 2001SOL    HW2 6903   2.417   0.163   1.347
 2002SOL     OW 6904   0.597   4.318   0.209
 2002SOL    HW1 6905   0.537   4.304   0.288
 2002SOL    HW2 6906   0.558   4.275   0.128
 2003SOL     OW 6907   6.466   5.277   2.597
 2003SOL    HW1 6908   6.504   5.201   2.545
 2003SOL    HW2 6909   6.366   5.277   2.588
 2004SOL     OW 6910   5.204   1.264   4.072
 2004SOL    HW1 6911   5.278   1.197   4.078
 2004SOL    HW2 6912   5.241   1.353   4.050
 2005SOL     OW 6913   0.076   4.504   0.514
 2005SOL    HW1 6914   0.163   4.549   0.534
 2005SOL    HW2 6915   0.054   4.516   0.417
 2006SOL     OW 6916   5.554   7.008   2.562
 2006SOL    HW1 6917   5.459   0.015   2.564
 2006SOL    HW2 6918   5.582   6.978   2.654
 2007SOL     OW 6919   4.557   4.414   0.457
 2007SOL    HW1 6920   4.521   4.508   0.451
 2007SOL    HW2 6921   4.596   4.399   0.547
 2008SOL     OW 6922   1.874   4.119   4.009
 2008SOL    HW1 6923   1.967   4.089   4.029
 2008SOL    HW2 6924   1.814   4.040   4.002
 2009SOL     OW 6925   5.302   0.251   2.824
 2009SOL    HW1 6926   5.251   0.269   2.908
 2009SOL    HW2 6927   5.396   0.283   2.835
 2010SOL     OW 6928   3.069   1.938   2.068
 2010SOL    HW1 6929   3.032   1.850   2.041
 2010SOL    HW2 6930   3.010   2.011   2.033
 2011SOL     OW 6931   6.966   0.650   4.865
 2011SOL    HW1 6932   6.961   0.732   4.809
 2011SOL    HW2 6933   6.959   0.569   4.807
 2012SOL     OW 6934   0.974   4.396   2.309
 2012SOL    HW1 6935   1.043   4.462   2.339
 2012SOL    HW2 6936   1.019   4.313   2.277
 2013SOL     OW 6937   6.462   2.787   2.842
 2013SOL    HW1 6938   6.521   2.713   2.810
 2013SOL    HW2 6939   6.513   2.844   2.906
 2014SOL     OW 6940   2.599   6.511   3.458
 2014SOL    HW1 6941   2.611   6.412   3.467
 2014SOL    HW2 6942   2.510   6.529   3.417
 2015SOL     OW 6943   2.293   0.369   0.044
 2015SOL    HW1 6944   2.261   0.338   6.978
 2015SOL    HW2 6945   2.236   0.445   0.075
 2016SOL     OW 6946   1.756   6.484   5.512
 2016SOL    HW1 6947   1.665   6.516   5.488
 2016SOL    HW2 6948   1.817   6.495   5.433
 2017SOL     OW 6949   4.001   0.570   3.818
 2017SOL    HW1 6950   4.092   0.538   3.792
 2017SOL    HW2 6951   3.932   0.510   3.778
 2018SOL     OW 6952   5.564   2.541   4.264
 2018SOL    HW1 6953   5.627   2.478   4.220
 2018SOL    HW2 6954   5.583   2.634   4.232
 2019SOL     OW 6955   5.219   3.639   5.836
 2019SOL    HW1 6956   5.270   3.601   5.759
 2019SOL    HW2 6957   5.284   3.672   5.905
 2020SOL     OW 6958   2.257   6.979   5.194
 2020SOL    HW1 6959   2.263   6.944   5.100
 2020SOL    HW2 6960   2.228   0.051   5.192
 2021SOL     OW 6961   0.154   6.941   4.836
 2021SOL    HW1 6962   0.178   0.008   4.800
 2021SOL    HW2 6963   0.078   6.949   4.900
 2022SOL     OW 6964   1.264   5.215   3.442
 2022SOL    HW1 6965   1.174   5.195   3.402
 2022SOL    HW2 6966   1.254   5.233   3.540
 2023SOL     OW 6967   0.145   0.580   6.449
 2023SOL    HW1 6968   0.228   0.527   6.467
 2023SOL    HW2 6969   0.120   0.570   6.352
 2024SOL     OW 6970   6.822   5.895   3.118
 2024SOL    HW1 6971   6.724   5.900   3.135
 2024SOL    HW2 6972   6.852   5.978   3.069
 2025SOL     OW 6973   3.440   1.021   3.916
 2025SOL    HW1 6974   3.352   0.996   3.956
 2025SOL    HW2 6975   3.432   1.031   3.817
 2026SOL     OW 6976   6.204   3.259   5.415
 2026SOL    HW1 6977   6.157   3.337   5.458
 2026SOL    HW2 6978   6.299   3.256   5.447
 2027SOL     OW 6979   1.110   0.134   0.188
 2027SOL    HW1 6980   1.042   0.177   0.129
 2027SOL    HW2 6981   1.132   0.195   0.264
 2028SOL     OW 6982   2.591   5.426   4.279
 2028SOL    HW1 6983   2.664   5.362   4.303
 2028SOL    HW2 6984   2.556   5.469   4.362
 2029SOL     OW 6985   6.376   1.910   0.150
 2029SOL    HW1 6986   6.423   1.839   0.203
 2029SOL    HW2 6987   6.347   1.983   0.212
 2030SOL     OW 6988   2.974   0.624   3.604
 2030SOL    HW1 6989   3.057   0.676   3.621
 2030SOL    HW2 6990   2.988   0.528   3.628
 2031SOL     OW 6991   6.936   5.831   1.573
 2031SOL    HW1 6992   7.001   5.896   1.611
 2031SOL    HW2 6993   6.967   5.738   1.592
 2032SOL     OW 6994   4.381   0.383   1.689
 2032SOL    HW1 6995   4.398   0.377   1.590
 2032SOL    HW2 6996   4.432   0.460   1.726
 2033SOL     OW 6997   2.874   2.937   6.912
 2033SOL    HW1 6998   2.973   2.949   6.924
 2033SOL    HW2 6999   2.849   2.842   6.935
 2034SOL     OW 7000   2.274   5.046   5.104
 2034SOL    HW1 7001   2.175   5.046   5.095
 2034SOL    HW2 7002   2.300   5.102   5.183
 2035SOL     OW 7003   6.398   6.561   3.540
 2035SOL    HW1 7004   6.417   6.650   3.582
 2035SOL    HW2 7005   6.409   6.489   3.609
 2036SOL     OW 7006   0.796   3.499   2.878
 2036SOL    HW1 7007   0.751   3.550   2.951
 2036SOL    HW2 7008   0.887   3.537   2.862
 2037SOL     OW 7009   6.460   3.237   5.518
 2037SOL    HW1 7010   6.514   3.180   5.456
 2037SOL    HW2 7011   6.510   3.250   5.603
 2038SOL     OW 7012   2.092   1.298   0.354
 2038SOL    HW1 7013   2.113   1.333   0.445
 2038SOL    HW2 7014   1.994   1.309   0.336
 2039SOL     OW 7015   6.832   5.689   3.564
 2039SOL    HW1 7016   6.774   5.760   3.606
 2039SOL    HW2 7017   6.779   5.605   3.555
 2040SOL     OW 7018   1.659   2.948   6.310
 2040SOL    HW1 7019   1.726   3.022   6.304
 2040SOL    HW2 7020   1.707   2.862   6.331
 2041SOL     OW 7021   0.833   6.345   5.719
 2041SOL    HW1 7022   0.821   6.443   5.735
 2041SOL    HW2 7023   0.930   6.321   5.723
 2042SOL     OW 7024   4.590   6.094   6.979
 2042SOL    HW1 7025   4.606   6.056   6.889
 2042SOL    HW2 7026   4.493   6.119   6.988
 2043SOL     OW 7027   6.421   3.751   3.392
 2043SOL    HW1 7028   6.405   3.653   3.387
 2043SOL    HW2 7029   6.489   3.771   3.463
 2044SOL     OW 7030   6.931   0.889   1.694
 2044SOL    HW1 7031   7.013   0.932   1.657
 2044SOL    HW2 7032   6.912   0.805   1.643
 2045SOL     OW 7033   1.538   5.426   4.551
 2045SOL    HW1 7034   1.583   5.500   4.500
 2045SOL    HW2 7035   1.455   5.461   4.594
 2046SOL     OW 7036   0.056   2.057   4.253
 2046SOL    HW1 7037   0.125   1.985   4.262
 2046SOL    HW2 7038   6.988   2.017   4.258
 2047SOL     OW 7039   6.782   3.164   0.419
 2047SOL    HW1 7040   6.794   3.263   0.411
 2047SOL    HW2 7041   6.732   3.143   0.503
 2048SOL     OW 7042   1.096   6.805   5.838
 2048SOL    HW1 7043   1.023   6.858   5.880
 2048SOL    HW2 7044   1.173   6.865   5.816
 2049SOL     OW 7045   5.895   1.585   4.071
 2049SOL    HW1 7046   5.849   1.512   4.120
 2049SOL    HW2 7047   5.840   1.669   4.074
 2050SOL     OW 7048   6.237   2.899   3.770
 2050SOL    HW1 7049   6.285   2.972   3.723
 2050SOL    HW2 7050   6.297   2.860   3.841
 2051SOL     OW 7051   1.525   5.767   6.539
 2051SOL    HW1 7052   1.501   5.724   6.626
 2051SOL    HW2 7053   1.598   5.833   6.554
 2052SOL     OW 7054   2.097   3.163   1.495
 2052SOL    HW1 7055   2.105   3.202   1.587
 2052SOL    HW2 7056   2.116   3.235   1.427
 2053SOL     OW 7057   6.392   6.101   4.614
 2053SOL    HW1 7058   6.316   6.102   4.548
 2053SOL    HW2 7059   6.392   6.014   4.663
 2054SOL     OW 7060   3.608   4.117   3.475
 2054SOL    HW1 7061   3.533   4.169   3.435
 2054SOL    HW2 7062   3.601   4.120   3.575
 2055SOL     OW 7063   5.583   3.680   4.037
 2055SOL    HW1 7064   5.608   3.603   4.095
 2055SOL    HW2 7065   5.562   3.759   4.094
 2056SOL     OW 7066   4.442   5.363   0.885
 2056SOL    HW1 7067   4.388   5.287   0.849
 2056SOL    HW2 7068   4.506   5.329   0.955
 2057SOL     OW 7069   5.149   4.267   5.758
 2057SOL    HW1 7070   5.225   4.202   5.757
 2057SOL    HW2 7071   5.185   4.360   5.767
 2058SOL     OW 7072   0.622   6.827   2.866
 2058SOL    HW1 7073   0.549   6.765   2.893
 2058SOL    HW2 7074   0.609   6.856   2.771
 2059SOL     OW 7075   1.964   6.194   6.124
 2059SOL    HW1 7076   1.880   6.239   6.094
 2059SOL    HW2 7077   2.026   6.183   6.047
 2060SOL     OW 7078   0.687   3.869   1.095
 2060SOL    HW1 7079   0.684   3.917   1.182
 2060SOL    HW2 7080   0.628   3.788   1.099
 2061SOL     OW 7081   1.590   1.956   1.993
 2061SOL    HW1 7082   1.554   1.878   1.943
 2061SOL    HW2 7083   1.580   2.039   1.938
 2062SOL     OW 7084   0.160   5.465   5.633
 2062SOL    HW1 7085   0.125   5.461   5.540
 2062SOL    HW2 7086   0.087   5.493   5.695
 2063SOL     OW 7087   1.066   6.813   5.107
 2063SOL    HW1 7088   0.979   6.816   5.058
 2063SOL    HW2 7089   1.056   6.860   5.195
 2064SOL     OW 7090   0.119   2.385   4.735
 2064SOL    HW1 7091   0.037   2.436   4.761
 2064SOL    HW2 7092   0.109   2.350   4.642
 2065SOL     OW 7093   5.988   2.551   5.692
 2065SOL    HW1 7094   6.055   2.567   5.765
 2065SOL    HW2 7095   6.000   2.620   5.620
 2066SOL     OW 7096   6.913   4.176   5.147
 2066SOL    HW1 7097   7.008   4.198   5.130
 2066SOL    HW2 7098   6.907   4.106   5.218
 2067SOL     OW 7099   0.205   4.982   0.493
 2067SOL    HW1 7100   0.243   5.034   0.570
 2067SOL    HW2 7101   0.255   5.005   0.410
 2068SOL     OW 7102   2.317   0.273   4.356
 2068SOL    HW1 7103   2.298   0.316   4.268
 2068SOL    HW2 7104   2.361   0.184   4.340
 2069SOL     OW 7105   6.388   2.758   3.915
 2069SOL    HW1 7106   6.342   2.670   3.923
 2069SOL    HW2 7107   6.482   2.750   3.949
 2070SOL     OW 7108   1.292   1.626   1.017
 2070SOL    HW1 7109   1.355   1.664   0.949
 2070SOL    HW2 7110   1.342   1.603   1.100
 2071SOL     OW 7111   5.777   0.632   5.743
 2071SOL    HW1 7112   5.847   0.572   5.705
 2071SOL    HW2 7113   5.689   0.586   5.741
 2072SOL     OW 7114   4.660   5.309   4.639
 2072SOL    HW1 7115   4.638   5.343   4.731
 2072SOL    HW2 7116   4.589   5.245   4.609
 2073SOL     OW 7117   4.551   6.900   5.053
 2073SOL    HW1 7118   4.452   6.896   5.036
 2073SOL    HW2 7119   4.596   6.942   4.974
 2074SOL     OW 7120   2.317   2.721   6.043
 2074SOL    HW1 7121   2.360   2.640   6.084
 2074SOL    HW2 7122   2.240   2.750   6.098
 2075SOL     OW 7123   6.688   2.453   2.948
 2075SOL    HW1 7124   6.658   2.359   2.961
 2075SOL    HW2 7125   6.656   2.487   2.859
 2076SOL     OW 7126   5.208   6.504   6.302
 2076SOL    HW1 7127   5.179   6.552   6.385
 2076SOL    HW2 7128   5.305   6.523   6.285
 2077SOL     OW 7129   6.976   1.900   2.038
 2077SOL    HW1 7130   0.018   1.975   2.049
 2077SOL    HW2 7131   6.954   1.888   1.941
 2078SOL     OW 7132   2.026   5.282   6.263
 2078SOL    HW1 7133   1.948   5.308   6.320
 2078SOL    HW2 7134   2.036   5.348   6.189
 2079SOL     OW 7135   0.143   1.666   2.899
 2079SOL    HW1 7136   0.099   1.751   2.925
 2079SOL    HW2 7137   0.105   1.590   2.951
 2080SOL     OW 7138   2.461   0.549   5.062
 2080SOL    HW1 7139   2.485   0.455   5.035
 2080SOL    HW2 7140   2.408   0.591   4.988
 2081SOL     OW 7141   0.939   6.744   4.493
 2081SOL    HW1 7142   0.926   6.842   4.477
 2081SOL    HW2 7143   0.857   6.694   4.466
 2082SOL     OW 7144   0.704   6.466   3.234
 2082SOL    HW1 7145   0.755   6.408   3.298
 2082SOL    HW2 7146   0.768   6.514   3.174
 2083SOL     OW 7147   1.404   5.869   5.305
 2083SOL    HW1 7148   1.382   5.811   5.383
 2083SOL    HW2 7149   1.502   5.887   5.304
 2084SOL     OW 7150   0.544   3.870   2.856
 2084SOL    HW1 7151   0.560   3.948   2.795
 2084SOL    HW2 7152   0.490   3.800   2.808
 2085SOL     OW 7153   5.085   0.396   1.202
 2085SOL    HW1 7154   5.105   0.452   1.122
 2085SOL    HW2 7155   5.171   0.369   1.246
 2086SOL     OW 7156   3.391   6.288   6.828
 2086SOL    HW1 7157   3.363   6.314   6.736
 2086SOL    HW2 7158   3.467   6.223   6.823
 2087SOL     OW 7159   4.958   1.260   1.767
 2087SOL    HW1 7160   4.880   1.267   1.705
 2087SOL    HW2 7161   5.022   1.335   1.749
 2088SOL     OW 7162   1.109   6.041   6.733
 2088SOL    HW1 7163   1.139   5.957   6.687
 2088SOL    HW2 7164   1.042   6.018   6.803
 2089SOL     OW 7165   4.819   2.856   6.151
 2089SOL    HW1 7166   4.896   2.815   6.102
 2089SOL    HW2 7167   4.846   2.876   6.245
 2090SOL     OW 7168   4.524   3.185   5.754
 2090SOL    HW1 7169   4.565   3.264   5.800
 2090SOL    HW2 7170   4.590   3.109   5.755
 2091SOL     OW 7171   6.969   4.826   0.950
 2091SOL    HW1 7172   6.950   4.790   1.041
 2091SOL    HW2 7173   6.896   4.797   0.887
 2092SOL     OW 7174   5.272   3.563   0.493
 2092SOL    HW1 7175   5.207   3.512   0.549
 2092SOL    HW2 7176   5.358   3.573   0.543
 2093SOL     OW 7177   3.086   2.232   1.754
 2093SOL    HW1 7178   3.043   2.231   1.664
 2093SOL    HW2 7179   3.055   2.312   1.805
 2094SOL     OW 7180   5.554   1.648   1.587
 2094SOL    HW1 7181   5.607   1.715   1.535
 2094SOL    HW2 7182   5.474   1.619   1.533
 2095SOL     OW 7183   5.980   6.351   4.529
 2095SOL    HW1 7184   6.014   6.443   4.546
 2095SOL    HW2 7185   5.892   6.356   4.482
 2096SOL     OW 7186   4.636   5.455   3.383
 2096SOL    HW1 7187   4.575   5.415   3.451
 2096SOL    HW2 7188   4.728   5.465   3.423
 2097SOL     OW 7189   3.120   2.909   6.667
 2097SOL    HW1 7190   3.119   2.929   6.766
 2097SOL    HW2 7191   3.058   2.973   6.620
 2098SOL     OW 7192   4.478   6.020   2.141
 2098SOL    HW1 7193   4.451   5.934   2.185
 2098SOL    HW2 7194   4.470   6.011   2.042
 2099SOL     OW 7195   3.729   1.620   0.192
 2099SOL    HW1 7196   3.632   1.630   0.216
 2099SOL    HW2 7197   3.736   1.566   0.108
 2100SOL     OW 7198   6.171   1.665   0.581
 2100SOL    HW1 7199   6.171   1.673   0.681
 2100SOL    HW2 7200   6.110   1.734   0.543
 2101SOL     OW 7201   0.337   6.642   1.038
 2101SOL    HW1 7202   0.302   6.716   1.095
 2101SOL    HW2 7203   0.260   6.586   1.005
 2102SOL     OW 7204   5.228   3.534   2.134
 2102SOL    HW1 7205   5.279   3.620   2.145
 2102SOL    HW2 7206   5.166   3.541   2.057
 2103SOL     OW 7207   3.232   3.252   6.987
 2103SOL    HW1 7208   3.270   3.266   6.896
 2103SOL    HW2 7209   3.292   3.294   0.032
 2104SOL     OW 7210   1.420   4.584   2.255
 2104SOL    HW1 7211   1.416   4.485   2.244
 2104SOL    HW2 7212   1.498   4.620   2.204
 2105SOL     OW 7213   4.555   5.103   6.270
 2105SOL    HW1 7214   4.529   5.046   6.348
 2105SOL    HW2 7215   4.651   5.085   6.248
 2106SOL     OW 7216   4.999   3.971   1.770
 2106SOL    HW1 7217   5.027   4.005   1.681
 2106SOL    HW2 7218   4.974   3.874   1.763
 2107SOL     OW 7219   5.933   2.324   5.547
 2107SOL    HW1 7220   5.948   2.340   5.449
 2107SOL    HW2 7221   5.944   2.410   5.597
 2108SOL     OW 7222   6.456   5.403   5.287
 2108SOL    HW1 7223   6.504   5.470   5.231
 2108SOL    HW2 7224   6.427   5.445   5.373
 2109SOL     OW 7225   3.764   5.993   2.548
 2109SOL    HW1 7226   3.684   6.030   2.501
 2109SOL    HW2 7227   3.832   5.966   2.480
 2110SOL     OW 7228   3.246   0.697   0.414
 2110SOL    HW1 7229   3.151   0.667   0.417
 2110SOL    HW2 7230   3.286   0.688   0.505
 2111SOL     OW 7231   2.333   3.789   6.363
 2111SOL    HW1 7232   2.282   3.783   6.277
 2111SOL    HW2 7233   2.285   3.849   6.427
 2112SOL     OW 7234   5.024   1.906   0.656
 2112SOL    HW1 7235   5.061   1.813   0.654
 2112SOL    HW2 7236   4.971   1.923   0.573
 2113SOL     OW 7237   2.466   1.124   5.085
 2113SOL    HW1 7238   2.403   1.047   5.075
 2113SOL    HW2 7239   2.441   1.196   5.019
 2114SOL     OW 7240   2.704   1.966   6.451
 2114SOL    HW1 7241   2.667   1.875   6.432
 2114SOL    HW2 7242   2.643   2.036   6.413
 2115SOL     OW 7243   0.737   4.197   2.126
 2115SOL    HW1 7244   0.663   4.200   2.059
 2115SOL    HW2 7245   0.724   4.119   2.187
 2116SOL     OW 7246   1.162   3.228   2.362
 2116SOL    HW1 7247   1.092   3.299   2.365
 2116SOL    HW2 7248   1.127   3.148   2.313
 2117SOL     OW 7249   6.109   3.916   1.474
 2117SOL    HW1 7250   6.198   3.943   1.512
 2117SOL    HW2 7251   6.075   3.835   1.521
 2118SOL     OW 7252   6.911   3.228   3.542
 2118SOL    HW1 7253   6.849   3.300   3.574
 2118SOL    HW2 7254   6.862   3.140   3.541
 2119SOL     OW 7255   1.986   0.857   1.114
 2119SOL    HW1 7256   2.051   0.920   1.072
 2119SOL    HW2 7257   2.032   0.770   1.132
 2120SOL     OW 7258   0.355   3.639   2.735
 2120SOL    HW1 7259   0.375   3.541   2.737
 2120SOL    HW2 7260   0.256   3.653   2.741
 2121SOL     OW 7261   1.582   2.566   5.770
 2121SOL    HW1 7262   1.581   2.563   5.870
 2121SOL    HW2 7263   1.612   2.478   5.734
 2122SOL     OW 7264   5.245   6.118   6.899
 2122SOL    HW1 7265   5.186   6.095   6.821
 2122SOL    HW2 7266   5.207   6.078   6.983
 2123SOL     OW 7267   6.496   5.920   1.374
 2123SOL    HW1 7268   6.525   5.989   1.308
 2123SOL    HW2 7269   6.396   5.921   1.382
 2124SOL     OW 7270   2.635   1.658   0.086
 2124SOL    HW1 7271   2.606   1.642   0.181
 2124SOL    HW2 7272   2.709   1.596   0.063
 2125SOL     OW 7273   0.923   5.988   1.833
 2125SOL    HW1 7274   0.906   5.956   1.927
 2125SOL    HW2 7275   0.986   5.924   1.787
 2126SOL     OW 7276   3.361   2.646   6.838
 2126SOL    HW1 7277   3.460   2.659   6.835
 2126SOL    HW2 7278   3.323   2.659   6.746
 2127SOL     OW 7279   0.694   1.691   5.267
 2127SOL    HW1 7280   0.791   1.684   5.243
 2127SOL    HW2 7281   0.663   1.605   5.308
 2128SOL     OW 7282   6.260   2.232   2.222
 2128SOL    HW1 7283   6.174   2.247   2.173
 2128SOL    HW2 7284   6.279   2.134   2.227
 2129SOL     OW 7285   4.596   4.600   5.108
 2129SOL    HW1 7286   4.513   4.598   5.052
 2129SOL    HW2 7287   4.597   4.684   5.162
 2130SOL     OW 7288   2.815   0.623   2.234
 2130SOL    HW1 7289   2.836   0.614   2.136
 2130SOL    HW2 7290   2.895   0.658   2.282
 2131SOL     OW 7291   5.204   0.907   0.582
 2131SOL    HW1 7292   5.235   0.813   0.581
 2131SOL    HW2 7293   5.240   0.956   0.502
 2132SOL     OW 7294   3.165   1.761   6.883
 2132SOL    HW1 7295   3.101   1.772   6.960
 2132SOL    HW2 7296   3.113   1.741   6.800
 2133SOL     OW 7297   3.511   2.641   1.264
 2133SOL    HW1 7298   3.456   2.625   1.346
 2133SOL    HW2 7299   3.567   2.723   1.277
 2134SOL     OW 7300   0.941   0.939   4.735
 2134SOL    HW1 7301   0.999   1.008   4.777
 2134SOL    HW2 7302   0.971   0.848   4.763
 2135SOL     OW 7303   0.838   1.490   4.362
 2135SOL    HW1 7304   0.906   1.558   4.387
 2135SOL    HW2 7305   0.883   1.403   4.343
 2136SOL     OW 7306   1.401   4.077   4.890
 2136SOL    HW1 7307   1.381   4.111   4.798
 2136SOL    HW2 7308   1.358   4.138   4.957
 2137SOL     OW 7309   6.959   6.562   4.088
 2137SOL    HW1 7310   6.936   6.637   4.149
 2137SOL    HW2 7311   7.013   6.596   4.011
 2138SOL     OW 7312   6.581   1.784   2.047
 2138SOL    HW1 7313   6.616   1.749   1.961
 2138SOL    HW2 7314   6.587   1.714   2.118
 2139SOL     OW 7315   4.239   0.695   2.552
 2139SOL    HW1 7316   4.223   0.670   2.457
 2139SOL    HW2 7317   4.188   0.779   2.573
 2140SOL     OW 7318   3.131   5.833   3.225
 2140SOL    HW1 7319   3.200   5.804   3.158
 2140SOL    HW2 7320   3.039   5.819   3.186
 2141SOL     OW 7321   0.296   3.616   1.219
 2141SOL    HW1 7322   0.263   3.612   1.313
 2141SOL    HW2 7323   0.298   3.711   1.188
 2142SOL     OW 7324   1.437   2.059   2.814
 2142SOL    HW1 7325   1.358   2.099   2.767
 2142SOL    HW2 7326   1.406   2.007   2.893
 2143SOL     OW 7327   3.225   4.837   0.782
 2143SOL    HW1 7328   3.141   4.831   0.837
 2143SOL    HW2 7329   3.295   4.778   0.823
 2144SOL     OW 7330   1.252   0.298   2.799
 2144SOL    HW1 7331   1.256   0.295   2.899
 2144SOL    HW2 7332   1.162   0.268   2.768
 2145SOL     OW 7333   3.774   5.638   3.774
 2145SOL    HW1 7334   3.754   5.616   3.869
 2145SOL    HW2 7335   3.712   5.709   3.741
 2146SOL     OW 7336   3.040   3.786   2.056
 2146SOL    HW1 7337   3.059   3.830   1.969
 2146SOL    HW2 7338   3.026   3.688   2.042
 2147SOL     OW 7339   6.872   0.374   6.846
 2147SOL    HW1 7340   6.832   0.461   6.875
 2147SOL    HW2 7341   6.800   0.309   6.824
 2148SOL     OW 7342   5.101   2.888   4.379
 2148SOL    HW1 7343   5.057   2.844   4.458
 2148SOL    HW2 7344   5.171   2.827   4.342
 2149SOL     OW 7345   3.790   0.852   1.301
 2149SOL    HW1 7346   3.693   0.860   1.279
 2149SOL    HW2 7347   3.802   0.783   1.372
 2150SOL     OW 7348   2.070   2.428   2.693
 2150SOL    HW1 7349   2.061   2.525   2.669
 2150SOL    HW2 7350   1.987   2.380   2.666
 2151SOL     OW 7351   2.059   1.239   3.919
 2151SOL    HW1 7352   2.081   1.293   3.837
 2151SOL    HW2 7353   1.960   1.234   3.930
 2152SOL     OW 7354   3.666   6.054   0.939
 2152SOL    HW1 7355   3.703   6.127   0.996
 2152SOL    HW2 7356   3.669   5.968   0.991
 2153SOL     OW 7357   3.647   0.107   3.435
 2153SOL    HW1 7358   3.672   0.124   3.340
 2153SOL    HW2 7359   3.574   0.170   3.462
 2154SOL     OW 7360   4.515   0.266   4.659
 2154SOL    HW1 7361   4.532   0.343   4.598
 2154SOL    HW2 7362   4.426   0.277   4.704
 2155SOL     OW 7363   1.579   5.391   0.002
 2155SOL    HW1 7364   1.511   5.459   7.000
 2155SOL    HW2 7365   1.670   5.422   6.997
 2156SOL     OW 7366   2.624   0.373   2.228
 2156SOL    HW1 7367   2.705   0.431   2.216
 2156SOL    HW2 7368   2.572   0.405   2.307
 2157SOL     OW 7369   6.223   1.568   3.452
 2157SOL    HW1 7370   6.301   1.508   3.437
 2157SOL    HW2 7371   6.174   1.583   3.366
 2158SOL     OW 7372   4.540   6.193   0.969
 2158SOL    HW1 7373   4.591   6.203   0.884
 2158SOL    HW2 7374   4.473   6.120   0.959
 2159SOL     OW 7375   1.759   5.750   5.684
 2159SOL    HW1 7376   1.735   5.772   5.778
 2159SOL    HW2 7377   1.840   5.691   5.683
 2160SOL     OW 7378   4.573   3.058   1.515
 2160SOL    HW1 7379   4.616   3.084   1.601
 2160SOL    HW2 7380   4.604   3.119   1.442
 2161SOL     OW 7381   5.425   2.470   3.511
 2161SOL    HW1 7382   5.436   2.409   3.432
 2161SOL    HW2 7383   5.386   2.557   3.481
 2162SOL     OW 7384   3.316   0.412   0.005
 2162SOL    HW1 7385   3.319   0.355   0.087
 2162SOL    HW2 7386   3.396   0.393   6.971
 2163SOL     OW 7387   0.108   5.451   6.290
 2163SOL    HW1 7388   0.167   5.393   6.346
 2163SOL    HW2 7389   0.143   5.453   6.196
 2164SOL     OW 7390   1.418   2.294   6.993
 2164SOL    HW1 7391   1.502   2.311   6.941
 2164SOL    HW2 7392   1.438   2.231   0.045
 2165SOL     OW 7393   1.018   1.352   2.618
 2165SOL    HW1 7394   0.958   1.432   2.610
 2165SOL    HW2 7395   1.114   1.381   2.612
 2166SOL     OW 7396   2.219   2.211   5.380
 2166SOL    HW1 7397   2.307   2.198   5.425
 2166SOL    HW2 7398   2.150   2.152   5.425
 2167SOL     OW 7399   1.965   1.141   3.501
 2167SOL    HW1 7400   1.880   1.189   3.477
 2167SOL    HW2 7401   2.024   1.202   3.553
 2168SOL     OW 7402   6.792   2.178   3.671
 2168SOL    HW1 7403   6.752   2.195   3.581
 2168SOL    HW2 7404   6.725   2.134   3.730
 2169SOL     OW 7405   5.831   2.412   5.858
 2169SOL    HW1 7406   5.887   2.467   5.796
 2169SOL    HW2 7407   5.866   2.422   5.951
 2170SOL     OW 7408   6.203   4.812   5.875
 2170SOL    HW1 7409   6.206   4.790   5.972
 2170SOL    HW2 7410   6.296   4.829   5.843
 2171SOL     OW 7411   5.992   3.325   0.651
 2171SOL    HW1 7412   5.908   3.352   0.698
 2171SOL    HW2 7413   5.978   3.237   0.606
 2172SOL     OW 7414   2.428   1.798   0.575
 2172SOL    HW1 7415   2.360   1.853   0.527
 2172SOL    HW2 7416   2.460   1.724   0.516
 2173SOL     OW 7417   3.669   0.039   5.546
 2173SOL    HW1 7418   3.751   7.013   5.573
 2173SOL    HW2 7419   3.673   0.133   5.579
 2174SOL     OW 7420   6.131   5.087   5.897
 2174SOL    HW1 7421   6.036   5.106   5.922
 2174SOL    HW2 7422   6.143   4.989   5.884
 2175SOL     OW 7423   3.167   2.089   3.120
 2175SOL    HW1 7424   3.162   2.004   3.067
 2175SOL    HW2 7425   3.262   2.106   3.147
 2176SOL     OW 7426   0.965   2.651   1.162
 2176SOL    HW1 7427   1.019   2.677   1.242
 2176SOL    HW2 7428   0.888   2.595   1.191
 2177SOL     OW 7429   6.096   0.749   2.759
 2177SOL    HW1 7430   6.096   0.848   2.741
 2177SOL    HW2 7431   6.027   0.705   2.702
 2178SOL     OW 7432   2.190   4.295   0.432
 2178SOL    HW1 7433   2.191   4.215   0.492
 2178SOL    HW2 7434   2.279   4.342   0.437
 2179SOL     OW 7435   2.157   5.278   4.920
 2179SOL    HW1 7436   2.119   5.196   4.962
 2179SOL    HW2 7437   2.156   5.268   4.820
 2180SOL     OW 7438   3.084   3.490   1.875
 2180SOL    HW1 7439   3.079   3.548   1.794
 2180SOL    HW2 7440   3.160   3.521   1.933
 2181SOL     OW 7441   5.088   4.644   5.715
 2181SOL    HW1 7442   5.149   4.590   5.773
 2181SOL    HW2 7443   5.056   4.724   5.765
 2182SOL     OW 7444   6.556   3.307   4.726
 2182SOL    HW1 7445   6.494   3.320   4.804
 2182SOL    HW2 7446   6.644   3.350   4.747
 2183SOL     OW 7447   3.556   3.774   6.248
 2183SOL    HW1 7448   3.604   3.703   6.196
 2183SOL    HW2 7449   3.538   3.852   6.188
 2184SOL     OW 7450   3.851   1.247   5.258
 2184SOL    HW1 7451   3.895   1.336   5.263
 2184SOL    HW2 7452   3.823   1.217   5.349
 2185SOL     OW 7453   1.491   2.343   0.902
 2185SOL    HW1 7454   1.401   2.301   0.904
 2185SOL    HW2 7455   1.540   2.314   0.820
 2186SOL     OW 7456   6.915   4.827   2.508
 2186SOL    HW1 7457   7.010   4.842   2.481
 2186SOL    HW2 7458   6.874   4.757   2.450
 2187SOL     OW 7459   0.803   1.717   1.798
 2187SOL    HW1 7460   0.774   1.780   1.869
 2187SOL    HW2 7461   0.725   1.693   1.740
 2188SOL     OW 7462   5.621   5.843   3.851
 2188SOL    HW1 7463   5.667   5.811   3.768
 2188SOL    HW2 7464   5.527   5.811   3.852
 2189SOL     OW 7465   1.734   6.206   6.644
 2189SOL    HW1 7466   1.820   6.252   6.624
 2189SOL    HW2 7467   1.715   6.137   6.574
 2190SOL     OW 7468   6.867   2.383   1.753
 2190SOL    HW1 7469   6.881   2.416   1.659
 2190SOL    HW2 7470   6.900   2.288   1.760
 2191SOL     OW 7471   3.182   1.700   5.934
 2191SOL    HW1 7472   3.197   1.671   6.028
 2191SOL    HW2 7473   3.092   1.744   5.926
 2192SOL     OW 7474   3.574   0.070   4.068
 2192SOL    HW1 7475   3.515   0.002   4.026
 2192SOL    HW2 7476   3.519   0.147   4.101
 2193SOL     OW 7477   6.860   6.438   6.278
 2193SOL    HW1 7478   6.816   6.489   6.203
 2193SOL    HW2 7479   6.859   6.340   6.257
 2194SOL     OW 7480   2.371   4.422   0.043
 2194SOL    HW1 7481   2.336   4.490   7.002
 2194SOL    HW2 7482   2.468   4.406   0.026
 2195SOL     OW 7483   0.524   6.414   2.633
 2195SOL    HW1 7484   0.619   6.400   2.663
 2195SOL    HW2 7485   0.462   6.368   2.697
 2196SOL     OW 7486   2.973   0.454   5.896
 2196SOL    HW1 7487   3.052   0.395   5.880
 2196SOL    HW2 7488   2.983   0.539   5.845
 2197SOL     OW 7489   4.658   3.677   1.502
 2197SOL    HW1 7490   4.698   3.588   1.481
 2197SOL    HW2 7491   4.567   3.665   1.541
 2198SOL     OW 7492   6.634   1.861   0.014
 2198SOL    HW1 7493   6.559   1.887   0.074
 2198SOL    HW2 7494   6.703   1.933   0.013
 2199SOL     OW 7495   5.497   0.882   1.647
 2199SOL    HW1 7496   5.453   0.899   1.735
 2199SOL    HW2 7497   5.551   0.798   1.652
 2200SOL     OW 7498   4.181   0.555   4.845
 2200SOL    HW1 7499   4.278   0.576   4.831
 2200SOL    HW2 7500   4.156   0.574   4.940
 2201SOL     OW 7501   6.671   2.896   2.196
 2201SOL    HW1 7502   6.685   2.856   2.287
 2201SOL    HW2 7503   6.573   2.900   2.177
 2202SOL     OW 7504   3.608   5.070   4.423
 2202SOL    HW1 7505   3.627   4.983   4.378
 2202SOL    HW2 7506   3.639   5.066   4.518
 2203SOL     OW 7507   2.195   2.586   2.306
 2203SOL    HW1 7508   2.227   2.510   2.364
 2203SOL    HW2 7509   2.095   2.584   2.302
 2204SOL     OW 7510   3.444   1.404   6.959
 2204SOL    HW1 7511   3.398   1.344   0.001
 2204SOL    HW2 7512   3.541   1.409   6.983
 2205SOL     OW 7513   1.517   0.044   6.552
 2205SOL    HW1 7514   1.616   0.030   6.553
 2205SOL    HW2 7515   1.487   0.061   6.458
 2206SOL     OW 7516   3.042   4.408   5.342
 2206SOL    HW1 7517   2.970   4.440   5.280
 2206SOL    HW2 7518   3.007   4.331   5.395
 2207SOL     OW 7519   1.943   4.057   6.250
 2207SOL    HW1 7520   1.965   4.005   6.332
 2207SOL    HW2 7521   1.999   4.023   6.174
 2208SOL     OW 7522   1.621   4.621   2.098
 2208SOL    HW1 7523   1.594   4.696   2.037
 2208SOL    HW2 7524   1.720   4.625   2.113
 2209SOL     OW 7525   1.407   5.948   5.836
 2209SOL    HW1 7526   1.434   5.987   5.748
 2209SOL    HW2 7527   1.310   5.964   5.851
 2210SOL     OW 7528   0.256   5.091   3.734
 2210SOL    HW1 7529   0.305   5.032   3.670
 2210SOL    HW2 7530   0.322   5.134   3.796
 2211SOL     OW 7531   5.749   1.541   7.004
 2211SOL    HW1 7532   5.664   1.587   0.008
 2211SOL    HW2 7533   5.814   1.609   6.970
 2212SOL     OW 7534   1.786   6.271   0.691
 2212SOL    HW1 7535   1.771   6.242   0.785
 2212SOL    HW2 7536   1.715   6.232   0.633
 2213SOL     OW 7537   4.316   2.678   5.625
 2213SOL    HW1 7538   4.259   2.597   5.610
 2213SOL    HW2 7539   4.388   2.680   5.556
 2214SOL     OW 7540   4.775   1.147   5.256
 2214SOL    HW1 7541   4.695   1.109   5.303
 2214SOL    HW2 7542   4.844   1.075   5.245
 2215SOL     OW 7543   6.971   1.705   6.042
 2215SOL    HW1 7544   0.027   1.652   6.071
 2215SOL    HW2 7545   6.999   1.798   6.021
 2216SOL     OW 7546   1.766   0.384   0.051
 2216SOL    HW1 7547   1.685   0.326   0.061
 2216SOL    HW2 7548   1.826   0.370   0.130
 2217SOL     OW 7549   2.928   0.155   1.698
 2217SOL    HW1 7550   2.922   0.255   1.700
 2217SOL    HW2 7551   2.841   0.117   1.668
 2218SOL     OW 7552   1.430   6.522   0.711
 2218SOL    HW1 7553   1.431   6.555   0.805
 2218SOL    HW2 7554   1.466   6.593   0.650
 2219SOL     OW 7555   1.002   4.287   3.384
 2219SOL    HW1 7556   1.100   4.278   3.399
 2219SOL    HW2 7557   0.985   4.357   3.315
 2220SOL     OW 7558   0.406   1.159   4.290
 2220SOL    HW1 7559   0.315   1.136   4.324
 2220SOL    HW2 7560   0.467   1.081   4.305
 2221SOL     OW 7561   6.604   0.881   6.832
 2221SOL    HW1 7562   6.582   0.854   6.926
 2221SOL    HW2 7563   6.699   0.910   6.827
 2222SOL     OW 7564   3.816   0.394   0.469
 2222SOL    HW1 7565   3.883   0.419   0.399
 2222SOL    HW2 7566   3.747   0.465   0.475
 2223SOL     OW 7567   5.686   6.618   3.864
 2223SOL    HW1 7568   5.739   6.673   3.800
 2223SOL    HW2 7569   5.702   6.521   3.846
 2224SOL     OW 7570   2.326   4.564   1.711
 2224SOL    HW1 7571   2.381   4.545   1.792
 2224SOL    HW2 7572   2.380   4.617   1.645
 2225SOL     OW 7573   6.131   5.419   3.170
 2225SOL    HW1 7574   6.205   5.359   3.139
 2225SOL    HW2 7575   6.144   5.510   3.131
 2226SOL     OW 7576   4.297   3.278   0.570
 2226SOL    HW1 7577   4.242   3.230   0.639
 2226SOL    HW2 7578   4.343   3.211   0.512
 2227SOL     OW 7579   5.779   4.243   0.362
 2227SOL    HW1 7580   5.792   4.276   0.456
 2227SOL    HW2 7581   5.758   4.320   0.303
 2228SOL     OW 7582   3.249   5.812   0.677
 2228SOL    HW1 7583   3.285   5.728   0.637
 2228SOL    HW2 7584   3.254   5.807   0.777
 2229SOL     OW 7585   4.105   1.502   4.266
 2229SOL    HW1 7586   4.124   1.446   4.347
 2229SOL    HW2 7587   4.190   1.542   4.232
 2230SOL     OW 7588   0.724   6.572   4.445
 2230SOL    HW1 7589   0.676   6.567   4.532
 2230SOL    HW2 7590   0.701   6.493   4.389
 2231SOL     OW 7591   1.622   1.873   1.620
 2231SOL    HW1 7592   1.567   1.791   1.605
 2231SOL    HW2 7593   1.717   1.847   1.639
 2232SOL     OW 7594   0.983   2.814   3.810
 2232SOL    HW1 7595   1.049   2.759   3.759
 2232SOL    HW2 7596   0.933   2.874   3.748
 2233SOL     OW 7597   3.265   4.578   0.458
 2233SOL    HW1 7598   3.239   4.674   0.467
 2233SOL    HW2 7599   3.195   4.520   0.500
 2234SOL     OW 7600   4.700   2.173   1.424
 2234SOL    HW1 7601   4.637   2.098   1.442
 2234SOL    HW2 7602   4.790   2.136   1.400
 2235SOL     OW 7603   1.474   0.190   0.467
 2235SOL    HW1 7604   1.483   0.269   0.528
 2235SOL    HW2 7605   1.558   0.178   0.415
 2236SOL     OW 7606   1.286   4.703   0.551
 2236SOL    HW1 7607   1.263   4.774   0.617
 2236SOL    HW2 7608   1.315   4.621   0.600
 2237SOL     OW 7609   5.908   4.087   4.436
 2237SOL    HW1 7610   5.821   4.069   4.390
 2237SOL    HW2 7611   5.934   4.006   4.490
 2238SOL     OW 7612   6.588   5.370   2.859
 2238SOL    HW1 7613   6.553   5.311   2.786
 2238SOL    HW2 7614   6.513   5.394   2.921
 2239SOL     OW 7615   3.776   5.127   3.556
 2239SOL    HW1 7616   3.694   5.184   3.553
 2239SOL    HW2 7617   3.849   5.176   3.602
 2240SOL     OW 7618   5.537   5.449   3.875
 2240SOL    HW1 7619   5.635   5.471   3.872
 2240SOL    HW2 7620   5.525   5.350   3.881
 2241SOL     OW 7621   0.160   6.661   2.359
 2241SOL    HW1 7622   0.222   6.667   2.281
 2241SOL    HW2 7623   0.197   6.598   2.427
 2242SOL     OW 7624   5.306   2.147   3.372
 2242SOL    HW1 7625   5.309   2.233   3.323
 2242SOL    HW2 7626   5.382   2.089   3.344
 2243SOL     OW 7627   2.944   6.135   5.220
 2243SOL    HW1 7628   2.883   6.172   5.290
 2243SOL    HW2 7629   2.893   6.075   5.159
 2244SOL     OW 7630   3.736   0.471   2.818
 2244SOL    HW1 7631   3.641   0.469   2.788
 2244SOL    HW2 7632   3.795   0.497   2.742
 2245SOL     OW 7633   0.378   2.101   1.374
 2245SOL    HW1 7634   0.431   2.021   1.401
 2245SOL    HW2 7635   0.357   2.095   1.276
 2246SOL     OW 7636   1.398   1.557   5.262
 2246SOL    HW1 7637   1.398   1.478   5.200
 2246SOL    HW2 7638   1.452   1.536   5.344
 2247SOL     OW 7639   2.189   2.644   6.621
 2247SOL    HW1 7640   2.161   2.739   6.607
 2247SOL    HW2 7641   2.281   2.631   6.584
 2248SOL     OW 7642   4.768   3.778   5.673
 2248SOL    HW1 7643   4.773   3.878   5.668
 2248SOL    HW2 7644   4.801   3.748   5.762
 2249SOL     OW 7645   5.528   6.397   2.772
 2249SOL    HW1 7646   5.473   6.480   2.784
 2249SOL    HW2 7647   5.492   6.325   2.831
 2250SOL     OW 7648   5.443   3.677   1.297
 2250SOL    HW1 7649   5.494   3.751   1.252
 2250SOL    HW2 7650   5.347   3.703   1.308
 2251SOL     OW 7651   5.879   1.771   0.244
 2251SOL    HW1 7652   5.964   1.823   0.247
 2251SOL    HW2 7653   5.863   1.739   0.150
 2252SOL     OW 7654   6.402   2.499   4.504
 2252SOL    HW1 7655   6.340   2.574   4.483
 2252SOL    HW2 7656   6.354   2.412   4.495
 2253SOL     OW 7657   1.223   3.185   6.572
 2253SOL    HW1 7658   1.149   3.181   6.638
 2253SOL    HW2 7659   1.222   3.102   6.516
 2254SOL     OW 7660   2.341   2.967   5.906
 2254SOL    HW1 7661   2.422   2.950   5.850
 2254SOL    HW2 7662   2.333   2.895   5.976
 2255SOL     OW 7663   6.450   2.435   0.766
 2255SOL    HW1 7664   6.424   2.528   0.791
 2255SOL    HW2 7665   6.549   2.424   0.777
 2256SOL     OW 7666   4.176   5.788   1.630
 2256SOL    HW1 7667   4.248   5.809   1.563
 2256SOL    HW2 7668   4.091   5.768   1.582
 2257SOL     OW 7669   0.795   2.867   4.714
 2257SOL    HW1 7670   0.882   2.913   4.698
 2257SOL    HW2 7671   0.790   2.784   4.659
 2258SOL     OW 7672   1.050   5.861   4.770
 2258SOL    HW1 7673   1.020   5.767   4.753
 2258SOL    HW2 7674   1.064   5.874   4.868
 2259SOL     OW 7675   4.752   3.479   6.006
 2259SOL    HW1 7676   4.816   3.545   5.965
 2259SOL    HW2 7677   4.670   3.473   5.949
 2260SOL     OW 7678   4.229   4.788   3.026
 2260SOL    HW1 7679   4.324   4.800   3.055
 2260SOL    HW2 7680   4.173   4.764   3.106
 2261SOL     OW 7681   6.008   6.845   1.066
 2261SOL    HW1 7682   6.030   6.757   1.109
 2261SOL    HW2 7683   6.025   6.919   1.130
 2262SOL     OW 7684   5.767   2.613   2.541
 2262SOL    HW1 7685   5.811   2.531   2.580
 2262SOL    HW2 7686   5.805   2.631   2.451
 2263SOL     OW 7687   2.627   5.650   6.295
 2263SOL    HW1 7688   2.592   5.556   6.286
 2263SOL    HW2 7689   2.594   5.705   6.218
 2264SOL     OW 7690   3.413   3.925   2.619
 2264SOL    HW1 7691   3.384   3.986   2.545
 2264SOL    HW2 7692   3.389   3.831   2.596
 2265SOL     OW 7693   0.082   0.589   3.441
 2265SOL    HW1 7694   0.135   0.584   3.357
 2265SOL    HW2 7695   0.010   0.657   3.431
 2266SOL     OW 7696   6.753   1.403   1.073
 2266SOL    HW1 7697   6.853   1.400   1.068
 2266SOL    HW2 7698   6.714   1.354   0.995
 2267SOL     OW 7699   5.648   2.864   4.939
 2267SOL    HW1 7700   5.677   2.875   4.844
 2267SOL    HW2 7701   5.562   2.913   4.954
 2268SOL     OW 7702   6.726   4.821   0.402
 2268SOL    HW1 7703   6.647   4.767   0.375
 2268SOL    HW2 7704   6.703   4.918   0.399
 2269SOL     OW 7705   6.243   5.828   5.374
 2269SOL    HW1 7706   6.158   5.827   5.426
 2269SOL    HW2 7707   6.231   5.884   5.292
 2270SOL     OW 7708   3.977   3.911   0.355
 2270SOL    HW1 7709   4.021   3.991   0.314
 2270SOL    HW2 7710   4.038   3.871   0.424
 2271SOL     OW 7711   6.432   3.987   1.305
 2271SOL    HW1 7712   6.429   4.056   1.377
 2271SOL    HW2 7713   6.393   4.025   1.221
 2272SOL     OW 7714   6.352   1.978   4.767
 2272SOL    HW1 7715   6.267   1.994   4.817
 2272SOL    HW2 7716   6.369   1.879   4.760
 2273SOL     OW 7717   1.512   1.710   1.900
 2273SOL    HW1 7718   1.579   1.637   1.918
 2273SOL    HW2 7719   1.478   1.700   1.806
 2274SOL     OW 7720   1.086   3.143   5.862
 2274SOL    HW1 7721   1.154   3.216   5.876
 2274SOL    HW2 7722   0.994   3.181   5.869
 2275SOL     OW 7723   5.006   6.877   4.977
 2275SOL    HW1 7724   5.021   6.976   4.973
 2275SOL    HW2 7725   4.956   6.847   4.896
 2276SOL     OW 7726   3.322   5.157   1.442
 2276SOL    HW1 7727   3.238   5.210   1.452
 2276SOL    HW2 7728   3.299   5.060   1.435
 2277SOL     OW 7729   2.920   3.683   4.926
 2277SOL    HW1 7730   2.837   3.694   4.981
 2277SOL    HW2 7731   2.987   3.628   4.976
 2278SOL     OW 7732   4.898   6.715   3.740
 2278SOL    HW1 7733   4.920   6.765   3.656
 2278SOL    HW2 7734   4.899   6.617   3.722
 2279SOL     OW 7735   5.467   5.229   4.474
 2279SOL    HW1 7736   5.481   5.137   4.438
 2279SOL    HW2 7737   5.433   5.289   4.401
 2280SOL     OW 7738   5.781   6.217   4.974
 2280SOL    HW1 7739   5.801   6.123   5.001
 2280SOL    HW2 7740   5.785   6.224   4.874
 2281SOL     OW 7741   3.847   1.109   1.965
 2281SOL    HW1 7742   3.889   1.191   1.926
 2281SOL    HW2 7743   3.918   1.042   1.987
 2282SOL     OW 7744   5.490   6.489   5.169
 2282SOL    HW1 7745   5.487   6.506   5.267
 2282SOL    HW2 7746   5.397   6.480   5.133
 2283SOL     OW 7747   6.864   3.963   1.588
 2283SOL    HW1 7748   6.777   3.917   1.570
 2283SOL    HW2 7749   6.932   3.896   1.616
 2284SOL     OW 7750   2.131   1.616   0.606
 2284SOL    HW1 7751   2.085   1.654   0.686
 2284SOL    HW2 7752   2.064   1.571   0.547
 2285SOL     OW 7753   2.380   3.513   6.941
 2285SOL    HW1 7754   2.285   3.515   6.970
 2285SOL    HW2 7755   2.427   3.596   6.973
 2286SOL     OW 7756   6.369   6.486   4.866
 2286SOL    HW1 7757   6.424   6.440   4.796
 2286SOL    HW2 7758   6.395   6.451   4.956
 2287SOL     OW 7759   2.445   2.601   2.074
 2287SOL    HW1 7760   2.389   2.682   2.096
 2287SOL    HW2 7761   2.423   2.528   2.139
 2288SOL     OW 7762   6.572   5.696   4.494
 2288SOL    HW1 7763   6.607   5.789   4.507
 2288SOL    HW2 7764   6.639   5.642   4.442
 2289SOL     OW 7765   6.140   3.647   2.651
 2289SOL    HW1 7766   6.052   3.601   2.644
 2289SOL    HW2 7767   6.153   3.680   2.744
 2290SOL     OW 7768   2.188   4.019   2.050
 2290SOL    HW1 7769   2.207   4.051   1.957
 2290SOL    HW2 7770   2.221   4.087   2.116
 2291SOL     OW 7771   2.257   2.411   0.757
 2291SOL    HW1 7772   2.341   2.413   0.703
 2291SOL    HW2 7773   2.280   2.419   0.854
 2292SOL     OW 7774   5.129   2.976   3.904
 2292SOL    HW1 7775   5.182   3.057   3.880
 2292SOL    HW2 7776   5.169   2.933   3.985
 2293SOL     OW 7777   6.276   0.741   0.789
 2293SOL    HW1 7778   6.302   0.804   0.863
 2293SOL    HW2 7779   6.177   0.742   0.778
 2294SOL     OW 7780   3.305   1.947   5.944
 2294SOL    HW1 7781   3.370   1.941   5.869
 2294SOL    HW2 7782   3.272   1.855   5.967
 2295SOL     OW 7783   6.993   1.162   2.978
 2295SOL    HW1 7784   7.019   1.066   2.988
 2295SOL    HW2 7785   6.914   1.181   3.036
 2296SOL     OW 7786   2.238   5.351   3.146
 2296SOL    HW1 7787   2.262   5.408   3.067
 2296SOL    HW2 7788   2.309   5.359   3.216
 2297SOL     OW 7789   4.781   4.595   6.247
 2297SOL    HW1 7790   4.799   4.622   6.152
 2297SOL    HW2 7791   4.682   4.595   6.263
 2298SOL     OW 7792   3.662   3.486   3.551
 2298SOL    HW1 7793   3.721   3.493   3.471
 2298SOL    HW2 7794   3.566   3.487   3.523
 2299SOL     OW 7795   4.875   4.174   5.174
 2299SOL    HW1 7796   4.815   4.205   5.248
 2299SOL    HW2 7797   4.924   4.252   5.135
 2300SOL     OW 7798   3.181   6.963   3.496
 2300SOL    HW1 7799   3.195   6.950   3.398
 2300SOL    HW2 7800   3.084   6.950   3.517
 2301SOL     OW 7801   3.813   2.943   3.855
 2301SOL    HW1 7802   3.718   2.923   3.835
 2301SOL    HW2 7803   3.822   2.975   3.949
 2302SOL     OW 7804   3.232   0.301   1.398
 2302SOL    HW1 7805   3.315   0.253   1.426
 2302SOL    HW2 7806   3.231   0.310   1.298
 2303SOL     OW 7807   2.566   2.949   1.327
 2303SOL    HW1 7808   2.560   3.028   1.388
 2303SOL    HW2 7809   2.583   2.980   1.234
 2304SOL     OW 7810   5.384   5.680   3.871
 2304SOL    HW1 7811   5.287   5.658   3.863
 2304SOL    HW2 7812   5.435   5.597   3.896
 2305SOL     OW 7813   1.967   0.379   3.840
 2305SOL    HW1 7814   1.920   0.322   3.908
 2305SOL    HW2 7815   2.062   0.349   3.832
 2306SOL     OW 7816   1.330   5.290   2.083
 2306SOL    HW1 7817   1.302   5.240   2.165
 2306SOL    HW2 7818   1.415   5.251   2.048
 2307SOL     OW 7819   0.539   3.308   5.492
 2307SOL    HW1 7820   0.556   3.403   5.467
 2307SOL    HW2 7821   0.470   3.270   5.431
 2308SOL     OW 7822   2.948   4.516   1.006
 2308SOL    HW1 7823   2.860   4.485   0.971
 2308SOL    HW2 7824   2.933   4.585   1.077
 2309SOL     OW 7825   1.639   0.747   4.656
 2309SOL    HW1 7826   1.698   0.716   4.581
 2309SOL    HW2 7827   1.643   0.682   4.731
 2310SOL     OW 7828   5.734   5.887   2.605
 2310SOL    HW1 7829   5.685   5.963   2.562
 2310SOL    HW2 7830   5.800   5.924   2.671
 2311SOL     OW 7831   2.375   5.531   0.128
 2311SOL    HW1 7832   2.418   5.595   0.065
 2311SOL    HW2 7833   2.440   5.508   0.201
 2312SOL     OW 7834   4.136   5.711   3.513
 2312SOL    HW1 7835   4.094   5.685   3.426
 2312SOL    HW2 7836   4.109   5.804   3.536
 2313SOL     OW 7837   5.107   4.856   1.937
 2313SOL    HW1 7838   5.092   4.940   1.886
 2313SOL    HW2 7839   5.025   4.798   1.930
 2314SOL     OW 7840   3.746   6.850   2.979
 2314SOL    HW1 7841   3.777   6.773   3.035
 2314SOL    HW2 7842   3.817   6.920   2.976
 2315SOL     OW 7843   5.535   3.639   5.643
 2315SOL    HW1 7844   5.497   3.547   5.648
 2315SOL    HW2 7845   5.518   3.687   5.729
 2316SOL     OW 7846   5.045   2.222   3.472
 2316SOL    HW1 7847   5.127   2.169   3.492
 2316SOL    HW2 7848   5.037   2.297   3.538
 2317SOL     OW 7849   0.033   5.249   3.285
 2317SOL    HW1 7850   0.102   5.321   3.273
 2317SOL    HW2 7851   0.016   5.236   3.383
 2318SOL     OW 7852   0.570   2.982   3.680
 2318SOL    HW1 7853   0.647   3.043   3.700
 2318SOL    HW2 7854   0.501   3.032   3.628
 2319SOL     OW 7855   1.287   4.579   4.567
 2319SOL    HW1 7856   1.309   4.674   4.590
 2319SOL    HW2 7857   1.201   4.553   4.612
 2320SOL     OW 7858   0.522   2.729   4.434
 2320SOL    HW1 7859   0.577   2.682   4.503
 2320SOL    HW2 7860   0.447   2.778   4.479
 2321SOL     OW 7861   3.408   0.884   5.361
 2321SOL    HW1 7862   3.464   0.829   5.423
 2321SOL    HW2 7863   3.466   0.921   5.288
 2322SOL     OW 7864   2.071   1.940   5.467
 2322SOL    HW1 7865   2.073   1.844   5.440
 2322SOL    HW2 7866   1.998   1.987   5.417
 2323SOL     OW 7867   2.630   4.870   2.345
 2323SOL    HW1 7868   2.627   4.813   2.264
 2323SOL    HW2 7869   2.544   4.861   2.396
 2324SOL     OW 7870   0.198   6.006   2.770
 2324SOL    HW1 7871   0.298   6.001   2.772
 2324SOL    HW2 7872   0.160   5.962   2.852
 2325SOL     OW 7873   1.393   3.705   1.801
 2325SOL    HW1 7874   1.412   3.616   1.843
 2325SOL    HW2 7875   1.471   3.732   1.745
 2326SOL     OW 7876   2.645   3.812   6.356
 2326SOL    HW1 7877   2.569   3.750   6.379
 2326SOL    HW2 7878   2.609   3.904   6.341
 2327SOL     OW 7879   4.917   2.565   4.883
 2327SOL    HW1 7880   4.984   2.527   4.818
 2327SOL    HW2 7881   4.956   2.646   4.927
 2328SOL     OW 7882   4.859   1.284   3.604
 2328SOL    HW1 7883   4.848   1.379   3.574
 2328SOL    HW2 7884   4.946   1.275   3.653
 2329SOL     OW 7885   1.285   5.519   4.598
 2329SOL    HW1 7886   1.217   5.460   4.555
 2329SOL    HW2 7887   1.247   5.611   4.610
 2330SOL     OW 7888   0.403   4.459   2.058
 2330SOL    HW1 7889   0.467   4.385   2.078
 2330SOL    HW2 7890   0.453   4.539   2.026
 2331SOL     OW 7891   6.113   4.918   6.725
 2331SOL    HW1 7892   6.118   5.010   6.762
 2331SOL    HW2 7893   6.177   4.909   6.649
 2332SOL     OW 7894   5.154   2.129   5.175
 2332SOL    HW1 7895   5.103   2.210   5.206
 2332SOL    HW2 7896   5.206   2.092   5.251
 2333SOL     OW 7897   0.104   4.576   2.688
 2333SOL    HW1 7898   0.151   4.620   2.612
 2333SOL    HW2 7899   0.103   4.637   2.767
 2334SOL     OW 7900   2.758   6.772   6.824
 2334SOL    HW1 7901   2.820   6.763   6.902
 2334SOL    HW2 7902   2.753   6.867   6.796
 2335SOL     OW 7903   6.424   1.364   3.458
 2335SOL    HW1 7904   6.430   1.277   3.509
 2335SOL    HW2 7905   6.507   1.417   3.474
 2336SOL     OW 7906   4.691   1.389   5.334
 2336SOL    HW1 7907   4.726   1.301   5.302
 2336SOL    HW2 7908   4.621   1.374   5.403
 2337SOL     OW 7909   4.876   0.637   3.744
 2337SOL    HW1 7910   4.818   0.642   3.663
 2337SOL    HW2 7911   4.938   0.715   3.746
 2338SOL     OW 7912   1.042   0.250   6.360
 2338SOL    HW1 7913   1.040   0.305   6.443
 2338SOL    HW2 7914   1.129   0.202   6.353
 2339SOL     OW 7915   3.289   3.741   5.502
 2339SOL    HW1 7916   3.281   3.836   5.473
 2339SOL    HW2 7917   3.267   3.681   5.425
 2340SOL     OW 7918   4.588   6.605   5.668
 2340SOL    HW1 7919   4.551   6.697   5.682
 2340SOL    HW2 7920   4.633   6.600   5.579
 2341SOL     OW 7921   5.460   3.931   0.318
 2341SOL    HW1 7922   5.488   4.024   0.295
 2341SOL    HW2 7923   5.390   3.933   0.388
 2342SOL     OW 7924   0.114   6.099   5.181
 2342SOL    HW1 7925   0.172   6.076   5.259
 2342SOL    HW2 7926   0.145   6.048   5.100
 2343SOL     OW 7927   1.686   0.035   1.283
 2343SOL    HW1 7928   1.784   0.022   1.263
 2343SOL    HW2 7929   1.660   0.129   1.260
 2344SOL     OW 7930   2.270   1.979   1.908
 2344SOL    HW1 7931   2.273   1.964   2.006
 2344SOL    HW2 7932   2.274   2.077   1.888
 2345SOL     OW 7933   1.698   6.925   5.110
 2345SOL    HW1 7934   1.677   6.827   5.118
 2345SOL    HW2 7935   1.780   6.945   5.163
 2346SOL     OW 7936   4.907   2.823   5.408
 2346SOL    HW1 7937   4.890   2.890   5.336
 2346SOL    HW2 7938   4.853   2.740   5.390
 2347SOL     OW 7939   1.591   4.210   2.348
 2347SOL    HW1 7940   1.532   4.291   2.346
 2347SOL    HW2 7941   1.541   4.132   2.312
 2348SOL     OW 7942   2.298   6.208   3.409
 2348SOL    HW1 7943   2.331   6.140   3.475
 2348SOL    HW2 7944   2.223   6.168   3.356
 2349SOL     OW 7945   1.273   6.351   6.556
 2349SOL    HW1 7946   1.237   6.307   6.638
 2349SOL    HW2 7947   1.326   6.432   6.582
 2350SOL     OW 7948   3.377   6.906   5.693
 2350SOL    HW1 7949   3.284   6.915   5.658
 2350SOL    HW2 7950   3.442   6.923   5.618
 2351SOL     OW 7951   3.510   5.266   3.294
 2351SOL    HW1 7952   3.506   5.334   3.220
 2351SOL    HW2 7953   3.520   5.314   3.382
 2352SOL     OW 7954   0.446   4.330   3.027
 2352SOL    HW1 7955   0.516   4.268   3.062
 2352SOL    HW2 7956   0.414   4.297   2.938
 2353SOL     OW 7957   2.236   4.286   4.923
 2353SOL    HW1 7958   2.255   4.202   4.975
 2353SOL    HW2 7959   2.276   4.364   4.972
 2354SOL     OW 7960   3.813   2.106   6.608
 2354SOL    HW1 7961   3.722   2.064   6.611
 2354SOL    HW2 7962   3.883   2.036   6.623
 2355SOL     OW 7963   0.329   6.296   0.282
 2355SOL    HW1 7964   0.262   6.369   0.284
 2355SOL    HW2 7965   0.318   6.239   0.364
 2356SOL     OW 7966   2.531   4.000   1.683
 2356SOL    HW1 7967   2.615   4.047   1.710
 2356SOL    HW2 7968   2.522   4.001   1.584
 2357SOL     OW 7969   4.690   4.979   3.921
 2357SOL    HW1 7970   4.733   4.922   3.851
 2357SOL    HW2 7971   4.621   4.926   3.971
 2358SOL     OW 7972   3.359   6.544   4.049
 2358SOL    HW1 7973   3.367   6.464   3.990
 2358SOL    HW2 7974   3.324   6.516   4.139
 2359SOL     OW 7975   2.265   1.328   6.159
 2359SOL    HW1 7976   2.283   1.303   6.255
 2359SOL    HW2 7977   2.175   1.295   6.132
 2360SOL     OW 7978   4.426   5.100   6.780
 2360SOL    HW1 7979   4.342   5.140   6.814
 2360SOL    HW2 7980   4.460   5.154   6.703
 2361SOL     OW 7981   2.736   6.875   3.735
 2361SOL    HW1 7982   2.739   6.780   3.764
 2361SOL    HW2 7983   2.804   6.891   3.664
 2362SOL     OW 7984   4.645   6.362   5.351
 2362SOL    HW1 7985   4.563   6.314   5.381
 2362SOL    HW2 7986   4.640   6.380   5.253
 2363SOL     OW 7987   4.818   2.577   5.375
 2363SOL    HW1 7988   4.759   2.503   5.342
 2363SOL    HW2 7989   4.913   2.545   5.378
 2364SOL     OW 7990   5.583   1.981   2.033
 2364SOL    HW1 7991   5.621   1.906   2.088
 2364SOL    HW2 7992   5.539   1.943   1.952
 2365SOL     OW 7993   5.978   4.722   5.717
 2365SOL    HW1 7994   5.950   4.812   5.686
 2365SOL    HW2 7995   6.047   4.731   5.788
 2366SOL     OW 7996   0.623   3.929   5.918
 2366SOL    HW1 7997   0.712   3.898   5.950
 2366SOL    HW2 7998   0.626   3.944   5.819
 2367SOL     OW 7999   0.819   2.636   6.036
 2367SOL    HW1 8000   0.740   2.591   6.077
 2367SOL    HW2 8001   0.789   2.719   5.987
 2368SOL     OW 8002   4.276   1.264   5.531
 2368SOL    HW1 8003   4.262   1.259   5.433
 2368SOL    HW2 8004   4.305   1.175   5.566
 2369SOL     OW 8005   2.658   1.862   3.750
 2369SOL    HW1 8006   2.722   1.799   3.794
 2369SOL    HW2 8007   2.619   1.818   3.669
 2370SOL     OW 8008   4.642   3.061   0.542
 2370SOL    HW1 8009   4.726   3.021   0.507
 2370SOL    HW2 8010   4.576   3.073   0.467
 2371SOL     OW 8011   1.149   5.852   2.425
 2371SOL    HW1 8012   1.239   5.895   2.437
 2371SOL    HW2 8013   1.159   5.752   2.431
 2372SOL     OW 8014   6.881   0.871   6.768
 2372SOL    HW1 8015   6.915   0.964   6.780
 2372SOL    HW2 8016   6.910   0.836   6.680
 2373SOL     OW 8017   6.443   0.964   6.289
 2373SOL    HW1 8018   6.523   0.955   6.230
 2373SOL    HW2 8019   6.470   1.004   6.377
 2374SOL     OW 8020   6.216   5.910   3.153
 2374SOL    HW1 8021   6.133   5.952   3.117
 2374SOL    HW2 8022   6.194   5.860   3.237
 2375SOL     OW 8023   0.527   0.916   4.333
 2375SOL    HW1 8024   0.439   0.904   4.380
 2375SOL    HW2 8025   0.574   0.828   4.327
 2376SOL     OW 8026   6.361   2.578   3.113
 2376SOL    HW1 8027   6.368   2.555   3.015
 2376SOL    HW2 8028   6.453   2.596   3.149
 2377SOL     OW 8029   3.364   3.630   4.904
 2377SOL    HW1 8030   3.326   3.565   4.839
 2377SOL    HW2 8031   3.340   3.723   4.876
 2378SOL     OW 8032   5.524   1.956   6.927
 2378SOL    HW1 8033   5.447   2.018   6.942
 2378SOL    HW2 8034   5.594   1.973   6.996
 2379SOL     OW 8035   6.375   4.104   0.182
 2379SOL    HW1 8036   6.400   4.007   0.190
 2379SOL    HW2 8037   6.394   4.150   0.269
 2380SOL     OW 8038   5.896   1.243   5.487
 2380SOL    HW1 8039   5.949   1.328   5.485
 2380SOL    HW2 8040   5.865   1.226   5.581
 2381SOL     OW 8041   1.343   4.706   5.335
 2381SOL    HW1 8042   1.443   4.703   5.331
 2381SOL    HW2 8043   1.314   4.751   5.419
 2382SOL     OW 8044   2.121   5.721   2.399
 2382SOL    HW1 8045   2.088   5.628   2.411
 2382SOL    HW2 8046   2.128   5.766   2.488
 2383SOL     OW 8047   5.163   5.944   6.514
 2383SOL    HW1 8048   5.208   6.033   6.517
 2383SOL    HW2 8049   5.090   5.941   6.582
 2384SOL     OW 8050   1.157   2.502   1.007
 2384SOL    HW1 8051   1.166   2.489   0.908
 2384SOL    HW2 8052   1.093   2.577   1.024
 2385SOL     OW 8053   0.974   0.896   0.272
 2385SOL    HW1 8054   0.896   0.858   0.222
 2385SOL    HW2 8055   0.963   0.876   0.369
 2386SOL     OW 8056   3.456   5.246   4.245
 2386SOL    HW1 8057   3.485   5.153   4.268
 2386SOL    HW2 8058   3.363   5.244   4.209
 2387SOL     OW 8059   6.988   3.668   4.474
 2387SOL    HW1 8060   0.030   3.712   4.413
 2387SOL    HW2 8061   0.004   3.659   4.565
 2388SOL     OW 8062   0.776   1.421   5.620
 2388SOL    HW1 8063   0.753   1.359   5.695
 2388SOL    HW2 8064   0.806   1.509   5.657
 2389SOL     OW 8065   4.435   4.519   3.568
 2389SOL    HW1 8066   4.481   4.518   3.480
 2389SOL    HW2 8067   4.338   4.497   3.556
 2390SOL     OW 8068   3.718   3.839   4.878
 2390SOL    HW1 8069   3.770   3.914   4.837
 2390SOL    HW2 8070   3.709   3.765   4.811
 2391SOL     OW 8071   3.678   4.141   5.981
 2391SOL    HW1 8072   3.607   4.158   5.912
 2391SOL    HW2 8073   3.672   4.211   6.052
 2392SOL     OW 8074   2.779   3.702   6.615
 2392SOL    HW1 8075   2.783   3.742   6.523
 2392SOL    HW2 8076   2.700   3.642   6.622
 2393SOL     OW 8077   4.121   5.134   1.298
 2393SOL    HW1 8078   4.028   5.139   1.334
 2393SOL    HW2 8079   4.166   5.223   1.309
 2394SOL     OW 8080   0.605   3.760   4.317
 2394SOL    HW1 8081   0.517   3.727   4.283
 2394SOL    HW2 8082   0.638   3.833   4.258
 2395SOL     OW 8083   0.147   3.133   6.868
 2395SOL    HW1 8084   0.099   3.057   6.913
 2395SOL    HW2 8085   0.245   3.119   6.876
 2396SOL     OW 8086   5.815   6.480   0.841
 2396SOL    HW1 8087   5.808   6.480   0.741
 2396SOL    HW2 8088   5.768   6.399   0.877
 2397SOL     OW 8089   6.931   4.716   0.581
 2397SOL    HW1 8090   7.001   4.645   0.588
 2397SOL    HW2 8091   6.892   4.715   0.490
 2398SOL     OW 8092   2.805   4.829   4.790
 2398SOL    HW1 8093   2.889   4.882   4.805
 2398SOL    HW2 8094   2.796   4.761   4.863
 2399SOL     OW 8095   3.417   2.113   3.221
 2399SOL    HW1 8096   3.397   2.110   3.319
 2399SOL    HW2 8097   3.505   2.157   3.206
 2400SOL     OW 8098   2.486   3.908   0.478
 2400SOL    HW1 8099   2.394   3.892   0.441
 2400SOL    HW2 8100   2.513   3.830   0.535
 2401SOL     OW 8101   3.741   0.150   4.374
 2401SOL    HW1 8102   3.841   0.153   4.363
 2401SOL    HW2 8103   3.708   0.060   4.346
 2402SOL     OW 8104   6.840   1.548   3.873
 2402SOL    HW1 8105   6.913   1.510   3.930
 2402SOL    HW2 8106   6.881   1.596   3.795
 2403SOL     OW 8107   3.395   3.267   0.889
 2403SOL    HW1 8108   3.400   3.183   0.944
 2403SOL    HW2 8109   3.477   3.321   0.905
 2404SOL     OW 8110   5.956   2.039   1.657
 2404SOL    HW1 8111   6.033   2.050   1.719
 2404SOL    HW2 8112   5.871   2.036   1.710
 2405SOL     OW 8113   3.312   4.319   5.927
 2405SOL    HW1 8114   3.218   4.294   5.905
 2405SOL    HW2 8115   3.375   4.259   5.877
 2406SOL     OW 8116   2.238   6.884   4.266
 2406SOL    HW1 8117   2.148   6.917   4.293
 2406SOL    HW2 8118   2.297   6.878   4.346
 2407SOL     OW 8119   4.226   2.301   2.907
 2407SOL    HW1 8120   4.253   2.264   2.818
 2407SOL    HW2 8121   4.273   2.387   2.923
 2408SOL     OW 8122   2.980   4.776   3.183
 2408SOL    HW1 8123   3.002   4.707   3.113
 2408SOL    HW2 8124   2.899   4.748   3.233
 2409SOL     OW 8125   2.867   3.245   1.124
 2409SOL    HW1 8126   2.777   3.240   1.168
 2409SOL    HW2 8127   2.857   3.277   1.030
 2410SOL     OW 8128   6.046   3.466   5.544
 2410SOL    HW1 8129   6.038   3.566   5.535
 2410SOL    HW2 8130   5.956   3.427   5.562
 2411SOL     OW 8131   2.962   3.590   5.738
 2411SOL    HW1 8132   2.935   3.607   5.832
 2411SOL    HW2 8133   2.895   3.530   5.694
 2412SOL     OW 8134   3.105   2.684   0.960
 2412SOL    HW1 8135   3.045   2.672   1.039
 2412SOL    HW2 8136   3.117   2.782   0.942
 2413SOL     OW 8137   5.599   3.810   6.211
 2413SOL    HW1 8138   5.551   3.726   6.188
 2413SOL    HW2 8139   5.546   3.863   6.276
 2414SOL     OW 8140   5.559   3.447   3.576
 2414SOL    HW1 8141   5.563   3.533   3.525
 2414SOL    HW2 8142   5.472   3.441   3.625
 2415SOL     OW 8143   2.030   7.008   1.471
 2415SOL    HW1 8144   1.988   0.013   1.385
 2415SOL    HW2 8145   1.970   6.943   1.518
 2416SOL     OW 8146   1.592   2.110   4.622
 2416SOL    HW1 8147   1.635   2.199   4.609
 2416SOL    HW2 8148   1.579   2.066   4.533
 2417SOL     OW 8149   5.180   2.150   0.748
 2417SOL    HW1 8150   5.129   2.232   0.773
 2417SOL    HW2 8151   5.118   2.072   0.745
 2418SOL     OW 8152   3.296   3.221   4.851
 2418SOL    HW1 8153   3.390   3.190   4.863
 2418SOL    HW2 8154   3.296   3.315   4.817
 2419SOL     OW 8155   1.520   0.072   4.422
 2419SOL    HW1 8156   1.486   7.016   4.473
 2419SOL    HW2 8157   1.558   0.041   4.335
 2420SOL     OW 8158   3.888   5.909   1.622
 2420SOL    HW1 8159   3.797   5.921   1.661
 2420SOL    HW2 8160   3.956   5.911   1.695
 2421SOL     OW 8161   3.738   6.605   3.789
 2421SOL    HW1 8162   3.667   6.657   3.836
 2421SOL    HW2 8163   3.819   6.597   3.848
 2422SOL     OW 8164   4.703   6.898   0.737
 2422SOL    HW1 8165   4.693   6.957   0.817
 2422SOL    HW2 8166   4.633   6.921   0.669
 2423SOL     OW 8167   1.875   5.248   1.235
 2423SOL    HW1 8168   1.871   5.151   1.262
 2423SOL    HW2 8169   1.831   5.259   1.146
 2424SOL     OW 8170   5.431   6.612   6.961
 2424SOL    HW1 8171   5.483   6.671   6.900
 2424SOL    HW2 8172   5.428   6.519   6.923
 2425SOL     OW 8173   5.638   6.971   5.798
 2425SOL    HW1 8174   5.551   6.925   5.814
 2425SOL    HW2 8175   5.625   0.047   5.802
 2426SOL     OW 8176   1.005   5.782   4.143
 2426SOL    HW1 8177   1.036   5.694   4.105
 2426SOL    HW2 8178   0.922   5.767   4.197
 2427SOL     OW 8179   5.015   5.995   0.605
 2427SOL    HW1 8180   4.950   5.976   0.679
 2427SOL    HW2 8181   5.036   5.911   0.556
 2428SOL     OW 8182   0.463   0.288   3.298
 2428SOL    HW1 8183   0.428   0.228   3.227
 2428SOL    HW2 8184   0.474   0.237   3.383
 2429SOL     OW 8185   5.875   4.833   3.374
 2429SOL    HW1 8186   5.895   4.931   3.373
 2429SOL    HW2 8187   5.795   4.816   3.432
 2430SOL     OW 8188   5.519   3.101   0.358
 2430SOL    HW1 8189   5.557   3.011   0.379
 2430SOL    HW2 8190   5.450   3.092   0.286
 2431SOL     OW 8191   4.667   0.974   0.968
 2431SOL    HW1 8192   4.660   0.891   0.913
 2431SOL    HW2 8193   4.600   0.971   1.042
 2432SOL     OW 8194   2.926   6.588   2.287
 2432SOL    HW1 8195   2.921   6.616   2.191
 2432SOL    HW2 8196   3.017   6.550   2.305
 2433SOL     OW 8197   1.363   6.959   0.409
 2433SOL    HW1 8198   1.341   6.892   0.479
 2433SOL    HW2 8199   1.373   0.026   0.451
 2434SOL     OW 8200   5.981   2.010   3.055
 2434SOL    HW1 8201   5.912   1.946   3.022
 2434SOL    HW2 8202   6.022   1.974   3.139
 2435SOL     OW 8203   5.382   5.048   0.191
 2435SOL    HW1 8204   5.446   5.075   0.262
 2435SOL    HW2 8205   5.389   5.110   0.113
 2436SOL     OW 8206   1.879   0.303   1.070
 2436SOL    HW1 8207   1.807   0.316   1.139
 2436SOL    HW2 8208   1.837   0.288   0.981
 2437SOL     OW 8209   4.958   6.699   1.321
 2437SOL    HW1 8210   4.954   6.602   1.297
 2437SOL    HW2 8211   4.969   6.753   1.238
 2438SOL     OW 8212   3.713   1.330   4.267
 2438SOL    HW1 8213   3.648   1.291   4.201
 2438SOL    HW2 8214   3.756   1.257   4.320
 2439SOL     OW 8215   0.942   4.143   0.665
 2439SOL    HW1 8216   1.040   4.130   0.652
 2439SOL    HW2 8217   0.923   4.156   0.763
 2440SOL     OW 8218   4.125   0.115   6.152
 2440SOL    HW1 8219   4.219   0.104   6.118
 2440SOL    HW2 8220   4.062   0.071   6.088
 2441SOL     OW 8221   5.976   1.397   0.020
 2441SOL    HW1 8222   5.881   1.430   0.025
 2441SOL    HW2 8223   6.021   1.437   6.964
 2442SOL     OW 8224   5.342   5.240   2.906
 2442SOL    HW1 8225   5.400   5.158   2.897
 2442SOL    HW2 8226   5.366   5.305   2.834
 2443SOL     OW 8227   3.456   0.192   6.664
 2443SOL    HW1 8228   3.484   0.287   6.682
 2443SOL    HW2 8229   3.516   0.130   6.714
 2444SOL     OW 8230   3.977   3.587   0.423
 2444SOL    HW1 8231   3.945   3.495   0.401
 2444SOL    HW2 8232   3.915   3.655   0.383
 2445SOL     OW 8233   5.893   1.708   1.792
 2445SOL    HW1 8234   5.957   1.731   1.866
 2445SOL    HW2 8235   5.803   1.746   1.813
 2446SOL     OW 8236   1.161   2.682   4.725
 2446SOL    HW1 8237   1.199   2.749   4.789
 2446SOL    HW2 8238   1.101   2.728   4.660
 2447SOL     OW 8239   2.714   0.981   1.126
 2447SOL    HW1 8240   2.697   0.934   1.039
 2447SOL    HW2 8241   2.792   1.043   1.116
 2448SOL     OW 8242   6.198   0.870   4.030
 2448SOL    HW1 8243   6.126   0.886   4.098
 2448SOL    HW2 8244   6.260   0.799   4.064
 2449SOL     OW 8245   1.077   3.497   1.694
 2449SOL    HW1 8246   1.170   3.469   1.718
 2449SOL    HW2 8247   1.014   3.466   1.765
 2450SOL     OW 8248   3.572   4.583   6.101
 2450SOL    HW1 8249   3.493   4.570   6.041
 2450SOL    HW2 8250   3.637   4.645   6.058
 2451SOL     OW 8251   1.534   0.257   3.714
 2451SOL    HW1 8252   1.620   0.298   3.684
 2451SOL    HW2 8253   1.458   0.313   3.682
 2452SOL     OW 8254   3.020   2.211   4.133
 2452SOL    HW1 8255   2.970   2.292   4.100
 2452SOL    HW2 8256   2.974   2.128   4.099
 2453SOL     OW 8257   0.762   3.415   0.521
 2453SOL    HW1 8258   0.750   3.478   0.444
 2453SOL    HW2 8259   0.854   3.425   0.559
 2454SOL     OW 8260   3.185   7.015   6.928
 2454SOL    HW1 8261   3.202   0.086   6.902
 2454SOL    HW2 8262   3.270   6.963   6.925
 2455SOL     OW 8263   3.851   0.584   0.262
 2455SOL    HW1 8264   3.762   0.575   0.307
 2455SOL    HW2 8265   3.895   0.668   0.294
 2456SOL     OW 8266   6.853   2.532   6.852
 2456SOL    HW1 8267   6.908   2.607   6.817
 2456SOL    HW2 8268   6.904   2.446   6.841
 2457SOL     OW 8269   6.788   0.625   6.352
 2457SOL    HW1 8270   6.875   0.637   6.304
 2457SOL    HW2 8271   6.764   0.528   6.354
 2458SOL     OW 8272   1.551   6.486   3.673
 2458SOL    HW1 8273   1.525   6.581   3.654
 2458SOL    HW2 8274   1.492   6.448   3.744
 2459SOL     OW 8275   2.996   6.300   5.576
 2459SOL    HW1 8276   2.926   6.253   5.522
 2459SOL    HW2 8277   2.991   6.270   5.671
 2460SOL     OW 8278   1.460   1.308   1.235
 2460SOL    HW1 8279   1.419   1.220   1.211
 2460SOL    HW2 8280   1.530   1.293   1.305
 2461SOL     OW 8281   5.336   0.419   4.028
 2461SOL    HW1 8282   5.313   0.458   4.117
 2461SOL    HW2 8283   5.284   0.466   3.956
 2462SOL     OW 8284   2.020   5.196   6.805
 2462SOL    HW1 8285   2.064   5.107   6.820
 2462SOL    HW2 8286   2.039   5.256   6.883
 2463SOL     OW 8287   6.012   2.251   6.647
 2463SOL    HW1 8288   5.925   2.214   6.615
 2463SOL    HW2 8289   6.087   2.197   6.610
 2464SOL     OW 8290   2.139   3.856   2.878
 2464SOL    HW1 8291   2.201   3.778   2.866
 2464SOL    HW2 8292   2.142   3.915   2.797
 2465SOL     OW 8293   1.093   6.333   6.787
 2465SOL    HW1 8294   1.006   6.382   6.788
 2465SOL    HW2 8295   1.081   6.241   6.824
 2466SOL     OW 8296   2.286   2.103   2.983
 2466SOL    HW1 8297   2.385   2.093   2.986
 2466SOL    HW2 8298   2.243   2.021   3.020
 2467SOL     OW 8299   5.212   1.900   4.474
 2467SOL    HW1 8300   5.180   1.890   4.569
 2467SOL    HW2 8301   5.278   1.975   4.469
 2468SOL     OW 8302   4.387   6.782   1.212
 2468SOL    HW1 8303   4.324   6.856   1.187
 2468SOL    HW2 8304   4.468   6.821   1.256
 2469SOL     OW 8305   4.075   3.765   5.015
 2469SOL    HW1 8306   4.083   3.794   4.920
 2469SOL    HW2 8307   4.000   3.814   5.059
 2470SOL     OW 8308   4.517   4.546   6.077
 2470SOL    HW1 8309   4.562   4.522   5.991
 2470SOL    HW2 8310   4.446   4.479   6.097
 2471SOL     OW 8311   3.254   6.048   0.467
 2471SOL    HW1 8312   3.225   5.998   0.548
 2471SOL    HW2 8313   3.352   6.031   0.450
 2472SOL     OW 8314   4.380   2.107   3.271
 2472SOL    HW1 8315   4.472   2.145   3.285
 2472SOL    HW2 8316   4.370   2.023   3.324
 2473SOL     OW 8317   1.533   3.724   4.890
 2473SOL    HW1 8318   1.615   3.776   4.912
 2473SOL    HW2 8319   1.534   3.698   4.793
 2474SOL     OW 8320   0.268   5.808   1.499
 2474SOL    HW1 8321   0.217   5.750   1.436
 2474SOL    HW2 8322   0.318   5.750   1.564
 2475SOL     OW 8323   3.896   0.354   2.431
 2475SOL    HW1 8324   3.927   0.422   2.498
 2475SOL    HW2 8325   3.796   0.352   2.430
 2476SOL     OW 8326   6.487   1.345   2.729
 2476SOL    HW1 8327   6.449   1.261   2.768
 2476SOL    HW2 8328   6.454   1.356   2.636
 2477SOL     OW 8329   4.068   0.894   2.585
 2477SOL    HW1 8330   4.051   0.939   2.497
 2477SOL    HW2 8331   4.033   0.951   2.659
 2478SOL     OW 8332   5.817   1.339   1.795
 2478SOL    HW1 8333   5.910   1.304   1.781
 2478SOL    HW2 8334   5.800   1.350   1.892
 2479SOL     OW 8335   0.844   3.064   1.901
 2479SOL    HW1 8336   0.877   3.113   1.982
 2479SOL    HW2 8337   0.921   3.017   1.857
 2480SOL     OW 8338   5.064   3.882   0.193
 2480SOL    HW1 8339   5.129   3.855   0.264
 2480SOL    HW2 8340   4.994   3.811   0.182
 2481SOL     OW 8341   3.734   6.314   7.013
 2481SOL    HW1 8342   3.790   6.395   6.998
 2481SOL    HW2 8343   3.651   6.339   0.040
 2482SOL     OW 8344   5.500   3.819   5.869
 2482SOL    HW1 8345   5.538   3.774   5.950
 2482SOL    HW2 8346   5.554   3.900   5.846
 2483SOL     OW 8347   1.698   1.239   0.466
 2483SOL    HW1 8348   1.766   1.232   0.538
 2483SOL    HW2 8349   1.668   1.147   0.439
 2484SOL     OW 8350   3.110   0.996   6.914
 2484SOL    HW1 8351   3.157   0.985   7.001
 2484SOL    HW2 8352   3.013   0.974   6.925
 2485SOL     OW 8353   6.431   3.317   1.105
 2485SOL    HW1 8354   6.446   3.386   1.175
 2485SOL    HW2 8355   6.464   3.228   1.139
 2486SOL     OW 8356   2.040   4.644   4.403
 2486SOL    HW1 8357   2.112   4.666   4.469
 2486SOL    HW2 8358   2.055   4.551   4.368
 2487SOL     OW 8359   4.245   6.095   0.528
 2487SOL    HW1 8360   4.180   6.096   0.452
 2487SOL    HW2 8361   4.219   6.024   0.594
 2488SOL     OW 8362   1.717   4.665   2.546
 2488SOL    HW1 8363   1.771   4.673   2.629
 2488SOL    HW2 8364   1.771   4.696   2.468
 2489SOL     OW 8365   1.298   6.365   3.512
 2489SOL    HW1 8366   1.332   6.384   3.604
 2489SOL    HW2 8367   1.283   6.451   3.463
 2490SOL     OW 8368   6.912   4.735   1.214
 2490SOL    HW1 8369   6.923   4.777   1.304
 2490SOL    HW2 8370   6.815   4.717   1.197
 2491SOL     OW 8371   2.388   5.234   0.304
 2491SOL    HW1 8372   2.369   5.307   0.369
 2491SOL    HW2 8373   2.482   5.201   0.317
 2492SOL     OW 8374   4.614   2.949   0.827
 2492SOL    HW1 8375   4.605   3.025   0.891
 2492SOL    HW2 8376   4.599   2.983   0.734
 2493SOL     OW 8377   5.923   0.779   2.083
 2493SOL    HW1 8378   6.000   0.742   2.134
 2493SOL    HW2 8379   5.955   0.852   2.022
 2494SOL     OW 8380   5.322   4.338   2.651
 2494SOL    HW1 8381   5.236   4.309   2.691
 2494SOL    HW2 8382   5.372   4.259   2.617
 2495SOL     OW 8383   5.078   6.951   4.671
 2495SOL    HW1 8384   4.988   6.913   4.692
 2495SOL    HW2 8385   5.122   6.897   4.599
 2496SOL     OW 8386   6.635   3.215   5.738
 2496SOL    HW1 8387   6.641   3.223   5.838
 2496SOL    HW2 8388   6.712   3.263   5.696
 2497SOL     OW 8389   0.316   0.302   0.788
 2497SOL    HW1 8390   0.401   0.316   0.839
 2497SOL    HW2 8391   0.241   0.287   0.852
 2498SOL     OW 8392   2.713   1.441   4.213
 2498SOL    HW1 8393   2.783   1.415   4.147
 2498SOL    HW2 8394   2.663   1.360   4.243
 2499SOL     OW 8395   6.206   2.686   1.852
 2499SOL    HW1 8396   6.129   2.642   1.805
 2499SOL    HW2 8397   6.288   2.678   1.797
 2500SOL     OW 8398   4.423   3.231   6.781
 2500SOL    HW1 8399   4.431   3.132   6.769
 2500SOL    HW2 8400   4.330   3.254   6.810
 2501SOL     OW 8401   5.940   4.873   0.963
 2501SOL    HW1 8402   5.866   4.805   0.963
 2501SOL    HW2 8403   5.955   4.905   0.870
 2502SOL     OW 8404   1.393   6.442   3.156
 2502SOL    HW1 8405   1.443   6.528   3.143
 2502SOL    HW2 8406   1.442   6.385   3.222
 2503SOL     OW 8407   2.642   6.198   4.250
 2503SOL    HW1 8408   2.632   6.261   4.327
 2503SOL    HW2 8409   2.656   6.105   4.284
 2504SOL     OW 8410   3.742   5.299   4.434
 2504SOL    HW1 8411   3.666   5.234   4.430
 2504SOL    HW2 8412   3.715   5.385   4.391
 2505SOL     OW 8413   1.041   6.191   2.874
 2505SOL    HW1 8414   1.105   6.250   2.923
 2505SOL    HW2 8415   1.084   6.102   2.858
 2506SOL     OW 8416   6.137   4.232   5.325
 2506SOL    HW1 8417   6.209   4.270   5.266
 2506SOL    HW2 8418   6.077   4.305   5.356
 2507SOL     OW 8419   1.210   4.202   0.559
 2507SOL    HW1 8420   1.253   4.228   0.645
 2507SOL    HW2 8421   1.275   4.152   0.503
 2508SOL     OW 8422   2.062   1.306   2.839
 2508SOL    HW1 8423   1.986   1.307   2.774
 2508SOL    HW2 8424   2.096   1.399   2.852
 2509SOL     OW 8425   6.785   2.940   1.012
 2509SOL    HW1 8426   6.837   2.860   1.043
 2509SOL    HW2 8427   6.690   2.914   0.996
 2510SOL     OW 8428   2.794   4.302   1.365
 2510SOL    HW1 8429   2.747   4.343   1.286
 2510SOL    HW2 8430   2.888   4.336   1.368
 2511SOL     OW 8431   3.455   2.148   4.748
 2511SOL    HW1 8432   3.495   2.057   4.763
 2511SOL    HW2 8433   3.494   2.188   4.665
 2512SOL     OW 8434   5.423   4.487   5.508
 2512SOL    HW1 8435   5.394   4.478   5.603
 2512SOL    HW2 8436   5.485   4.565   5.499
 2513SOL     OW 8437   1.272   4.297   5.417
 2513SOL    HW1 8438   1.367   4.311   5.442
 2513SOL    HW2 8439   1.263   4.210   5.367
 2514SOL     OW 8440   6.284   3.360   4.636
 2514SOL    HW1 8441   6.283   3.454   4.602
 2514SOL    HW2 8442   6.378   3.334   4.659
 2515SOL     OW 8443   2.158   6.815   0.390
 2515SOL    HW1 8444   2.217   6.833   0.469
 2515SOL    HW2 8445   2.077   6.765   0.420
 2516SOL     OW 8446   6.053   1.308   3.101
 2516SOL    HW1 8447   6.012   1.288   3.190
 2516SOL    HW2 8448   6.147   1.339   3.114
 2517SOL     OW 8449   1.015   6.145   5.471
 2517SOL    HW1 8450   1.032   6.086   5.551
 2517SOL    HW2 8451   1.041   6.239   5.493
 2518SOL     OW 8452   1.137   4.640   6.883
 2518SOL    HW1 8453   1.080   4.702   6.937
 2518SOL    HW2 8454   1.085   4.557   6.862
 2519SOL     OW 8455   4.521   6.479   2.974
 2519SOL    HW1 8456   4.615   6.510   2.986
 2519SOL    HW2 8457   4.520   6.385   2.941
 2520SOL     OW 8458   2.408   1.852   0.820
 2520SOL    HW1 8459   2.430   1.825   0.726
 2520SOL    HW2 8460   2.456   1.936   0.843
 2521SOL     OW 8461   1.346   0.571   5.308
 2521SOL    HW1 8462   1.399   0.655   5.323
 2521SOL    HW2 8463   1.255   0.581   5.350
 2522SOL     OW 8464   0.474   3.780   5.102
 2522SOL    HW1 8465   0.537   3.703   5.114
 2522SOL    HW2 8466   0.503   3.835   5.024
 2523SOL     OW 8467   0.243   3.334   1.150
 2523SOL    HW1 8468   0.302   3.293   1.080
 2523SOL    HW2 8469   0.266   3.430   1.161
 2524SOL     OW 8470   0.671   6.662   5.063
 2524SOL    HW1 8471   0.707   6.641   5.154
 2524SOL    HW2 8472   0.666   6.762   5.052
 2525SOL     OW 8473   1.477   1.790   5.375
 2525SOL    HW1 8474   1.458   1.858   5.304
 2525SOL    HW2 8475   1.434   1.703   5.351
 2526SOL     OW 8476   1.424   4.099   5.908
 2526SOL    HW1 8477   1.434   4.032   5.982
 2526SOL    HW2 8478   1.381   4.055   5.830
 2527SOL     OW 8479   4.981   5.977   5.150
 2527SOL    HW1 8480   4.938   6.046   5.208
 2527SOL    HW2 8481   5.065   6.015   5.110
 2528SOL     OW 8482   5.603   4.953   1.040
 2528SOL    HW1 8483   5.682   5.013   1.031
 2528SOL    HW2 8484   5.591   4.900   0.956
 2529SOL     OW 8485   6.562   6.823   6.062
 2529SOL    HW1 8486   6.501   6.882   6.116
 2529SOL    HW2 8487   6.612   6.762   6.124
 2530SOL     OW 8488   2.409   0.051   5.578
 2530SOL    HW1 8489   2.401   0.019   5.673
 2530SOL    HW2 8490   2.430   6.997   5.519
 2531SOL     OW 8491   5.025   6.109   4.322
 2531SOL    HW1 8492   5.108   6.106   4.377
 2531SOL    HW2 8493   5.040   6.059   4.237
 2532SOL     OW 8494   0.554   6.554   1.186
 2532SOL    HW1 8495   0.516   6.533   1.276
 2532SOL    HW2 8496   0.482   6.550   1.117
 2533SOL     OW 8497   3.697   6.612   3.504
 2533SOL    HW1 8498   3.701   6.611   3.603
 2533SOL    HW2 8499   3.788   6.629   3.467
 2534SOL     OW 8500   3.519   0.616   2.995
 2534SOL    HW1 8501   3.579   0.605   2.915
 2534SOL    HW2 8502   3.471   0.530   3.012
 2535SOL     OW 8503   3.571   1.897   5.432
 2535SOL    HW1 8504   3.661   1.879   5.392
 2535SOL    HW2 8505   3.546   1.993   5.416
 2536SOL     OW 8506   0.914   2.092   4.845
 2536SOL    HW1 8507   0.840   2.079   4.779
 2536SOL    HW2 8508   0.940   2.189   4.848
 2537SOL     OW 8509   3.865   0.381   6.576
 2537SOL    HW1 8510   3.872   0.313   6.502
 2537SOL    HW2 8511   3.848   0.471   6.537
 2538SOL     OW 8512   1.215   4.823   5.106
 2538SOL    HW1 8513   1.244   4.918   5.094
 2538SOL    HW2 8514   1.254   4.786   5.191
 2539SOL     OW 8515   5.058   1.267   5.407
 2539SOL    HW1 8516   5.107   1.292   5.323
 2539SOL    HW2 8517   5.025   1.350   5.452
 2540SOL     OW 8518   4.013   1.072   2.777
 2540SOL    HW1 8519   4.020   1.159   2.826
 2540SOL    HW2 8520   3.923   1.066   2.733
 2541SOL     OW 8521   2.285   6.813   5.416
 2541SOL    HW1 8522   2.203   6.831   5.470
 2541SOL    HW2 8523   2.287   6.873   5.337
 2542SOL     OW 8524   4.623   1.773   6.306
 2542SOL    HW1 8525   4.710   1.738   6.342
 2542SOL    HW2 8526   4.588   1.845   6.366
 2543SOL     OW 8527   0.770   1.290   2.971
 2543SOL    HW1 8528   0.865   1.305   2.998
 2543SOL    HW2 8529   0.729   1.377   2.943
 2544SOL     OW 8530   0.267   5.769   1.017
 2544SOL    HW1 8531   0.316   5.737   1.098
 2544SOL    HW2 8532   0.187   5.822   1.046
 2545SOL     OW 8533   1.651   0.809   1.524
 2545SOL    HW1 8534   1.571   0.868   1.538
 2545SOL    HW2 8535   1.701   0.840   1.443
 2546SOL     OW 8536   0.045   1.463   1.062
 2546SOL    HW1 8537   0.051   1.452   1.161
 2546SOL    HW2 8538   0.062   1.375   1.017
 2547SOL     OW 8539   6.488   4.630   0.314
 2547SOL    HW1 8540   6.390   4.635   0.297
 2547SOL    HW2 8541   6.537   4.685   0.247
 2548SOL     OW 8542   2.497   6.606   5.902
 2548SOL    HW1 8543   2.488   6.550   5.819
 2548SOL    HW2 8544   2.407   6.637   5.931
 2549SOL     OW 8545   2.290   1.007   0.976
 2549SOL    HW1 8546   2.333   0.974   1.060
 2549SOL    HW2 8547   2.310   0.945   0.901
 2550SOL     OW 8548   6.867   0.095   5.908
 2550SOL    HW1 8549   6.959   0.118   5.879
 2550SOL    HW2 8550   6.866   0.078   6.007
 2551SOL     OW 8551   3.540   4.939   0.431
 2551SOL    HW1 8552   3.603   4.955   0.355
 2551SOL    HW2 8553   3.590   4.905   0.510
 2552SOL     OW 8554   2.149   5.906   5.827
 2552SOL    HW1 8555   2.218   5.928   5.896
 2552SOL    HW2 8556   2.190   5.847   5.757
 2553SOL     OW 8557   4.189   3.007   6.080
 2553SOL    HW1 8558   4.149   2.955   6.005
 2553SOL    HW2 8559   4.181   2.955   6.165
 2554SOL     OW 8560   2.050   6.106   0.679
 2554SOL    HW1 8561   1.988   6.028   0.682
 2554SOL    HW2 8562   2.030   6.168   0.754
 2555SOL     OW 8563   5.980   6.965   6.267
 2555SOL    HW1 8564   5.884   6.970   6.240
 2555SOL    HW2 8565   6.029   6.902   6.206
 2556SOL     OW 8566   4.447   5.981   0.381
 2556SOL    HW1 8567   4.374   6.025   0.434
 2556SOL    HW2 8568   4.534   5.991   0.429
 2557SOL     OW 8569   2.638   3.502   6.341
 2557SOL    HW1 8570   2.584   3.526   6.261
 2557SOL    HW2 8571   2.732   3.482   6.313
 2558SOL     OW 8572   4.795   2.219   5.623
 2558SOL    HW1 8573   4.754   2.135   5.658
 2558SOL    HW2 8574   4.875   2.243   5.678
 2559SOL     OW 8575   6.587   4.109   4.044
 2559SOL    HW1 8576   6.502   4.073   4.082
 2559SOL    HW2 8577   6.567   4.176   3.974
 2560SOL     OW 8578   6.029   3.447   4.079
 2560SOL    HW1 8579   5.965   3.505   4.029
 2560SOL    HW2 8580   6.028   3.355   4.040
 2561SOL     OW 8581   2.844   6.321   4.538
 2561SOL    HW1 8582   2.762   6.378   4.546
 2561SOL    HW2 8583   2.818   6.225   4.530
 2562SOL     OW 8584   1.074   5.439   1.736
 2562SOL    HW1 8585   1.159   5.455   1.786
 2562SOL    HW2 8586   1.045   5.345   1.749
 2563SOL     OW 8587   4.089   1.978   0.873
 2563SOL    HW1 8588   4.082   1.930   0.960
 2563SOL    HW2 8589   4.002   1.970   0.824
 2564SOL     OW 8590   2.075   6.257   5.866
 2564SOL    HW1 8591   2.124   6.198   5.801
 2564SOL    HW2 8592   1.991   6.291   5.824
 2565SOL     OW 8593   0.336   6.898   6.827
 2565SOL    HW1 8594   0.254   6.954   6.835
 2565SOL    HW2 8595   0.396   6.935   6.756
 2566SOL     OW 8596   2.286   0.145   0.535
 2566SOL    HW1 8597   2.376   0.105   0.517
 2566SOL    HW2 8598   2.225   0.125   0.459
 2567SOL     OW 8599   0.589   1.386   1.177
 2567SOL    HW1 8600   0.502   1.435   1.187
 2567SOL    HW2 8601   0.642   1.426   1.102
 2568SOL     OW 8602   3.603   6.618   0.235
 2568SOL    HW1 8603   3.699   6.621   0.208
 2568SOL    HW2 8604   3.587   6.681   0.311
 2569SOL     OW 8605   3.052   1.457   1.963
 2569SOL    HW1 8606   3.002   1.388   2.016
 2569SOL    HW2 8607   3.114   1.412   1.900
 2570SOL     OW 8608   5.466   0.071   6.179
 2570SOL    HW1 8609   5.468   7.007   6.131
 2570SOL    HW2 8610   5.372   0.091   6.208
 2571SOL     OW 8611   2.356   4.521   5.007
 2571SOL    HW1 8612   2.384   4.510   5.102
 2571SOL    HW2 8613   2.432   4.560   4.954
 2572SOL     OW 8614   2.183   5.782   6.983
 2572SOL    HW1 8615   2.275   5.820   6.986
 2572SOL    HW2 8616   2.174   5.722   6.903
 2573SOL     OW 8617   6.499   2.351   1.767
 2573SOL    HW1 8618   6.517   2.327   1.862
 2573SOL    HW2 8619   6.580   2.329   1.712
 2574SOL     OW 8620   6.025   3.761   6.848
 2574SOL    HW1 8621   5.989   3.745   6.939
 2574SOL    HW2 8622   6.122   3.738   6.846
 2575SOL     OW 8623   5.356   5.209   0.609
 2575SOL    HW1 8624   5.282   5.142   0.619
 2575SOL    HW2 8625   5.382   5.245   0.699
 2576SOL     OW 8626   3.659   6.813   4.274
 2576SOL    HW1 8627   3.610   6.806   4.188
 2576SOL    HW2 8628   3.751   6.848   4.258
 2577SOL     OW 8629   3.366   0.093   1.567
 2577SOL    HW1 8630   3.431   0.139   1.507
 2577SOL    HW2 8631   3.347   0.150   1.646
 2578SOL     OW 8632   4.633   1.655   3.678
 2578SOL    HW1 8633   4.727   1.631   3.653
 2578SOL    HW2 8634   4.634   1.718   3.757
 2579SOL     OW 8635   1.272   6.203   2.339
 2579SOL    HW1 8636   1.323   6.118   2.354
 2579SOL    HW2 8637   1.218   6.224   2.420
 2580SOL     OW 8638   2.399   2.951   6.551
 2580SOL    HW1 8639   2.443   2.863   6.535
 2580SOL    HW2 8640   2.426   3.016   6.479
 2581SOL     OW 8641   0.966   4.718   0.833
 2581SOL    HW1 8642   0.924   4.780   0.900
 2581SOL    HW2 8643   1.026   4.654   0.880
 2582SOL     OW 8644   0.599   4.608   2.358
 2582SOL    HW1 8645   0.650   4.547   2.297
 2582SOL    HW2 8646   0.558   4.683   2.304
 2583SOL     OW 8647   1.104   1.095   0.642
 2583SOL    HW1 8648   1.195   1.097   0.601
 2583SOL    HW2 8649   1.054   1.016   0.607
 2584SOL     OW 8650   3.903   6.005   0.129
 2584SOL    HW1 8651   3.862   5.959   0.208
 2584SOL    HW2 8652   3.911   5.940   0.053
 2585SOL     OW 8653   5.003   2.342   0.786
 2585SOL    HW1 8654   5.004   2.390   0.874
 2585SOL    HW2 8655   4.909   2.314   0.764
 2586SOL     OW 8656   3.381   1.097   3.606
 2586SOL    HW1 8657   3.458   1.047   3.566
 2586SOL    HW2 8658   3.414   1.182   3.647
 2587SOL     OW 8659   0.429   0.721   3.634
 2587SOL    HW1 8660   0.397   0.709   3.728
 2587SOL    HW2 8661   0.353   0.750   3.576
 2588SOL     OW 8662   4.145   0.850   6.682
 2588SOL    HW1 8663   4.206   0.883   6.611
 2588SOL    HW2 8664   4.120   0.755   6.664
 2589SOL     OW 8665   0.519   5.573   6.593
 2589SOL    HW1 8666   0.578   5.637   6.543
 2589SOL    HW2 8667   0.576   5.506   6.640
 2590SOL     OW 8668   3.631   5.787   0.786
 2590SOL    HW1 8669   3.547   5.787   0.840
 2590SOL    HW2 8670   3.678   5.874   0.796
 2591SOL     OW 8671   0.025   5.212   2.798
 2591SOL    HW1 8672   0.032   5.185   2.702
 2591SOL    HW2 8673   6.988   5.291   2.806
 2592SOL     OW 8674   3.414   5.073   0.220
 2592SOL    HW1 8675   3.317   5.084   0.196
 2592SOL    HW2 8676   3.420   5.020   0.305
 2593SOL     OW 8677   3.446   5.372   0.449
 2593SOL    HW1 8678   3.534   5.391   0.491
 2593SOL    HW2 8679   3.438   5.422   0.363
 2594SOL     OW 8680   1.161   5.068   6.307
 2594SOL    HW1 8681   1.163   4.975   6.270
 2594SOL    HW2 8682   1.211   5.069   6.394
 2595SOL     OW 8683   6.283   1.157   4.013
 2595SOL    HW1 8684   6.226   1.190   4.088
 2595SOL    HW2 8685   6.276   1.057   4.007
 2596SOL     OW 8686   2.992   1.717   1.959
 2596SOL    HW1 8687   3.009   1.619   1.973
 2596SOL    HW2 8688   2.964   1.733   1.865
 2597SOL     OW 8689   1.462   5.074   5.556
 2597SOL    HW1 8690   1.516   5.109   5.479
 2597SOL    HW2 8691   1.365   5.077   5.532
 2598SOL     OW 8692   0.027   1.468   3.060
 2598SOL    HW1 8693   6.975   1.436   3.004
 2598SOL    HW2 8694   0.071   1.390   3.104
 2599SOL     OW 8695   2.033   6.283   0.924
 2599SOL    HW1 8696   1.989   6.265   1.012
 2599SOL    HW2 8697   1.993   6.365   0.883
 2600SOL     OW 8698   5.425   3.229   5.050
 2600SOL    HW1 8699   5.327   3.244   5.034
 2600SOL    HW2 8700   5.475   3.242   4.965
 2601SOL     OW 8701   2.484   1.254   1.619
 2601SOL    HW1 8702   2.448   1.344   1.643
 2601SOL    HW2 8703   2.576   1.264   1.582
 2602SOL     OW 8704   1.389   4.134   4.609
 2602SOL    HW1 8705   1.346   4.064   4.552
 2602SOL    HW2 8706   1.422   4.209   4.552
 2603SOL     OW 8707   2.351   0.834   3.861
 2603SOL    HW1 8708   2.400   0.759   3.905
 2603SOL    HW2 8709   2.388   0.848   3.769
 2604SOL     OW 8710   4.483   1.699   2.991
 2604SOL    HW1 8711   4.396   1.738   2.960
 2604SOL    HW2 8712   4.472   1.666   3.085
 2605SOL     OW 8713   2.287   2.829   3.496
 2605SOL    HW1 8714   2.189   2.806   3.500
 2605SOL    HW2 8715   2.340   2.745   3.482
 2606SOL     OW 8716   5.391   4.384   1.869
 2606SOL    HW1 8717   5.365   4.356   1.961
 2606SOL    HW2 8718   5.318   4.440   1.829
 2607SOL     OW 8719   1.471   1.596   1.230
 2607SOL    HW1 8720   1.395   1.586   1.294
 2607SOL    HW2 8721   1.499   1.506   1.197
 2608SOL     OW 8722   4.889   5.161   1.248
 2608SOL    HW1 8723   4.929   5.251   1.233
 2608SOL    HW2 8724   4.790   5.166   1.234
 2609SOL     OW 8725   6.246   1.116   1.290
 2609SOL    HW1 8726   6.326   1.148   1.239
 2609SOL    HW2 8727   6.243   1.016   1.291
 2610SOL     OW 8728   1.063   4.559   4.688
 2610SOL    HW1 8729   1.037   4.593   4.778
 2610SOL    HW2 8730   0.993   4.496   4.655
 2611SOL     OW 8731   4.339   6.926   0.886
 2611SOL    HW1 8732   4.343   6.974   0.973
 2611SOL    HW2 8733   4.400   6.847   0.888
 2612SOL     OW 8734   6.424   0.189   5.601
 2612SOL    HW1 8735   6.511   0.142   5.607
 2612SOL    HW2 8736   6.381   0.172   5.512
 2613SOL     OW 8737   2.895   5.570   6.253
 2613SOL    HW1 8738   2.815   5.629   6.264
 2613SOL    HW2 8739   2.939   5.556   6.341
 2614SOL     OW 8740   6.295   1.543   6.246
 2614SOL    HW1 8741   6.272   1.468   6.308
 2614SOL    HW2 8742   6.290   1.629   6.295
 2615SOL     OW 8743   0.195   3.211   2.334
 2615SOL    HW1 8744   0.210   3.112   2.341
 2615SOL    HW2 8745   0.193   3.250   2.426
 2616SOL     OW 8746   3.226   2.765   6.037
 2616SOL    HW1 8747   3.282   2.758   6.120
 2616SOL    HW2 8748   3.181   2.854   6.036
 2617SOL     OW 8749   3.983   6.869   0.268
 2617SOL    HW1 8750   4.029   6.833   0.349
 2617SOL    HW2 8751   3.938   6.794   0.219
 2618SOL     OW 8752   6.784   0.514   3.847
 2618SOL    HW1 8753   6.738   0.425   3.839
 2618SOL    HW2 8754   6.882   0.502   3.831
 2619SOL     OW 8755   3.684   2.101   2.965
 2619SOL    HW1 8756   3.766   2.142   2.926
 2619SOL    HW2 8757   3.701   2.005   2.987
 2620SOL     OW 8758   6.907   6.645   3.481
 2620SOL    HW1 8759   6.839   6.579   3.446
 2620SOL    HW2 8760   6.989   6.640   3.424
 2621SOL     OW 8761   0.644   5.088   2.286
 2621SOL    HW1 8762   0.594   5.175   2.281
 2621SOL    HW2 8763   0.720   5.089   2.221
 2622SOL     OW 8764   1.886   3.666   5.005
 2622SOL    HW1 8765   1.827   3.621   5.072
 2622SOL    HW2 8766   1.974   3.617   5.000
 2623SOL     OW 8767   0.858   1.029   5.761
 2623SOL    HW1 8768   0.866   1.036   5.662
 2623SOL    HW2 8769   0.909   1.103   5.804
 2624SOL     OW 8770   6.648   0.945   4.915
 2624SOL    HW1 8771   6.704   0.899   4.846
 2624SOL    HW2 8772   6.555   0.908   4.913
 2625SOL     OW 8773   2.331   3.689   5.872
 2625SOL    HW1 8774   2.376   3.654   5.789
 2625SOL    HW2 8775   2.401   3.723   5.935
 2626SOL     OW 8776   0.300   0.519   5.908
 2626SOL    HW1 8777   0.314   0.486   5.815
 2626SOL    HW2 8778   0.234   0.594   5.906
 2627SOL     OW 8779   0.783   1.000   6.294
 2627SOL    HW1 8780   0.695   1.033   6.259
 2627SOL    HW2 8781   0.817   1.064   6.363
 2628SOL     OW 8782   1.854   4.497   5.671
 2628SOL    HW1 8783   1.928   4.482   5.737
 2628SOL    HW2 8784   1.891   4.542   5.589
 2629SOL     OW 8785   3.527   3.271   2.550
 2629SOL    HW1 8786   3.477   3.325   2.483
 2629SOL    HW2 8787   3.481   3.182   2.563
 2630SOL     OW 8788   2.947   1.906   2.655
 2630SOL    HW1 8789   2.921   2.002   2.655
 2630SOL    HW2 8790   3.037   1.896   2.613
 2631SOL     OW 8791   5.162   0.747   6.121
 2631SOL    HW1 8792   5.115   0.834   6.102
 2631SOL    HW2 8793   5.155   0.726   6.218
 2632SOL     OW 8794   5.312   3.284   6.442
 2632SOL    HW1 8795   5.270   3.194   6.452
 2632SOL    HW2 8796   5.259   3.351   6.493
 2633SOL     OW 8797   0.849   1.929   4.356
 2633SOL    HW1 8798   0.928   1.965   4.306
 2633SOL    HW2 8799   0.777   1.904   4.292
 2634SOL     OW 8800   0.656   4.525   3.289
 2634SOL    HW1 8801   0.622   4.578   3.367
 2634SOL    HW2 8802   0.578   4.494   3.234
 2635SOL     OW 8803   6.774   6.043   5.198
 2635SOL    HW1 8804   6.824   6.086   5.274
 2635SOL    HW2 8805   6.830   6.047   5.115
 2636SOL     OW 8806   4.075   1.034   5.406
 2636SOL    HW1 8807   3.983   1.066   5.384
 2636SOL    HW2 8808   4.121   1.006   5.321
 2637SOL     OW 8809   5.782   1.671   3.342
 2637SOL    HW1 8810   5.842   1.605   3.387
 2637SOL    HW2 8811   5.691   1.630   3.329
 2638SOL     OW 8812   0.051   0.081   3.665
 2638SOL    HW1 8813   0.004   7.018   3.646
 2638SOL    HW2 8814   0.096   0.114   3.581
 2639SOL     OW 8815   0.742   5.910   0.283
 2639SOL    HW1 8816   0.787   5.822   0.268
 2639SOL    HW2 8817   0.805   5.984   0.260
 2640SOL     OW 8818   0.271   5.891   5.342
 2640SOL    HW1 8819   0.300   5.889   5.438
 2640SOL    HW2 8820   0.183   5.843   5.334
 2641SOL     OW 8821   5.817   2.976   2.177
 2641SOL    HW1 8822   5.897   3.034   2.189
 2641SOL    HW2 8823   5.754   3.018   2.112
 2642SOL     OW 8824   5.325   0.869   3.739
 2642SOL    HW1 8825   5.381   0.793   3.704
 2642SOL    HW2 8826   5.365   0.955   3.708
 2643SOL     OW 8827   0.750   3.908   3.284
 2643SOL    HW1 8828   0.774   3.823   3.332
 2643SOL    HW2 8829   0.699   3.968   3.346
 2644SOL     OW 8830   5.359   5.771   5.266
 2644SOL    HW1 8831   5.445   5.745   5.221
 2644SOL    HW2 8832   5.296   5.694   5.264
 2645SOL     OW 8833   4.051   5.824   3.885
 2645SOL    HW1 8834   4.040   5.736   3.840
 2645SOL    HW2 8835   3.961   5.867   3.898
 2646SOL     OW 8836   6.429   1.588   0.015
 2646SOL    HW1 8837   6.454   1.563   0.108
 2646SOL    HW2 8838   6.429   1.688   0.005
 2647SOL     OW 8839   6.637   0.212   1.928
 2647SOL    HW1 8840   6.649   0.113   1.926
 2647SOL    HW2 8841   6.614   0.245   1.836
 2648SOL     OW 8842   1.057   6.624   3.283
 2648SOL    HW1 8843   1.023   6.543   3.332
 2648SOL    HW2 8844   1.146   6.650   3.320
 2649SOL     OW 8845   6.874   3.783   0.315
 2649SOL    HW1 8846   6.804   3.773   0.386
 2649SOL    HW2 8847   6.951   3.723   0.336
 2650SOL     OW 8848   1.112   5.002   3.714
 2650SOL    HW1 8849   1.085   4.944   3.637
 2650SOL    HW2 8850   1.137   4.945   3.792
 2651SOL     OW 8851   2.217   1.459   1.092
 2651SOL    HW1 8852   2.241   1.438   1.187
 2651SOL    HW2 8853   2.213   1.558   1.080
 2652SOL     OW 8854   4.290   3.211   5.280
 2652SOL    HW1 8855   4.225   3.268   5.331
 2652SOL    HW2 8856   4.375   3.204   5.332
 2653SOL     OW 8857   4.879   6.701   5.748
 2653SOL    HW1 8858   4.968   6.726   5.709
 2653SOL    HW2 8859   4.819   6.669   5.675
 2654SOL     OW 8860   4.334   0.027   1.740
 2654SOL    HW1 8861   4.302   0.121   1.752
 2654SOL    HW2 8862   4.305   7.016   1.651
 2655SOL     OW 8863   5.651   6.896   4.223
 2655SOL    HW1 8864   5.632   6.984   4.267
 2655SOL    HW2 8865   5.564   6.852   4.198
 2656SOL     OW 8866   3.343   5.132   4.528
 2656SOL    HW1 8867   3.417   5.108   4.465
 2656SOL    HW2 8868   3.320   5.228   4.517
 2657SOL     OW 8869   0.790   4.013   6.964
 2657SOL    HW1 8870   0.706   4.003   7.018
 2657SOL    HW2 8871   0.869   3.995   7.023
 2658SOL     OW 8872   4.939   4.595   0.651
 2658SOL    HW1 8873   4.993   4.625   0.730
 2658SOL    HW2 8874   4.999   4.585   0.572
 2659SOL     OW 8875   5.018   2.990   4.962
 2659SOL    HW1 8876   5.074   3.069   4.983
 2659SOL    HW2 8877   4.948   3.015   4.895
 2660SOL     OW 8878   1.916   6.773   1.819
 2660SOL    HW1 8879   2.006   6.815   1.828
 2660SOL    HW2 8880   1.870   6.809   1.737
 2661SOL     OW 8881   2.484   6.992   1.729
 2661SOL    HW1 8882   2.498   6.975   1.826
 2661SOL    HW2 8883   2.444   6.911   1.686
 2662SOL     OW 8884   4.195   6.535   5.296
 2662SOL    HW1 8885   4.208   6.442   5.331
 2662SOL    HW2 8886   4.172   6.531   5.198
 2663SOL     OW 8887   3.608   4.221   6.598
 2663SOL    HW1 8888   3.529   4.273   6.566
 2663SOL    HW2 8889   3.690   4.250   6.549
 2664SOL     OW 8890   4.701   3.407   5.344
 2664SOL    HW1 8891   4.702   3.475   5.270
 2664SOL    HW2 8892   4.609   3.400   5.382
 2665SOL     OW 8893   2.673   2.892   5.563
 2665SOL    HW1 8894   2.613   2.857   5.492
 2665SOL    HW2 8895   2.712   2.980   5.534
 2666SOL     OW 8896   0.476   5.079   1.915
 2666SOL    HW1 8897   0.545   5.150   1.922
 2666SOL    HW2 8898   0.478   5.037   1.824
 2667SOL     OW 8899   0.779   5.770   4.299
 2667SOL    HW1 8900   0.845   5.824   4.352
 2667SOL    HW2 8901   0.700   5.748   4.356
 2668SOL     OW 8902   0.307   3.063   4.790
 2668SOL    HW1 8903   0.317   3.142   4.729
 2668SOL    HW2 8904   0.349   3.084   4.878
 2669SOL     OW 8905   2.783   4.918   5.970
 2669SOL    HW1 8906   2.833   4.880   5.892
 2669SOL    HW2 8907   2.697   4.958   5.938
 2670SOL     OW 8908   5.851   3.995   5.693
 2670SOL    HW1 8909   5.821   3.899   5.689
 2670SOL    HW2 8910   5.951   3.999   5.687
 2671SOL     OW 8911   4.210   5.644   6.938
 2671SOL    HW1 8912   4.130   5.661   6.881
 2671SOL    HW2 8913   4.264   5.728   6.946
 2672SOL     OW 8914   2.371   5.192   0.992
 2672SOL    HW1 8915   2.422   5.138   0.926
 2672SOL    HW2 8916   2.304   5.250   0.945
 2673SOL     OW 8917   6.618   1.697   1.760
 2673SOL    HW1 8918   6.679   1.713   1.683
 2673SOL    HW2 8919   6.525   1.723   1.736
 2674SOL     OW 8920   1.480   4.697   3.534
 2674SOL    HW1 8921   1.575   4.727   3.528
 2674SOL    HW2 8922   1.446   4.712   3.627
 2675SOL     OW 8923   5.978   5.592   4.063
 2675SOL    HW1 8924   5.894   5.593   4.116
 2675SOL    HW2 8925   6.008   5.686   4.047
 2676SOL     OW 8926   3.836   2.612   1.406
 2676SOL    HW1 8927   3.775   2.692   1.403
 2676SOL    HW2 8928   3.783   2.531   1.430
 2677SOL     OW 8929   2.640   4.217   6.834
 2677SOL    HW1 8930   2.677   4.304   6.864
 2677SOL    HW2 8931   2.571   4.232   6.763
 2678SOL     OW 8932   0.056   2.591   1.869
 2678SOL    HW1 8933   7.002   2.534   1.842
 2678SOL    HW2 8934   0.135   2.533   1.887
 2679SOL     OW 8935   1.796   4.951   1.851
 2679SOL    HW1 8936   1.817   5.048   1.846
 2679SOL    HW2 8937   1.713   4.937   1.906
 2680SOL     OW 8938   0.867   1.900   1.213
 2680SOL    HW1 8939   0.937   1.828   1.208
 2680SOL    HW2 8940   0.853   1.939   1.122
 2681SOL     OW 8941   1.473   2.058   5.465
 2681SOL    HW1 8942   1.572   2.068   5.471
 2681SOL    HW2 8943   1.429   2.134   5.514
 2682SOL     OW 8944   4.734   4.330   3.297
 2682SOL    HW1 8945   4.793   4.376   3.363
 2682SOL    HW2 8946   4.645   4.375   3.295
 2683SOL     OW 8947   2.961   5.625   1.754
 2683SOL    HW1 8948   2.878   5.595   1.707
 2683SOL    HW2 8949   3.014   5.685   1.694
 2684SOL     OW 8950   4.793   6.385   1.535
 2684SOL    HW1 8951   4.853   6.327   1.590
 2684SOL    HW2 8952   4.739   6.444   1.596
 2685SOL     OW 8953   6.171   5.830   6.276
 2685SOL    HW1 8954   6.141   5.873   6.361
 2685SOL    HW2 8955   6.270   5.835   6.268
 2686SOL     OW 8956   2.007   1.309   6.070
 2686SOL    HW1 8957   1.955   1.318   5.985
 2686SOL    HW2 8958   2.023   1.400   6.108
 2687SOL     OW 8959   5.078   5.355   1.195
 2687SOL    HW1 8960   5.135   5.292   1.248
 2687SOL    HW2 8961   5.051   5.311   1.109
 2688SOL     OW 8962   3.336   3.597   0.311
 2688SOL    HW1 8963   3.240   3.604   0.283
 2688SOL    HW2 8964   3.340   3.550   0.400
 2689SOL     OW 8965   1.244   4.096   2.562
 2689SOL    HW1 8966   1.245   4.019   2.626
 2689SOL    HW2 8967   1.164   4.153   2.580
 2690SOL     OW 8968   3.670   3.344   5.244
 2690SOL    HW1 8969   3.598   3.400   5.286
 2690SOL    HW2 8970   3.646   3.326   5.148
 2691SOL     OW 8971   0.781   5.247   3.629
 2691SOL    HW1 8972   0.864   5.253   3.685
 2691SOL    HW2 8973   0.716   5.318   3.658
 2692SOL     OW 8974   2.800   6.016   3.289
 2692SOL    HW1 8975   2.776   6.111   3.274
 2692SOL    HW2 8976   2.841   6.006   3.380
 2693SOL     OW 8977   2.289   5.055   3.420
 2693SOL    HW1 8978   2.233   5.127   3.460
 2693SOL    HW2 8979   2.382   5.089   3.407
 2694SOL     OW 8980   4.222   6.496   3.065
 2694SOL    HW1 8981   4.211   6.577   3.123
 2694SOL    HW2 8982   4.317   6.489   3.035
 2695SOL     OW 8983   5.899   1.434   2.382
 2695SOL    HW1 8984   5.886   1.466   2.476
 2695SOL    HW2 8985   5.844   1.352   2.367
 2696SOL     OW 8986   3.600   3.243   5.897
 2696SOL    HW1 8987   3.529   3.178   5.872
 2696SOL    HW2 8988   3.617   3.305   5.820
 2697SOL     OW 8989   3.326   0.856   3.123
 2697SOL    HW1 8990   3.291   0.947   3.148
 2697SOL    HW2 8991   3.412   0.839   3.171
 2698SOL     OW 8992   2.356   4.987   0.786
 2698SOL    HW1 8993   2.307   5.071   0.762
 2698SOL    HW2 8994   2.305   4.936   0.855
 2699SOL     OW 8995   2.520   5.719   0.996
 2699SOL    HW1 8996   2.451   5.754   0.931
 2699SOL    HW2 8997   2.482   5.640   1.044
 2700SOL     OW 8998   2.594   2.773   0.345
 2700SOL    HW1 8999   2.563   2.839   0.277
 2700SOL    HW2 9000   2.533   2.774   0.424
 2701SOL     OW 9001   5.342   1.560   6.134
 2701SOL    HW1 9002   5.333   1.534   6.038
 2701SOL    HW2 9003   5.432   1.600   6.149
 2702SOL     OW 9004   0.652   2.716   3.628
 2702SOL    HW1 9005   0.600   2.797   3.654
 2702SOL    HW2 9006   0.677   2.722   3.531
 2703SOL     OW 9007   0.878   0.053   0.896
 2703SOL    HW1 9008   0.841   0.022   0.809
 2703SOL    HW2 9009   0.922   0.142   0.884
 2704SOL     OW 9010   6.559   5.866   2.078
 2704SOL    HW1 9011   6.659   5.857   2.085
 2704SOL    HW2 9012   6.516   5.822   2.157
 2705SOL     OW 9013   6.761   6.717   4.689
 2705SOL    HW1 9014   6.697   6.756   4.623
 2705SOL    HW2 9015   6.854   6.750   4.669
 2706SOL     OW 9016   6.400   4.989   2.918
 2706SOL    HW1 9017   6.452   4.996   2.834
 2706SOL    HW2 9018   6.453   5.026   2.994
 2707SOL     OW 9019   4.087   0.882   4.636
 2707SOL    HW1 9020   4.025   0.806   4.622
 2707SOL    HW2 9021   4.036   0.962   4.670
 2708SOL     OW 9022   6.932   2.733   0.847
 2708SOL    HW1 9023   6.841   2.765   0.818
 2708SOL    HW2 9024   6.926   2.696   0.940
 2709SOL     OW 9025   4.776   0.387   0.519
 2709SOL    HW1 9026   4.797   0.476   0.560
 2709SOL    HW2 9027   4.746   0.401   0.424
 2710SOL     OW 9028   1.135   3.073   4.371
 2710SOL    HW1 9029   1.165   3.001   4.433
 2710SOL    HW2 9030   1.059   3.123   4.412
 2711SOL     OW 9031   2.695   0.615   3.751
 2711SOL    HW1 9032   2.647   0.554   3.689
 2711SOL    HW2 9033   2.786   0.635   3.715
 2712SOL     OW 9034   2.577   4.451   1.192
 2712SOL    HW1 9035   2.523   4.384   1.142
 2712SOL    HW2 9036   2.518   4.503   1.254
 2713SOL     OW 9037   2.239   2.897   5.592
 2713SOL    HW1 9038   2.230   2.995   5.577
 2713SOL    HW2 9039   2.336   2.873   5.598
 2714SOL     OW 9040   4.167   2.452   0.192
 2714SOL    HW1 9041   4.250   2.454   0.247
 2714SOL    HW2 9042   4.127   2.544   0.188
 2715SOL     OW 9043   5.331   2.519   1.085
 2715SOL    HW1 9044   5.240   2.509   1.043
 2715SOL    HW2 9045   5.323   2.507   1.184
 2716SOL     OW 9046   5.138   3.183   3.284
 2716SOL    HW1 9047   5.200   3.226   3.350
 2716SOL    HW2 9048   5.133   3.084   3.302
 2717SOL     OW 9049   0.154   0.286   2.783
 2717SOL    HW1 9050   0.202   0.297   2.870
 2717SOL    HW2 9051   0.150   0.374   2.736
 2718SOL     OW 9052   1.427   1.034   5.022
 2718SOL    HW1 9053   1.498   0.997   4.963
 2718SOL    HW2 9054   1.458   1.120   5.062
 2719SOL     OW 9055   0.667   5.093   1.436
 2719SOL    HW1 9056   0.585   5.143   1.467
 2719SOL    HW2 9057   0.673   5.098   1.336
 2720SOL     OW 9058   1.901   6.007   1.914
 2720SOL    HW1 9059   1.925   6.066   1.991
 2720SOL    HW2 9060   1.936   5.914   1.930
 2721SOL     OW 9061   3.485   6.330   3.271
 2721SOL    HW1 9062   3.456   6.355   3.364
 2721SOL    HW2 9063   3.499   6.412   3.217
 2722SOL     OW 9064   6.494   4.753   0.679
 2722SOL    HW1 9065   6.408   4.791   0.713
 2722SOL    HW2 9066   6.512   4.665   0.723
 2723SOL     OW 9067   1.062   5.984   6.174
 2723SOL    HW1 9068   1.007   5.956   6.253
 2723SOL    HW2 9069   1.147   6.027   6.206
 2724SOL     OW 9070   1.831   5.470   6.923
 2724SOL    HW1 9071   1.851   5.419   7.007
 2724SOL    HW2 9072   1.834   5.568   6.943
 2725SOL     OW 9073   4.851   4.644   4.996
 2725SOL    HW1 9074   4.849   4.738   4.962
 2725SOL    HW2 9075   4.769   4.627   5.050
 2726SOL     OW 9076   0.232   1.820   1.099
 2726SOL    HW1 9077   0.289   1.903   1.099
 2726SOL    HW2 9078   0.291   1.740   1.093
 2727SOL     OW 9079   0.995   4.653   3.761
 2727SOL    HW1 9080   1.005   4.713   3.682
 2727SOL    HW2 9081   0.915   4.680   3.813
 2728SOL     OW 9082   4.638   6.817   5.278
 2728SOL    HW1 9083   4.606   6.722   5.288
 2728SOL    HW2 9084   4.608   6.853   5.190
 2729SOL     OW 9085   0.051   6.032   0.441
 2729SOL    HW1 9086   0.042   6.041   0.342
 2729SOL    HW2 9087   0.014   6.114   0.486
 2730SOL     OW 9088   1.889   5.314   1.528
 2730SOL    HW1 9089   1.860   5.409   1.528
 2730SOL    HW2 9090   1.810   5.255   1.509
 2731SOL     OW 9091   3.047   3.593   3.436
 2731SOL    HW1 9092   3.014   3.609   3.530
 2731SOL    HW2 9093   3.031   3.675   3.381
 2732SOL     OW 9094   5.442   2.382   1.621
 2732SOL    HW1 9095   5.346   2.362   1.640
 2732SOL    HW2 9096   5.468   2.465   1.669
 2733SOL     OW 9097   6.702   1.834   4.774
 2733SOL    HW1 9098   6.748   1.755   4.814
 2733SOL    HW2 9099   6.719   1.914   4.831
 2734SOL     OW 9100   3.551   5.393   0.927
 2734SOL    HW1 9101   3.478   5.357   0.870
 2734SOL    HW2 9102   3.620   5.437   0.870
 2735SOL     OW 9103   1.792   3.172   1.554
 2735SOL    HW1 9104   1.738   3.193   1.473
 2735SOL    HW2 9105   1.887   3.200   1.540
 2736SOL     OW 9106   5.624   6.165   4.582
 2736SOL    HW1 9107   5.654   6.072   4.601
 2736SOL    HW2 9108   5.662   6.196   4.495
 2737SOL     OW 9109   2.687   4.406   5.297
 2737SOL    HW1 9110   2.595   4.442   5.279
 2737SOL    HW2 9111   2.755   4.463   5.252
 2738SOL     OW 9112   5.135   6.513   1.881
 2738SOL    HW1 9113   5.173   6.471   1.963
 2738SOL    HW2 9114   5.190   6.485   1.802
 2739SOL     OW 9115   1.154   4.622   1.193
 2739SOL    HW1 9116   1.168   4.714   1.155
 2739SOL    HW2 9117   1.164   4.554   1.120
 2740SOL     OW 9118   6.482   4.093   2.276
 2740SOL    HW1 9119   6.572   4.128   2.300
 2740SOL    HW2 9120   6.491   4.026   2.202
 2741SOL     OW 9121   6.247   0.257   4.557
 2741SOL    HW1 9122   6.347   0.256   4.552
 2741SOL    HW2 9123   6.217   0.327   4.621
 2742SOL     OW 9124   1.795   5.170   0.382
 2742SOL    HW1 9125   1.721   5.142   0.321
 2742SOL    HW2 9126   1.810   5.268   0.374
 2743SOL     OW 9127   6.440   4.504   2.427
 2743SOL    HW1 9128   6.521   4.519   2.370
 2743SOL    HW2 9129   6.425   4.585   2.483
 2744SOL     OW 9130   4.712   2.328   0.717
 2744SOL    HW1 9131   4.645   2.268   0.674
 2744SOL    HW2 9132   4.687   2.342   0.813
 2745SOL     OW 9133   6.847   0.679   5.101
 2745SOL    HW1 9134   6.898   0.668   5.015
 2745SOL    HW2 9135   6.755   0.712   5.081
 2746SOL     OW 9136   1.327   2.492   4.842
 2746SOL    HW1 9137   1.315   2.410   4.785
 2746SOL    HW2 9138   1.283   2.570   4.798
 2747SOL     OW 9139   4.518   4.941   6.507
 2747SOL    HW1 9140   4.504   4.983   6.597
 2747SOL    HW2 9141   4.456   4.864   6.496
 2748SOL     OW 9142   4.536   1.208   2.333
 2748SOL    HW1 9143   4.530   1.253   2.422
 2748SOL    HW2 9144   4.581   1.269   2.268
 2749SOL     OW 9145   0.203   4.226   0.999
 2749SOL    HW1 9146   0.260   4.153   0.965
 2749SOL    HW2 9147   0.130   4.188   1.057
 2750SOL     OW 9148   1.398   3.642   0.757
 2750SOL    HW1 9149   1.422   3.618   0.850
 2750SOL    HW2 9150   1.412   3.740   0.743
 2751SOL     OW 9151   1.270   3.309   1.416
 2751SOL    HW1 9152   1.288   3.258   1.332
 2751SOL    HW2 9153   1.172   3.323   1.426
 2752SOL     OW 9154   3.905   5.157   5.219
 2752SOL    HW1 9155   3.860   5.092   5.281
 2752SOL    HW2 9156   3.844   5.234   5.202
 2753SOL     OW 9157   6.700   6.533   5.112
 2753SOL    HW1 9158   6.722   6.535   5.210
 2753SOL    HW2 9159   6.782   6.557   5.059
 2754SOL     OW 9160   0.752   0.687   1.439
 2754SOL    HW1 9161   0.743   0.745   1.357
 2754SOL    HW2 9162   0.671   0.629   1.447
 2755SOL     OW 9163   2.201   0.184   2.735
 2755SOL    HW1 9164   2.179   0.087   2.725
 2755SOL    HW2 9165   2.136   0.239   2.683
 2756SOL     OW 9166   5.877   5.168   6.758
 2756SOL    HW1 9167   5.841   5.076   6.741
 2756SOL    HW2 9168   5.976   5.164   6.770
 2757SOL     OW 9169   2.633   0.044   6.935
 2757SOL    HW1 9170   2.588   0.116   6.882
 2757SOL    HW2 9171   2.715   0.013   6.886
 2758SOL     OW 9172   3.750   6.029   4.245
 2758SOL    HW1 9173   3.670   6.073   4.285
 2758SOL    HW2 9174   3.833   6.069   4.284
 2759SOL     OW 9175   5.243   7.004   5.902
 2759SOL    HW1 9176   5.196   0.069   5.899
 2759SOL    HW2 9177   5.302   6.995   5.822
 2760SOL     OW 9178   0.620   6.128   1.967
 2760SOL    HW1 9179   0.577   6.106   1.879
 2760SOL    HW2 9180   0.705   6.179   1.951
 2761SOL     OW 9181   2.262   5.618   4.626
 2761SOL    HW1 9182   2.309   5.614   4.714
 2761SOL    HW2 9183   2.175   5.570   4.632
 2762SOL     OW 9184   1.178   1.457   5.050
 2762SOL    HW1 9185   1.191   1.544   5.096
 2762SOL    HW2 9186   1.135   1.392   5.112
 2763SOL     OW 9187   5.000   1.455   3.206
 2763SOL    HW1 9188   4.906   1.443   3.236
 2763SOL    HW2 9189   5.062   1.414   3.273
 2764SOL     OW 9190   5.848   1.381   0.956
 2764SOL    HW1 9191   5.782   1.391   0.881
 2764SOL    HW2 9192   5.799   1.385   1.043
 2765SOL     OW 9193   5.649   0.169   1.360
 2765SOL    HW1 9194   5.673   0.245   1.420
 2765SOL    HW2 9195   5.725   0.104   1.357
 2766SOL     OW 9196   5.326   1.879   0.715
 2766SOL    HW1 9197   5.282   1.803   0.667
 2766SOL    HW2 9198   5.289   1.965   0.682
 2767SOL     OW 9199   6.751   5.422   0.147
 2767SOL    HW1 9200   6.662   5.445   0.106
 2767SOL    HW2 9201   6.779   5.496   0.209
 2768SOL     OW 9202   4.511   0.906   1.192
 2768SOL    HW1 9203   4.423   0.877   1.153
 2768SOL    HW2 9204   4.557   0.826   1.231
 2769SOL     OW 9205   1.906   4.123   4.707
 2769SOL    HW1 9206   2.001   4.102   4.685
 2769SOL    HW2 9207   1.874   4.199   4.650
 2770SOL     OW 9208   4.285   5.935   5.699
 2770SOL    HW1 9209   4.277   5.941   5.799
 2770SOL    HW2 9210   4.203   5.973   5.657
 2771SOL     OW 9211   6.837   0.835   3.759
 2771SOL    HW1 9212   6.860   0.932   3.756
 2771SOL    HW2 9213   6.738   0.825   3.771
 2772SOL     OW 9214   3.977   1.131   0.699
 2772SOL    HW1 9215   4.075   1.119   0.714
 2772SOL    HW2 9216   3.961   1.151   0.602
 2773SOL     OW 9217   6.032   2.482   5.040
 2773SOL    HW1 9218   6.094   2.428   4.983
 2773SOL    HW2 9219   6.004   2.564   4.991
 2774SOL     OW 9220   5.805   3.170   3.270
 2774SOL    HW1 9221   5.876   3.237   3.293
 2774SOL    HW2 9222   5.728   3.181   3.333
 2775SOL     OW 9223   6.889   5.808   6.243
 2775SOL    HW1 9224   6.945   5.839   6.321
 2775SOL    HW2 9225   6.804   5.769   6.277
 2776SOL     OW 9226   4.084   5.123   5.578
 2776SOL    HW1 9227   4.107   5.137   5.674
 2776SOL    HW2 9228   4.090   5.026   5.556
 2777SOL     OW 9229   2.913   1.017   2.184
 2777SOL    HW1 9230   2.919   1.068   2.269
 2777SOL    HW2 9231   2.999   0.970   2.166
 2778SOL     OW 9232   1.534   6.937   5.618
 2778SOL    HW1 9233   1.566   7.010   5.558
 2778SOL    HW2 9234   1.613   6.894   5.663
 2779SOL     OW 9235   5.007   6.403   1.309
 2779SOL    HW1 9236   5.021   6.407   1.407
 2779SOL    HW2 9237   5.096   6.396   1.263
 2780SOL     OW 9238   6.245   6.710   6.978
 2780SOL    HW1 9239   6.331   6.761   6.978
 2780SOL    HW2 9240   6.200   6.721   0.043
 2781SOL     OW 9241   5.510   6.567   2.134
 2781SOL    HW1 9242   5.416   6.537   2.150
 2781SOL    HW2 9243   5.573   6.501   2.174
 2782SOL     OW 9244   4.365   2.407   6.270
 2782SOL    HW1 9245   4.444   2.463   6.294
 2782SOL    HW2 9246   4.395   2.315   6.246
 2783SOL     OW 9247   5.243   4.155   3.541
 2783SOL    HW1 9248   5.323   4.114   3.497
 2783SOL    HW2 9249   5.179   4.082   3.567
 2784SOL     OW 9250   3.491   1.142   2.451
 2784SOL    HW1 9251   3.537   1.090   2.380
 2784SOL    HW2 9252   3.544   1.224   2.473
 2785SOL     OW 9253   4.924   1.390   0.778
 2785SOL    HW1 9254   4.857   1.463   0.779
 2785SOL    HW2 9255   4.902   1.322   0.849
 2786SOL     OW 9256   4.890   7.013   2.065
 2786SOL    HW1 9257   4.870   7.004   1.968
 2786SOL    HW2 9258   4.820   0.045   2.110
 2787SOL     OW 9259   4.816   1.620   6.420
 2787SOL    HW1 9260   4.852   1.553   6.355
 2787SOL    HW2 9261   4.891   1.659   6.473
 2788SOL     OW 9262   2.010   5.238   5.716
 2788SOL    HW1 9263   2.047   5.287   5.636
 2788SOL    HW2 9264   1.945   5.298   5.764
 2789SOL     OW 9265   1.614   1.978   4.006
 2789SOL    HW1 9266   1.653   1.937   3.924
 2789SOL    HW2 9267   1.590   2.073   3.988
 2790SOL     OW 9268   3.218   5.895   1.843
 2790SOL    HW1 9269   3.179   5.979   1.881
 2790SOL    HW2 9270   3.181   5.816   1.891
 2791SOL     OW 9271   0.816   3.065   3.348
 2791SOL    HW1 9272   0.729   3.094   3.386
 2791SOL    HW2 9273   0.885   3.136   3.364
 2792SOL     OW 9274   2.367   6.797   3.703
 2792SOL    HW1 9275   2.316   6.873   3.663
 2792SOL    HW2 9276   2.312   6.714   3.699
 2793SOL     OW 9277   5.575   3.977   2.814
 2793SOL    HW1 9278   5.621   3.900   2.768
 2793SOL    HW2 9279   5.644   4.041   2.847
 2794SOL     OW 9280   0.220   2.377   6.592
 2794SOL    HW1 9281   0.302   2.400   6.539
 2794SOL    HW2 9282   0.239   2.388   6.690
 2795SOL     OW 9283   1.117   3.081   0.391
 2795SOL    HW1 9284   1.160   3.113   0.307
 2795SOL    HW2 9285   1.100   2.982   0.384
 2796SOL     OW 9286   6.925   6.144   2.948
 2796SOL    HW1 9287   6.888   6.118   2.859
 2796SOL    HW2 9288   7.022   6.166   2.939
 2797SOL     OW 9289   5.103   5.446   4.368
 2797SOL    HW1 9290   5.102   5.434   4.467
 2797SOL    HW2 9291   5.135   5.362   4.324
 2798SOL     OW 9292   0.032   5.047   2.164
 2798SOL    HW1 9293   0.124   5.017   2.138
 2798SOL    HW2 9294   0.037   5.131   2.217
 2799SOL     OW 9295   6.015   5.556   6.726
 2799SOL    HW1 9296   6.096   5.517   6.771
 2799SOL    HW2 9297   5.933   5.532   6.779
 2800SOL     OW 9298   4.782   6.303   0.487
 2800SOL    HW1 9299   4.875   6.324   0.459
 2800SOL    HW2 9300   4.719   6.332   0.415
 2801SOL     OW 9301   6.490   5.957   6.204
 2801SOL    HW1 9302   6.540   5.973   6.118
 2801SOL    HW2 9303   6.531   5.880   6.252
 2802SOL     OW 9304   5.251   1.669   5.228
 2802SOL    HW1 9305   5.171   1.707   5.275
 2802SOL    HW2 9306   5.275   1.727   5.151
 2803SOL     OW 9307   3.888   5.684   6.577
 2803SOL    HW1 9308   3.924   5.613   6.638
 2803SOL    HW2 9309   3.963   5.721   6.522
 2804SOL     OW 9310   0.377   5.232   5.214
 2804SOL    HW1 9311   0.334   5.151   5.255
 2804SOL    HW2 9312   0.322   5.313   5.236
 2805SOL     OW 9313   5.672   3.374   1.795
 2805SOL    HW1 9314   5.573   3.391   1.789
 2805SOL    HW2 9315   5.719   3.432   1.728
 2806SOL     OW 9316   6.904   4.889   5.820
 2806SOL    HW1 9317   6.837   4.857   5.887
 2806SOL    HW2 9318   6.862   4.955   5.758
 2807SOL     OW 9319   4.901   6.389   4.559
 2807SOL    HW1 9320   4.974   6.338   4.605
 2807SOL    HW2 9321   4.844   6.435   4.626
 2808SOL     OW 9322   5.790   4.307   2.048
 2808SOL    HW1 9323   5.779   4.394   2.095
 2808SOL    HW2 9324   5.808   4.235   2.115
 2809SOL     OW 9325   5.853   3.129   0.914
 2809SOL    HW1 9326   5.806   3.041   0.924
 2809SOL    HW2 9327   5.817   3.193   0.982
 2810SOL     OW 9328   3.773   4.892   3.734
 2810SOL    HW1 9329   3.683   4.848   3.739
 2810SOL    HW2 9330   3.784   4.935   3.644
 2811SOL     OW 9331   1.185   1.819   3.250
 2811SOL    HW1 9332   1.161   1.916   3.244
 2811SOL    HW2 9333   1.112   1.769   3.297
 2812SOL     OW 9334   4.990   4.090   6.459
 2812SOL    HW1 9335   4.994   4.026   6.382
 2812SOL    HW2 9336   4.959   4.041   6.541
 2813SOL     OW 9337   0.031   6.878   6.570
 2813SOL    HW1 9338   0.105   6.811   6.571
 2813SOL    HW2 9339   6.992   6.858   6.494
 2814SOL     OW 9340   4.128   3.635   5.249
 2814SOL    HW1 9341   4.134   3.685   5.163
 2814SOL    HW2 9342   4.040   3.590   5.256
 2815SOL     OW 9343   6.068   0.207   5.377
 2815SOL    HW1 9344   5.971   0.229   5.371
 2815SOL    HW2 9345   6.088   0.165   5.466
 2816SOL     OW 9346   6.541   5.510   3.297
 2816SOL    HW1 9347   6.526   5.451   3.376
 2816SOL    HW2 9348   6.627   5.484   3.253
 2817SOL     OW 9349   2.665   6.940   1.301
 2817SOL    HW1 9350   2.596   6.984   1.358
 2817SOL    HW2 9351   2.693   6.854   1.344
 2818SOL     OW 9352   0.431   0.718   0.961
 2818SOL    HW1 9353   0.501   0.689   0.895
 2818SOL    HW2 9354   0.400   0.639   1.013
 2819SOL     OW 9355   0.968   1.267   1.441
 2819SOL    HW1 9356   1.058   1.225   1.426
 2819SOL    HW2 9357   0.945   1.262   1.538
 2820SOL     OW 9358   0.789   2.665   3.366
 2820SOL    HW1 9359   0.818   2.618   3.450
 2820SOL    HW2 9360   0.858   2.653   3.295
 2821SOL     OW 9361   4.033   3.125   6.903
 2821SOL    HW1 9362   3.959   3.164   6.959
 2821SOL    HW2 9363   4.102   3.194   6.887
 2822SOL     OW 9364   4.032   1.443   0.144
 2822SOL    HW1 9365   4.091   1.521   0.168
 2822SOL    HW2 9366   3.940   1.459   0.181
 2823SOL     OW 9367   4.464   0.724   0.356
 2823SOL    HW1 9368   4.385   0.712   0.417
 2823SOL    HW2 9369   4.439   0.698   0.263
 2824SOL     OW 9370   2.547   1.544   3.522
 2824SOL    HW1 9371   2.617   1.602   3.564
 2824SOL    HW2 9372   2.543   1.457   3.571
 2825SOL     OW 9373   6.024   0.636   6.494
 2825SOL    HW1 9374   5.988   0.621   6.402
 2825SOL    HW2 9375   6.111   0.684   6.487
 2826SOL     OW 9376   4.926   1.065   6.552
 2826SOL    HW1 9377   4.838   1.024   6.576
 2826SOL    HW2 9378   4.941   1.058   6.453
 2827SOL     OW 9379   6.845   1.063   5.307
 2827SOL    HW1 9380   6.750   1.056   5.277
 2827SOL    HW2 9381   6.853   1.030   5.401
 2828SOL     OW 9382   2.593   1.328   0.490
 2828SOL    HW1 9383   2.624   1.236   0.467
 2828SOL    HW2 9384   2.546   1.326   0.578
 2829SOL     OW 9385   3.141   3.548   5.074
 2829SOL    HW1 9386   3.144   3.456   5.113
 2829SOL    HW2 9387   3.159   3.544   4.976
 2830SOL     OW 9388   1.601   3.108   5.951
 2830SOL    HW1 9389   1.688   3.068   5.979
 2830SOL    HW2 9390   1.595   3.110   5.851
 2831SOL     OW 9391   0.614   4.693   3.508
 2831SOL    HW1 9392   0.612   4.716   3.605
 2831SOL    HW2 9393   0.690   4.740   3.464
 2832SOL     OW 9394   0.784   2.769   1.816
 2832SOL    HW1 9395   0.739   2.780   1.904
 2832SOL    HW2 9396   0.715   2.765   1.744
 2833SOL     OW 9397   3.153   2.030   2.396
 2833SOL    HW1 9398   3.210   2.024   2.314
 2833SOL    HW2 9399   3.060   2.053   2.370
 2834SOL     OW 9400   3.933   5.320   5.930
 2834SOL    HW1 9401   3.977   5.399   5.973
 2834SOL    HW2 9402   3.877   5.350   5.853
 2835SOL     OW 9403   0.355   0.109   2.086
 2835SOL    HW1 9404   0.347   0.047   2.164
 2835SOL    HW2 9405   0.403   0.062   2.012
 2836SOL     OW 9406   6.520   6.658   2.470
 2836SOL    HW1 9407   6.482   6.744   2.436
 2836SOL    HW2 9408   6.548   6.601   2.392
 2837SOL     OW 9409   5.613   4.546   2.392
 2837SOL    HW1 9410   5.528   4.571   2.438
 2837SOL    HW2 9411   5.689   4.596   2.433
 2838SOL     OW 9412   2.603   4.069   1.098
 2838SOL    HW1 9413   2.551   4.154   1.091
 2838SOL    HW2 9414   2.648   4.050   1.011
 2839SOL     OW 9415   6.955   1.881   2.509
 2839SOL    HW1 9416   6.914   1.856   2.421
 2839SOL    HW2 9417   7.002   1.969   2.499
 2840SOL     OW 9418   1.524   0.348   3.149
 2840SOL    HW1 9419   1.440   0.360   3.096
 2840SOL    HW2 9420   1.594   0.306   3.092
 2841SOL     OW 9421   0.674   0.756   6.254
 2841SOL    HW1 9422   0.721   0.835   6.293
 2841SOL    HW2 9423   0.614   0.786   6.180
 2842SOL     OW 9424   0.393   4.223   4.143
 2842SOL    HW1 9425   0.318   4.257   4.087
 2842SOL    HW2 9426   0.387   4.264   4.235
 2843SOL     OW 9427   2.303   2.292   2.773
 2843SOL    HW1 9428   2.304   2.248   2.863
 2843SOL    HW2 9429   2.215   2.337   2.759
 2844SOL     OW 9430   6.874   5.018   0.728
 2844SOL    HW1 9431   6.962   4.974   0.740
 2844SOL    HW2 9432   6.873   5.071   0.643
 2845SOL     OW 9433   6.094   3.042   0.908
 2845SOL    HW1 9434   6.080   2.948   0.939
 2845SOL    HW2 9435   6.008   3.092   0.916
 2846SOL     OW 9436   3.867   1.188   0.065
 2846SOL    HW1 9437   3.787   1.152   0.016
 2846SOL    HW2 9438   3.861   1.162   0.161
 2847SOL     OW 9439   4.824   3.273   3.625
 2847SOL    HW1 9440   4.812   3.205   3.698
 2847SOL    HW2 9441   4.750   3.263   3.558
 2848SOL     OW 9442   1.597   2.083   4.894
 2848SOL    HW1 9443   1.511   2.113   4.935
 2848SOL    HW2 9444   1.586   2.076   4.795
 2849SOL     OW 9445   4.167   6.383   0.815
 2849SOL    HW1 9446   4.252   6.361   0.768
 2849SOL    HW2 9447   4.119   6.298   0.838
 2850SOL     OW 9448   1.640   0.132   2.433
 2850SOL    HW1 9449   1.690   0.144   2.519
 2850SOL    HW2 9450   1.552   0.178   2.440
 2851SOL     OW 9451   6.279   1.146   6.210
 2851SOL    HW1 9452   6.322   1.069   6.258
 2851SOL    HW2 9453   6.251   1.215   6.276
 2852SOL     OW 9454   5.563   4.338   6.825
 2852SOL    HW1 9455   5.627   4.276   6.781
 2852SOL    HW2 9456   5.498   4.285   6.880
 2853SOL     OW 9457   1.640   1.917   6.563
 2853SOL    HW1 9458   1.690   1.832   6.545
 2853SOL    HW2 9459   1.674   1.958   6.647
 2854SOL     OW 9460   4.267   1.500   4.930
 2854SOL    HW1 9461   4.361   1.515   4.897
 2854SOL    HW2 9462   4.205   1.562   4.881
 2855SOL     OW 9463   2.117   1.221   0.087
 2855SOL    HW1 9464   2.127   1.273   0.171
 2855SOL    HW2 9465   2.182   1.254   0.019
 2856SOL     OW 9466   1.006   2.584   5.851
 2856SOL    HW1 9467   1.089   2.587   5.907
 2856SOL    HW2 9468   0.926   2.582   5.911
 2857SOL     OW 9469   2.249   2.390   2.487
 2857SOL    HW1 9470   2.285   2.297   2.484
 2857SOL    HW2 9471   2.212   2.409   2.578
 2858SOL     OW 9472   4.749   4.205   2.213
 2858SOL    HW1 9473   4.680   4.216   2.141
 2858SOL    HW2 9474   4.801   4.291   2.221
 2859SOL     OW 9475   5.784   1.089   6.731
 2859SOL    HW1 9476   5.704   1.123   6.682
 2859SOL    HW2 9477   5.800   0.993   6.706
 2860SOL     OW 9478   3.232   1.334   1.809
 2860SOL    HW1 9479   3.210   1.236   1.808
 2860SOL    HW2 9480   3.327   1.346   1.837
 2861SOL     OW 9481   3.753   3.802   5.612
 2861SOL    HW1 9482   3.705   3.820   5.526
 2861SOL    HW2 9483   3.850   3.821   5.601
 2862SOL     OW 9484   5.935   1.724   2.659
 2862SOL    HW1 9485   6.026   1.754   2.687
 2862SOL    HW2 9486   5.930   1.624   2.664
 2863SOL     OW 9487   5.021   1.263   6.748
 2863SOL    HW1 9488   4.992   1.210   6.668
 2863SOL    HW2 9489   4.983   1.222   6.831
 2864SOL     OW 9490   4.446   1.637   2.076
 2864SOL    HW1 9491   4.480   1.614   1.985
 2864SOL    HW2 9492   4.472   1.731   2.098
 2865SOL     OW 9493   4.037   4.119   6.480
 2865SOL    HW1 9494   4.064   4.023   6.492
 2865SOL    HW2 9495   3.946   4.133   6.520
 2866SOL     OW 9496   6.610   5.461   0.471
 2866SOL    HW1 9497   6.576   5.385   0.526
 2866SOL    HW2 9498   6.554   5.470   0.389
 2867SOL     OW 9499   6.868   5.689   2.931
 2867SOL    HW1 9500   6.863   5.725   2.838
 2867SOL    HW2 9501   6.816   5.748   2.993
 2868SOL     OW 9502   0.792   1.858   5.462
 2868SOL    HW1 9503   0.756   1.827   5.550
 2868SOL    HW2 9504   0.759   1.798   5.390
 2869SOL     OW 9505   6.730   1.297   3.757
 2869SOL    HW1 9506   6.771   1.382   3.792
 2869SOL    HW2 9507   6.631   1.304   3.762
 2870SOL     OW 9508   0.328   1.741   4.674
 2870SOL    HW1 9509   0.304   1.835   4.650
 2870SOL    HW2 9510   0.297   1.679   4.602
 2871SOL     OW 9511   0.150   2.058   7.022
 2871SOL    HW1 9512   0.211   2.044   0.076
 2871SOL    HW2 9513   0.100   1.973   7.004
 2872SOL     OW 9514   2.329   2.114   2.449
 2872SOL    HW1 9515   2.425   2.089   2.436
 2872SOL    HW2 9516   2.300   2.087   2.541
 2873SOL     OW 9517   0.225   5.128   2.972
 2873SOL    HW1 9518   0.159   5.176   2.913
 2873SOL    HW2 9519   0.179   5.055   3.021
 2874SOL     OW 9520   4.186   6.723   3.216
 2874SOL    HW1 9521   4.237   6.709   3.301
 2874SOL    HW2 9522   4.131   6.807   3.225
 2875SOL     OW 9523   4.162   6.944   0.655
 2875SOL    HW1 9524   4.119   0.009   0.671
 2875SOL    HW2 9525   4.222   6.921   0.732
 2876SOL     OW 9526   1.485   0.297   1.989
 2876SOL    HW1 9527   1.443   0.225   2.043
 2876SOL    HW2 9528   1.510   0.373   2.048
 2877SOL     OW 9529   3.347   2.593   5.329
 2877SOL    HW1 9530   3.302   2.528   5.268
 2877SOL    HW2 9531   3.399   2.543   5.398
 2878SOL     OW 9532   3.716   4.929   4.756
 2878SOL    HW1 9533   3.723   4.956   4.852
 2878SOL    HW2 9534   3.684   4.835   4.750
 2879SOL     OW 9535   5.599   5.110   0.375
 2879SOL    HW1 9536   5.577   5.191   0.430
 2879SOL    HW2 9537   5.666   5.054   0.423
 2880SOL     OW 9538   6.718   0.628   2.115
 2880SOL    HW1 9539   6.810   0.655   2.086
 2880SOL    HW2 9540   6.650   0.677   2.060
 2881SOL     OW 9541   5.079   6.027   0.126
 2881SOL    HW1 9542   5.153   5.975   0.170
 2881SOL    HW2 9543   5.038   5.972   0.053
 2882SOL     OW 9544   0.766   4.565   2.545
 2882SOL    HW1 9545   0.852   4.518   2.526
 2882SOL    HW2 9546   0.727   4.598   2.459
 2883SOL     OW 9547   5.456   0.349   3.277
 2883SOL    HW1 9548   5.389   0.278   3.253
 2883SOL    HW2 9549   5.487   0.395   3.194
 2884SOL     OW 9550   0.965   0.222   2.725
 2884SOL    HW1 9551   0.987   0.258   2.634
 2884SOL    HW2 9552   0.896   0.150   2.716
 2885SOL     OW 9553   0.816   3.470   3.246
 2885SOL    HW1 9554   0.717   3.469   3.230
 2885SOL    HW2 9555   0.859   3.534   3.182
 2886SOL     OW 9556   1.653   4.269   5.946
 2886SOL    HW1 9557   1.661   4.330   5.868
 2886SOL    HW2 9558   1.582   4.201   5.929
 2887SOL     OW 9559   0.174   0.773   5.191
 2887SOL    HW1 9560   0.239   0.830   5.141
 2887SOL    HW2 9561   0.106   0.831   5.235
 2888SOL     OW 9562   0.447   4.350   0.420
 2888SOL    HW1 9563   0.358   4.304   0.423
 2888SOL    HW2 9564   0.460   4.402   0.504
 2889SOL     OW 9565   1.746   6.579   2.354
 2889SOL    HW1 9566   1.773   6.639   2.429
 2889SOL    HW2 9567   1.827   6.543   2.308
 2890SOL     OW 9568   2.144   6.022   0.453
 2890SOL    HW1 9569   2.107   6.062   0.537
 2890SOL    HW2 9570   2.180   5.931   0.474
 2891SOL     OW 9571   0.783   3.988   3.817
 2891SOL    HW1 9572   0.773   3.952   3.724
 2891SOL    HW2 9573   0.794   4.087   3.812
 2892SOL     OW 9574   5.374   3.201   0.141
 2892SOL    HW1 9575   5.466   3.175   0.112
 2892SOL    HW2 9576   5.376   3.294   0.179
 2893SOL     OW 9577   6.968   6.312   4.738
 2893SOL    HW1 9578   7.021   6.293   4.820
 2893SOL    HW2 9579   7.014   6.383   4.684
 2894SOL     OW 9580   1.097   3.018   2.183
 2894SOL    HW1 9581   1.152   2.956   2.127
 2894SOL    HW2 9582   1.040   2.965   2.246
 2895SOL     OW 9583   4.800   2.381   6.080
 2895SOL    HW1 9584   4.745   2.435   6.144
 2895SOL    HW2 9585   4.881   2.434   6.052
 2896SOL     OW 9586   4.590   6.024   6.245
 2896SOL    HW1 9587   4.670   5.966   6.231
 2896SOL    HW2 9588   4.538   5.989   6.324
 2897SOL     OW 9589   3.916   5.091   2.827
 2897SOL    HW1 9590   3.999   5.144   2.842
 2897SOL    HW2 9591   3.860   5.137   2.757
 2898SOL     OW 9592   4.631   4.884   4.357
 2898SOL    HW1 9593   4.601   4.879   4.262
 2898SOL    HW2 9594   4.553   4.908   4.416
 2899SOL     OW 9595   1.222   1.631   0.584
 2899SOL    HW1 9596   1.303   1.682   0.554
 2899SOL    HW2 9597   1.186   1.671   0.668
 2900SOL     OW 9598   1.731   4.256   5.609
 2900SOL    HW1 9599   1.775   4.345   5.615
 2900SOL    HW2 9600   1.790   4.187   5.652
 2901SOL     OW 9601   2.784   5.508   3.747
 2901SOL    HW1 9602   2.703   5.466   3.705
 2901SOL    HW2 9603   2.866   5.458   3.717
 2902SOL     OW 9604   4.724   6.810   2.651
 2902SOL    HW1 9605   4.683   6.856   2.572
 2902SOL    HW2 9606   4.823   6.822   2.650
 2903SOL     OW 9607   3.324   0.680   0.682
 2903SOL    HW1 9608   3.277   0.695   0.768
 2903SOL    HW2 9609   3.417   0.716   0.688
 2904SOL     OW 9610   2.167   3.845   4.829
 2904SOL    HW1 9611   2.153   3.752   4.864
 2904SOL    HW2 9612   2.220   3.898   4.894
 2905SOL     OW 9613   1.434   2.562   4.539
 2905SOL    HW1 9614   1.472   2.541   4.629
 2905SOL    HW2 9615   1.428   2.478   4.485
 2906SOL     OW 9616   4.211   5.410   1.579
 2906SOL    HW1 9617   4.143   5.436   1.647
 2906SOL    HW2 9618   4.169   5.411   1.488
 2907SOL     OW 9619   0.728   1.280   3.750
 2907SOL    HW1 9620   0.669   1.313   3.676
 2907SOL    HW2 9621   0.772   1.358   3.796
 2908SOL     OW 9622   5.016   6.278   3.999
 2908SOL    HW1 9623   4.943   6.215   3.973
 2908SOL    HW2 9624   4.991   6.325   4.084
 2909SOL     OW 9625   1.487   5.851   3.648
 2909SOL    HW1 9626   1.549   5.844   3.727
 2909SOL    HW2 9627   1.416   5.919   3.668
 2910SOL     OW 9628   4.589   7.013   4.226
 2910SOL    HW1 9629   4.606   0.087   4.216
 2910SOL    HW2 9630   4.493   6.999   4.254
 2911SOL     OW 9631   0.718   5.543   3.424
 2911SOL    HW1 9632   0.651   5.608   3.460
 2911SOL    HW2 9633   0.674   5.481   3.359
 2912SOL     OW 9634   4.735   0.642   0.090
 2912SOL    HW1 9635   4.822   0.680   0.059
 2912SOL    HW2 9636   4.665   0.713   0.090
 2913SOL     OW 9637   2.770   4.861   2.846
 2913SOL    HW1 9638   2.867   4.839   2.843
 2913SOL    HW2 9639   2.746   4.920   2.768
 2914SOL     OW 9640   6.292   6.325   0.108
 2914SOL    HW1 9641   6.292   6.328   0.008
 2914SOL    HW2 9642   6.357   6.256   0.140
 2915SOL     OW 9643   5.595   1.810   3.776
 2915SOL    HW1 9644   5.529   1.799   3.702
 2915SOL    HW2 9645   5.548   1.846   3.857
 2916SOL     OW 9646   1.054   6.512   0.070
 2916SOL    HW1 9647   0.962   6.472   0.069
 2916SOL    HW2 9648   1.061   6.580   7.020
 2917SOL     OW 9649   2.565   6.904   3.080
 2917SOL    HW1 9650   2.649   6.889   3.027
 2917SOL    HW2 9651   2.566   6.845   3.161
 2918SOL     OW 9652   6.179   5.461   5.107
 2918SOL    HW1 9653   6.261   5.445   5.162
 2918SOL    HW2 9654   6.103   5.486   5.167
 2919SOL     OW 9655   6.679   1.214   2.011
 2919SOL    HW1 9656   6.671   1.291   1.947
 2919SOL    HW2 9657   6.747   1.150   1.977
 2920SOL     OW 9658   2.389   1.507   1.720
 2920SOL    HW1 9659   2.384   1.566   1.639
 2920SOL    HW2 9660   2.399   1.563   1.802
 2921SOL     OW 9661   0.946   0.092   3.650
 2921SOL    HW1 9662   0.960   0.026   3.723
 2921SOL    HW2 9663   1.003   0.173   3.667
 2922SOL     OW 9664   4.901   0.886   0.381
 2922SOL    HW1 9665   4.809   0.852   0.364
 2922SOL    HW2 9666   4.924   0.872   0.477
 2923SOL     OW 9667   6.501   5.309   2.115
 2923SOL    HW1 9668   6.482   5.221   2.071
 2923SOL    HW2 9669   6.586   5.303   2.167
 2924SOL     OW 9670   6.568   2.266   5.388
 2924SOL    HW1 9671   6.539   2.327   5.314
 2924SOL    HW2 9672   6.493   2.205   5.413
 2925SOL     OW 9673   4.526   0.622   2.103
 2925SOL    HW1 9674   4.523   0.558   2.026
 2925SOL    HW2 9675   4.480   0.707   2.078
 2926SOL     OW 9676   6.645   1.620   4.400
 2926SOL    HW1 9677   6.591   1.664   4.328
 2926SOL    HW2 9678   6.739   1.654   4.397
 2927SOL     OW 9679   1.106   3.006   1.728
 2927SOL    HW1 9680   1.160   3.090   1.729
 2927SOL    HW2 9681   1.069   2.992   1.636
 2928SOL     OW 9682   0.116   1.345   6.370
 2928SOL    HW1 9683   0.200   1.343   6.423
 2928SOL    HW2 9684   0.107   1.261   6.317
 2929SOL     OW 9685   7.021   2.279   6.931
 2929SOL    HW1 9686   0.036   2.217   7.000
 2929SOL    HW2 9687   0.063   2.352   6.912
 2930SOL     OW 9688   4.647   0.681   5.038
 2930SOL    HW1 9689   4.627   0.584   5.027
 2930SOL    HW2 9690   4.644   0.726   4.948
 2931SOL     OW 9691   5.332   4.737   0.488
 2931SOL    HW1 9692   5.407   4.736   0.423
 2931SOL    HW2 9693   5.278   4.821   0.476
 2932SOL     OW 9694   0.685   5.097   1.162
 2932SOL    HW1 9695   0.626   5.138   1.093
 2932SOL    HW2 9696   0.777   5.137   1.155
 2933SOL     OW 9697   6.742   4.761   3.328
 2933SOL    HW1 9698   6.719   4.823   3.403
 2933SOL    HW2 9699   6.754   4.814   3.244
 2934SOL     OW 9700   4.596   1.233   0.294
 2934SOL    HW1 9701   4.580   1.320   0.249
 2934SOL    HW2 9702   4.687   1.199   0.272
 2935SOL     OW 9703   6.040   2.918   0.131
 2935SOL    HW1 9704   6.064   2.957   0.042
 2935SOL    HW2 9705   5.941   2.922   0.143
 2936SOL     OW 9706   4.199   6.030   1.219
 2936SOL    HW1 9707   4.262   6.012   1.143
 2936SOL    HW2 9708   4.211   6.124   1.250
 2937SOL     OW 9709   4.493   4.682   0.488
 2937SOL    HW1 9710   4.564   4.749   0.466
 2937SOL    HW2 9711   4.403   4.721   0.469
 2938SOL     OW 9712   4.581   5.269   6.948
 2938SOL    HW1 9713   4.501   5.320   6.981
 2938SOL    HW2 9714   4.552   5.201   6.881
 2939SOL     OW 9715   1.112   0.959   3.258
 2939SOL    HW1 9716   1.122   0.866   3.223
 2939SOL    HW2 9717   1.193   0.983   3.312
 2940SOL     OW 9718   5.572   5.270   6.138
 2940SOL    HW1 9719   5.548   5.265   6.041
 2940SOL    HW2 9720   5.619   5.356   6.156
 2941SOL     OW 9721   1.913   2.832   4.611
 2941SOL    HW1 9722   1.951   2.796   4.695
 2941SOL    HW2 9723   1.820   2.797   4.598
 2942SOL     OW 9724   3.355   2.467   1.077
 2942SOL    HW1 9725   3.276   2.504   1.029
 2942SOL    HW2 9726   3.402   2.541   1.126
 2943SOL     OW 9727   4.482   4.821   3.103
 2943SOL    HW1 9728   4.499   4.920   3.109
 2943SOL    HW2 9729   4.564   4.775   3.070
 2944SOL     OW 9730   3.065   6.196   4.637
 2944SOL    HW1 9731   3.106   6.157   4.555
 2944SOL    HW2 9732   2.991   6.259   4.610
 2945SOL     OW 9733   3.613   4.168   4.053
 2945SOL    HW1 9734   3.556   4.135   4.129
 2945SOL    HW2 9735   3.705   4.130   4.062
 2946SOL     OW 9736   0.604   5.040   6.033
 2946SOL    HW1 9737   0.567   4.957   6.077
 2946SOL    HW2 9738   0.541   5.116   6.048
 2947SOL     OW 9739   0.289   3.366   0.794
 2947SOL    HW1 9740   0.366   3.394   0.737
 2947SOL    HW2 9741   0.247   3.284   0.755
 2948SOL     OW 9742   0.825   4.699   5.568
 2948SOL    HW1 9743   0.759   4.650   5.512
 2948SOL    HW2 9744   0.868   4.635   5.632
 2949SOL     OW 9745   2.886   5.288   0.866
 2949SOL    HW1 9746   2.928   5.286   0.775
 2949SOL    HW2 9747   2.821   5.364   0.871
 2950SOL     OW 9748   5.267   4.074   4.337
 2950SOL    HW1 9749   5.195   4.126   4.383
 2950SOL    HW2 9750   5.246   3.977   4.342
 2951SOL     OW 9751   5.892   1.735   0.932
 2951SOL    HW1 9752   5.865   1.693   0.845
 2951SOL    HW2 9753   5.940   1.820   0.915
 2952SOL     OW 9754   1.028   5.631   5.471
 2952SOL    HW1 9755   1.011   5.600   5.565
 2952SOL    HW2 9756   0.941   5.643   5.424
 2953SOL     OW 9757   5.334   3.078   2.806
 2953SOL    HW1 9758   5.257   3.091   2.869
 2953SOL    HW2 9759   5.318   2.997   2.750
 2954SOL     OW 9760   0.285   5.452   1.674
 2954SOL    HW1 9761   0.330   5.539   1.692
 2954SOL    HW2 9762   0.324   5.411   1.591
 2955SOL     OW 9763   0.902   3.696   1.934
 2955SOL    HW1 9764   0.835   3.622   1.941
 2955SOL    HW2 9765   0.929   3.707   1.838
 2956SOL     OW 9766   5.767   6.263   3.351
 2956SOL    HW1 9767   5.766   6.289   3.254
 2956SOL    HW2 9768   5.760   6.345   3.408
 2957SOL     OW 9769   6.219   3.072   1.778
 2957SOL    HW1 9770   6.228   3.033   1.869
 2957SOL    HW2 9771   6.143   3.137   1.777
 2958SOL     OW 9772   2.403   5.022   4.004
 2958SOL    HW1 9773   2.359   5.111   4.013
 2958SOL    HW2 9774   2.383   4.967   4.086
 2959SOL     OW 9775   4.375   4.087   0.587
 2959SOL    HW1 9776   4.407   4.102   0.681
 2959SOL    HW2 9777   4.366   3.988   0.571
 2960SOL     OW 9778   3.509   0.730   6.750
 2960SOL    HW1 9779   3.495   0.800   6.680
 2960SOL    HW2 9780   3.430   0.669   6.753
 2961SOL     OW 9781   4.820   3.119   2.977
 2961SOL    HW1 9782   4.817   3.209   2.932
 2961SOL    HW2 9783   4.799   3.048   2.910
 2962SOL     OW 9784   3.875   0.426   3.458
 2962SOL    HW1 9785   3.869   0.456   3.553
 2962SOL    HW2 9786   3.958   0.372   3.445
 2963SOL     OW 9787   2.038   0.050   6.432
 2963SOL    HW1 9788   2.031   0.148   6.415
 2963SOL    HW2 9789   1.989   0.027   6.516
 2964SOL     OW 9790   0.916   0.508   3.094
 2964SOL    HW1 9791   0.970   0.578   3.046
 2964SOL    HW2 9792   0.845   0.552   3.148
 2965SOL     OW 9793   6.622   1.974   4.483
 2965SOL    HW1 9794   6.622   1.910   4.559
 2965SOL    HW2 9795   6.566   2.054   4.506
 2966SOL     OW 9796   5.784   5.950   4.048
 2966SOL    HW1 9797   5.720   5.912   3.981
 2966SOL    HW2 9798   5.733   5.978   4.130
 2967SOL     OW 9799   5.973   0.884   4.778
 2967SOL    HW1 9800   6.058   0.918   4.818
 2967SOL    HW2 9801   5.968   0.785   4.790
 2968SOL     OW 9802   0.944   3.465   6.162
 2968SOL    HW1 9803   1.037   3.476   6.196
 2968SOL    HW2 9804   0.935   3.511   6.074
 2969SOL     OW 9805   5.341   1.472   3.983
 2969SOL    HW1 9806   5.423   1.476   4.041
 2969SOL    HW2 9807   5.343   1.548   3.918
 2970SOL     OW 9808   1.846   4.833   5.922
 2970SOL    HW1 9809   1.834   4.851   5.824
 2970SOL    HW2 9810   1.931   4.876   5.953
 2971SOL     OW 9811   4.813   4.138   0.145
 2971SOL    HW1 9812   4.742   4.162   0.079
 2971SOL    HW2 9813   4.863   4.058   0.112
 2972SOL     OW 9814   6.206   4.640   6.387
 2972SOL    HW1 9815   6.143   4.587   6.444
 2972SOL    HW2 9816   6.298   4.600   6.394
 2973SOL     OW 9817   5.321   0.015   3.176
 2973SOL    HW1 9818   5.314   6.980   3.257
 2973SOL    HW2 9819   5.343   6.983   3.096
 2974SOL     OW 9820   0.673   4.602   2.792
 2974SOL    HW1 9821   0.709   4.602   2.699
 2974SOL    HW2 9822   0.574   4.584   2.789
 2975SOL     OW 9823   6.119   3.177   4.499
 2975SOL    HW1 9824   6.153   3.242   4.567
 2975SOL    HW2 9825   6.107   3.088   4.542
 2976SOL     OW 9826   3.733   2.147   3.556
 2976SOL    HW1 9827   3.663   2.172   3.622
 2976SOL    HW2 9828   3.695   2.152   3.464
 2977SOL     OW 9829   2.670   0.123   3.549
 2977SOL    HW1 9830   2.645   0.173   3.466
 2977SOL    HW2 9831   2.617   0.158   3.626
 2978SOL     OW 9832   4.581   4.442   0.169
 2978SOL    HW1 9833   4.584   4.355   0.120
 2978SOL    HW2 9834   4.559   4.425   0.265
 2979SOL     OW 9835   4.496   0.748   4.354
 2979SOL    HW1 9836   4.572   0.813   4.360
 2979SOL    HW2 9837   4.412   0.796   4.332
 2980SOL     OW 9838   1.498   6.270   4.123
 2980SOL    HW1 9839   1.508   6.361   4.084
 2980SOL    HW2 9840   1.428   6.219   4.074
 2981SOL     OW 9841   2.300   0.871   5.828
 2981SOL    HW1 9842   2.223   0.894   5.888
 2981SOL    HW2 9843   2.383   0.918   5.860
 2982SOL     OW 9844   4.092   5.302   2.944
 2982SOL    HW1 9845   4.057   5.359   3.018
 2982SOL    HW2 9846   4.159   5.354   2.891
 2983SOL     OW 9847   0.819   1.488   3.263
 2983SOL    HW1 9848   0.882   1.441   3.202
 2983SOL    HW2 9849   0.738   1.516   3.213
 2984SOL     OW 9850   5.425   5.525   1.394
 2984SOL    HW1 9851   5.351   5.587   1.368
 2984SOL    HW2 9852   5.464   5.484   1.312
 2985SOL     OW 9853   1.223   2.625   6.015
 2985SOL    HW1 9854   1.187   2.716   5.994
 2985SOL    HW2 9855   1.320   2.622   5.990
 2986SOL     OW 9856   3.168   3.755   5.231
 2986SOL    HW1 9857   3.144   3.679   5.171
 2986SOL    HW2 9858   3.191   3.835   5.175
 2987SOL     OW 9859   6.085   1.208   4.211
 2987SOL    HW1 9860   6.096   1.173   4.304
 2987SOL    HW2 9861   5.990   1.197   4.182
 2988SOL     OW 9862   0.931   5.994   2.459
 2988SOL    HW1 9863   0.997   5.920   2.448
 2988SOL    HW2 9864   0.911   6.035   2.370
 2989SOL     OW 9865   6.355   6.054   6.634
 2989SOL    HW1 9866   6.349   6.148   6.603
 2989SOL    HW2 9867   6.263   6.018   6.648
 2990SOL     OW 9868   4.401   2.021   4.694
 2990SOL    HW1 9869   4.495   1.990   4.707
 2990SOL    HW2 9870   4.389   2.052   4.600
 2991SOL     OW 9871   6.625   4.434   5.736
 2991SOL    HW1 9872   6.632   4.419   5.834
 2991SOL    HW2 9873   6.529   4.436   5.709
 2992SOL     OW 9874   2.857   6.004   4.768
 2992SOL    HW1 9875   2.873   5.906   4.778
 2992SOL    HW2 9876   2.925   6.043   4.707
 2993SOL     OW 9877   0.545   5.524   0.911
 2993SOL    HW1 9878   0.457   5.564   0.935
 2993SOL    HW2 9879   0.616   5.595   0.912
 2994SOL     OW 9880   4.190   6.893   7.000
 2994SOL    HW1 9881   4.217   6.899   0.072
 2994SOL    HW2 9882   4.250   6.828   6.952
 2995SOL     OW 9883   2.974   2.299   6.467
 2995SOL    HW1 9884   2.881   2.336   6.476
 2995SOL    HW2 9885   3.016   2.292   6.557
 2996SOL     OW 9886   2.133   0.841   2.997
 2996SOL    HW1 9887   2.120   0.936   2.970
 2996SOL    HW2 9888   2.154   0.836   3.095
 2997SOL     OW 9889   5.507   0.803   2.579
 2997SOL    HW1 9890   5.467   0.886   2.618
 2997SOL    HW2 9891   5.481   0.794   2.483
 2998SOL     OW 9892   4.278   0.293   4.307
 2998SOL    HW1 9893   4.377   0.283   4.302
 2998SOL    HW2 9894   4.254   0.390   4.310
 2999SOL     OW 9895   3.013   5.042   4.809
 2999SOL    HW1 9896   3.108   5.072   4.809
 2999SOL    HW2 9897   2.958   5.106   4.755
 3000SOL     OW 9898   2.772   3.193   6.917
 3000SOL    HW1 9899   2.792   3.095   6.917
 3000SOL    HW2 9900   2.674   3.207   6.934
 3001SOL     OW 9901   5.390   6.987   6.468
 3001SOL    HW1 9902   5.316   0.009   6.419
 3001SOL    HW2 9903   5.453   0.032   6.505
 3002SOL     OW 9904   3.654   1.075   6.953
 3002SOL    HW1 9905   3.629   0.987   6.993
 3002SOL    HW2 9906   3.589   1.100   6.882
 3003SOL     OW 9907   1.562   6.306   0.281
 3003SOL    HW1 9908   1.475   6.268   0.251
 3003SOL    HW2 9909   1.565   6.404   0.261
 3004SOL     OW 9910   0.943   4.475   3.200
 3004SOL    HW1 9911   0.851   4.506   3.223
 3004SOL    HW2 9912   1.004   4.554   3.191
 3005SOL     OW 9913   3.524   2.007   0.141
 3005SOL    HW1 9914   3.519   2.044   0.049
 3005SOL    HW2 9915   3.611   2.035   0.184
 3006SOL     OW 9916   5.488   1.827   5.917
 3006SOL    HW1 9917   5.414   1.811   5.851
 3006SOL    HW2 9918   5.492   1.924   5.940
 3007SOL     OW 9919   5.810   5.479   1.097
 3007SOL    HW1 9920   5.795   5.571   1.132
 3007SOL    HW2 9921   5.724   5.428   1.101
 3008SOL     OW 9922   3.742   1.950   6.304
 3008SOL    HW1 9923   3.737   2.049   6.310
 3008SOL    HW2 9924   3.724   1.920   6.210
 3009SOL     OW 9925   0.343   1.240   2.527
 3009SOL    HW1 9926   0.292   1.204   2.605
 3009SOL    HW2 9927   0.431   1.275   2.558
 3010SOL     OW 9928   3.568   5.862   2.880
 3010SOL    HW1 9929   3.666   5.845   2.871
 3010SOL    HW2 9930   3.517   5.790   2.835
 3011SOL     OW 9931   5.728   1.414   1.239
 3011SOL    HW1 9932   5.722   1.315   1.251
 3011SOL    HW2 9933   5.816   1.447   1.272
 3012SOL     OW 9934   1.021   3.915   5.750
 3012SOL    HW1 9935   0.965   3.995   5.727
 3012SOL    HW2 9936   1.071   3.933   5.835
 3013SOL     OW 9937   5.579   5.981   5.396
 3013SOL    HW1 9938   5.502   6.019   5.344
 3013SOL    HW2 9939   5.593   6.036   5.479
 3014SOL     OW 9940   4.851   2.407   4.580
 3014SOL    HW1 9941   4.916   2.481   4.593
 3014SOL    HW2 9942   4.771   2.441   4.530
 3015SOL     OW 9943   3.496   1.814   0.326
 3015SOL    HW1 9944   3.498   1.877   0.249
 3015SOL    HW2 9945   3.403   1.810   0.363
 3016SOL     OW 9946   2.299   6.053   3.998
 3016SOL    HW1 9947   2.368   6.124   3.983
 3016SOL    HW2 9948   2.226   6.063   3.930
 3017SOL     OW 9949   6.476   5.065   1.954
 3017SOL    HW1 9950   6.473   5.016   1.867
 3017SOL    HW2 9951   6.437   5.007   2.026
 3018SOL     OW 9952   3.281   6.203   5.951
 3018SOL    HW1 9953   3.309   6.125   5.896
 3018SOL    HW2 9954   3.193   6.237   5.918
 3019SOL     OW 9955   0.576   6.921   6.637
 3019SOL    HW1 9956   0.596   6.826   6.615
 3019SOL    HW2 9957   0.639   6.953   6.708
 3020SOL     OW 9958   4.103   3.102   1.800
 3020SOL    HW1 9959   4.087   3.012   1.761
 3020SOL    HW2 9960   4.201   3.123   1.798
 3021SOL     OW 9961   2.968   6.666   0.005
 3021SOL    HW1 9962   3.003   6.738   0.065
 3021SOL    HW2 9963   2.957   6.581   0.058
 3022SOL     OW 9964   3.643   5.349   4.054
 3022SOL    HW1 9965   3.653   5.266   3.999
 3022SOL    HW2 9966   3.581   5.331   4.130
 3023SOL     OW 9967   4.324   0.263   2.776
 3023SOL    HW1 9968   4.418   0.276   2.747
 3023SOL    HW2 9969   4.320   0.193   2.848
 3024SOL     OW 9970   4.282   6.774   5.419
 3024SOL    HW1 9971   4.326   6.849   5.370
 3024SOL    HW2 9972   4.269   6.697   5.356
 3025SOL     OW 9973   3.172   1.074   0.476
 3025SOL    HW1 9974   3.080   1.085   0.439
 3025SOL    HW2 9975   3.235   1.049   0.402
 3026SOL     OW 9976   1.242   0.498   0.761
 3026SOL    HW1 9977   1.316   0.480   0.696
 3026SOL    HW2 9978   1.275   0.560   0.832
 3027SOL     OW 9979   3.839   0.426   3.084
 3027SOL    HW1 9980   3.791   0.510   3.111
 3027SOL    HW2 9981   3.821   0.407   2.988
 3028SOL     OW 9982   1.024   4.393   5.475
 3028SOL    HW1 9983   0.961   4.383   5.398
 3028SOL    HW2 9984   1.118   4.380   5.444
 3029SOL     OW 9985   0.229   2.623   4.617
 3029SOL    HW1 9986   0.290   2.689   4.660
 3029SOL    HW2 9987   0.209   2.549   4.683
 3030SOL     OW 9988   0.680   3.060   6.145
 3030SOL    HW1 9989   0.678   3.088   6.241
 3030SOL    HW2 9990   0.726   2.972   6.136
 3031SOL     OW 9991   0.723   3.574   0.278
 3031SOL    HW1 9992   0.685   3.659   0.314
 3031SOL    HW2 9993   0.697   3.564   0.182
 3032SOL     OW 9994   3.681   7.012   1.242
 3032SOL    HW1 9995   3.694   0.087   1.240
 3032SOL    HW2 9996   3.706   6.976   1.332
 3033SOL     OW 9997   6.455   2.014   2.007
 3033SOL    HW1 9998   6.479   1.924   2.043
 3033SOL    HW2 9999   6.529   2.048   1.949
 3034SOL     OW10000   1.394   5.715   2.920
 3034SOL    HW110001   1.316   5.657   2.898
 3034SOL    HW210002   1.465   5.661   2.964
 3035SOL     OW10003   0.419   3.076   6.907
 3035SOL    HW110004   0.480   3.131   6.964
 3035SOL    HW210005   0.462   2.989   6.885
 3036SOL     OW10006   1.695   1.648   6.557
 3036SOL    HW110007   1.649   1.559   6.554
 3036SOL    HW210008   1.775   1.642   6.616
 3037SOL     OW10009   6.614   5.483   5.632
 3037SOL    HW110010   6.518   5.475   5.606
 3037SOL    HW210011   6.646   5.576   5.614
 3038SOL     OW10012   5.798   6.441   6.272
 3038SOL    HW110013   5.749   6.522   6.301
 3038SOL    HW210014   5.747   6.396   6.199
 3039SOL     OW10015   0.109   3.637   0.960
 3039SOL    HW110016   0.066   3.553   0.926
 3039SOL    HW210017   0.087   3.649   1.057
 3040SOL     OW10018   3.764   3.590   6.146
 3040SOL    HW110019   3.790   3.629   6.058
 3040SOL    HW210020   3.807   3.642   6.219
 3041SOL     OW10021   2.154   2.578   4.207
 3041SOL    HW110022   2.177   2.675   4.206
 3041SOL    HW210023   2.071   2.563   4.153
 3042SOL     OW10024   4.133   6.068   2.217
 3042SOL    HW110025   4.205   5.999   2.225
 3042SOL    HW210026   4.113   6.084   2.120
 3043SOL     OW10027   2.406   5.361   1.490
 3043SOL    HW110028   2.310   5.362   1.517
 3043SOL    HW210029   2.414   5.333   1.395
 3044SOL     OW10030   3.364   3.903   5.843
 3044SOL    HW110031   3.410   3.831   5.792
 3044SOL    HW210032   3.405   3.913   5.934
 3045SOL     OW10033   4.606   0.682   2.931
 3045SOL    HW110034   4.673   0.690   3.005
 3045SOL    HW210035   4.555   0.597   2.943
 3046SOL     OW10036   1.997   0.880   6.421
 3046SOL    HW110037   2.026   0.975   6.433
 3046SOL    HW210038   1.974   0.864   6.325
 3047SOL     OW10039   5.665   0.808   2.112
 3047SOL    HW110040   5.602   0.738   2.077
 3047SOL    HW210041   5.759   0.782   2.091
 3048SOL     OW10042   3.806   2.172   1.744
 3048SOL    HW110043   3.737   2.215   1.801
 3048SOL    HW210044   3.769   2.158   1.652
 3049SOL     OW10045   0.857   6.796   2.367
 3049SOL    HW110046   0.867   6.724   2.436
 3049SOL    HW210047   0.946   6.819   2.329
 3050SOL     OW10048   3.117   0.882   2.109
 3050SOL    HW110049   3.155   0.945   2.041
 3050SOL    HW210050   3.188   0.854   2.173
 3051SOL     OW10051   2.242   4.175   0.068
 3051SOL    HW110052   2.280   4.267   0.069
 3051SOL    HW210053   2.203   4.156   7.001
 3052SOL     OW10054   5.715   6.902   1.892
 3052SOL    HW110055   5.627   6.893   1.844
 3052SOL    HW210056   5.706   6.865   1.984
 3053SOL     OW10057   6.926   1.515   6.876
 3053SOL    HW110058   6.975   1.583   6.822
 3053SOL    HW210059   6.992   1.454   6.920
 3054SOL     OW10060   6.741   2.193   0.641
 3054SOL    HW110061   6.655   2.145   0.657
 3054SOL    HW210062   6.818   2.130   0.654
 3055SOL     OW10063   5.003   0.100   4.126
 3055SOL    HW110064   5.088   0.151   4.132
 3055SOL    HW210065   4.927   0.163   4.110
 3056SOL     OW10066   5.876   0.498   5.018
 3056SOL    HW110067   5.925   0.450   5.092
 3056SOL    HW210068   5.778   0.497   5.036
 3057SOL     OW10069   3.974   6.061   2.961
 3057SOL    HW110070   3.903   6.119   3.001
 3057SOL    HW210071   4.058   6.068   3.015
 3058SOL     OW10072   0.043   5.317   0.853
 3058SOL    HW110073   0.068   5.413   0.838
 3058SOL    HW210074   6.976   5.312   0.895
 3059SOL     OW10075   2.628   2.475   4.418
 3059SOL    HW110076   2.573   2.396   4.443
 3059SOL    HW210077   2.582   2.525   4.344
 3060SOL     OW10078   0.606   5.350   0.294
 3060SOL    HW110079   0.556   5.337   0.209
 3060SOL    HW210080   0.697   5.388   0.274
 3061SOL     OW10081   6.887   0.099   5.424
 3061SOL    HW110082   6.889   0.007   5.385
 3061SOL    HW210083   6.798   0.115   5.467
 3062SOL     OW10084   1.544   0.268   0.119
 3062SOL    HW110085   1.480   0.334   0.081
 3062SOL    HW210086   1.519   0.176   0.091
 3063SOL     OW10087   2.630   5.268   1.611
 3063SOL    HW110088   2.640   5.210   1.692
 3063SOL    HW210089   2.533   5.288   1.597
 3064SOL     OW10090   5.873   4.287   3.146
 3064SOL    HW110091   5.796   4.342   3.175
 3064SOL    HW210092   5.952   4.304   3.206
 3065SOL     OW10093   2.573   0.457   0.641
 3065SOL    HW110094   2.473   0.452   0.638
 3065SOL    HW210095   2.610   0.455   0.548
 3066SOL     OW10096   5.147   5.067   0.637
 3066SOL    HW110097   5.138   5.028   0.545
 3066SOL    HW210098   5.064   5.048   0.689
 3067SOL     OW10099   3.879   2.208   5.228
 3067SOL    HW110100   3.890   2.138   5.157
 3067SOL    HW210101   3.833   2.168   5.307
 3068SOL     OW10102   6.336   6.910   1.675
 3068SOL    HW110103   6.247   6.891   1.632
 3068SOL    HW210104   6.403   6.931   1.604
 3069SOL     OW10105   6.707   6.323   1.784
 3069SOL    HW110106   6.632   6.321   1.718
 3069SOL    HW210107   6.788   6.280   1.743
 3070SOL     OW10108   2.047   1.733   0.828
 3070SOL    HW110109   1.985   1.693   0.895
 3070SOL    HW210110   2.135   1.753   0.871
 3071SOL     OW10111   5.966   6.584   3.132
 3071SOL    HW110112   6.001   6.506   3.184
 3071SOL    HW210113   6.043   6.638   3.098
 3072SOL     OW10114   1.755   6.748   0.183
 3072SOL    HW110115   1.683   6.678   0.183
 3072SOL    HW210116   1.716   6.836   0.211
 3073SOL     OW10117   6.309   3.203   4.299
 3073SOL    HW110118   6.406   3.203   4.326
 3073SOL    HW210119   6.252   3.187   4.379
 3074SOL     OW10120   6.121   3.596   0.966
 3074SOL    HW110121   6.159   3.504   0.957
 3074SOL    HW210122   6.029   3.590   1.004
 3075SOL     OW10123   2.468   6.091   1.905
 3075SOL    HW110124   2.548   6.146   1.929
 3075SOL    HW210125   2.475   6.061   1.810
 3076SOL     OW10126   6.701   0.072   4.582
 3076SOL    HW110127   6.676   7.011   4.533
 3076SOL    HW210128   6.699   0.055   4.680
 3077SOL     OW10129   4.863   5.848   2.009
 3077SOL    HW110130   4.844   5.779   2.078
 3077SOL    HW210131   4.828   5.818   1.920
 3078SOL     OW10132   0.576   2.717   2.067
 3078SOL    HW110133   0.517   2.656   2.119
 3078SOL    HW210134   0.535   2.809   2.065
 3079SOL     OW10135   2.648   2.121   3.736
 3079SOL    HW110136   2.554   2.152   3.720
 3079SOL    HW210137   2.648   2.024   3.761
 3080SOL     OW10138   4.839   3.831   3.365
 3080SOL    HW110139   4.793   3.914   3.331
 3080SOL    HW210140   4.936   3.836   3.345
 3081SOL     OW10141   0.445   2.307   5.950
 3081SOL    HW110142   0.415   2.347   6.036
 3081SOL    HW210143   0.514   2.366   5.907
 3082SOL     OW10144   2.708   6.322   3.814
 3082SOL    HW110145   2.737   6.237   3.859
 3082SOL    HW210146   2.738   6.321   3.719
 3083SOL     OW10147   4.010   5.921   3.628
 3083SOL    HW110148   3.960   6.006   3.639
 3083SOL    HW210149   4.036   5.885   3.718
 3084SOL     OW10150   6.230   4.224   4.739
 3084SOL    HW110151   6.310   4.218   4.799
 3084SOL    HW210152   6.251   4.181   4.651
 3085SOL     OW10153   6.579   4.406   1.230
 3085SOL    HW110154   6.526   4.362   1.158
 3085SOL    HW210155   6.589   4.343   1.307
 3086SOL     OW10156   4.418   1.663   1.688
 3086SOL    HW110157   4.370   1.609   1.619
 3086SOL    HW210158   4.478   1.604   1.742
 3087SOL     OW10159   0.147   5.454   3.807
 3087SOL    HW110160   0.098   5.367   3.804
 3087SOL    HW210161   0.209   5.460   3.728
 3088SOL     OW10162   1.680   4.605   5.164
 3088SOL    HW110163   1.623   4.525   5.186
 3088SOL    HW210164   1.732   4.587   5.081
 3089SOL     OW10165   1.536   3.440   6.718
 3089SOL    HW110166   1.521   3.489   6.632
 3089SOL    HW210167   1.558   3.344   6.698
 3090SOL     OW10168   1.881   2.190   1.864
 3090SOL    HW110169   1.833   2.270   1.901
 3090SOL    HW210170   1.975   2.216   1.840
 3091SOL     OW10171   1.862   1.162   1.128
 3091SOL    HW110172   1.861   1.090   1.198
 3091SOL    HW210173   1.957   1.190   1.111
 3092SOL     OW10174   4.699   0.387   0.222
 3092SOL    HW110175   4.773   0.321   0.234
 3092SOL    HW210176   4.727   0.458   0.157
 3093SOL     OW10177   5.672   6.791   5.574
 3093SOL    HW110178   5.683   6.855   5.650
 3093SOL    HW210179   5.646   6.841   5.491
 3094SOL     OW10180   2.362   6.793   4.042
 3094SOL    HW110181   2.320   6.809   4.132
 3094SOL    HW210182   2.323   6.710   4.002
 3095SOL     OW10183   1.950   5.183   5.252
 3095SOL    HW110184   2.011   5.116   5.293
 3095SOL    HW210185   1.857   5.170   5.286
 3096SOL     OW10186   1.850   6.142   5.159
 3096SOL    HW110187   1.808   6.083   5.090
 3096SOL    HW210188   1.779   6.190   5.210
 3097SOL     OW10189   6.046   2.241   0.069
 3097SOL    HW110190   6.066   2.295   7.010
 3097SOL    HW210191   5.955   2.265   0.103
 3098SOL     OW10192   3.155   3.376   0.908
 3098SOL    HW110193   3.106   3.322   0.977
 3098SOL    HW210194   3.253   3.355   0.913
 3099SOL     OW10195   0.516   6.563   2.979
 3099SOL    HW110196   0.596   6.524   2.933
 3099SOL    HW210197   0.512   6.528   3.073
 3100SOL     OW10198   6.586   6.359   4.426
 3100SOL    HW110199   6.560   6.339   4.520
 3100SOL    HW210200   6.513   6.330   4.364
 3101SOL     OW10201   5.416   6.831   6.221
 3101SOL    HW110202   5.324   6.814   6.186
 3101SOL    HW210203   5.415   6.832   6.321
 3102SOL     OW10204   6.876   5.194   1.803
 3102SOL    HW110205   6.849   5.120   1.865
 3102SOL    HW210206   6.973   5.213   1.814
 3103SOL     OW10207   4.041   0.328   2.197
 3103SOL    HW110208   4.004   0.347   2.288
 3103SOL    HW210209   4.052   0.414   2.147
 3104SOL     OW10210   5.048   0.121   4.986
 3104SOL    HW110211   5.110   0.131   4.909
 3104SOL    HW210212   5.010   0.210   5.010
 3105SOL     OW10213   6.065   4.947   2.052
 3105SOL    HW110214   6.076   5.037   2.011
 3105SOL    HW210215   6.031   4.883   1.983
 3106SOL     OW10216   6.853   1.765   3.139
 3106SOL    HW110217   6.825   1.779   3.234
 3106SOL    HW210218   6.818   1.677   3.107
 3107SOL     OW10219   4.459   1.074   4.994
 3107SOL    HW110220   4.390   1.144   4.976
 3107SOL    HW210221   4.421   0.984   4.972
 3108SOL     OW10222   1.257   6.513   4.253
 3108SOL    HW110223   1.296   6.431   4.210
 3108SOL    HW210224   1.304   6.531   4.340
 3109SOL     OW10225   5.806   6.063   2.900
 3109SOL    HW110226   5.831   6.093   2.991
 3109SOL    HW210227   5.714   6.023   2.902
 3110SOL     OW10228   1.636   1.862   3.088
 3110SOL    HW110229   1.643   1.878   3.187
 3110SOL    HW210230   1.727   1.847   3.051
 3111SOL     OW10231   6.207   5.352   3.789
 3111SOL    HW110232   6.157   5.283   3.841
 3111SOL    HW210233   6.305   5.331   3.792
 3112SOL     OW10234   4.999   2.426   6.636
 3112SOL    HW110235   5.077   2.475   6.676
 3112SOL    HW210236   4.973   2.350   6.696
 3113SOL     OW10237   2.365   6.023   3.601
 3113SOL    HW110238   2.405   6.032   3.692
 3113SOL    HW210239   2.360   5.926   3.576
 3114SOL     OW10240   4.237   1.528   1.180
 3114SOL    HW110241   4.271   1.621   1.188
 3114SOL    HW210242   4.149   1.529   1.133
 3115SOL     OW10243   4.059   3.315   6.320
 3115SOL    HW110244   4.144   3.265   6.339
 3115SOL    HW210245   3.985   3.277   6.374
 3116SOL     OW10246   0.606   2.909   6.589
 3116SOL    HW110247   0.642   2.968   6.517
 3116SOL    HW210248   0.671   2.905   6.665
 3117SOL     OW10249   4.465   3.603   5.351
 3117SOL    HW110250   4.383   3.643   5.309
 3117SOL    HW210251   4.543   3.612   5.289
 3118SOL     OW10252   0.599   5.357   1.683
 3118SOL    HW110253   0.671   5.312   1.736
 3118SOL    HW210254   0.532   5.289   1.654
 3119SOL     OW10255   1.811   3.607   5.500
 3119SOL    HW110256   1.863   3.529   5.535
 3119SOL    HW210257   1.860   3.692   5.519
 3120SOL     OW10258   3.436   6.567   4.979
 3120SOL    HW110259   3.372   6.593   4.907
 3120SOL    HW210260   3.388   6.512   5.048
 3121SOL     OW10261   0.122   1.017   3.833
 3121SOL    HW110262   0.132   0.970   3.921
 3121SOL    HW210263   0.035   1.067   3.833
 3122SOL     OW10264   3.499   6.868   5.929
 3122SOL    HW110265   3.455   6.885   5.841
 3122SOL    HW210266   3.483   6.773   5.956
 3123SOL     OW10267   3.771   1.326   3.872
 3123SOL    HW110268   3.830   1.380   3.933
 3123SOL    HW210269   3.819   1.309   3.786
 3124SOL     OW10270   3.652   0.100   4.614
 3124SOL    HW110271   3.703   0.127   4.532
 3124SOL    HW210272   3.669   0.004   4.633
 3125SOL     OW10273   6.814   2.232   4.875
 3125SOL    HW110274   6.717   2.250   4.894
 3125SOL    HW210275   6.846   2.295   4.804
 3126SOL     OW10276   4.947   5.080   5.925
 3126SOL    HW110277   4.895   4.997   5.940
 3126SOL    HW210278   4.950   5.100   5.827
 3127SOL     OW10279   1.309   3.279   4.335
 3127SOL    HW110280   1.396   3.236   4.358
 3127SOL    HW210281   1.235   3.212   4.342
 3128SOL     OW10282   2.644   0.628   6.788
 3128SOL    HW110283   2.741   0.614   6.811
 3128SOL    HW210284   2.615   0.717   6.821
 3129SOL     OW10285   6.973   3.564   6.201
 3129SOL    HW110286   0.044   3.581   6.173
 3129SOL    HW210287   6.935   3.646   6.243
 3130SOL     OW10288   2.120   4.035   1.582
 3130SOL    HW110289   2.028   4.019   1.546
 3130SOL    HW210290   2.137   4.134   1.586
 3131SOL     OW10291   0.175   2.180   1.177
 3131SOL    HW110292   0.085   2.212   1.149
 3131SOL    HW210293   0.219   2.250   1.233
 3132SOL     OW10294   4.341   5.809   6.223
 3132SOL    HW110295   4.297   5.735   6.274
 3132SOL    HW210296   4.404   5.858   6.283
 3133SOL     OW10297   3.431   1.682   4.198
 3133SOL    HW110298   3.376   1.623   4.257
 3133SOL    HW210299   3.489   1.625   4.140
 3134SOL     OW10300   4.998   4.161   1.174
 3134SOL    HW110301   4.975   4.259   1.167
 3134SOL    HW210302   4.915   4.110   1.196
 3135SOL     OW10303   4.979   0.745   5.713
 3135SOL    HW110304   5.018   0.654   5.720
 3135SOL    HW210305   4.881   0.742   5.733
 3136SOL     OW10306   5.545   0.704   0.667
 3136SOL    HW110307   5.574   0.731   0.576
 3136SOL    HW210308   5.471   0.764   0.697
 3137SOL     OW10309   6.268   0.931   3.305
 3137SOL    HW110310   6.258   1.030   3.291
 3137SOL    HW210311   6.268   0.885   3.216
 3138SOL     OW10312   6.295   3.984   4.111
 3138SOL    HW110313   6.273   3.998   4.015
 3138SOL    HW210314   6.266   4.064   4.164
 3139SOL     OW10315   5.467   6.492   0.478
 3139SOL    HW110316   5.488   6.429   0.403
 3139SOL    HW210317   5.371   6.520   0.471
 3140SOL     OW10318   5.938   0.261   6.750
 3140SOL    HW110319   5.961   0.356   6.771
 3140SOL    HW210320   5.856   0.235   6.802
 3141SOL     OW10321   0.050   6.067   6.359
 3141SOL    HW110322   0.139   6.067   6.314
 3141SOL    HW210323   0.057   6.019   6.446
 3142SOL     OW10324   3.356   6.438   1.547
 3142SOL    HW110325   3.409   6.357   1.525
 3142SOL    HW210326   3.339   6.490   1.463
 3143SOL     OW10327   6.593   1.718   6.644
 3143SOL    HW110328   6.654   1.639   6.646
 3143SOL    HW210329   6.542   1.724   6.729
 3144SOL     OW10330   4.462   3.911   1.679
 3144SOL    HW110331   4.393   3.972   1.718
 3144SOL    HW210332   4.552   3.935   1.715
 3145SOL     OW10333   2.141   5.836   1.058
 3145SOL    HW110334   2.197   5.854   1.139
 3145SOL    HW210335   2.044   5.843   1.082
 3146SOL     OW10336   1.493   0.000   2.963
 3146SOL    HW110337   1.448   6.992   2.880
 3146SOL    HW210338   1.428   0.054   3.018
 3147SOL     OW10339   3.400   5.055   0.710
 3147SOL    HW110340   3.332   4.986   0.736
 3147SOL    HW210341   3.476   5.010   0.664
 3148SOL     OW10342   5.205   5.987   4.962
 3148SOL    HW110343   5.232   6.083   4.972
 3148SOL    HW210344   5.286   5.929   4.972
 3149SOL     OW10345   2.650   1.402   6.300
 3149SOL    HW110346   2.649   1.302   6.297
 3149SOL    HW210347   2.563   1.435   6.337
 3150SOL     OW10348   6.197   6.127   3.934
 3150SOL    HW110349   6.267   6.109   4.003
 3150SOL    HW210350   6.145   6.043   3.918
 3151SOL     OW10351   5.207   1.271   6.023
 3151SOL    HW110352   5.238   1.345   5.963
 3151SOL    HW210353   5.122   1.233   5.987
 3152SOL     OW10354   1.627   5.909   0.192
 3152SOL    HW110355   1.639   5.909   0.291
 3152SOL    HW210356   1.544   5.858   0.169
 3153SOL     OW10357   6.307   4.819   2.016
 3153SOL    HW110358   6.222   4.870   2.031
 3153SOL    HW210359   6.297   4.726   2.050
 3154SOL     OW10360   6.071   1.230   6.661
 3154SOL    HW110361   6.143   1.211   6.728
 3154SOL    HW210362   6.016   1.148   6.646
 3155SOL     OW10363   6.161   4.269   1.635
 3155SOL    HW110364   6.109   4.242   1.554
 3155SOL    HW210365   6.097   4.288   1.710
 3156SOL     OW10366   3.267   3.173   3.544
 3156SOL    HW110367   3.231   3.098   3.598
 3156SOL    HW210368   3.288   3.142   3.451
 3157SOL     OW10369   2.336   2.663   4.820
 3157SOL    HW110370   2.352   2.695   4.913
 3157SOL    HW210371   2.420   2.623   4.783
 3158SOL     OW10372   4.323   0.127   2.990
 3158SOL    HW110373   4.350   0.031   2.987
 3158SOL    HW210374   4.324   0.159   3.084
 3159SOL     OW10375   5.515   1.675   0.041
 3159SOL    HW110376   5.433   1.621   0.058
 3159SOL    HW210377   5.503   1.728   6.980
 3160SOL     OW10378   0.696   6.250   5.492
 3160SOL    HW110379   0.773   6.250   5.556
 3160SOL    HW210380   0.715   6.315   5.418
 3161SOL     OW10381   1.590   1.812   3.379
 3161SOL    HW110382   1.527   1.736   3.363
 3161SOL    HW210383   1.682   1.776   3.394
 3162SOL     OW10384   1.359   6.535   2.072
 3162SOL    HW110385   1.436   6.589   2.106
 3162SOL    HW210386   1.350   6.548   1.973
 3163SOL     OW10387   4.420   2.171   6.135
 3163SOL    HW110388   4.349   2.118   6.090
 3163SOL    HW210389   4.499   2.181   6.074
 3164SOL     OW10390   4.580   4.081   1.493
 3164SOL    HW110391   4.556   3.995   1.538
 3164SOL    HW210392   4.497   4.132   1.474
 3165SOL     OW10393   0.860   5.894   0.549
 3165SOL    HW110394   0.782   5.889   0.612
 3165SOL    HW210395   0.827   5.915   0.457
 3166SOL     OW10396   4.732   2.087   5.372
 3166SOL    HW110397   4.803   2.135   5.424
 3166SOL    HW210398   4.652   2.145   5.364
 3167SOL     OW10399   6.632   3.846   1.531
 3167SOL    HW110400   6.593   3.756   1.552
 3167SOL    HW210401   6.609   3.871   1.437
 3168SOL     OW10402   4.470   2.428   0.070
 3168SOL    HW110403   4.419   2.342   0.071
 3168SOL    HW210404   4.464   2.472   0.160
 3169SOL     OW10405   1.348   3.687   5.087
 3169SOL    HW110406   1.416   3.739   5.036
 3169SOL    HW210407   1.390   3.650   5.170
 3170SOL     OW10408   3.998   0.662   1.174
 3170SOL    HW110409   3.925   0.724   1.200
 3170SOL    HW210410   3.961   0.590   1.114
 3171SOL     OW10411   0.251   6.633   1.548
 3171SOL    HW110412   0.193   6.682   1.484
 3171SOL    HW210413   0.335   6.685   1.563
 3172SOL     OW10414   0.428   5.397   6.883
 3172SOL    HW110415   0.429   5.338   6.803
 3172SOL    HW210416   0.334   5.424   6.904
 3173SOL     OW10417   3.141   2.159   0.494
 3173SOL    HW110418   3.126   2.112   0.408
 3173SOL    HW210419   3.155   2.257   0.476
 3174SOL     OW10420   2.955   2.685   6.639
 3174SOL    HW110421   2.995   2.777   6.646
 3174SOL    HW210422   3.023   2.617   6.664
 3175SOL     OW10423   6.709   0.240   0.516
 3175SOL    HW110424   6.728   0.164   0.579
 3175SOL    HW210425   6.634   0.295   0.552
 3176SOL     OW10426   1.343   4.821   4.680
 3176SOL    HW110427   1.376   4.904   4.636
 3176SOL    HW210428   1.401   4.800   4.759
 3177SOL     OW10429   4.692   4.332   4.353
 3177SOL    HW110430   4.697   4.332   4.253
 3177SOL    HW210431   4.705   4.425   4.387
 3178SOL     OW10432   6.492   2.095   0.442
 3178SOL    HW110433   6.403   2.109   0.398
 3178SOL    HW210434   6.479   2.089   0.541
 3179SOL     OW10435   1.730   3.042   2.437
 3179SOL    HW110436   1.769   3.128   2.404
 3179SOL    HW210437   1.787   3.006   2.510
 3180SOL     OW10438   4.297   1.202   6.823
 3180SOL    HW110439   4.204   1.189   6.858
 3180SOL    HW210440   4.338   1.281   6.867
 3181SOL     OW10441   0.846   1.132   2.629
 3181SOL    HW110442   0.898   1.216   2.637
 3181SOL    HW210443   0.801   1.112   2.716
 3182SOL     OW10444   2.417   1.698   5.332
 3182SOL    HW110445   2.512   1.668   5.330
 3182SOL    HW210446   2.407   1.782   5.278
 3183SOL     OW10447   4.238   4.082   1.743
 3183SOL    HW110448   4.157   4.130   1.711
 3183SOL    HW210449   4.310   4.148   1.764
 3184SOL     OW10450   1.116   2.659   2.484
 3184SOL    HW110451   1.080   2.630   2.573
 3184SOL    HW210452   1.216   2.668   2.490
 3185SOL     OW10453   5.886   5.979   0.102
 3185SOL    HW110454   5.905   5.962   0.199
 3185SOL    HW210455   5.952   6.045   0.066
 3186SOL     OW10456   3.780   1.830   2.117
 3186SOL    HW110457   3.682   1.845   2.101
 3186SOL    HW210458   3.793   1.793   2.209
 3187SOL     OW10459   4.822   3.774   0.691
 3187SOL    HW110460   4.826   3.863   0.646
 3187SOL    HW210461   4.833   3.701   0.624
 3188SOL     OW10462   3.882   6.375   4.911
 3188SOL    HW110463   3.844   6.341   4.997
 3188SOL    HW210464   3.878   6.303   4.842
 3189SOL     OW10465   1.661   1.495   1.990
 3189SOL    HW110466   1.612   1.408   1.996
 3189SOL    HW210467   1.723   1.493   1.911
 3190SOL     OW10468   0.082   6.470   0.680
 3190SOL    HW110469   0.181   6.481   0.677
 3190SOL    HW210470   0.057   6.379   0.648
 3191SOL     OW10471   4.080   6.740   0.482
 3191SOL    HW110472   4.100   6.817   0.541
 3191SOL    HW210473   4.130   6.659   0.513
 3192SOL     OW10474   0.256   2.769   0.572
 3192SOL    HW110475   0.332   2.704   0.568
 3192SOL    HW210476   0.228   2.781   0.668
 3193SOL     OW10477   4.215   1.588   5.992
 3193SOL    HW110478   4.231   1.618   6.086
 3193SOL    HW210479   4.172   1.662   5.940
 3194SOL     OW10480   0.518   3.193   5.763
 3194SOL    HW110481   0.538   3.248   5.682
 3194SOL    HW210482   0.488   3.102   5.734
 3195SOL     OW10483   2.764   2.386   3.174
 3195SOL    HW110484   2.813   2.367   3.089
 3195SOL    HW210485   2.752   2.302   3.225
 3196SOL     OW10486   0.103   0.783   5.590
 3196SOL    HW110487   0.172   0.852   5.612
 3196SOL    HW210488   0.144   0.714   5.530
 3197SOL     OW10489   1.327   6.300   3.815
 3197SOL    HW110490   1.282   6.229   3.869
 3197SOL    HW210491   1.299   6.390   3.848
 3198SOL     OW10492   6.141   2.215   5.686
 3198SOL    HW110493   6.053   2.244   5.649
 3198SOL    HW210494   6.195   2.296   5.710
 3199SOL     OW10495   4.827   2.723   2.007
 3199SOL    HW110496   4.734   2.715   1.970
 3199SOL    HW210497   4.865   2.812   1.982
 3200SOL     OW10498   6.673   2.632   1.869
 3200SOL    HW110499   6.577   2.608   1.883
 3200SOL    HW210500   6.725   2.549   1.850
 3201SOL     OW10501   5.077   4.220   4.443
 3201SOL    HW110502   4.983   4.221   4.477
 3201SOL    HW210503   5.105   4.312   4.419
 3202SOL     OW10504   1.318   4.675   1.483
 3202SOL    HW110505   1.289   4.619   1.405
 3202SOL    HW210506   1.341   4.615   1.560
 3203SOL     OW10507   6.114   2.758   6.363
 3203SOL    HW110508   6.051   2.769   6.286
 3203SOL    HW210509   6.203   2.728   6.329
 3204SOL     OW10510   4.441   6.678   1.833
 3204SOL    HW110511   4.428   6.737   1.913
 3204SOL    HW210512   4.418   6.583   1.858
 3205SOL     OW10513   0.090   3.767   0.037
 3205SOL    HW110514   0.057   3.685   0.084
 3205SOL    HW210515   0.015   3.832   0.026
 3206SOL     OW10516   0.322   0.042   5.986
 3206SOL    HW110517   0.303   6.969   6.003
 3206SOL    HW210518   0.388   0.049   5.910
 3207SOL     OW10519   0.689   1.296   5.816
 3207SOL    HW110520   0.684   1.199   5.837
 3207SOL    HW210521   0.598   1.337   5.827
 3208SOL     OW10522   5.009   6.413   5.230
 3208SOL    HW110523   5.054   6.375   5.311
 3208SOL    HW210524   4.942   6.482   5.259
 3209SOL     OW10525   3.743   5.422   2.970
 3209SOL    HW110526   3.831   5.452   3.008
 3209SOL    HW210527   3.712   5.340   3.020
 3210SOL     OW10528   0.411   4.280   1.331
 3210SOL    HW110529   0.315   4.307   1.325
 3210SOL    HW210530   0.423   4.217   1.409
 3211SOL     OW10531   2.667   2.989   1.075
 3211SOL    HW110532   2.645   2.901   1.032
 3211SOL    HW210533   2.638   3.063   1.015
 3212SOL     OW10534   2.807   1.405   0.323
 3212SOL    HW110535   2.812   1.331   0.256
 3212SOL    HW210536   2.747   1.377   0.398
 3213SOL     OW10537   6.508   5.542   2.483
 3213SOL    HW110538   6.607   5.538   2.470
 3213SOL    HW210539   6.475   5.453   2.514
 3214SOL     OW10540   4.761   5.672   0.879
 3214SOL    HW110541   4.799   5.672   0.972
 3214SOL    HW210542   4.835   5.660   0.813
 3215SOL     OW10543   0.536   3.312   0.950
 3215SOL    HW110544   0.505   3.223   0.982
 3215SOL    HW210545   0.502   3.329   0.858
 3216SOL     OW10546   5.569   5.568   1.820
 3216SOL    HW110547   5.578   5.528   1.912
 3216SOL    HW210548   5.504   5.513   1.767
 3217SOL     OW10549   0.390   5.324   2.819
 3217SOL    HW110550   0.347   5.236   2.838
 3217SOL    HW210551   0.376   5.386   2.896
 3218SOL     OW10552   3.938   6.897   3.960
 3218SOL    HW110553   3.919   6.993   3.982
 3218SOL    HW210554   3.973   6.851   4.041
 3219SOL     OW10555   0.033   2.013   3.454
 3219SOL    HW110556   0.010   1.971   3.542
 3219SOL    HW210557   0.093   2.092   3.469
 3220SOL     OW10558   6.584   6.011   5.976
 3220SOL    HW110559   6.538   6.077   5.917
 3220SOL    HW210560   6.674   6.045   6.002
 3221SOL     OW10561   2.718   0.062   1.564
 3221SOL    HW110562   2.737   7.023   1.488
 3221SOL    HW210563   2.634   0.033   1.610
 3222SOL     OW10564   4.137   1.566   2.983
 3222SOL    HW110565   4.166   1.560   3.078
 3222SOL    HW210566   4.211   1.536   2.923
 3223SOL     OW10567   1.843   5.311   6.674
 3223SOL    HW110568   1.830   5.401   6.717
 3223SOL    HW210569   1.909   5.258   6.727
 3224SOL     OW10570   4.298   3.715   6.318
 3224SOL    HW110571   4.236   3.642   6.290
 3224SOL    HW210572   4.391   3.692   6.290
 3225SOL     OW10573   4.487   3.219   5.469
 3225SOL    HW110574   4.526   3.130   5.489
 3225SOL    HW210575   4.499   3.279   5.548
 3226SOL     OW10576   1.613   1.623   4.509
 3226SOL    HW110577   1.616   1.556   4.435
 3226SOL    HW210578   1.519   1.654   4.521
 3227SOL     OW10579   3.159   2.489   6.372
 3227SOL    HW110580   3.107   2.414   6.413
 3227SOL    HW210581   3.170   2.562   6.440
 3228SOL     OW10582   5.559   3.803   3.013
 3228SOL    HW110583   5.568   3.861   2.932
 3228SOL    HW210584   5.569   3.859   3.095
 3229SOL     OW10585   3.363   1.744   5.318
 3229SOL    HW110586   3.438   1.802   5.349
 3229SOL    HW210587   3.352   1.754   5.219
 3230SOL     OW10588   1.432   2.914   4.097
 3230SOL    HW110589   1.397   2.971   4.023
 3230SOL    HW210590   1.364   2.845   4.122
 3231SOL     OW10591   2.355   0.331   2.132
 3231SOL    HW110592   2.445   0.364   2.105
 3231SOL    HW210593   2.330   0.252   2.077
 3232SOL     OW10594   3.863   5.136   4.236
 3232SOL    HW110595   3.842   5.185   4.321
 3232SOL    HW210596   3.784   5.082   4.208
 3233SOL     OW10597   1.331   3.206   1.175
 3233SOL    HW110598   1.364   3.112   1.172
 3233SOL    HW210599   1.336   3.246   1.083
 3234SOL     OW10600   6.946   2.020   0.659
 3234SOL    HW110601   6.916   1.937   0.706
 3234SOL    HW210602   6.993   1.995   0.574
 3235SOL     OW10603   4.911   0.360   1.597
 3235SOL    HW110604   4.856   0.414   1.660
 3235SOL    HW210605   4.872   0.365   1.505
 3236SOL     OW10606   1.534   3.193   0.278
 3236SOL    HW110607   1.549   3.291   0.291
 3236SOL    HW210608   1.621   3.148   0.257
 3237SOL     OW10609   5.667   1.149   3.518
 3237SOL    HW110610   5.639   1.239   3.553
 3237SOL    HW210611   5.600   1.118   3.451
 3238SOL     OW10612   0.479   4.727   0.532
 3238SOL    HW110613   0.504   4.806   0.587
 3238SOL    HW210614   0.488   4.750   0.435
 3239SOL     OW10615   6.071   1.925   0.434
 3239SOL    HW110616   6.118   2.012   0.424
 3239SOL    HW210617   5.973   1.941   0.446
 3240SOL     OW10618   1.241   6.088   5.255
 3240SOL    HW110619   1.316   6.023   5.264
 3240SOL    HW210620   1.198   6.103   5.344
 3241SOL     OW10621   4.815   1.080   4.208
 3241SOL    HW110622   4.872   1.152   4.248
 3241SOL    HW210623   4.841   1.066   4.112
 3242SOL     OW10624   3.085   4.701   1.278
 3242SOL    HW110625   3.012   4.681   1.343
 3242SOL    HW210626   3.145   4.622   1.270
 3243SOL     OW10627   5.415   4.772   0.139
 3243SOL    HW110628   5.489   4.768   0.072
 3243SOL    HW210629   5.384   4.867   0.148
 3244SOL     OW10630   5.015   6.040   0.917
 3244SOL    HW110631   4.994   6.137   0.930
 3244SOL    HW210632   5.091   6.030   0.852
 3245SOL     OW10633   5.438   2.483   5.471
 3245SOL    HW110634   5.450   2.386   5.452
 3245SOL    HW210635   5.393   2.494   5.560
 3246SOL     OW10636   5.787   1.039   3.191
 3246SOL    HW110637   5.860   1.101   3.218
 3246SOL    HW210638   5.825   0.965   3.135
 3247SOL     OW10639   6.688   4.915   3.574
 3247SOL    HW110640   6.733   5.003   3.589
 3247SOL    HW210641   6.716   4.851   3.645
 3248SOL     OW10642   6.506   2.941   1.903
 3248SOL    HW110643   6.597   2.900   1.895
 3248SOL    HW210644   6.480   2.946   1.999
 3249SOL     OW10645   3.447   3.418   5.087
 3249SOL    HW110646   3.396   3.489   5.041
 3249SOL    HW210647   3.385   3.345   5.115
 3250SOL     OW10648   5.205   0.087   2.602
 3250SOL    HW110649   5.146   0.135   2.536
 3250SOL    HW210650   5.227   0.149   2.678
 3251SOL     OW10651   3.813   0.986   2.361
 3251SOL    HW110652   3.819   0.887   2.373
 3251SOL    HW210653   3.749   1.006   2.287
 3252SOL     OW10654   2.619   1.863   2.210
 3252SOL    HW110655   2.576   1.942   2.254
 3252SOL    HW210656   2.558   1.784   2.214
 3253SOL     OW10657   5.900   2.801   2.719
 3253SOL    HW110658   5.862   2.744   2.646
 3253SOL    HW210659   5.999   2.787   2.724
 3254SOL     OW10660   4.437   5.679   5.729
 3254SOL    HW110661   4.451   5.692   5.827
 3254SOL    HW210662   4.388   5.759   5.691
 3255SOL     OW10663   4.721   6.717   1.448
 3255SOL    HW110664   4.805   6.696   1.398
 3255SOL    HW210665   4.738   6.708   1.546
 3256SOL     OW10666   5.040   0.676   0.026
 3256SOL    HW110667   5.030   0.583   7.012
 3256SOL    HW210668   5.061   0.739   6.976
 3257SOL     OW10669   1.297   2.511   1.238
 3257SOL    HW110670   1.331   2.603   1.260
 3257SOL    HW210671   1.219   2.518   1.176
 3258SOL     OW10672   3.864   4.909   1.939
 3258SOL    HW110673   3.778   4.860   1.947
 3258SOL    HW210674   3.932   4.868   2.000
 3259SOL     OW10675   4.459   6.021   3.801
 3259SOL    HW110676   4.456   6.026   3.901
 3259SOL    HW210677   4.415   5.936   3.771
 3260SOL     OW10678   2.011   1.985   1.303
 3260SOL    HW110679   2.001   2.076   1.343
 3260SOL    HW210680   1.963   1.918   1.361
 3261SOL     OW10681   4.690   6.231   0.735
 3261SOL    HW110682   4.696   6.131   0.729
 3261SOL    HW210683   4.704   6.271   0.645
 3262SOL     OW10684   3.625   1.949   2.493
 3262SOL    HW110685   3.609   1.985   2.585
 3262SOL    HW210686   3.579   2.007   2.426
 3263SOL     OW10687   3.571   1.199   4.075
 3263SOL    HW110688   3.661   1.210   4.033
 3263SOL    HW210689   3.520   1.129   4.026
 3264SOL     OW10690   1.595   4.705   0.749
 3264SOL    HW110691   1.655   4.716   0.670
 3264SOL    HW210692   1.646   4.722   0.833
 3265SOL     OW10693   4.721   1.941   5.652
 3265SOL    HW110694   4.671   1.891   5.723
 3265SOL    HW210695   4.657   1.979   5.586
 3266SOL     OW10696   0.703   2.805   0.404
 3266SOL    HW110697   0.761   2.747   0.461
 3266SOL    HW210698   0.668   2.751   0.327
 3267SOL     OW10699   4.105   1.585   0.506
 3267SOL    HW110700   4.180   1.533   0.546
 3267SOL    HW210701   4.133   1.623   0.418
 3268SOL     OW10702   1.610   4.397   0.062
 3268SOL    HW110703   1.615   4.497   0.056
 3268SOL    HW210704   1.515   4.368   0.072
 3269SOL     OW10705   4.245   5.093   1.668
 3269SOL    HW110706   4.168   5.034   1.646
 3269SOL    HW210707   4.233   5.182   1.623
 3270SOL     OW10708   1.590   4.815   5.536
 3270SOL    HW110709   1.539   4.890   5.578
 3270SOL    HW210710   1.623   4.843   5.446
 3271SOL     OW10711   5.548   3.528   3.023
 3271SOL    HW110712   5.519   3.623   3.034
 3271SOL    HW210713   5.647   3.521   3.037
 3272SOL     OW10714   3.880   3.870   0.047
 3272SOL    HW110715   3.916   3.829   6.987
 3272SOL    HW210716   3.851   3.798   0.110
 3273SOL     OW10717   0.527   6.151   2.445
 3273SOL    HW110718   0.439   6.158   2.397
 3273SOL    HW210719   0.593   6.211   2.401
 3274SOL     OW10720   3.751   1.328   1.052
 3274SOL    HW110721   3.691   1.313   0.973
 3274SOL    HW210722   3.700   1.375   1.124
 3275SOL     OW10723   1.151   0.833   6.712
 3275SOL    HW110724   1.104   0.897   6.773
 3275SOL    HW210725   1.154   0.743   6.755
 3276SOL     OW10726   3.629   5.190   6.657
 3276SOL    HW110727   3.571   5.267   6.684
 3276SOL    HW210728   3.595   5.106   6.699
 3277SOL     OW10729   5.319   0.036   6.802
 3277SOL    HW110730   5.389   0.102   6.777
 3277SOL    HW210731   5.335   0.005   6.896
 3278SOL     OW10732   6.960   0.815   5.904
 3278SOL    HW110733   6.886   0.809   5.972
 3278SOL    HW210734   6.934   0.762   5.823
 3279SOL     OW10735   6.996   0.559   0.718
 3279SOL    HW110736   0.070   0.574   0.702
 3279SOL    HW210737   6.943   0.597   0.642
 3280SOL     OW10738   3.377   4.854   5.578
 3280SOL    HW110739   3.378   4.875   5.481
 3280SOL    HW210740   3.345   4.760   5.591
 3281SOL     OW10741   2.140   5.728   0.660
 3281SOL    HW110742   2.041   5.716   0.654
 3281SOL    HW210743   2.185   5.672   0.591
 3282SOL     OW10744   1.920   5.398   4.640
 3282SOL    HW110745   1.877   5.308   4.641
 3282SOL    HW210746   2.002   5.396   4.584
 3283SOL     OW10747   3.505   1.282   1.369
 3283SOL    HW110748   3.460   1.204   1.411
 3283SOL    HW210749   3.484   1.284   1.271
 3284SOL     OW10750   5.968   6.407   0.247
 3284SOL    HW110751   5.921   6.415   0.159
 3284SOL    HW210752   6.031   6.484   0.258
 3285SOL     OW10753   5.804   2.854   3.490
 3285SOL    HW110754   5.728   2.838   3.553
 3285SOL    HW210755   5.844   2.767   3.462
 3286SOL     OW10756   4.015   3.438   3.297
 3286SOL    HW110757   3.946   3.510   3.303
 3286SOL    HW210758   4.086   3.455   3.365
 3287SOL     OW10759   1.636   5.902   0.471
 3287SOL    HW110760   1.642   5.989   0.520
 3287SOL    HW210761   1.543   5.867   0.475
 3288SOL     OW10762   0.813   5.178   6.444
 3288SOL    HW110763   0.764   5.161   6.530
 3288SOL    HW210764   0.891   5.238   6.462
 3289SOL     OW10765   2.305   6.532   5.541
 3289SOL    HW110766   2.310   6.615   5.486
 3289SOL    HW210767   2.255   6.461   5.490
 3290SOL     OW10768   0.104   6.723   2.016
 3290SOL    HW110769   0.190   6.761   2.051
 3290SOL    HW210770   0.028   6.781   2.046
 3291SOL     OW10771   1.130   5.712   6.923
 3291SOL    HW110772   1.128   5.806   6.958
 3291SOL    HW210773   1.193   5.706   6.846
 3292SOL     OW10774   0.663   0.645   6.920
 3292SOL    HW110775   0.573   0.637   6.964
 3292SOL    HW210776   0.677   0.566   6.859
 3293SOL     OW10777   6.846   3.393   3.170
 3293SOL    HW110778   6.900   3.459   3.223
 3293SOL    HW210779   6.832   3.310   3.224
 3294SOL     OW10780   0.446   1.003   6.490
 3294SOL    HW110781   0.348   1.014   6.477
 3294SOL    HW210782   0.465   0.913   6.529
 3295SOL     OW10783   1.570   3.186   1.772
 3295SOL    HW110784   1.660   3.169   1.733
 3295SOL    HW210785   1.514   3.237   1.706
 3296SOL     OW10786   2.017   6.091   1.462
 3296SOL    HW110787   1.936   6.140   1.431
 3296SOL    HW210788   2.024   6.098   1.561
 3297SOL     OW10789   2.642   0.272   5.130
 3297SOL    HW110790   2.678   0.195   5.183
 3297SOL    HW210791   2.718   0.325   5.092
 3298SOL     OW10792   6.524   1.957   4.055
 3298SOL    HW110793   6.443   1.899   4.051
 3298SOL    HW210794   6.596   1.909   4.106
 3299SOL     OW10795   2.106   6.588   3.729
 3299SOL    HW110796   2.008   6.591   3.710
 3299SOL    HW210797   2.156   6.583   3.642
 3300SOL     OW10798   0.555   0.868   5.666
 3300SOL    HW110799   0.621   0.864   5.741
 3300SOL    HW210800   0.556   0.782   5.615
 3301SOL     OW10801   2.129   3.386   3.938
 3301SOL    HW110802   2.034   3.408   3.960
 3301SOL    HW210803   2.157   3.438   3.857
 3302SOL     OW10804   1.291   5.865   5.024
 3302SOL    HW110805   1.296   5.951   4.972
 3302SOL    HW210806   1.297   5.885   5.121
 3303SOL     OW10807   3.812   3.017   1.727
 3303SOL    HW110808   3.841   2.921   1.728
 3303SOL    HW210809   3.758   3.036   1.809
 3304SOL     OW10810   1.498   5.055   3.833
 3304SOL    HW110811   1.498   4.956   3.840
 3304SOL    HW210812   1.567   5.093   3.894
 3305SOL     OW10813   2.505   1.034   3.049
 3305SOL    HW110814   2.488   0.935   3.048
 3305SOL    HW210815   2.421   1.083   3.029
 3306SOL     OW10816   1.875   5.391   4.036
 3306SOL    HW110817   1.876   5.421   4.132
 3306SOL    HW210818   1.967   5.364   4.009
 3307SOL     OW10819   0.024   5.842   6.555
 3307SOL    HW110820   6.983   5.777   6.595
 3307SOL    HW210821   0.067   5.801   6.475
 3308SOL     OW10822   4.706   6.343   0.074
 3308SOL    HW110823   4.668   6.255   0.045
 3308SOL    HW210824   4.804   6.334   0.088
 3309SOL     OW10825   0.766   5.213   1.851
 3309SOL    HW110826   0.851   5.161   1.841
 3309SOL    HW210827   0.783   5.294   1.908
 3310SOL     OW10828   6.511   4.399   4.743
 3310SOL    HW110829   6.584   4.408   4.675
 3310SOL    HW210830   6.479   4.489   4.771
 3311SOL     OW10831   2.139   4.501   2.070
 3311SOL    HW110832   2.155   4.595   2.041
 3311SOL    HW210833   2.135   4.441   1.989
 3312SOL     OW10834   3.705   4.344   6.158
 3312SOL    HW110835   3.663   4.434   6.145
 3312SOL    HW210836   3.803   4.350   6.139
 3313SOL     OW10837   0.122   5.298   2.544
 3313SOL    HW110838   0.105   5.292   2.446
 3313SOL    HW210839   0.207   5.250   2.566
 3314SOL     OW10840   1.359   1.836   4.923
 3314SOL    HW110841   1.424   1.864   4.994
 3314SOL    HW210842   1.397   1.760   4.871
 3315SOL     OW10843   6.627   3.593   3.982
 3315SOL    HW110844   6.575   3.650   4.045
 3315SOL    HW210845   6.628   3.499   4.013
 3316SOL     OW10846   3.713   1.792   6.048
 3316SOL    HW110847   3.750   1.738   5.972
 3316SOL    HW210848   3.613   1.792   6.042
 3317SOL     OW10849   4.889   2.956   1.785
 3317SOL    HW110850   4.840   2.983   1.869
 3317SOL    HW210851   4.831   2.895   1.731
 3318SOL     OW10852   2.953   0.030   0.548
 3318SOL    HW110853   3.052   0.024   0.532
 3318SOL    HW210854   2.911   0.088   0.479
 3319SOL     OW10855   6.292   6.829   4.628
 3319SOL    HW110856   6.224   6.903   4.627
 3319SOL    HW210857   6.312   6.802   4.722
 3320SOL     OW10858   5.575   1.091   5.830
 3320SOL    HW110859   5.661   1.128   5.793
 3320SOL    HW210860   5.568   0.994   5.808
 3321SOL     OW10861   3.365   2.169   1.695
 3321SOL    HW110862   3.277   2.165   1.742
 3321SOL    HW210863   3.430   2.219   1.752
 3322SOL     OW10864   5.228   3.247   1.804
 3322SOL    HW110865   5.200   3.222   1.712
 3322SOL    HW210866   5.147   3.258   1.862
 3323SOL     OW10867   2.051   4.101   6.515
 3323SOL    HW110868   1.953   4.116   6.526
 3323SOL    HW210869   2.070   4.003   6.517
 3324SOL     OW10870   0.793   3.770   6.520
 3324SOL    HW110871   0.718   3.704   6.524
 3324SOL    HW210872   0.776   3.837   6.448
 3325SOL     OW10873   2.129   2.933   6.628
 3325SOL    HW110874   2.224   2.928   6.598
 3325SOL    HW210875   2.093   3.025   6.612
 3326SOL     OW10876   5.319   1.450   2.118
 3326SOL    HW110877   5.325   1.398   2.032
 3326SOL    HW210878   5.342   1.545   2.101
 3327SOL     OW10879   3.215   6.160   1.460
 3327SOL    HW110880   3.260   6.117   1.538
 3327SOL    HW210881   3.284   6.189   1.393
 3328SOL     OW10882   4.075   1.906   2.509
 3328SOL    HW110883   4.037   1.998   2.511
 3328SOL    HW210884   4.109   1.887   2.416
 3329SOL     OW10885   4.877   0.956   4.935
 3329SOL    HW110886   4.831   0.868   4.935
 3329SOL    HW210887   4.818   1.025   4.893
 3330SOL     OW10888   5.857   6.299   1.408
 3330SOL    HW110889   5.816   6.263   1.491
 3330SOL    HW210890   5.931   6.363   1.432
 3331SOL     OW10891   0.609   3.596   2.018
 3331SOL    HW110892   0.658   3.553   2.094
 3331SOL    HW210893   0.511   3.591   2.035
 3332SOL     OW10894   6.264   4.350   0.061
 3332SOL    HW110895   6.166   4.367   0.055
 3332SOL    HW210896   6.285   4.308   0.149
 3333SOL     OW10897   3.185   3.547   6.842
 3333SOL    HW110898   3.122   3.503   6.906
 3333SOL    HW210899   3.217   3.633   6.881
 3334SOL     OW10900   2.072   3.441   2.345
 3334SOL    HW110901   2.112   3.525   2.306
 3334SOL    HW210902   2.063   3.372   2.273
 3335SOL     OW10903   4.832   6.411   6.541
 3335SOL    HW110904   4.778   6.410   6.625
 3335SOL    HW210905   4.922   6.370   6.557
 3336SOL     OW10906   2.173   6.605   4.472
 3336SOL    HW110907   2.226   6.688   4.487
 3336SOL    HW210908   2.091   6.626   4.420
 3337SOL     OW10909   2.451   4.039   1.427
 3337SOL    HW110910   2.388   3.970   1.391
 3337SOL    HW210911   2.545   4.016   1.400
 3338SOL     OW10912   6.752   2.869   1.358
 3338SOL    HW110913   6.711   2.881   1.449
 3338SOL    HW210914   6.845   2.904   1.359
 3339SOL     OW10915   1.297   6.847   6.674
 3339SOL    HW110916   1.374   6.908   6.656
 3339SOL    HW210917   1.331   6.755   6.690
 3340SOL     OW10918   3.692   0.882   3.954
 3340SOL    HW110919   3.705   0.850   4.048
 3340SOL    HW210920   3.604   0.929   3.946
 3341SOL     OW10921   2.116   4.626   3.798
 3341SOL    HW110922   2.197   4.599   3.745
 3341SOL    HW210923   2.131   4.605   3.894
 3342SOL     OW10924   1.182   0.399   3.412
 3342SOL    HW110925   1.139   0.393   3.321
 3342SOL    HW210926   1.128   0.460   3.470
 3343SOL     OW10927   5.447   4.671   6.600
 3343SOL    HW110928   5.500   4.589   6.578
 3343SOL    HW210929   5.352   4.645   6.618
 3344SOL     OW10930   6.118   3.751   4.152
 3344SOL    HW110931   6.153   3.845   4.151
 3344SOL    HW210932   6.051   3.740   4.079
 3345SOL     OW10933   1.054   4.734   6.511
 3345SOL    HW110934   0.958   4.706   6.512
 3345SOL    HW210935   1.078   4.777   6.598
 3346SOL     OW10936   0.754   0.828   0.131
 3346SOL    HW110937   0.663   0.789   0.141
 3346SOL    HW210938   0.766   0.862   0.037
 3347SOL     OW10939   0.789   3.206   5.901
 3347SOL    HW110940   0.791   3.306   5.899
 3347SOL    HW210941   0.759   3.175   5.992
 3348SOL     OW10942   4.204   3.418   5.063
 3348SOL    HW110943   4.183   3.486   5.132
 3348SOL    HW210944   4.259   3.345   5.104
 3349SOL     OW10945   2.073   5.302   2.582
 3349SOL    HW110946   2.008   5.268   2.649
 3349SOL    HW210947   2.139   5.362   2.627
 3350SOL     OW10948   0.299   2.845   6.000
 3350SOL    HW110949   0.231   2.776   5.978
 3350SOL    HW210950   0.256   2.935   6.005
 3351SOL     OW10951   4.559   1.488   1.857
 3351SOL    HW110952   4.539   1.391   1.871
 3351SOL    HW210953   4.658   1.501   1.850
 3352SOL     OW10954   6.086   2.520   0.933
 3352SOL    HW110955   6.040   2.606   0.955
 3352SOL    HW210956   6.085   2.505   0.834
 3353SOL     OW10957   3.029   5.953   1.423
 3353SOL    HW110958   3.095   6.027   1.433
 3353SOL    HW210959   3.056   5.876   1.482
 3354SOL     OW10960   4.539   2.639   5.471
 3354SOL    HW110961   4.585   2.724   5.443
 3354SOL    HW210962   4.588   2.598   5.548
 3355SOL     OW10963   2.017   1.694   5.880
 3355SOL    HW110964   2.066   1.625   5.825
 3355SOL    HW210965   2.000   1.657   5.971
 3356SOL     OW10966   1.127   5.887   5.930
 3356SOL    HW110967   1.096   5.793   5.944
 3356SOL    HW210968   1.125   5.936   6.017
 3357SOL     OW10969   3.240   3.644   2.260
 3357SOL    HW110970   3.148   3.650   2.299
 3357SOL    HW210971   3.306   3.631   2.334
 3358SOL     OW10972   4.313   1.062   2.609
 3358SOL    HW110973   4.239   1.017   2.560
 3358SOL    HW210974   4.283   1.083   2.702
 3359SOL     OW10975   0.201   5.854   3.006
 3359SOL    HW110976   0.200   5.766   2.960
 3359SOL    HW210977   0.205   5.840   3.105
 3360SOL     OW10978   0.453   1.993   6.498
 3360SOL    HW110979   0.409   2.077   6.528
 3360SOL    HW210980   0.385   1.930   6.461
 3361SOL     OW10981   0.212   5.671   4.602
 3361SOL    HW110982   0.223   5.770   4.603
 3361SOL    HW210983   0.230   5.636   4.510
 3362SOL     OW10984   3.207   1.796   2.598
 3362SOL    HW110985   3.205   1.809   2.498
 3362SOL    HW210986   3.162   1.710   2.621
 3363SOL     OW10987   6.640   2.298   1.534
 3363SOL    HW110988   6.721   2.348   1.503
 3363SOL    HW210989   6.558   2.343   1.497
 3364SOL     OW10990   2.550   4.493   3.507
 3364SOL    HW110991   2.522   4.415   3.451
 3364SOL    HW210992   2.552   4.576   3.451
 3365SOL     OW10993   0.021   3.176   4.994
 3365SOL    HW110994   6.990   3.106   4.947
 3365SOL    HW210995   0.050   3.142   5.083
 3366SOL     OW10996   5.452   4.881   4.001
 3366SOL    HW110997   5.464   4.797   4.054
 3366SOL    HW210998   5.457   4.960   4.062
 3367SOL     OW10999   3.898   3.742   3.105
 3367SOL    HW111000   3.865   3.663   3.054
 3367SOL    HW211001   3.949   3.803   3.044
 3368SOL     OW11002   0.819   5.638   6.242
 3368SOL    HW111003   0.787   5.544   6.249
 3368SOL    HW211004   0.919   5.639   6.233
 3369SOL     OW11005   4.336   1.836   1.186
 3369SOL    HW111006   4.354   1.850   1.089
 3369SOL    HW211007   4.366   1.916   1.238
 3370SOL     OW11008   6.768   6.354   1.315
 3370SOL    HW111009   6.809   6.272   1.354
 3370SOL    HW211010   6.791   6.433   1.372
 3371SOL     OW11011   2.094   3.334   1.757
 3371SOL    HW111012   2.177   3.378   1.793
 3371SOL    HW211013   2.030   3.405   1.728
 3372SOL     OW11014   6.994   1.899   0.386
 3372SOL    HW111015   7.004   1.815   0.439
 3372SOL    HW211016   6.897   1.918   0.372
 3373SOL     OW11017   0.355   2.254   4.037
 3373SOL    HW111018   0.320   2.345   4.018
 3373SOL    HW211019   0.436   2.260   4.097
 3374SOL     OW11020   0.990   6.875   3.895
 3374SOL    HW111021   1.041   6.866   3.981
 3374SOL    HW211022   0.952   6.787   3.869
 3375SOL     OW11023   6.923   4.286   0.760
 3375SOL    HW111024   6.936   4.216   0.830
 3375SOL    HW211025   6.951   4.375   0.797
 3376SOL     OW11026   3.419   2.880   4.800
 3376SOL    HW111027   3.387   2.907   4.891
 3376SOL    HW211028   3.411   2.780   4.790
 3377SOL     OW11029   0.188   5.475   6.024
 3377SOL    HW111030   0.267   5.521   5.982
 3377SOL    HW211031   0.109   5.482   5.963
 3378SOL     OW11032   1.576   6.177   0.531
 3378SOL    HW111033   1.483   6.193   0.564
 3378SOL    HW211034   1.591   6.230   0.448
 3379SOL     OW11035   0.867   1.680   4.691
 3379SOL    HW111036   0.843   1.586   4.666
 3379SOL    HW211037   0.785   1.728   4.722
 3380SOL     OW11038   4.866   6.176   5.316
 3380SOL    HW111039   4.786   6.232   5.336
 3380SOL    HW211040   4.949   6.226   5.342
 3381SOL     OW11041   6.486   2.876   0.985
 3381SOL    HW111042   6.467   2.799   0.924
 3381SOL    HW211043   6.404   2.895   1.039
 3382SOL     OW11044   0.484   2.687   6.486
 3382SOL    HW111045   0.514   2.764   6.542
 3382SOL    HW211046   0.470   2.718   6.392
 3383SOL     OW11047   3.325   5.200   1.056
 3383SOL    HW111048   3.345   5.236   0.964
 3383SOL    HW211049   3.401   5.142   1.086
 3384SOL     OW11050   2.188   3.557   1.094
 3384SOL    HW111051   2.170   3.467   1.135
 3384SOL    HW211052   2.271   3.552   1.038
 3385SOL     OW11053   6.841   3.447   4.383
 3385SOL    HW111054   6.888   3.514   4.440
 3385SOL    HW211055   6.742   3.457   4.394
 3386SOL     OW11056   5.009   4.210   6.882
 3386SOL    HW111057   4.946   4.156   6.939
 3386SOL    HW211058   5.094   4.226   6.932
 3387SOL     OW11059   4.935   0.301   3.115
 3387SOL    HW111060   4.902   0.335   3.203
 3387SOL    HW211061   4.885   0.219   3.089
 3388SOL     OW11062   5.503   3.080   2.542
 3388SOL    HW111063   5.434   3.008   2.534
 3388SOL    HW211064   5.575   3.050   2.605
 3389SOL     OW11065   6.408   5.803   5.962
 3389SOL    HW111066   6.483   5.870   5.970
 3389SOL    HW211067   6.430   5.722   6.017
 3390SOL     OW11068   5.182   6.804   6.081
 3390SOL    HW111069   5.086   6.779   6.098
 3390SOL    HW211070   5.185   6.883   6.020
 3391SOL     OW11071   4.700   2.706   3.335
 3391SOL    HW111072   4.788   2.689   3.378
 3391SOL    HW211073   4.699   2.798   3.296
 3392SOL     OW11074   3.389   6.692   4.607
 3392SOL    HW111075   3.421   6.629   4.536
 3392SOL    HW211076   3.339   6.641   4.676
 3393SOL     OW11077   6.061   6.078   0.634
 3393SOL    HW111078   6.089   6.148   0.699
 3393SOL    HW211079   6.091   6.103   0.542
 3394SOL     OW11080   4.896   3.757   0.943
 3394SOL    HW111081   4.885   3.761   0.843
 3394SOL    HW211082   4.945   3.839   0.973
 3395SOL     OW11083   5.270   2.129   2.999
 3395SOL    HW111084   5.357   2.137   3.047
 3395SOL    HW211085   5.208   2.069   3.051
 3396SOL     OW11086   5.531   1.222   3.804
 3396SOL    HW111087   5.484   1.308   3.783
 3396SOL    HW211088   5.616   1.218   3.751
 3397SOL     OW11089   3.430   4.942   6.109
 3397SOL    HW111090   3.360   4.952   6.180
 3397SOL    HW211091   3.388   4.957   6.019
 3398SOL     OW11092   1.492   0.062   5.204
 3398SOL    HW111093   1.509   0.149   5.159
 3398SOL    HW211094   1.563   7.020   5.180
 3399SOL     OW11095   5.750   5.380   3.363
 3399SOL    HW111096   5.715   5.397   3.455
 3399SOL    HW211097   5.793   5.290   3.359
 3400SOL     OW11098   5.252   4.059   6.630
 3400SOL    HW111099   5.262   4.157   6.646
 3400SOL    HW211100   5.171   4.042   6.574
 3401SOL     OW11101   5.616   4.005   6.785
 3401SOL    HW111102   5.633   4.091   6.737
 3401SOL    HW211103   5.527   4.010   6.831
 3402SOL     OW11104   5.683   5.632   6.482
 3402SOL    HW111105   5.658   5.550   6.533
 3402SOL    HW211106   5.602   5.691   6.471
 3403SOL     OW11107   4.934   5.626   6.883
 3403SOL    HW111108   4.960   5.565   6.807
 3403SOL    HW211109   4.883   5.574   6.951
 3404SOL     OW11110   5.187   2.463   0.524
 3404SOL    HW111111   5.132   2.415   0.592
 3404SOL    HW211112   5.191   2.560   0.546
 3405SOL     OW11113   5.596   4.468   6.488
 3405SOL    HW111114   5.696   4.460   6.487
 3405SOL    HW211115   5.566   4.522   6.409
 3406SOL     OW11116   1.104   3.264   2.748
 3406SOL    HW111117   1.051   3.216   2.818
 3406SOL    HW211118   1.135   3.352   2.783
 3407SOL     OW11119   2.059   4.383   6.984
 3407SOL    HW111120   2.120   4.452   6.946
 3407SOL    HW211121   2.071   4.378   0.060
 3408SOL     OW11122   4.989   2.850   4.712
 3408SOL    HW111123   4.891   2.860   4.694
 3408SOL    HW211124   5.022   2.929   4.764
 3409SOL     OW11125   4.019   6.197   6.974
 3409SOL    HW111126   3.965   6.125   7.020
 3409SOL    HW211127   3.958   6.272   6.949
 3410SOL     OW11128   6.392   6.630   2.092
 3410SOL    HW111129   6.335   6.690   2.147
 3410SOL    HW211130   6.464   6.591   2.150
 3411SOL     OW11131   0.403   2.966   0.451
 3411SOL    HW111132   0.452   2.904   0.390
 3411SOL    HW211133   0.332   2.915   0.499
 3412SOL     OW11134   5.005   3.558   1.493
 3412SOL    HW111135   5.035   3.596   1.581
 3412SOL    HW211136   4.916   3.513   1.505
 3413SOL     OW11137   6.527   1.458   0.235
 3413SOL    HW111138   6.478   1.371   0.228
 3413SOL    HW211139   6.622   1.445   0.207
 3414SOL     OW11140   3.467   2.239   5.690
 3414SOL    HW111141   3.511   2.161   5.734
 3414SOL    HW211142   3.455   2.313   5.757
 3415SOL     OW11143   2.394   2.044   4.333
 3415SOL    HW111144   2.312   2.022   4.280
 3415SOL    HW211145   2.467   2.072   4.271
 3416SOL     OW11146   5.299   0.671   0.478
 3416SOL    HW111147   5.231   0.695   0.409
 3416SOL    HW211148   5.383   0.641   0.434
 3417SOL     OW11149   0.295   6.725   4.287
 3417SOL    HW111150   0.322   6.634   4.317
 3417SOL    HW211151   0.342   6.747   4.201
 3418SOL     OW11152   3.754   6.128   3.356
 3418SOL    HW111153   3.787   6.221   3.339
 3418SOL    HW211154   3.700   6.127   3.440
 3419SOL     OW11155   3.289   4.967   5.812
 3419SOL    HW111156   3.323   5.057   5.836
 3419SOL    HW211157   3.345   4.928   5.740
 3420SOL     OW11158   5.319   3.820   3.810
 3420SOL    HW111159   5.415   3.799   3.788
 3420SOL    HW211160   5.313   3.850   3.905
 3421SOL     OW11161   5.398   1.757   3.572
 3421SOL    HW111162   5.334   1.681   3.560
 3421SOL    HW211163   5.349   1.839   3.601
 3422SOL     OW11164   2.661   0.343   0.057
 3422SOL    HW111165   2.642   0.436   0.090
 3422SOL    HW211166   2.623   0.276   0.120
 3423SOL     OW11167   0.260   4.859   6.380
 3423SOL    HW111168   0.240   4.954   6.356
 3423SOL    HW211169   0.287   4.809   6.297
 3424SOL     OW11170   2.965   6.738   1.197
 3424SOL    HW111171   2.972   6.836   1.179
 3424SOL    HW211172   3.019   6.715   1.278
 3425SOL     OW11173   4.904   4.427   2.238
 3425SOL    HW111174   4.887   4.520   2.271
 3425SOL    HW211175   4.947   4.373   2.310
 3426SOL     OW11176   5.342   2.772   1.318
 3426SOL    HW111177   5.280   2.703   1.280
 3426SOL    HW211178   5.376   2.742   1.407
 3427SOL     OW11179   0.786   2.229   1.772
 3427SOL    HW111180   0.722   2.153   1.783
 3427SOL    HW211181   0.853   2.206   1.702
 3428SOL     OW11182   3.952   4.391   6.884
 3428SOL    HW111183   3.866   4.430   6.852
 3428SOL    HW211184   3.964   4.300   6.846
 3429SOL     OW11185   0.573   1.802   1.134
 3429SOL    HW111186   0.640   1.861   1.179
 3429SOL    HW211187   0.617   1.715   1.109
 3430SOL     OW11188   2.364   5.165   5.334
 3430SOL    HW111189   2.356   5.264   5.324
 3430SOL    HW211190   2.388   5.143   5.429
 3431SOL     OW11191   1.435   5.873   1.300
 3431SOL    HW111192   1.451   5.871   1.399
 3431SOL    HW211193   1.351   5.924   1.281
 3432SOL     OW11194   2.816   4.624   6.365
 3432SOL    HW111195   2.841   4.636   6.461
 3432SOL    HW211196   2.820   4.712   6.318
 3433SOL     OW11197   1.204   0.843   5.191
 3433SOL    HW111198   1.247   0.818   5.277
 3433SOL    HW211199   1.260   0.912   5.145
 3434SOL     OW11200   3.844   1.634   1.712
 3434SOL    HW111201   3.862   1.717   1.765
 3434SOL    HW211202   3.774   1.580   1.758
 3435SOL     OW11203   2.108   1.201   1.023
 3435SOL    HW111204   2.169   1.274   1.054
 3435SOL    HW211205   2.162   1.122   0.997
 3436SOL     OW11206   3.660   5.869   0.037
 3436SOL    HW111207   3.715   5.876   0.120
 3436SOL    HW211208   3.575   5.920   0.048
 3437SOL     OW11209   2.706   6.053   5.657
 3437SOL    HW111210   2.743   5.963   5.632
 3437SOL    HW211211   2.732   6.074   5.751
 3438SOL     OW11212   0.889   4.091   1.280
 3438SOL    HW111213   0.798   4.052   1.294
 3438SOL    HW211214   0.880   4.187   1.254
 3439SOL     OW11215   3.364   6.104   4.090
 3439SOL    HW111216   3.380   6.089   4.187
 3439SOL    HW211217   3.272   6.075   4.066
 3440SOL     OW11218   3.608   2.868   2.652
 3440SOL    HW111219   3.581   2.946   2.596
 3440SOL    HW211220   3.554   2.787   2.626
 3441SOL     OW11221   6.806   5.704   6.601
 3441SOL    HW111222   6.712   5.721   6.632
 3441SOL    HW211223   6.806   5.631   6.533
 3442SOL     OW11224   2.807   3.763   1.415
 3442SOL    HW111225   2.829   3.752   1.512
 3442SOL    HW211226   2.805   3.861   1.393
 3443SOL     OW11227   3.551   6.447   2.212
 3443SOL    HW111228   3.651   6.438   2.216
 3443SOL    HW211229   3.527   6.517   2.145
 3444SOL     OW11230   4.718   5.643   0.430
 3444SOL    HW111231   4.724   5.612   0.525
 3444SOL    HW211232   4.792   5.708   0.411
 3445SOL     OW11233   6.259   5.115   3.266
 3445SOL    HW111234   6.325   5.164   3.324
 3445SOL    HW211235   6.170   5.112   3.311
 3446SOL     OW11236   6.061   0.637   1.401
 3446SOL    HW111237   6.076   0.656   1.498
 3446SOL    HW211238   6.039   0.722   1.354
 3447SOL     OW11239   5.484   6.786   0.704
 3447SOL    HW111240   5.526   6.806   0.616
 3447SOL    HW211241   5.412   6.854   0.722
 3448SOL     OW11242   3.379   6.633   6.303
 3448SOL    HW111243   3.401   6.653   6.207
 3448SOL    HW211244   3.459   6.654   6.360
 3449SOL     OW11245   5.901   5.176   4.823
 3449SOL    HW111246   5.989   5.171   4.871
 3449SOL    HW211247   5.916   5.211   4.730
 3450SOL     OW11248   0.946   1.512   6.675
 3450SOL    HW111249   0.969   1.610   6.682
 3450SOL    HW211250   0.861   1.495   6.724
 3451SOL     OW11251   2.423   5.920   6.903
 3451SOL    HW111252   2.439   5.986   6.976
 3451SOL    HW211253   2.509   5.898   6.857
 3452SOL     OW11254   5.718   0.311   6.508
 3452SOL    HW111255   5.797   0.331   6.566
 3452SOL    HW211256   5.749   0.270   6.423
 3453SOL     OW11257   5.625   5.420   6.665
 3453SOL    HW111258   5.691   5.431   6.739
 3453SOL    HW211259   5.662   5.356   6.597
 3454SOL     OW11260   0.664   3.965   4.593
 3454SOL    HW111261   0.619   3.920   4.671
 3454SOL    HW211262   0.700   3.895   4.532
 3455SOL     OW11263   2.884   1.729   3.894
 3455SOL    HW111264   2.982   1.741   3.908
 3455SOL    HW211265   2.845   1.680   3.972
 3456SOL     OW11266   5.045   4.965   2.223
 3456SOL    HW111267   5.055   4.921   2.134
 3456SOL    HW211268   5.134   4.993   2.258
 3457SOL     OW11269   4.657   5.613   4.113
 3457SOL    HW111270   4.624   5.655   4.198
 3457SOL    HW211271   4.722   5.540   4.135
 3458SOL     OW11272   4.221   1.332   2.510
 3458SOL    HW111273   4.185   1.408   2.456
 3458SOL    HW211274   4.318   1.347   2.529
 3459SOL     OW11275   4.634   2.194   3.298
 3459SOL    HW111276   4.664   2.284   3.265
 3459SOL    HW211277   4.654   2.125   3.229
 3460SOL     OW11278   3.001   1.685   6.279
 3460SOL    HW111279   3.101   1.680   6.284
 3460SOL    HW211280   2.975   1.771   6.235
 3461SOL     OW11281   4.786   3.719   6.514
 3461SOL    HW111282   4.809   3.794   6.577
 3461SOL    HW211283   4.743   3.645   6.565
 3462SOL     OW11284   0.810   4.365   5.296
 3462SOL    HW111285   0.731   4.387   5.353
 3462SOL    HW211286   0.801   4.411   5.208
 3463SOL     OW11287   0.699   4.110   0.960
 3463SOL    HW111288   0.617   4.167   0.964
 3463SOL    HW211289   0.678   4.019   0.996
 3464SOL     OW11290   0.372   4.616   6.650
 3464SOL    HW111291   0.281   4.630   6.610
 3464SOL    HW211292   0.416   4.704   6.665
 3465SOL     OW11293   1.816   2.585   1.833
 3465SOL    HW111294   1.777   2.671   1.867
 3465SOL    HW211295   1.902   2.604   1.786
 3466SOL     OW11296   6.887   5.315   6.297
 3466SOL    HW111297   6.970   5.358   6.262
 3466SOL    HW211298   6.909   5.263   6.380
 3467SOL     OW11299   1.546   2.825   6.553
 3467SOL    HW111300   1.540   2.873   6.466
 3467SOL    HW211301   1.642   2.813   6.578
 3468SOL     OW11302   3.990   6.239   2.597
 3468SOL    HW111303   4.037   6.151   2.606
 3468SOL    HW211304   4.028   6.305   2.661
 3469SOL     OW11305   6.064   1.466   2.876
 3469SOL    HW111306   6.154   1.489   2.914
 3469SOL    HW211307   6.021   1.396   2.933
 3470SOL     OW11308   6.790   4.661   0.823
 3470SOL    HW111309   6.808   4.677   0.726
 3470SOL    HW211310   6.691   4.657   0.839
 3471SOL     OW11311   4.099   5.089   4.727
 3471SOL    HW111312   4.124   5.169   4.673
 3471SOL    HW211313   3.999   5.082   4.731
 3472SOL     OW11314   2.236   0.694   2.781
 3472SOL    HW111315   2.301   0.767   2.803
 3472SOL    HW211316   2.150   0.710   2.829
 3473SOL     OW11317   6.566   1.489   6.355
 3473SOL    HW111318   6.579   1.559   6.425
 3473SOL    HW211319   6.497   1.520   6.289
 3474SOL     OW11320   3.044   5.222   2.391
 3474SOL    HW111321   3.132   5.204   2.435
 3474SOL    HW211322   2.989   5.139   2.391
 3475SOL     OW11323   0.982   6.452   4.340
 3475SOL    HW111324   1.056   6.508   4.302
 3475SOL    HW211325   0.915   6.510   4.386
 3476SOL     OW11326   3.319   1.120   3.170
 3476SOL    HW111327   3.353   1.214   3.161
 3476SOL    HW211328   3.231   1.112   3.124
 3477SOL     OW11329   3.135   5.768   1.630
 3477SOL    HW111330   3.175   5.821   1.705
 3477SOL    HW211331   3.207   5.739   1.567
 3478SOL     OW11332   2.689   5.639   5.823
 3478SOL    HW111333   2.676   5.540   5.811
 3478SOL    HW211334   2.787   5.659   5.823
 3479SOL     OW11335   0.745   0.242   3.272
 3479SOL    HW111336   0.657   0.283   3.249
 3479SOL    HW211337   0.730   0.150   3.310
 3480SOL     OW11338   6.518   0.278   4.482
 3480SOL    HW111339   6.535   0.274   4.384
 3480SOL    HW211340   6.605   0.264   4.531
 3481SOL     OW11341   4.579   0.273   6.825
 3481SOL    HW111342   4.554   0.196   6.766
 3481SOL    HW211343   4.533   0.264   6.913
 3482SOL     OW11344   5.754   1.416   0.473
 3482SOL    HW111345   5.853   1.408   0.477
 3482SOL    HW211346   5.720   1.371   0.390
 3483SOL     OW11347   3.778   0.679   1.535
 3483SOL    HW111348   3.795   0.767   1.578
 3483SOL    HW211349   3.680   0.658   1.541
 3484SOL     OW11350   3.087   3.898   1.814
 3484SOL    HW111351   3.147   3.825   1.781
 3484SOL    HW211352   3.000   3.893   1.766
 3485SOL     OW11353   0.975   0.681   4.808
 3485SOL    HW111354   1.066   0.668   4.769
 3485SOL    HW211355   0.980   0.671   4.908
 3486SOL     OW11356   3.038   1.572   2.543
 3486SOL    HW111357   3.110   1.514   2.505
 3486SOL    HW211358   2.957   1.569   2.484
 3487SOL     OW11359   6.412   1.891   6.065
 3487SOL    HW111360   6.426   1.800   6.028
 3487SOL    HW211361   6.491   1.949   6.043
 3488SOL     OW11362   5.769   3.235   4.084
 3488SOL    HW111363   5.691   3.252   4.023
 3488SOL    HW211364   5.847   3.204   4.030
 3489SOL     OW11365   2.685   6.533   0.692
 3489SOL    HW111366   2.648   6.611   0.641
 3489SOL    HW211367   2.652   6.448   0.650
 3490SOL     OW11368   4.438   4.012   6.585
 3490SOL    HW111369   4.408   4.095   6.632
 3490SOL    HW211370   4.519   4.033   6.530
 3491SOL     OW11371   5.924   3.071   4.288
 3491SOL    HW111372   5.977   3.130   4.348
 3491SOL    HW211373   5.873   3.127   4.222
 3492SOL     OW11374   1.085   5.750   0.548
 3492SOL    HW111375   0.998   5.799   0.542
 3492SOL    HW211376   1.115   5.746   0.644
 3493SOL     OW11377   6.515   5.456   7.015
 3493SOL    HW111378   6.443   5.525   0.001
 3493SOL    HW211379   6.523   5.430   6.919
 3494SOL     OW11380   4.027   0.177   1.266
 3494SOL    HW111381   3.929   0.196   1.256
 3494SOL    HW211382   4.040   0.105   1.334
 3495SOL     OW11383   4.216   4.747   2.545
 3495SOL    HW111384   4.267   4.682   2.601
 3495SOL    HW211385   4.279   4.811   2.502
 3496SOL     OW11386   0.530   3.185   1.410
 3496SOL    HW111387   0.553   3.091   1.436
 3496SOL    HW211388   0.587   3.214   1.334
 3497SOL     OW11389   3.992   7.004   2.943
 3497SOL    HW111390   4.041   7.008   2.856
 3497SOL    HW211391   4.030   0.049   3.006
 3498SOL     OW11392   2.529   2.434   0.658
 3498SOL    HW111393   2.516   2.411   0.562
 3498SOL    HW211394   2.578   2.360   0.704
 3499SOL     OW11395   5.331   2.708   4.417
 3499SOL    HW111396   5.369   2.647   4.348
 3499SOL    HW211397   5.340   2.667   4.508
 3500SOL     OW11398   0.131   4.418   5.481
 3500SOL    HW111399   0.189   4.348   5.439
 3500SOL    HW211400   0.170   4.447   5.568
 3501SOL     OW11401   0.279   5.044   4.168
 3501SOL    HW111402   0.297   5.133   4.126
 3501SOL    HW211403   0.247   4.980   4.099
 3502SOL     OW11404   0.068   2.556   2.194
 3502SOL    HW111405   0.083   2.648   2.160
 3502SOL    HW211406   0.031   2.498   2.120
 3503SOL     OW11407   5.413   5.725   5.584
 3503SOL    HW111408   5.375   5.773   5.663
 3503SOL    HW211409   5.365   5.754   5.502
 3504SOL     OW11410   2.945   2.979   1.648
 3504SOL    HW111411   3.017   2.918   1.681
 3504SOL    HW211412   2.859   2.928   1.638
 3505SOL     OW11413   5.782   5.330   5.166
 3505SOL    HW111414   5.768   5.239   5.127
 3505SOL    HW211415   5.694   5.377   5.172
 3506SOL     OW11416   4.349   5.704   5.333
 3506SOL    HW111417   4.349   5.605   5.321
 3506SOL    HW211418   4.273   5.731   5.392
 3507SOL     OW11419   1.705   0.634   6.986
 3507SOL    HW111420   1.611   0.636   6.954
 3507SOL    HW211421   1.731   0.539   7.008
 3508SOL     OW11422   3.919   2.624   6.057
 3508SOL    HW111423   3.868   2.706   6.031
 3508SOL    HW211424   3.989   2.604   5.989
 3509SOL     OW11425   5.303   6.184   6.497
 3509SOL    HW111426   5.391   6.166   6.541
 3509SOL    HW211427   5.316   6.188   6.398
 3510SOL     OW11428   1.949   3.002   1.292
 3510SOL    HW111429   1.998   2.998   1.380
 3510SOL    HW211430   1.852   2.988   1.307
 3511SOL     OW11431   1.805   4.302   6.927
 3511SOL    HW111432   1.891   4.349   6.943
 3511SOL    HW211433   1.737   4.334   6.993
 3512SOL     OW11434   0.865   4.380   0.536
 3512SOL    HW111435   0.899   4.298   0.582
 3512SOL    HW211436   0.899   4.383   0.443
 3513SOL     OW11437   5.926   4.417   1.032
 3513SOL    HW111438   5.851   4.481   1.049
 3513SOL    HW211439   5.991   4.460   0.969
 3514SOL     OW11440   0.734   0.902   2.023
 3514SOL    HW111441   0.679   0.978   2.059
 3514SOL    HW211442   0.677   0.845   1.964
 3515SOL     OW11443   3.780   6.576   2.603
 3515SOL    HW111444   3.750   6.498   2.658
 3515SOL    HW211445   3.871   6.558   2.566
 3516SOL     OW11446   4.261   0.789   1.373
 3516SOL    HW111447   4.210   0.792   1.287
 3516SOL    HW211448   4.281   0.882   1.403
 3517SOL     OW11449   0.327   2.171   6.801
 3517SOL    HW111450   0.420   2.200   6.821
 3517SOL    HW211451   0.278   2.155   6.887
 3518SOL     OW11452   5.051   3.984   5.288
 3518SOL    HW111453   5.039   3.895   5.243
 3518SOL    HW211454   4.996   4.052   5.239
 3519SOL     OW11455   1.911   0.469   6.540
 3519SOL    HW111456   1.853   0.550   6.540
 3519SOL    HW211457   1.889   0.412   6.619
 3520SOL     OW11458   3.641   4.598   1.070
 3520SOL    HW111459   3.679   4.689   1.084
 3520SOL    HW211460   3.573   4.579   1.141
 3521SOL     OW11461   5.518   2.959   1.712
 3521SOL    HW111462   5.496   2.872   1.756
 3521SOL    HW211463   5.475   3.034   1.763
 3522SOL     OW11464   3.446   5.761   2.088
 3522SOL    HW111465   3.449   5.741   1.990
 3522SOL    HW211466   3.534   5.796   2.118
 3523SOL     OW11467   3.082   4.620   5.510
 3523SOL    HW111468   3.074   4.540   5.451
 3523SOL    HW211469   3.165   4.613   5.565
 3524SOL     OW11470   2.409   0.391   1.082
 3524SOL    HW111471   2.322   0.361   1.122
 3524SOL    HW211472   2.469   0.311   1.071
 3525SOL     OW11473   0.575   3.634   1.730
 3525SOL    HW111474   0.604   3.619   1.825
 3525SOL    HW211475   0.479   3.608   1.720
 3526SOL     OW11476   1.336   0.160   3.892
 3526SOL    HW111477   1.411   0.170   3.825
 3526SOL    HW211478   1.350   0.225   3.966
 3527SOL     OW11479   5.639   2.903   5.471
 3527SOL    HW111480   5.608   2.903   5.376
 3527SOL    HW211481   5.637   2.810   5.507
 3528SOL     OW11482   1.079   5.818   3.425
 3528SOL    HW111483   1.019   5.779   3.356
 3528SOL    HW211484   1.151   5.753   3.448
 3529SOL     OW11485   3.942   0.124   5.924
 3529SOL    HW111486   3.881   0.204   5.921
 3529SOL    HW211487   3.958   0.091   5.831
 3530SOL     OW11488   1.814   5.054   2.477
 3530SOL    HW111489   1.827   5.054   2.576
 3530SOL    HW211490   1.808   5.148   2.444
 3531SOL     OW11491   5.092   4.551   1.128
 3531SOL    HW111492   5.021   4.495   1.171
 3531SOL    HW211493   5.159   4.578   1.197
 3532SOL     OW11494   3.249   0.268   0.334
 3532SOL    HW111495   3.264   0.285   0.431
 3532SOL    HW211496   3.335   0.242   0.291
 3533SOL     OW11497   1.064   2.060   3.494
 3533SOL    HW111498   1.081   2.090   3.400
 3533SOL    HW211499   1.138   1.999   3.523
 3534SOL     OW11500   5.692   1.075   5.358
 3534SOL    HW111501   5.781   1.106   5.389
 3534SOL    HW211502   5.638   1.043   5.436
 3535SOL     OW11503   6.938   5.678   0.687
 3535SOL    HW111504   6.928   5.579   0.681
 3535SOL    HW211505   6.963   5.714   0.597
 3536SOL     OW11506   2.186   3.154   3.797
 3536SOL    HW111507   2.228   3.081   3.851
 3536SOL    HW211508   2.185   3.239   3.851
 3537SOL     OW11509   2.705   4.306   0.555
 3537SOL    HW111510   2.718   4.381   0.490
 3537SOL    HW211511   2.608   4.282   0.559
 3538SOL     OW11512   2.820   0.695   4.002
 3538SOL    HW111513   2.853   0.627   4.067
 3538SOL    HW211514   2.783   0.649   3.921
 3539SOL     OW11515   5.927   3.401   5.953
 3539SOL    HW111516   5.849   3.344   5.927
 3539SOL    HW211517   6.011   3.349   5.942
 3540SOL     OW11518   2.303   1.881   6.097
 3540SOL    HW111519   2.234   1.913   6.033
 3540SOL    HW211520   2.391   1.925   6.076
 3541SOL     OW11521   2.549   2.859   6.776
 3541SOL    HW111522   2.488   2.918   6.724
 3541SOL    HW211523   2.537   2.877   6.874
 3542SOL     OW11524   5.850   2.734   0.404
 3542SOL    HW111525   5.924   2.783   0.359
 3542SOL    HW211526   5.762   2.767   0.371
 3543SOL     OW11527   1.719   3.082   3.699
 3543SOL    HW111528   1.637   3.140   3.699
 3543SOL    HW211529   1.717   3.022   3.779
 3544SOL     OW11530   2.209   4.496   6.335
 3544SOL    HW111531   2.143   4.462   6.402
 3544SOL    HW211532   2.161   4.534   6.256
 3545SOL     OW11533   3.917   4.767   0.337
 3545SOL    HW111534   3.969   4.816   0.267
 3545SOL    HW211535   3.823   4.755   0.306
 3546SOL     OW11536   6.741   4.880   3.094
 3546SOL    HW111537   6.671   4.947   3.070
 3546SOL    HW211538   6.766   4.826   3.014
 3547SOL     OW11539   6.802   4.512   5.283
 3547SOL    HW111540   6.764   4.540   5.371
 3547SOL    HW211541   6.861   4.432   5.296
 3548SOL     OW11542   5.601   0.610   5.043
 3548SOL    HW111543   5.540   0.532   5.029
 3548SOL    HW211544   5.606   0.632   5.141
 3549SOL     OW11545   2.030   4.656   5.510
 3549SOL    HW111546   2.124   4.634   5.487
 3549SOL    HW211547   1.990   4.712   5.437
 3550SOL     OW11548   5.751   2.876   4.339
 3550SOL    HW111549   5.704   2.849   4.255
 3550SOL    HW211550   5.825   2.940   4.318
 3551SOL     OW11551   3.389   1.817   5.057
 3551SOL    HW111552   3.346   1.905   5.037
 3551SOL    HW211553   3.438   1.784   4.976
 3552SOL     OW11554   5.824   5.638   2.054
 3552SOL    HW111555   5.757   5.686   2.110
 3552SOL    HW211556   5.820   5.540   2.074
 3553SOL     OW11557   3.575   5.202   6.304
 3553SOL    HW111558   3.601   5.185   6.399
 3553SOL    HW211559   3.476   5.218   6.299
 3554SOL     OW11560   4.759   3.235   0.244
 3554SOL    HW111561   4.840   3.294   0.244
 3554SOL    HW211562   4.788   3.140   0.253
 3555SOL     OW11563   1.949   1.533   4.252
 3555SOL    HW111564   1.907   1.601   4.311
 3555SOL    HW211565   2.049   1.545   4.252
 3556SOL     OW11566   3.760   1.068   3.473
 3556SOL    HW111567   3.719   1.026   3.393
 3556SOL    HW211568   3.750   1.007   3.552
 3557SOL     OW11569   1.391   7.000   3.532
 3557SOL    HW111570   1.374   7.003   3.631
 3557SOL    HW211571   1.326   0.035   3.485
 3558SOL     OW11572   2.783   4.663   1.185
 3558SOL    HW111573   2.726   4.581   1.192
 3558SOL    HW211574   2.780   4.698   1.091
 3559SOL     OW11575   1.502   6.182   4.407
 3559SOL    HW111576   1.587   6.131   4.415
 3559SOL    HW211577   1.494   6.219   4.314
 3560SOL     OW11578   2.163   4.867   3.292
 3560SOL    HW111579   2.075   4.909   3.274
 3560SOL    HW211580   2.220   4.930   3.345
 3561SOL     OW11581   5.274   4.850   5.651
 3561SOL    HW111582   5.221   4.777   5.695
 3561SOL    HW211583   5.263   4.843   5.552
 3562SOL     OW11584   3.393   1.962   4.165
 3562SOL    HW111585   3.403   1.863   4.150
 3562SOL    HW211586   3.350   1.979   4.253
 3563SOL     OW11587   6.146   1.850   6.057
 3563SOL    HW111588   6.245   1.861   6.054
 3563SOL    HW211589   6.106   1.892   5.975
 3564SOL     OW11590   0.544   4.785   3.165
 3564SOL    HW111591   0.444   4.785   3.171
 3564SOL    HW211592   0.578   4.692   3.157
 3565SOL     OW11593   3.405   5.352   2.908
 3565SOL    HW111594   3.440   5.259   2.921
 3565SOL    HW211595   3.398   5.370   2.810
 3566SOL     OW11596   6.036   0.797   5.709
 3566SOL    HW111597   6.111   0.860   5.728
 3566SOL    HW211598   5.976   0.792   5.789
 3567SOL     OW11599   0.639   2.123   6.044
 3567SOL    HW111600   0.650   2.109   6.142
 3567SOL    HW211601   0.580   2.203   6.028
 3568SOL     OW11602   6.407   3.898   4.730
 3568SOL    HW111603   6.318   3.937   4.757
 3568SOL    HW211604   6.392   3.827   4.660
 3569SOL     OW11605   3.181   1.850   5.485
 3569SOL    HW111606   3.223   1.941   5.492
 3569SOL    HW211607   3.230   1.796   5.418
 3570SOL     OW11608   4.792   0.455   5.872
 3570SOL    HW111609   4.829   0.410   5.791
 3570SOL    HW211610   4.844   0.426   5.953
 3571SOL     OW11611   0.447   5.238   0.091
 3571SOL    HW111612   0.450   5.278   7.023
 3571SOL    HW211613   0.520   5.171   0.100
 3572SOL     OW11614   5.440   4.062   3.409
 3572SOL    HW111615   5.424   3.973   3.367
 3572SOL    HW211616   5.506   4.113   3.354
 3573SOL     OW11617   0.409   4.541   3.862
 3573SOL    HW111618   0.332   4.571   3.805
 3573SOL    HW211619   0.473   4.488   3.806
 3574SOL     OW11620   0.052   4.553   0.229
 3574SOL    HW111621   0.015   4.542   0.136
 3574SOL    HW211622   0.134   4.610   0.225
 3575SOL     OW11623   5.469   4.497   2.949
 3575SOL    HW111624   5.493   4.486   3.045
 3575SOL    HW211625   5.530   4.442   2.892
 3576SOL     OW11626   2.208   1.493   5.792
 3576SOL    HW111627   2.183   1.396   5.787
 3576SOL    HW211628   2.217   1.530   5.700
 3577SOL     OW11629   0.963   3.701   5.885
 3577SOL    HW111630   0.922   3.727   5.973
 3577SOL    HW211631   0.967   3.781   5.826
 3578SOL     OW11632   3.724   2.637   0.648
 3578SOL    HW111633   3.739   2.595   0.738
 3578SOL    HW211634   3.657   2.583   0.597
 3579SOL     OW11635   6.644   4.036   4.660
 3579SOL    HW111636   6.650   4.124   4.706
 3579SOL    HW211637   6.554   3.996   4.676
 3580SOL     OW11638   5.590   2.318   0.916
 3580SOL    HW111639   5.588   2.288   1.011
 3580SOL    HW211640   5.685   2.341   0.891
 3581SOL     OW11641   6.776   6.977   4.030
 3581SOL    HW111642   6.737   7.022   4.110
 3581SOL    HW211643   6.711   6.982   3.954
 3582SOL     OW11644   0.897   1.642   5.733
 3582SOL    HW111645   0.983   1.694   5.729
 3582SOL    HW211646   0.820   1.703   5.714
 3583SOL     OW11647   1.195   3.996   6.579
 3583SOL    HW111648   1.245   3.995   6.493
 3583SOL    HW211649   1.213   3.912   6.629
 3584SOL     OW11650   5.924   5.379   0.486
 3584SOL    HW111651   5.888   5.437   0.413
 3584SOL    HW211652   5.848   5.340   0.538
 3585SOL     OW11653   3.924   5.705   5.190
 3585SOL    HW111654   3.962   5.732   5.279
 3585SOL    HW211655   3.825   5.713   5.193
 3586SOL     OW11656   0.331   2.256   5.153
 3586SOL    HW111657   0.428   2.251   5.177
 3586SOL    HW211658   0.293   2.163   5.149
 3587SOL     OW11659   2.906   5.021   6.697
 3587SOL    HW111660   2.836   4.996   6.631
 3587SOL    HW211661   2.951   4.939   6.731
 3588SOL     OW11662   1.005   2.698   4.514
 3588SOL    HW111663   0.990   2.685   4.416
 3588SOL    HW211664   0.994   2.610   4.561
 3589SOL     OW11665   4.316   1.615   4.122
 3589SOL    HW111666   4.399   1.583   4.075
 3589SOL    HW211667   4.309   1.714   4.113
 3590SOL     OW11668   0.359   3.814   5.850
 3590SOL    HW111669   0.420   3.835   5.926
 3590SOL    HW211670   0.352   3.894   5.790
 3591SOL     OW11671   5.104   3.440   6.035
 3591SOL    HW111672   5.016   3.486   6.045
 3591SOL    HW211673   5.174   3.507   6.009
 3592SOL     OW11674   6.258   4.145   2.733
 3592SOL    HW111675   6.185   4.144   2.801
 3592SOL    HW211676   6.227   4.098   2.650
 3593SOL     OW11677   2.048   5.771   3.948
 3593SOL    HW111678   1.974   5.783   4.014
 3593SOL    HW211679   2.047   5.847   3.882
 3594SOL     OW11680   4.093   0.711   2.994
 3594SOL    HW111681   4.121   0.615   2.985
 3594SOL    HW211682   4.017   0.730   2.933
 3595SOL     OW11683   2.589   5.355   6.351
 3595SOL    HW111684   2.507   5.299   6.335
 3595SOL    HW211685   2.656   5.301   6.401
 3596SOL     OW11686   6.355   2.418   2.882
 3596SOL    HW111687   6.325   2.341   2.939
 3596SOL    HW211688   6.304   2.417   2.796
 3597SOL     OW11689   1.949   6.986   5.242
 3597SOL    HW111690   2.031   0.009   5.207
 3597SOL    HW211691   1.977   6.919   5.311
 3598SOL     OW11692   1.479   6.087   6.182
 3598SOL    HW111693   1.551   6.084   6.112
 3598SOL    HW211694   1.506   6.152   6.254
 3599SOL     OW11695   0.657   1.792   5.694
 3599SOL    HW111696   0.676   1.873   5.749
 3599SOL    HW211697   0.569   1.803   5.647
 3600SOL     OW11698   1.386   3.558   0.131
 3600SOL    HW111699   1.414   3.590   0.041
 3600SOL    HW211700   1.292   3.588   0.150
 3601SOL     OW11701   6.134   4.385   0.322
 3601SOL    HW111702   6.162   4.418   0.412
 3601SOL    HW211703   6.112   4.288   0.328
 3602SOL     OW11704   1.309   2.072   0.661
 3602SOL    HW111705   1.271   2.024   0.583
 3602SOL    HW211706   1.389   2.023   0.696
 3603SOL     OW11707   3.407   6.313   3.925
 3603SOL    HW111708   3.398   6.238   3.990
 3603SOL    HW211709   3.503   6.324   3.899
 3604SOL     OW11710   0.106   4.947   3.918
 3604SOL    HW111711   0.157   4.995   3.847
 3604SOL    HW211712   0.164   4.877   3.960
 3605SOL     OW11713   5.195   4.364   5.338
 3605SOL    HW111714   5.137   4.302   5.390
 3605SOL    HW211715   5.264   4.404   5.399
 3606SOL     OW11716   6.894   5.898   5.513
 3606SOL    HW111717   6.884   5.997   5.509
 3606SOL    HW211718   6.986   5.875   5.544
 3607SOL     OW11719   5.282   6.352   1.231
 3607SOL    HW111720   5.295   6.426   1.164
 3607SOL    HW211721   5.283   6.264   1.183
 3608SOL     OW11722   6.896   1.881   2.769
 3608SOL    HW111723   6.939   1.878   2.679
 3608SOL    HW211724   6.960   1.922   2.835
 3609SOL     OW11725   0.227   0.340   4.226
 3609SOL    HW111726   0.220   0.363   4.323
 3609SOL    HW211727   0.197   0.246   4.212
 3610SOL     OW11728   1.270   0.439   5.593
 3610SOL    HW111729   1.359   0.469   5.560
 3610SOL    HW211730   1.200   0.505   5.565
 3611SOL     OW11731   4.076   6.440   6.069
 3611SOL    HW111732   4.143   6.457   5.997
 3611SOL    HW211733   4.073   6.518   6.131
 3612SOL     OW11734   5.928   0.545   5.987
 3612SOL    HW111735   5.894   0.451   5.986
 3612SOL    HW211736   5.861   0.605   5.942
 3613SOL     OW11737   4.346   5.099   1.998
 3613SOL    HW111738   4.393   5.187   2.005
 3613SOL    HW211739   4.408   5.031   1.958
 3614SOL     OW11740   3.498   3.624   2.949
 3614SOL    HW111741   3.598   3.616   2.952
 3614SOL    HW211742   3.468   3.632   2.854
 3615SOL     OW11743   5.364   6.126   0.319
 3615SOL    HW111744   5.280   6.157   0.365
 3615SOL    HW211745   5.342   6.047   0.261
 3616SOL     OW11746   0.083   2.727   5.813
 3616SOL    HW111747   0.012   2.784   5.854
 3616SOL    HW211748   0.052   2.632   5.811
 3617SOL     OW11749   4.638   0.671   6.781
 3617SOL    HW111750   4.645   0.631   6.873
 3617SOL    HW211751   4.726   0.712   6.756
 3618SOL     OW11752   2.060   1.941   4.815
 3618SOL    HW111753   1.986   1.910   4.755
 3618SOL    HW211754   2.138   1.970   4.759
 3619SOL     OW11755   6.243   3.453   4.257
 3619SOL    HW111756   6.158   3.462   4.205
 3619SOL    HW211757   6.275   3.359   4.253
 3620SOL     OW11758   6.150   6.330   6.545
 3620SOL    HW111759   6.200   6.417   6.540
 3620SOL    HW211760   6.169   6.276   6.463
 3621SOL     OW11761   3.277   2.560   5.627
 3621SOL    HW111762   3.283   2.510   5.714
 3621SOL    HW211763   3.344   2.522   5.563
 3622SOL     OW11764   2.048   2.403   3.985
 3622SOL    HW111765   1.976   2.420   3.918
 3622SOL    HW211766   2.014   2.340   4.055
 3623SOL     OW11767   6.390   5.615   4.210
 3623SOL    HW111768   6.466   5.652   4.262
 3623SOL    HW211769   6.393   5.651   4.116
 3624SOL     OW11770   1.347   6.590   2.377
 3624SOL    HW111771   1.409   6.604   2.454
 3624SOL    HW211772   1.400   6.576   2.293
 3625SOL     OW11773   5.276   3.865   6.825
 3625SOL    HW111774   5.267   3.945   6.765
 3625SOL    HW211775   5.295   3.784   6.769
 3626SOL     OW11776   1.407   3.616   5.591
 3626SOL    HW111777   1.477   3.647   5.655
 3626SOL    HW211778   1.317   3.619   5.635
 3627SOL     OW11779   3.379   2.891   3.578
 3627SOL    HW111780   3.475   2.877   3.602
 3627SOL    HW211781   3.361   2.851   3.487
 3628SOL     OW11782   1.225   0.376   1.843
 3628SOL    HW111783   1.310   0.326   1.825
 3628SOL    HW211784   1.209   0.381   1.941
 3629SOL     OW11785   6.771   2.433   4.152
 3629SOL    HW111786   6.852   2.387   4.114
 3629SOL    HW211787   6.796   2.476   4.239
 3630SOL     OW11788   5.120   2.570   3.224
 3630SOL    HW111789   5.064   2.538   3.148
 3630SOL    HW211790   5.066   2.629   3.283
 3631SOL     OW11791   1.807   0.293   3.622
 3631SOL    HW111792   1.857   0.242   3.552
 3631SOL    HW211793   1.869   0.314   3.698
 3632SOL     OW11794   4.872   6.693   0.908
 3632SOL    HW111795   4.823   6.616   0.950
 3632SOL    HW211796   4.806   6.754   0.864
 3633SOL     OW11797   3.273   1.639   5.687
 3633SOL    HW111798   3.245   1.709   5.621
 3633SOL    HW211799   3.220   1.650   5.771
 3634SOL     OW11800   0.599   5.423   4.604
 3634SOL    HW111801   0.576   5.407   4.700
 3634SOL    HW211802   0.529   5.381   4.546
 3635SOL     OW11803   2.608   6.142   6.114
 3635SOL    HW111804   2.621   6.142   6.213
 3635SOL    HW211805   2.620   6.235   6.079
 3636SOL     OW11806   0.249   5.569   6.684
 3636SOL    HW111807   0.336   5.582   6.636
 3636SOL    HW211808   0.230   5.650   6.739
 3637SOL     OW11809   6.106   1.822   1.549
 3637SOL    HW111810   6.048   1.741   1.559
 3637SOL    HW211811   6.075   1.894   1.611
 3638SOL     OW11812   0.300   4.810   4.541
 3638SOL    HW111813   0.250   4.796   4.627
 3638SOL    HW211814   0.381   4.865   4.558
 3639SOL     OW11815   3.411   4.431   1.531
 3639SOL    HW111816   3.508   4.427   1.551
 3639SOL    HW211817   3.365   4.350   1.569
 3640SOL     OW11818   3.230   0.846   0.094
 3640SOL    HW111819   3.249   0.870   0.189
 3640SOL    HW211820   3.313   0.809   0.052
 3641SOL     OW11821   4.945   3.058   4.190
 3641SOL    HW111822   4.981   2.992   4.256
 3641SOL    HW211823   4.986   3.043   4.100
 3642SOL     OW11824   4.639   0.751   0.817
 3642SOL    HW111825   4.715   0.699   0.776
 3642SOL    HW211826   4.577   0.782   0.746
 3643SOL     OW11827   3.296   5.726   4.837
 3643SOL    HW111828   3.264   5.657   4.773
 3643SOL    HW211829   3.220   5.757   4.894
 3644SOL     OW11830   6.295   1.519   1.605
 3644SOL    HW111831   6.322   1.606   1.646
 3644SOL    HW211832   6.199   1.523   1.579
 3645SOL     OW11833   7.003   2.878   3.867
 3645SOL    HW111834   6.996   2.957   3.928
 3645SOL    HW211835   6.951   2.802   3.905
 3646SOL     OW11836   5.959   3.978   6.656
 3646SOL    HW111837   5.936   3.889   6.696
 3646SOL    HW211838   6.058   3.984   6.642
 3647SOL     OW11839   2.312   3.127   0.267
 3647SOL    HW111840   2.298   3.078   0.354
 3647SOL    HW211841   2.305   3.225   0.283
 3648SOL     OW11842   3.067   4.871   2.904
 3648SOL    HW111843   3.093   4.962   2.937
 3648SOL    HW211844   3.124   4.846   2.826
 3649SOL     OW11845   5.107   3.190   2.217
 3649SOL    HW111846   5.104   3.257   2.291
 3649SOL    HW211847   5.068   3.230   2.134
 3650SOL     OW11848   0.213   4.713   0.890
 3650SOL    HW111849   0.295   4.768   0.900
 3650SOL    HW211850   0.132   4.772   0.894
 3651SOL     OW11851   0.551   7.006   3.989
 3651SOL    HW111852   0.491   0.059   3.965
 3651SOL    HW211853   0.639   0.018   4.020
 3652SOL     OW11854   5.945   6.087   3.167
 3652SOL    HW111855   5.930   6.011   3.231
 3652SOL    HW211856   5.948   6.173   3.217
 3653SOL     OW11857   0.483   1.487   4.368
 3653SOL    HW111858   0.525   1.434   4.294
 3653SOL    HW211859   0.547   1.557   4.400
 3654SOL     OW11860   2.437   5.454   0.508
 3654SOL    HW111861   2.341   5.473   0.529
 3654SOL    HW211862   2.462   5.498   0.422
 3655SOL     OW11863   2.286   6.915   3.380
 3655SOL    HW111864   2.257   6.942   3.472
 3655SOL    HW211865   2.384   6.898   3.379
 3656SOL     OW11866   0.972   3.405   1.931
 3656SOL    HW111867   0.941   3.439   2.021
 3656SOL    HW211868   1.058   3.355   1.942
 3657SOL     OW11869   4.791   5.000   6.208
 3657SOL    HW111870   4.863   4.942   6.248
 3657SOL    HW211871   4.771   4.968   6.116
 3658SOL     OW11872   1.423   5.888   4.641
 3658SOL    HW111873   1.385   5.979   4.623
 3658SOL    HW211874   1.517   5.898   4.673
 3659SOL     OW11875   2.015   3.191   5.414
 3659SOL    HW111876   1.953   3.224   5.343
 3659SOL    HW211877   2.104   3.168   5.373
 3660SOL     OW11878   4.523   0.260   3.095
 3660SOL    HW111879   4.592   0.191   3.118
 3660SOL    HW211880   4.470   0.228   3.016
 3661SOL     OW11881   5.452   1.135   6.108
 3661SOL    HW111882   5.511   1.115   6.030
 3661SOL    HW211883   5.380   1.198   6.080
 3662SOL     OW11884   4.457   0.550   3.831
 3662SOL    HW111885   4.400   0.607   3.771
 3662SOL    HW211886   4.532   0.605   3.867
 3663SOL     OW11887   1.462   2.564   0.671
 3663SOL    HW111888   1.523   2.573   0.750
 3663SOL    HW211889   1.438   2.467   0.659
 3664SOL     OW11890   5.147   1.664   2.405
 3664SOL    HW111891   5.153   1.731   2.479
 3664SOL    HW211892   5.131   1.711   2.318
 3665SOL     OW11893   1.903   5.826   5.378
 3665SOL    HW111894   1.818   5.857   5.419
 3665SOL    HW211895   1.888   5.737   5.333
 3666SOL     OW11896   1.160   3.894   3.527
 3666SOL    HW111897   1.095   3.962   3.560
 3666SOL    HW211898   1.242   3.940   3.494
 3667SOL     OW11899   6.958   1.447   1.684
 3667SOL    HW111900   6.905   1.366   1.659
 3667SOL    HW211901   0.028   1.419   1.708
 3668SOL     OW11902   1.531   1.560   2.264
 3668SOL    HW111903   1.593   1.531   2.191
 3668SOL    HW211904   1.485   1.644   2.237
 3669SOL     OW11905   5.446   1.423   2.978
 3669SOL    HW111906   5.411   1.380   3.062
 3669SOL    HW211907   5.542   1.396   2.965
 3670SOL     OW11908   2.415   4.637   0.452
 3670SOL    HW111909   2.509   4.605   0.465
 3670SOL    HW211910   2.371   4.648   0.541
 3671SOL     OW11911   5.911   0.584   3.879
 3671SOL    HW111912   6.011   0.586   3.872
 3671SOL    HW211913   5.871   0.645   3.811
 3672SOL     OW11914   5.643   2.247   1.498
 3672SOL    HW111915   5.652   2.161   1.548
 3672SOL    HW211916   5.560   2.294   1.527
 3673SOL     OW11917   4.292   6.642   6.603
 3673SOL    HW111918   4.274   6.740   6.613
 3673SOL    HW211919   4.269   6.596   6.689
 3674SOL     OW11920   0.858   0.023   5.189
 3674SOL    HW111921   0.813   7.009   5.108
 3674SOL    HW211922   0.936   0.078   5.162
 3675SOL     OW11923   1.858   3.233   4.824
 3675SOL    HW111924   1.839   3.331   4.817
 3675SOL    HW211925   1.821   3.186   4.744
 3676SOL     OW11926   5.330   4.595   4.459
 3676SOL    HW111927   5.258   4.659   4.484
 3676SOL    HW211928   5.398   4.591   4.532
 3677SOL     OW11929   1.888   6.111   2.962
 3677SOL    HW111930   1.950   6.170   3.014
 3677SOL    HW211931   1.795   6.147   2.968
 3678SOL     OW11932   0.162   2.473   5.075
 3678SOL    HW111933   0.196   2.545   5.014
 3678SOL    HW211934   0.232   2.401   5.084
 3679SOL     OW11935   1.343   0.795   2.731
 3679SOL    HW111936   1.247   0.783   2.706
 3679SOL    HW211937   1.400   0.770   2.652
 3680SOL     OW11938   5.460   2.231   3.681
 3680SOL    HW111939   5.427   2.307   3.626
 3680SOL    HW211940   5.422   2.145   3.646
 3681SOL     OW11941   0.162   0.250   5.638
 3681SOL    HW111942   0.164   0.157   5.600
 3681SOL    HW211943   0.079   0.297   5.607
 3682SOL     OW11944   6.109   2.372   6.866
 3682SOL    HW111945   6.135   2.467   6.849
 3682SOL    HW211946   6.083   2.328   6.780
 3683SOL     OW11947   0.201   0.195   3.116
 3683SOL    HW111948   0.143   0.269   3.083
 3683SOL    HW211949   0.161   0.107   3.090
 3684SOL     OW11950   1.852   4.827   6.836
 3684SOL    HW111951   1.894   4.775   6.911
 3684SOL    HW211952   1.903   4.912   6.822
 3685SOL     OW11953   6.469   6.404   6.429
 3685SOL    HW111954   6.417   6.319   6.414
 3685SOL    HW211955   6.427   6.455   6.504
 3686SOL     OW11956   5.840   6.047   3.550
 3686SOL    HW111957   5.742   6.064   3.561
 3686SOL    HW211958   5.854   5.991   3.468
 3687SOL     OW11959   3.668   5.895   5.032
 3687SOL    HW111960   3.614   5.830   4.979
 3687SOL    HW211961   3.616   5.979   5.045
 3688SOL     OW11962   6.391   3.867   6.720
 3688SOL    HW111963   6.330   3.819   6.783
 3688SOL    HW211964   6.472   3.900   6.770
 3689SOL     OW11965   2.220   0.498   6.543
 3689SOL    HW111966   2.132   0.540   6.521
 3689SOL    HW211967   2.258   0.455   6.461
 3690SOL     OW11968   5.144   6.200   0.449
 3690SOL    HW111969   5.078   6.263   0.407
 3690SOL    HW211970   5.094   6.126   0.495
 3691SOL     OW11971   3.006   3.013   0.225
 3691SOL    HW111972   3.105   3.015   0.243
 3691SOL    HW211973   2.991   3.008   0.126
 3692SOL     OW11974   0.440   5.657   5.099
 3692SOL    HW111975   0.523   5.704   5.072
 3692SOL    HW211976   0.453   5.616   5.190
 3693SOL     OW11977   1.940   2.650   2.889
 3693SOL    HW111978   1.844   2.668   2.867
 3693SOL    HW211979   1.997   2.669   2.809
 3694SOL     OW11980   1.104   5.601   2.970
 3694SOL    HW111981   1.148   5.646   3.047
 3694SOL    HW211982   1.119   5.502   2.977
 3695SOL     OW11983   6.722   3.101   1.666
 3695SOL    HW111984   6.734   3.159   1.747
 3695SOL    HW211985   6.720   3.005   1.693
 3696SOL     OW11986   3.742   5.365   5.277
 3696SOL    HW111987   3.811   5.401   5.340
 3696SOL    HW211988   3.698   5.441   5.229
 3697SOL     OW11989   0.173   6.224   2.989
 3697SOL    HW111990   0.266   6.212   2.953
 3697SOL    HW211991   0.148   6.320   2.986
 3698SOL     OW11992   2.297   0.661   4.844
 3698SOL    HW111993   2.280   0.760   4.839
 3698SOL    HW211994   2.212   0.612   4.823
 3699SOL     OW11995   0.635   3.242   3.910
 3699SOL    HW111996   0.625   3.152   3.952
 3699SOL    HW211997   0.592   3.311   3.968
 3700SOL     OW11998   0.310   0.225   5.158
 3700SOL    HW111999   0.215   0.234   5.188
 3700SOL    HW212000   0.357   0.312   5.170
 3701SOL     OW12001   1.667   0.560   3.977
 3701SOL    HW112002   1.692   0.640   4.031
 3701SOL    HW212003   1.633   0.589   3.887
 3702SOL     OW12004   5.561   6.390   2.503
 3702SOL    HW112005   5.566   6.409   2.601
 3702SOL    HW212006   5.508   6.462   2.458
 3703SOL     OW12007   5.125   1.239   6.274
 3703SOL    HW112008   5.178   1.246   6.189
 3703SOL    HW212009   5.179   1.190   6.343
 3704SOL     OW12010   3.503   1.350   1.904
 3704SOL    HW112011   3.519   1.433   1.850
 3704SOL    HW212012   3.534   1.364   1.998
 3705SOL     OW12013   4.659   5.821   3.619
 3705SOL    HW112014   4.699   5.889   3.681
 3705SOL    HW212015   4.568   5.796   3.653
 3706SOL     OW12016   1.528   3.698   5.825
 3706SOL    HW112017   1.616   3.659   5.852
 3706SOL    HW212018   1.503   3.771   5.889
 3707SOL     OW12019   5.318   4.055   5.300
 3707SOL    HW112020   5.332   4.138   5.246
 3707SOL    HW212021   5.220   4.040   5.312
 3708SOL     OW12022   6.707   0.912   6.090
 3708SOL    HW112023   6.677   0.819   6.068
 3708SOL    HW212024   6.769   0.910   6.168
 3709SOL     OW12025   3.419   0.629   1.102
 3709SOL    HW112026   3.490   0.592   1.041
 3709SOL    HW212027   3.462   0.682   1.175
 3710SOL     OW12028   6.552   5.416   6.741
 3710SOL    HW112029   6.645   5.380   6.732
 3710SOL    HW212030   6.506   5.412   6.652
 3711SOL     OW12031   0.639   0.267   3.743
 3711SOL    HW112032   0.586   0.350   3.759
 3711SOL    HW212033   0.627   0.236   3.649
 3712SOL     OW12034   0.124   6.325   6.961
 3712SOL    HW112035   0.028   6.343   6.940
 3712SOL    HW212036   0.174   6.307   6.877
 3713SOL     OW12037   1.169   6.567   5.038
 3713SOL    HW112038   1.167   6.665   5.060
 3713SOL    HW212039   1.084   6.543   4.991
 3714SOL     OW12040   4.792   5.722   5.743
 3714SOL    HW112041   4.813   5.794   5.676
 3714SOL    HW212042   4.693   5.714   5.754
 3715SOL     OW12043   6.018   3.973   2.777
 3715SOL    HW112044   6.025   3.963   2.678
 3715SOL    HW212045   6.075   3.905   2.822
 3716SOL     OW12046   6.393   6.862   5.327
 3716SOL    HW112047   6.388   6.961   5.309
 3716SOL    HW212048   6.366   6.845   5.422
 3717SOL     OW12049   5.545   5.873   6.918
 3717SOL    HW112050   5.549   5.872   6.818
 3717SOL    HW212051   5.584   5.959   6.952
 3718SOL     OW12052   1.634   0.731   0.386
 3718SOL    HW112053   1.535   0.725   0.385
 3718SOL    HW212054   1.673   0.651   0.340
 3719SOL     OW12055   5.324   4.626   0.730
 3719SOL    HW112056   5.314   4.530   0.701
 3719SOL    HW212057   5.318   4.685   0.649
 3720SOL     OW12058   6.473   2.373   5.951
 3720SOL    HW112059   6.424   2.302   6.003
 3720SOL    HW212060   6.436   2.376   5.858
 3721SOL     OW12061   5.309   4.221   2.062
 3721SOL    HW112062   5.359   4.135   2.060
 3721SOL    HW212063   5.212   4.203   2.041
 3722SOL     OW12064   6.578   6.078   1.192
 3722SOL    HW112065   6.518   6.063   1.114
 3722SOL    HW212066   6.625   6.166   1.181
 3723SOL     OW12067   6.707   6.205   2.139
 3723SOL    HW112068   6.619   6.199   2.091
 3723SOL    HW212069   6.752   6.291   2.116
 3724SOL     OW12070   1.798   3.912   4.960
 3724SOL    HW112071   1.858   3.990   4.976
 3724SOL    HW212072   1.852   3.828   4.959
 3725SOL     OW12073   6.097   5.088   1.099
 3725SOL    HW112074   6.130   5.012   1.157
 3725SOL    HW212075   5.997   5.088   1.097
 3726SOL     OW12076   6.089   4.195   0.968
 3726SOL    HW112077   6.030   4.254   1.025
 3726SOL    HW212078   6.061   4.100   0.978
 3727SOL     OW12079   6.663   1.963   5.499
 3727SOL    HW112080   6.614   2.050   5.494
 3727SOL    HW212081   6.710   1.956   5.587
 3728SOL     OW12082   0.643   4.007   6.721
 3728SOL    HW112083   0.699   4.017   6.804
 3728SOL    HW212084   0.671   4.074   6.653
 3729SOL     OW12085   1.103   1.812   4.014
 3729SOL    HW112086   1.159   1.768   3.943
 3729SOL    HW212087   1.009   1.822   3.981
 3730SOL     OW12088   2.839   4.866   6.227
 3730SOL    HW112089   2.936   4.850   6.215
 3730SOL    HW212090   2.793   4.862   6.139
 3731SOL     OW12091   5.854   0.165   1.015
 3731SOL    HW112092   5.811   0.127   0.933
 3731SOL    HW212093   5.819   0.119   1.096
 3732SOL     OW12094   2.967   1.924   6.153
 3732SOL    HW112095   3.057   1.967   6.153
 3732SOL    HW212096   2.901   1.986   6.198
 3733SOL     OW12097   1.400   3.573   2.145
 3733SOL    HW112098   1.313   3.609   2.110
 3733SOL    HW212099   1.461   3.554   2.068
 3734SOL     OW12100   4.779   1.243   1.997
 3734SOL    HW112101   4.848   1.216   1.930
 3734SOL    HW212102   4.751   1.337   1.980
 3735SOL     OW12103   2.463   0.716   3.369
 3735SOL    HW112104   2.474   0.736   3.272
 3735SOL    HW212105   2.533   0.650   3.397
 3736SOL     OW12106   0.071   2.546   0.257
 3736SOL    HW112107   0.106   2.454   0.239
 3736SOL    HW212108   7.021   2.566   0.192
 3737SOL     OW12109   4.637   0.217   3.549
 3737SOL    HW112110   4.606   0.153   3.619
 3737SOL    HW212111   4.566   0.229   3.481
 3738SOL     OW12112   0.318   5.939   1.784
 3738SOL    HW112113   0.240   5.974   1.836
 3738SOL    HW212114   0.367   6.015   1.742
 3739SOL     OW12115   2.596   4.567   1.515
 3739SOL    HW112116   2.586   4.478   1.559
 3739SOL    HW212117   2.692   4.583   1.492
 3740SOL     OW12118   6.064   0.801   0.447
 3740SOL    HW112119   5.979   0.762   0.482
 3740SOL    HW212120   6.076   0.894   0.483
 3741SOL     OW12121   5.689   3.269   1.460
 3741SOL    HW112122   5.613   3.220   1.417
 3741SOL    HW212123   5.673   3.368   1.452
 3742SOL     OW12124   2.364   2.168   6.617
 3742SOL    HW112125   2.401   2.076   6.623
 3742SOL    HW212126   2.271   2.170   6.654
 3743SOL     OW12127   5.245   2.991   1.169
 3743SOL    HW112128   5.273   2.997   1.074
 3743SOL    HW212129   5.283   2.908   1.209
 3744SOL     OW12130   0.744   5.893   3.154
 3744SOL    HW112131   0.799   5.825   3.202
 3744SOL    HW212132   0.647   5.880   3.177
 3745SOL     OW12133   3.601   4.976   1.784
 3745SOL    HW112134   3.604   4.901   1.850
 3745SOL    HW212135   3.585   4.939   1.693
 3746SOL     OW12136   5.547   0.771   2.967
 3746SOL    HW112137   5.517   0.803   3.057
 3746SOL    HW212138   5.587   0.847   2.916
 3747SOL     OW12139   2.697   6.850   5.555
 3747SOL    HW112140   2.713   6.892   5.465
 3747SOL    HW212141   2.678   6.752   5.543
 3748SOL     OW12142   6.189   0.396   1.434
 3748SOL    HW112143   6.221   0.427   1.523
 3748SOL    HW212144   6.136   0.469   1.391
 3749SOL     OW12145   1.726   6.115   4.016
 3749SOL    HW112146   1.802   6.083   4.073
 3749SOL    HW212147   1.641   6.112   4.069
 3750SOL     OW12148   1.404   4.045   0.447
 3750SOL    HW112149   1.480   4.105   0.421
 3750SOL    HW212150   1.426   3.951   0.421
 3751SOL     OW12151   0.077   3.618   1.868
 3751SOL    HW112152   0.089   3.656   1.960
 3751SOL    HW212153   0.065   3.693   1.802
 3752SOL     OW12154   5.360   0.656   6.581
 3752SOL    HW112155   5.261   0.671   6.578
 3752SOL    HW212156   5.407   0.735   6.544
 3753SOL     OW12157   6.656   0.663   6.015
 3753SOL    HW112158   6.587   0.629   6.078
 3753SOL    HW212159   6.633   0.636   5.921
 3754SOL     OW12160   2.140   0.358   1.189
 3754SOL    HW112161   2.051   0.317   1.167
 3754SOL    HW212162   2.144   0.379   1.287
 3755SOL     OW12163   4.639   4.897   5.078
 3755SOL    HW112164   4.541   4.882   5.096
 3755SOL    HW212165   4.682   4.935   5.159
 3756SOL     OW12166   3.306   5.215   6.329
 3756SOL    HW112167   3.277   5.273   6.405
 3756SOL    HW212168   3.322   5.122   6.362
 3757SOL     OW12169   6.233   4.804   1.695
 3757SOL    HW112170   6.297   4.747   1.644
 3757SOL    HW212171   6.242   4.786   1.793
 3758SOL     OW12172   2.403   1.401   4.923
 3758SOL    HW112173   2.494   1.418   4.885
 3758SOL    HW212174   2.376   1.480   4.980
 3759SOL     OW12175   4.327   0.363   6.092
 3759SOL    HW112176   4.243   0.309   6.099
 3759SOL    HW212177   4.305   0.460   6.102
 3760SOL     OW12178   1.422   1.498   4.121
 3760SOL    HW112179   1.348   1.431   4.124
 3760SOL    HW212180   1.383   1.590   4.110
 3761SOL     OW12181   6.819   1.453   5.509
 3761SOL    HW112182   6.849   1.415   5.421
 3761SOL    HW212183   6.826   1.553   5.506
 3762SOL     OW12184   1.826   4.433   0.806
 3762SOL    HW112185   1.871   4.369   0.744
 3762SOL    HW212186   1.850   4.527   0.781
 3763SOL     OW12187   0.297   3.413   7.010
 3763SOL    HW112188   0.246   3.376   0.064
 3763SOL    HW212189   0.242   3.484   6.966
 3764SOL     OW12190   1.036   6.782   2.643
 3764SOL    HW112191   1.080   6.864   2.606
 3764SOL    HW212192   1.058   6.703   2.587
 3765SOL     OW12193   5.632   1.738   1.024
 3765SOL    HW112194   5.629   1.770   1.119
 3765SOL    HW212195   5.727   1.722   0.997
 3766SOL     OW12196   1.957   2.094   4.302
 3766SOL    HW112197   2.043   2.083   4.252
 3766SOL    HW212198   1.977   2.125   4.395
 3767SOL     OW12199   3.232   4.345   6.726
 3767SOL    HW112200   3.219   4.247   6.716
 3767SOL    HW212201   3.172   4.380   6.798
 3768SOL     OW12202   0.617   0.190   4.706
 3768SOL    HW112203   0.604   0.091   4.696
 3768SOL    HW212204   0.673   0.223   4.630
 3769SOL     OW12205   6.161   5.206   4.937
 3769SOL    HW112206   6.189   5.152   5.016
 3769SOL    HW212207   6.167   5.303   4.959
 3770SOL     OW12208   0.898   0.546   0.202
 3770SOL    HW112209   0.838   0.519   0.278
 3770SOL    HW212210   0.867   0.633   0.165
 3771SOL     OW12211   5.501   4.177   0.616
 3771SOL    HW112212   5.419   4.231   0.633
 3771SOL    HW212213   5.477   4.080   0.611
 3772SOL     OW12214   0.358   0.482   0.335
 3772SOL    HW112215   0.433   0.440   0.284
 3772SOL    HW212216   0.315   0.414   0.394
 3773SOL     OW12217   5.791   3.956   5.264
 3773SOL    HW112218   5.854   3.879   5.252
 3773SOL    HW212219   5.697   3.923   5.261
 3774SOL     OW12220   5.782   5.478   1.580
 3774SOL    HW112221   5.719   5.513   1.650
 3774SOL    HW212222   5.729   5.441   1.504
 3775SOL     OW12223   4.678   5.497   2.672
 3775SOL    HW112224   4.749   5.491   2.601
 3775SOL    HW212225   4.709   5.450   2.754
 3776SOL     OW12226   3.869   2.223   6.370
 3776SOL    HW112227   3.845   2.169   6.450
 3776SOL    HW212228   3.966   2.247   6.375
 3777SOL     OW12229   3.237   5.066   3.503
 3777SOL    HW112230   3.321   5.022   3.473
 3777SOL    HW212231   3.249   5.166   3.500
 3778SOL     OW12232   2.527   5.197   2.800
 3778SOL    HW112233   2.445   5.183   2.744
 3778SOL    HW212234   2.533   5.125   2.869
 3779SOL     OW12235   0.476   4.864   0.941
 3779SOL    HW112236   0.511   4.914   0.861
 3779SOL    HW212237   0.502   4.768   0.934
 3780SOL     OW12238   6.194   4.657   4.721
 3780SOL    HW112239   6.238   4.607   4.646
 3780SOL    HW212240   6.196   4.755   4.701
 3781SOL     OW12241   0.201   6.648   3.600
 3781SOL    HW112242   0.248   6.579   3.655
 3781SOL    HW212243   0.211   6.738   3.642
 3782SOL     OW12244   2.512   0.547   2.818
 3782SOL    HW112245   2.568   0.564   2.737
 3782SOL    HW212246   2.415   0.555   2.794
 3783SOL     OW12247   5.732   5.354   4.193
 3783SOL    HW112248   5.753   5.309   4.280
 3783SOL    HW212249   5.735   5.287   4.119
 3784SOL     OW12250   5.284   2.930   2.585
 3784SOL    HW112251   5.241   2.842   2.562
 3784SOL    HW212252   5.214   3.001   2.586
 3785SOL     OW12253   1.457   3.545   5.310
 3785SOL    HW112254   1.547   3.502   5.308
 3785SOL    HW212255   1.438   3.576   5.403
 3786SOL     OW12256   2.177   4.221   3.121
 3786SOL    HW112257   2.204   4.314   3.146
 3786SOL    HW212258   2.153   4.219   3.023
 3787SOL     OW12259   5.763   1.190   2.297
 3787SOL    HW112260   5.689   1.198   2.230
 3787SOL    HW212261   5.753   1.104   2.348
 3788SOL     OW12262   0.317   4.617   5.012
 3788SOL    HW112263   0.276   4.706   4.995
 3788SOL    HW212264   0.255   4.561   5.067
 3789SOL     OW12265   0.361   3.908   4.304
 3789SOL    HW112266   0.437   3.879   4.362
 3789SOL    HW212267   0.395   3.959   4.225
 3790SOL     OW12268   1.063   4.758   6.040
 3790SOL    HW112269   1.146   4.776   5.987
 3790SOL    HW212270   0.993   4.825   6.016
 3791SOL     OW12271   5.301   1.712   6.797
 3791SOL    HW112272   5.262   1.640   6.739
 3791SOL    HW212273   5.232   1.782   6.814
 3792SOL     OW12274   1.282   1.861   3.510
 3792SOL    HW112275   1.241   1.779   3.469
 3792SOL    HW212276   1.313   1.923   3.438
 3793SOL     OW12277   4.508   6.886   2.244
 3793SOL    HW112278   4.410   6.876   2.260
 3793SOL    HW212279   4.523   6.922   2.152
 3794SOL     OW12280   2.525   2.628   1.810
 3794SOL    HW112281   2.531   2.728   1.804
 3794SOL    HW212282   2.521   2.600   1.905
 3795SOL     OW12283   4.827   6.164   1.319
 3795SOL    HW112284   4.735   6.190   1.291
 3795SOL    HW212285   4.887   6.244   1.312
 3796SOL     OW12286   4.257   1.811   2.855
 3796SOL    HW112287   4.257   1.905   2.889
 3796SOL    HW212288   4.165   1.787   2.823
 3797SOL     OW12289   0.615   3.307   2.950
 3797SOL    HW112290   0.669   3.388   2.930
 3797SOL    HW212291   0.675   3.227   2.954
 3798SOL     OW12292   2.301   5.857   2.856
 3798SOL    HW112293   2.366   5.930   2.836
 3798SOL    HW212294   2.288   5.851   2.955
 3799SOL     OW12295   6.429   3.111   3.664
 3799SOL    HW112296   6.485   3.029   3.648
 3799SOL    HW212297   6.437   3.173   3.586
 3800SOL     OW12298   5.212   1.572   3.560
 3800SOL    HW112299   5.147   1.608   3.493
 3800SOL    HW212300   5.175   1.582   3.652
 3801SOL     OW12301   5.950   6.623   1.900
 3801SOL    HW112302   5.958   6.715   1.861
 3801SOL    HW212303   6.041   6.583   1.910
 3802SOL     OW12304   1.204   2.074   1.471
 3802SOL    HW112305   1.299   2.054   1.498
 3802SOL    HW212306   1.203   2.147   1.402
 3803SOL     OW12307   4.067   3.174   2.625
 3803SOL    HW112308   4.040   3.125   2.542
 3803SOL    HW212309   4.161   3.207   2.615
 3804SOL     OW12310   4.180   1.199   3.148
 3804SOL    HW112311   4.087   1.196   3.185
 3804SOL    HW212312   4.243   1.157   3.213
 3805SOL     OW12313   2.040   2.803   1.823
 3805SOL    HW112314   2.096   2.826   1.903
 3805SOL    HW212315   2.076   2.849   1.742
 3806SOL     OW12316   3.868   3.700   5.862
 3806SOL    HW112317   3.832   3.702   5.769
 3806SOL    HW212318   3.968   3.697   5.860
 3807SOL     OW12319   1.889   5.655   2.582
 3807SOL    HW112320   1.963   5.712   2.617
 3807SOL    HW212321   1.839   5.614   2.658
 3808SOL     OW12322   4.158   0.787   0.387
 3808SOL    HW112323   4.091   0.839   0.440
 3808SOL    HW212324   4.154   0.815   0.291
 3809SOL     OW12325   5.661   2.547   1.387
 3809SOL    HW112326   5.637   2.598   1.470
 3809SOL    HW212327   5.675   2.451   1.411
 3810SOL     OW12328   5.582   2.839   3.663
 3810SOL    HW112329   5.594   2.749   3.706
 3810SOL    HW212330   5.503   2.836   3.603
 3811SOL     OW12331   6.618   5.983   4.510
 3811SOL    HW112332   6.557   6.022   4.579
 3811SOL    HW212333   6.713   6.005   4.534
 3812SOL     OW12334   4.380   5.116   5.188
 3812SOL    HW112335   4.357   5.070   5.102
 3812SOL    HW212336   4.296   5.150   5.230
 3813SOL     OW12337   5.029   3.811   6.948
 3813SOL    HW112338   5.058   3.855   0.010
 3813SOL    HW212339   5.106   3.809   6.885
 3814SOL     OW12340   6.555   0.479   5.535
 3814SOL    HW112341   6.462   0.469   5.500
 3814SOL    HW212342   6.620   0.449   5.465
 3815SOL     OW12343   3.509   1.606   0.964
 3815SOL    HW112344   3.566   1.637   0.888
 3815SOL    HW212345   3.446   1.678   0.991
 3816SOL     OW12346   1.129   5.194   6.605
 3816SOL    HW112347   1.082   5.280   6.587
 3816SOL    HW212348   1.206   5.184   6.542
 3817SOL     OW12349   5.063   3.406   2.407
 3817SOL    HW112350   5.150   3.439   2.444
 3817SOL    HW212351   5.020   3.480   2.354
 3818SOL     OW12352   6.614   0.905   0.311
 3818SOL    HW112353   6.590   0.980   0.373
 3818SOL    HW212354   6.598   0.818   0.358
 3819SOL     OW12355   5.932   5.621   2.760
 3819SOL    HW112356   5.873   5.573   2.826
 3819SOL    HW212357   5.929   5.719   2.779
 3820SOL     OW12358   5.127   0.191   4.396
 3820SOL    HW112359   5.103   0.190   4.493
 3820SOL    HW212360   5.058   0.241   4.344
 3821SOL     OW12361   1.925   1.167   1.779
 3821SOL    HW112362   1.974   1.250   1.752
 3821SOL    HW212363   1.829   1.174   1.752
 3822SOL     OW12364   2.374   6.845   0.584
 3822SOL    HW112365   2.450   6.783   0.563
 3822SOL    HW212366   2.409   6.938   0.597
 3823SOL     OW12367   2.883   3.847   6.235
 3823SOL    HW112368   2.801   3.848   6.291
 3823SOL    HW212369   2.869   3.906   6.155
 3824SOL     OW12370   0.798   3.041   0.241
 3824SOL    HW112371   0.833   3.135   0.239
 3824SOL    HW212372   0.717   3.036   0.299
 3825SOL     OW12373   0.607   5.089   0.362
 3825SOL    HW112374   0.546   5.018   0.326
 3825SOL    HW212375   0.585   5.176   0.318
 3826SOL     OW12376   0.969   3.732   0.419
 3826SOL    HW112377   1.022   3.687   0.490
 3826SOL    HW212378   0.881   3.686   0.408
 3827SOL     OW12379   1.599   0.860   1.877
 3827SOL    HW112380   1.626   0.856   1.973
 3827SOL    HW212381   1.502   0.836   1.869
 3828SOL     OW12382   3.553   3.021   3.916
 3828SOL    HW112383   3.545   3.018   4.015
 3828SOL    HW212384   3.630   3.079   3.890
 3829SOL     OW12385   1.057   4.997   2.303
 3829SOL    HW112386   0.981   5.043   2.257
 3829SOL    HW212387   1.076   4.910   2.257
 3830SOL     OW12388   0.899   0.475   5.291
 3830SOL    HW112389   0.847   0.560   5.300
 3830SOL    HW212390   0.843   0.406   5.245
 3831SOL     OW12391   4.785   2.180   2.850
 3831SOL    HW112392   4.701   2.169   2.797
 3831SOL    HW212393   4.770   2.150   2.944
 3832SOL     OW12394   0.458   0.735   3.277
 3832SOL    HW112395   0.410   0.823   3.280
 3832SOL    HW212396   0.391   0.661   3.271
 3833SOL     OW12397   0.236   5.964   6.685
 3833SOL    HW112398   0.238   5.897   6.760
 3833SOL    HW212399   0.163   5.939   6.621
 3834SOL     OW12400   3.843   3.890   1.185
 3834SOL    HW112401   3.748   3.898   1.213
 3834SOL    HW212402   3.851   3.822   1.112
 3835SOL     OW12403   3.988   5.829   4.464
 3835SOL    HW112404   4.053   5.889   4.512
 3835SOL    HW212405   3.896   5.846   4.499
 3836SOL     OW12406   0.410   4.774   5.786
 3836SOL    HW112407   0.428   4.813   5.696
 3836SOL    HW212408   0.311   4.764   5.799
 3837SOL     OW12409   4.207   3.902   6.523
 3837SOL    HW112410   4.226   3.814   6.478
 3837SOL    HW212411   4.291   3.955   6.530
 3838SOL     OW12412   1.014   3.313   3.644
 3838SOL    HW112413   1.039   3.317   3.548
 3838SOL    HW212414   0.995   3.406   3.677
 3839SOL     OW12415   5.848   1.585   3.099
 3839SOL    HW112416   5.830   1.655   3.031
 3839SOL    HW212417   5.805   1.611   3.186
 3840SOL     OW12418   3.017   1.708   6.667
 3840SOL    HW112419   2.964   1.741   6.589
 3840SOL    HW212420   3.051   1.616   6.647
 3841SOL     OW12421   0.568   3.132   5.007
 3841SOL    HW112422   0.608   3.098   4.922
 3841SOL    HW212423   0.639   3.136   5.078
 3842SOL     OW12424   2.057   2.466   1.990
 3842SOL    HW112425   2.113   2.482   2.071
 3842SOL    HW212426   1.974   2.521   1.996
 3843SOL     OW12427   5.409   4.740   2.812
 3843SOL    HW112428   5.444   4.661   2.861
 3843SOL    HW212429   5.368   4.711   2.725
 3844SOL     OW12430   1.189   2.270   5.360
 3844SOL    HW112431   1.220   2.333   5.288
 3844SOL    HW212432   1.231   2.296   5.447
 3845SOL     OW12433   3.403   4.221   5.510
 3845SOL    HW112434   3.479   4.188   5.454
 3845SOL    HW212435   3.380   4.314   5.484
 3846SOL     OW12436   0.041   4.991   3.174
 3846SOL    HW112437   6.968   4.969   3.154
 3846SOL    HW212438   0.047   5.083   3.211
 3847SOL     OW12439   5.257   2.824   4.074
 3847SOL    HW112440   5.338   2.818   4.015
 3847SOL    HW212441   5.246   2.738   4.123
 3848SOL     OW12442   4.290   5.236   2.582
 3848SOL    HW112443   4.386   5.254   2.562
 3848SOL    HW212444   4.266   5.144   2.551
 3849SOL     OW12445   1.121   1.296   6.113
 3849SOL    HW112446   1.135   1.334   6.205
 3849SOL    HW212447   1.067   1.359   6.058
 3850SOL     OW12448   2.738   3.386   1.771
 3850SOL    HW112449   2.795   3.357   1.848
 3850SOL    HW212450   2.781   3.463   1.724
 3851SOL     OW12451   0.758   4.203   2.435
 3851SOL    HW112452   0.829   4.160   2.491
 3851SOL    HW212453   0.800   4.264   2.369
 3852SOL     OW12454   4.058   6.220   4.107
 3852SOL    HW112455   4.059   6.130   4.150
 3852SOL    HW212456   4.151   6.253   4.097
 3853SOL     OW12457   0.622   4.409   3.706
 3853SOL    HW112458   0.666   4.365   3.785
 3853SOL    HW212459   0.687   4.415   3.631
 3854SOL     OW12460   1.821   2.327   2.917
 3854SOL    HW112461   1.906   2.285   2.949
 3854SOL    HW212462   1.770   2.363   2.995
 3855SOL     OW12463   5.487   6.521   6.290
 3855SOL    HW112464   5.545   6.584   6.342
 3855SOL    HW212465   5.544   6.449   6.249
 3856SOL     OW12466   6.736   0.355   6.430
 3856SOL    HW112467   6.769   0.269   6.469
 3856SOL    HW212468   6.758   0.358   6.333
 3857SOL     OW12469   0.579   6.456   0.180
 3857SOL    HW112470   0.572   6.549   0.215
 3857SOL    HW212471   0.499   6.403   0.211
 3858SOL     OW12472   2.703   0.875   5.931
 3858SOL    HW112473   2.634   0.854   6.001
 3858SOL    HW212474   2.658   0.898   5.845
 3859SOL     OW12475   5.514   1.287   2.214
 3859SOL    HW112476   5.464   1.205   2.238
 3859SOL    HW212477   5.451   1.357   2.181
 3860SOL     OW12478   2.472   1.021   5.367
 3860SOL    HW112479   2.472   1.041   5.269
 3860SOL    HW212480   2.567   1.015   5.400
 3861SOL     OW12481   4.189   5.053   3.228
 3861SOL    HW112482   4.141   4.966   3.237
 3861SOL    HW212483   4.127   5.128   3.247
 3862SOL     OW12484   0.522   0.739   5.262
 3862SOL    HW112485   0.481   0.823   5.227
 3862SOL    HW212486   0.621   0.752   5.273
 3863SOL     OW12487   5.715   2.916   6.618
 3863SOL    HW112488   5.693   3.007   6.584
 3863SOL    HW212489   5.783   2.923   6.691
 3864SOL     OW12490   2.539   0.631   5.454
 3864SOL    HW112491   2.551   0.533   5.439
 3864SOL    HW212492   2.575   0.681   5.375
 3865SOL     OW12493   3.412   0.556   0.226
 3865SOL    HW112494   3.431   0.586   0.132
 3865SOL    HW212495   3.333   0.606   0.262
 3866SOL     OW12496   3.140   0.192   0.910
 3866SOL    HW112497   3.191   0.118   0.955
 3866SOL    HW212498   3.046   0.162   0.894
 3867SOL     OW12499   0.637   5.020   3.710
 3867SOL    HW112500   0.601   5.089   3.773
 3867SOL    HW212501   0.710   5.061   3.655
 3868SOL     OW12502   2.621   6.956   0.270
 3868SOL    HW112503   2.604   7.022   0.197
 3868SOL    HW212504   2.543   6.894   0.278
 3869SOL     OW12505   5.836   4.043   4.816
 3869SOL    HW112506   5.856   4.128   4.768
 3869SOL    HW212507   5.843   4.058   4.914
 3870SOL     OW12508   5.729   5.823   0.360
 3870SOL    HW112509   5.706   5.814   0.456
 3870SOL    HW212510   5.827   5.845   0.351
 3871SOL     OW12511   3.125   0.293   2.934
 3871SOL    HW112512   3.134   0.266   3.030
 3871SOL    HW212513   3.131   0.212   2.876
 3872SOL     OW12514   3.838   3.013   4.116
 3872SOL    HW112515   3.775   2.961   4.174
 3872SOL    HW212516   3.888   3.079   4.173
 3873SOL     OW12517   6.456   2.713   0.738
 3873SOL    HW112518   6.400   2.697   0.657
 3873SOL    HW212519   6.539   2.763   0.712
 3874SOL     OW12520   4.155   6.231   6.737
 3874SOL    HW112521   4.091   6.258   6.665
 3874SOL    HW212522   4.104   6.191   6.814
 3875SOL     OW12523   1.974   3.090   2.200
 3875SOL    HW112524   2.046   3.090   2.269
 3875SOL    HW212525   1.996   3.157   2.129
 3876SOL     OW12526   3.886   5.625   1.074
 3876SOL    HW112527   3.788   5.636   1.090
 3876SOL    HW212528   3.906   5.529   1.052
 3877SOL     OW12529   5.963   3.050   0.575
 3877SOL    HW112530   6.007   2.975   0.527
 3877SOL    HW212531   5.909   3.014   0.651
 3878SOL     OW12532   3.406   6.900   4.409
 3878SOL    HW112533   3.502   6.895   4.384
 3878SOL    HW212534   3.380   6.817   4.458
 3879SOL     OW12535   5.266   5.214   1.345
 3879SOL    HW112536   5.366   5.210   1.344
 3879SOL    HW212537   5.230   5.135   1.396
 3880SOL     OW12538   5.554   4.962   4.430
 3880SOL    HW112539   5.466   4.952   4.382
 3880SOL    HW212540   5.607   4.878   4.419
 3881SOL     OW12541   1.405   3.356   1.633
 3881SOL    HW112542   1.452   3.442   1.613
 3881SOL    HW212543   1.341   3.335   1.559
 3882SOL     OW12544   1.292   1.158   5.768
 3882SOL    HW112545   1.273   1.152   5.866
 3882SOL    HW212546   1.206   1.161   5.717
 3883SOL     OW12547   3.862   0.643   3.266
 3883SOL    HW112548   3.952   0.688   3.266
 3883SOL    HW212549   3.863   0.568   3.332
 3884SOL     OW12550   0.245   5.409   3.542
 3884SOL    HW112551   0.203   5.459   3.466
 3884SOL    HW212552   0.260   5.314   3.516
 3885SOL     OW12553   6.311   0.291   2.828
 3885SOL    HW112554   6.397   0.257   2.791
 3885SOL    HW212555   6.283   0.235   2.906
 3886SOL     OW12556   6.195   6.138   4.951
 3886SOL    HW112557   6.101   6.145   4.918
 3886SOL    HW212558   6.256   6.178   4.883
 3887SOL     OW12559   7.017   0.651   6.204
 3887SOL    HW112560   7.018   0.598   6.119
 3887SOL    HW212561   0.038   0.739   6.190
 3888SOL     OW12562   6.816   0.656   5.391
 3888SOL    HW112563   6.766   0.576   5.359
 3888SOL    HW212564   6.855   0.705   5.313
 3889SOL     OW12565   6.998   3.782   5.945
 3889SOL    HW112566   0.012   3.835   5.869
 3889SOL    HW212567   6.899   3.799   5.952
 3890SOL     OW12568   5.538   5.518   2.715
 3890SOL    HW112569   5.616   5.462   2.741
 3890SOL    HW212570   5.484   5.540   2.796
 3891SOL     OW12571   5.647   4.438   4.946
 3891SOL    HW112572   5.622   4.361   4.886
 3891SOL    HW212573   5.745   4.434   4.965
 3892SOL     OW12574   0.351   1.529   1.167
 3892SOL    HW112575   0.262   1.523   1.212
 3892SOL    HW212576   0.351   1.470   1.086
 3893SOL     OW12577   4.222   4.124   1.222
 3893SOL    HW112578   4.270   4.127   1.135
 3893SOL    HW212579   4.124   4.127   1.206
 3894SOL     OW12580   3.341   2.146   1.308
 3894SOL    HW112581   3.301   2.226   1.351
 3894SOL    HW212582   3.370   2.081   1.379
 3895SOL     OW12583   1.951   0.521   5.936
 3895SOL    HW112584   1.862   0.529   5.982
 3895SOL    HW212585   1.999   0.441   5.972
 3896SOL     OW12586   7.019   0.477   5.972
 3896SOL    HW112587   6.984   0.495   5.880
 3896SOL    HW212588   0.079   0.423   5.966
 3897SOL     OW12589   3.570   5.729   2.357
 3897SOL    HW112590   3.616   5.676   2.428
 3897SOL    HW212591   3.633   5.742   2.280
 3898SOL     OW12592   3.254   3.464   4.717
 3898SOL    HW112593   3.291   3.476   4.625
 3898SOL    HW212594   3.156   3.444   4.712
 3899SOL     OW12595   5.834   0.564   4.493
 3899SOL    HW112596   5.837   0.597   4.399
 3899SOL    HW212597   5.825   0.464   4.493
 3900SOL     OW12598   5.639   2.779   4.089
 3900SOL    HW112599   5.590   2.703   4.046
 3900SOL    HW212600   5.718   2.805   4.033
 3901SOL     OW12601   3.171   0.387   5.253
 3901SOL    HW112602   3.244   0.450   5.280
 3901SOL    HW212603   3.102   0.384   5.325
 3902SOL     OW12604   5.885   3.505   2.620
 3902SOL    HW112605   5.912   3.473   2.529
 3902SOL    HW212606   5.793   3.471   2.641
 3903SOL     OW12607   4.629   5.594   0.178
 3903SOL    HW112608   4.607   5.686   0.147
 3903SOL    HW212609   4.674   5.598   0.267
 3904SOL     OW12610   1.625   6.979   4.840
 3904SOL    HW112611   1.534   7.018   4.835
 3904SOL    HW212612   1.645   6.951   4.934
 3905SOL     OW12613   6.690   0.097   5.614
 3905SOL    HW112614   6.721   0.170   5.675
 3905SOL    HW212615   6.680   0.012   5.665
 3906SOL     OW12616   4.002   5.316   4.970
 3906SOL    HW112617   4.019   5.335   4.873
 3906SOL    HW212618   4.043   5.228   4.994
 3907SOL     OW12619   6.753   6.568   5.382
 3907SOL    HW112620   6.732   6.666   5.388
 3907SOL    HW212621   6.851   6.554   5.396
 3908SOL     OW12622   0.985   0.858   0.552
 3908SOL    HW112623   0.999   0.760   0.569
 3908SOL    HW212624   0.922   0.895   0.621
 3909SOL     OW12625   0.624   5.739   5.403
 3909SOL    HW112626   0.678   5.803   5.457
 3909SOL    HW212627   0.577   5.789   5.331
 3910SOL     OW12628   3.723   3.789   1.817
 3910SOL    HW112629   3.657   3.809   1.889
 3910SOL    HW212630   3.736   3.871   1.760
 3911SOL     OW12631   4.199   1.247   0.080
 3911SOL    HW112632   4.193   1.212   7.010
 3911SOL    HW212633   4.126   1.315   0.095
 3912SOL     OW12634   3.140   1.217   6.455
 3912SOL    HW112635   3.162   1.138   6.513
 3912SOL    HW212636   3.198   1.216   6.374
 3913SOL     OW12637   2.011   5.944   6.572
 3913SOL    HW112638   2.007   5.955   6.473
 3913SOL    HW212639   2.017   6.034   6.615
 3914SOL     OW12640   3.821   0.803   1.006
 3914SOL    HW112641   3.730   0.833   1.032
 3914SOL    HW212642   3.890   0.865   1.044
 3915SOL     OW12643   3.827   6.353   1.803
 3915SOL    HW112644   3.763   6.280   1.827
 3915SOL    HW212645   3.803   6.436   1.854
 3916SOL     OW12646   1.614   6.238   2.955
 3916SOL    HW112647   1.652   6.300   3.024
 3916SOL    HW212648   1.654   6.259   2.865
 3917SOL     OW12649   1.741   4.657   6.657
 3917SOL    HW112650   1.734   4.558   6.672
 3917SOL    HW212651   1.765   4.702   6.742
 3918SOL     OW12652   5.449   6.639   2.509
 3918SOL    HW112653   5.391   6.693   2.447
 3918SOL    HW212654   5.408   6.637   2.600
 3919SOL     OW12655   3.207   6.272   6.574
 3919SOL    HW112656   3.280   6.205   6.581
 3919SOL    HW212657   3.141   6.243   6.505
 3920SOL     OW12658   3.147   2.485   6.679
 3920SOL    HW112659   3.220   2.426   6.644
 3920SOL    HW212660   3.141   2.476   6.778
 3921SOL     OW12661   6.975   2.999   0.738
 3921SOL    HW112662   0.031   3.060   0.747
 3921SOL    HW212663   6.985   2.921   0.800
 3922SOL     OW12664   5.624   4.383   1.210
 3922SOL    HW112665   5.567   4.336   1.277
 3922SOL    HW212666   5.714   4.400   1.249
 3923SOL     OW12667   6.710   1.932   0.380
 3923SOL    HW112668   6.724   1.882   0.466
 3923SOL    HW212669   6.630   1.990   0.388
 3924SOL     OW12670   0.349   5.493   3.057
 3924SOL    HW112671   0.423   5.558   3.038
 3924SOL    HW212672   0.266   5.523   3.012
 3925SOL     OW12673   3.647   4.167   0.965
 3925SOL    HW112674   3.702   4.109   1.025
 3925SOL    HW212675   3.551   4.138   0.968
 3926SOL     OW12676   6.609   5.904   2.839
 3926SOL    HW112677   6.696   5.953   2.847
 3926SOL    HW212678   6.627   5.809   2.813
 3927SOL     OW12679   7.000   3.715   3.981
 3927SOL    HW112680   6.926   3.782   3.983
 3927SOL    HW212681   0.052   3.750   3.926
 3928SOL     OW12682   3.045   5.398   4.954
 3928SOL    HW112683   3.121   5.350   4.996
 3928SOL    HW212684   3.013   5.471   5.016
 3929SOL     OW12685   0.115   2.090   6.652
 3929SOL    HW112686   0.088   2.176   6.608
 3929SOL    HW212687   0.201   2.104   6.702
 3930SOL     OW12688   1.946   1.780   3.936
 3930SOL    HW112689   1.963   1.793   4.033
 3930SOL    HW212690   1.937   1.869   3.891
 3931SOL     OW12691   2.209   1.247   2.568
 3931SOL    HW112692   2.285   1.217   2.509
 3931SOL    HW212693   2.242   1.318   2.631
 3932SOL     OW12694   1.930   4.545   3.136
 3932SOL    HW112695   1.988   4.579   3.063
 3932SOL    HW212696   1.974   4.469   3.182
 3933SOL     OW12697   2.401   6.870   6.754
 3933SOL    HW112698   2.462   6.929   6.701
 3933SOL    HW212699   2.423   6.878   6.852
 3934SOL     OW12700   0.393   1.159   1.285
 3934SOL    HW112701   0.388   1.071   1.331
 3934SOL    HW212702   0.489   1.186   1.273
 3935SOL     OW12703   1.875   6.985   5.653
 3935SOL    HW112704   1.820   0.009   5.584
 3935SOL    HW212705   1.939   0.026   5.694
 3936SOL     OW12706   0.375   5.733   5.584
 3936SOL    HW112707   0.425   5.707   5.501
 3936SOL    HW212708   0.440   5.765   5.653
 3937SOL     OW12709   0.297   0.457   2.333
 3937SOL    HW112710   0.307   0.547   2.377
 3937SOL    HW212711   0.386   0.410   2.334
 3938SOL     OW12712   6.810   2.555   4.367
 3938SOL    HW112713   6.897   2.583   4.406
 3938SOL    HW212714   6.738   2.618   4.398
 3939SOL     OW12715   3.091   1.435   2.772
 3939SOL    HW112716   3.021   1.381   2.818
 3939SOL    HW212717   3.047   1.497   2.706
 3940SOL     OW12718   4.066   4.842   2.108
 3940SOL    HW112719   4.057   4.778   2.185
 3940SOL    HW212720   4.137   4.809   2.046
 3941SOL     OW12721   5.548   1.273   6.332
 3941SOL    HW112722   5.522   1.229   6.246
 3941SOL    HW212723   5.483   1.346   6.352
 3942SOL     OW12724   0.789   6.868   5.498
 3942SOL    HW112725   0.877   6.892   5.539
 3942SOL    HW212726   0.752   6.949   5.452
 3943SOL     OW12727   1.049   3.612   2.826
 3943SOL    HW112728   1.114   3.669   2.878
 3943SOL    HW212729   1.052   3.639   2.730
 3944SOL     OW12730   5.814   4.159   5.435
 3944SOL    HW112731   5.764   4.139   5.520
 3944SOL    HW212732   5.822   4.076   5.381
 3945SOL     OW12733   1.127   2.506   2.176
 3945SOL    HW112734   1.160   2.411   2.179
 3945SOL    HW212735   1.027   2.506   2.174
 3946SOL     OW12736   6.562   4.521   6.127
 3946SOL    HW112737   6.563   4.437   6.073
 3946SOL    HW212738   6.537   4.501   6.221
 3947SOL     OW12739   5.921   5.357   1.837
 3947SOL    HW112740   5.926   5.391   1.931
 3947SOL    HW212741   5.840   5.299   1.827
 3948SOL     OW12742   0.893   4.889   1.045
 3948SOL    HW112743   0.855   4.980   1.030
 3948SOL    HW212744   0.992   4.896   1.053
 3949SOL     OW12745   5.557   0.447   2.989
 3949SOL    HW112746   5.561   0.534   2.939
 3949SOL    HW212747   5.562   0.372   2.924
 3950SOL     OW12748   3.464   3.795   1.556
 3950SOL    HW112749   3.548   3.827   1.599
 3950SOL    HW212750   3.487   3.733   1.481
 3951SOL     OW12751   0.164   6.619   0.016
 3951SOL    HW112752   0.106   6.692   0.053
 3951SOL    HW212753   0.149   6.535   0.067
 3952SOL     OW12754   6.830   3.833   4.295
 3952SOL    HW112755   6.890   3.759   4.265
 3952SOL    HW212756   6.743   3.795   4.327
 3953SOL     OW12757   3.127   4.327   0.449
 3953SOL    HW112758   3.179   4.315   0.364
 3953SOL    HW212759   3.160   4.262   0.517
 3954SOL     OW12760   5.781   5.541   5.929
 3954SOL    HW112761   5.842   5.471   5.893
 3954SOL    HW212762   5.819   5.631   5.910
 3955SOL     OW12763   3.872   6.619   0.189
 3955SOL    HW112764   3.890   6.601   0.092
 3955SOL    HW212765   3.924   6.555   0.245
 3956SOL     OW12766   0.599   2.282   3.423
 3956SOL    HW112767   0.596   2.351   3.350
 3956SOL    HW212768   0.683   2.294   3.476
 3957SOL     OW12769   4.885   6.792   3.308
 3957SOL    HW112770   4.862   6.826   3.399
 3957SOL    HW212771   4.852   6.697   3.299
 3958SOL     OW12772   5.759   0.239   6.250
 3958SOL    HW112773   5.812   0.238   6.165
 3958SOL    HW212774   5.700   0.158   6.253
 3959SOL     OW12775   3.571   6.490   0.921
 3959SOL    HW112776   3.517   6.449   0.848
 3959SOL    HW212777   3.631   6.421   0.961
 3960SOL     OW12778   5.221   1.782   6.442
 3960SOL    HW112779   5.225   1.881   6.426
 3960SOL    HW212780   5.313   1.749   6.463
 3961SOL     OW12781   5.597   2.675   1.979
 3961SOL    HW112782   5.696   2.663   1.967
 3961SOL    HW212783   5.580   2.757   2.033
 3962SOL     OW12784   1.626   5.129   6.689
 3962SOL    HW112785   1.626   5.051   6.627
 3962SOL    HW212786   1.717   5.172   6.689
 3963SOL     OW12787   4.515   4.588   3.799
 3963SOL    HW112788   4.440   4.651   3.821
 3963SOL    HW212789   4.509   4.561   3.703
 3964SOL     OW12790   4.515   4.858   4.114
 3964SOL    HW112791   4.424   4.896   4.098
 3964SOL    HW212792   4.510   4.758   4.115
 3965SOL     OW12793   3.793   3.319   6.055
 3965SOL    HW112794   3.711   3.289   6.006
 3965SOL    HW212795   3.779   3.414   6.086
 3966SOL     OW12796   6.324   5.603   0.634
 3966SOL    HW112797   6.339   5.507   0.610
 3966SOL    HW212798   6.284   5.609   0.725
 3967SOL     OW12799   1.461   4.143   2.792
 3967SOL    HW112800   1.396   4.127   2.718
 3967SOL    HW212801   1.554   4.144   2.755
 3968SOL     OW12802   6.947   0.070   1.342
 3968SOL    HW112803   6.938   0.029   1.432
 3968SOL    HW212804   6.863   0.121   1.320
 3969SOL     OW12805   1.241   3.525   2.571
 3969SOL    HW112806   1.293   3.482   2.645
 3969SOL    HW212807   1.287   3.508   2.483
 3970SOL     OW12808   4.862   5.213   3.977
 3970SOL    HW112809   4.788   5.281   3.970
 3970SOL    HW212810   4.823   5.121   3.970
 3971SOL     OW12811   2.319   4.814   2.306
 3971SOL    HW112812   2.365   4.798   2.393
 3971SOL    HW212813   2.338   4.738   2.244
 3972SOL     OW12814   1.243   5.336   1.165
 3972SOL    HW112815   1.240   5.435   1.178
 3972SOL    HW212816   1.225   5.314   1.069
 3973SOL     OW12817   2.097   4.258   5.409
 3973SOL    HW112818   2.023   4.296   5.354
 3973SOL    HW212819   2.183   4.265   5.359
 3974SOL     OW12820   1.093   0.121   5.120
 3974SOL    HW112821   1.164   0.124   5.190
 3974SOL    HW212822   1.112   0.189   5.049
 3975SOL     OW12823   5.212   0.387   6.085
 3975SOL    HW112824   5.193   0.421   6.177
 3975SOL    HW212825   5.310   0.367   6.077
 3976SOL     OW12826   1.543   5.254   1.788
 3976SOL    HW112827   1.573   5.347   1.766
 3976SOL    HW212828   1.482   5.221   1.716
 3977SOL     OW12829   2.941   4.780   5.293
 3977SOL    HW112830   2.923   4.726   5.211
 3977SOL    HW212831   2.963   4.719   5.369
 3978SOL     OW12832   5.348   0.322   4.724
 3978SOL    HW112833   5.401   0.309   4.640
 3978SOL    HW212834   5.314   0.234   4.756
 3979SOL     OW12835   2.322   5.729   1.759
 3979SOL    HW112836   2.399   5.710   1.698
 3979SOL    HW212837   2.240   5.746   1.704
 3980SOL     OW12838   0.626   5.039   0.033
 3980SOL    HW112839   0.712   5.091   0.030
 3980SOL    HW212840   0.646   4.941   0.032
 3981SOL     OW12841   1.791   1.169   6.180
 3981SOL    HW112842   1.741   1.112   6.114
 3981SOL    HW212843   1.866   1.216   6.133
 3982SOL     OW12844   1.979   1.021   4.178
 3982SOL    HW112845   2.047   0.999   4.108
 3982SOL    HW212846   1.896   1.054   4.134
 3983SOL     OW12847   4.003   5.138   3.967
 3983SOL    HW112848   4.101   5.156   3.973
 3983SOL    HW212849   3.961   5.153   4.057
 3984SOL     OW12850   1.565   0.788   2.946
 3984SOL    HW112851   1.489   0.768   2.884
 3984SOL    HW212852   1.572   0.716   3.014
 3985SOL     OW12853   3.820   4.987   6.403
 3985SOL    HW112854   3.843   5.042   6.322
 3985SOL    HW212855   3.725   4.958   6.397
 3986SOL     OW12856   7.006   2.127   2.411
 3986SOL    HW112857   0.034   2.213   2.407
 3986SOL    HW212858   6.909   2.146   2.391
 3987SOL     OW12859   2.896   5.482   4.524
 3987SOL    HW112860   2.888   5.398   4.470
 3987SOL    HW212861   2.806   5.519   4.543
 3988SOL     OW12862   3.786   3.261   6.981
 3988SOL    HW112863   3.763   3.324   0.032
 3988SOL    HW212864   3.704   3.241   6.927
 3989SOL     OW12865   6.778   1.419   0.159
 3989SOL    HW112866   6.855   1.381   0.108
 3989SOL    HW212867   6.792   1.516   0.173
 3990SOL     OW12868   5.626   2.265   3.386
 3990SOL    HW112869   5.672   2.274   3.297
 3990SOL    HW212870   5.591   2.171   3.395
 3991SOL     OW12871   5.617   1.597   1.950
 3991SOL    HW112872   5.558   1.607   2.031
 3991SOL    HW212873   5.706   1.561   1.978
 3992SOL     OW12874   3.709   2.263   6.963
 3992SOL    HW112875   3.646   2.189   6.939
 3992SOL    HW212876   3.721   2.323   6.884
 3993SOL     OW12877   0.441   2.374   3.007
 3993SOL    HW112878   0.501   2.419   3.074
 3993SOL    HW212879   0.404   2.290   3.047
 3994SOL     OW12880   0.909   2.038   6.240
 3994SOL    HW112881   0.996   2.079   6.265
 3994SOL    HW212882   0.924   1.971   6.167
 3995SOL     OW12883   1.745   3.873   4.009
 3995SOL    HW112884   1.707   3.845   4.097
 3995SOL    HW212885   1.821   3.812   3.984
 3996SOL     OW12886   0.744   1.388   4.586
 3996SOL    HW112887   0.779   1.419   4.498
 3996SOL    HW212888   0.674   1.319   4.572
 3997SOL     OW12889   4.558   2.469   3.205
 3997SOL    HW112890   4.625   2.531   3.246
 3997SOL    HW212891   4.546   2.492   3.109
 3998SOL     OW12892   4.530   0.871   2.601
 3998SOL    HW112893   4.478   0.797   2.643
 3998SOL    HW212894   4.473   0.953   2.595
 3999SOL     OW12895   5.353   3.478   3.935
 3999SOL    HW112896   5.269   3.528   3.954
 3999SOL    HW212897   5.432   3.532   3.965
 4000SOL     OW12898   3.091   5.097   3.058
 4000SOL    HW112899   3.084   5.068   3.153
 4000SOL    HW212900   2.999   5.110   3.020
 4001SOL     OW12901   2.415   2.146   3.941
 4001SOL    HW112902   2.420   2.139   3.842
 4001SOL    HW212903   2.424   2.055   3.982
 4002SOL     OW12904   2.779   2.597   0.424
 4002SOL    HW112905   2.837   2.643   0.491
 4002SOL    HW212906   2.719   2.663   0.380
 4003SOL     OW12907   2.618   6.373   5.299
 4003SOL    HW112908   2.670   6.373   5.213
 4003SOL    HW212909   2.621   6.464   5.340
 4004SOL     OW12910   6.093   1.906   3.779
 4004SOL    HW112911   6.007   1.930   3.824
 4004SOL    HW212912   6.121   1.981   3.719
 4005SOL     OW12913   5.448   5.342   0.820
 4005SOL    HW112914   5.546   5.361   0.813
 4005SOL    HW212915   5.429   5.302   0.910
 4006SOL     OW12916   3.765   5.075   2.331
 4006SOL    HW112917   3.832   5.011   2.368
 4006SOL    HW212918   3.696   5.025   2.278
 4007SOL     OW12919   0.673   3.282   1.208
 4007SOL    HW112920   0.773   3.285   1.201
 4007SOL    HW212921   0.633   3.302   1.118
 4008SOL     OW12922   3.847   1.993   4.251
 4008SOL    HW112923   3.852   1.912   4.193
 4008SOL    HW212924   3.764   2.044   4.230
 4009SOL     OW12925   5.396   2.698   0.270
 4009SOL    HW112926   5.297   2.693   0.279
 4009SOL    HW212927   5.423   2.677   0.176
 4010SOL     OW12928   2.556   3.283   1.110
 4010SOL    HW112929   2.461   3.255   1.096
 4010SOL    HW212930   2.562   3.341   1.191
 4011SOL     OW12931   0.370   0.890   1.367
 4011SOL    HW112932   0.339   0.876   1.462
 4011SOL    HW212933   0.450   0.833   1.349
 4012SOL     OW12934   4.180   5.082   2.257
 4012SOL    HW112935   4.184   5.057   2.161
 4012SOL    HW212936   4.113   5.024   2.304
 4013SOL     OW12937   2.635   0.208   0.755
 4013SOL    HW112938   2.598   0.178   0.844
 4013SOL    HW212939   2.603   0.301   0.737
 4014SOL     OW12940   4.185   6.055   3.151
 4014SOL    HW112941   4.136   5.987   3.206
 4014SOL    HW212942   4.261   6.010   3.103
 4015SOL     OW12943   4.500   5.848   6.455
 4015SOL    HW112944   4.460   5.893   6.535
 4015SOL    HW212945   4.545   5.763   6.483
 4016SOL     OW12946   1.789   5.737   6.288
 4016SOL    HW112947   1.866   5.681   6.257
 4016SOL    HW212948   1.703   5.697   6.255
 4017SOL     OW12949   0.133   6.477   0.281
 4017SOL    HW112950   0.037   6.457   0.299
 4017SOL    HW212951   0.166   6.543   0.349
 4018SOL     OW12952   5.715   6.726   2.575
 4018SOL    HW112953   5.643   6.657   2.573
 4018SOL    HW212954   5.676   6.815   2.552
 4019SOL     OW12955   5.789   3.466   3.135
 4019SOL    HW112956   5.867   3.444   3.075
 4019SOL    HW212957   5.805   3.425   3.225
 4020SOL     OW12958   5.784   2.638   5.289
 4020SOL    HW112959   5.711   2.626   5.222
 4020SOL    HW212960   5.868   2.666   5.243
 4021SOL     OW12961   2.800   3.344   5.650
 4021SOL    HW112962   2.725   3.302   5.701
 4021SOL    HW212963   2.865   3.274   5.622
 4022SOL     OW12964   4.393   0.693   0.084
 4022SOL    HW112965   4.335   0.695   0.002
 4022SOL    HW212966   4.463   0.765   0.077
 4023SOL     OW12967   6.493   1.605   4.967
 4023SOL    HW112968   6.592   1.599   4.981
 4023SOL    HW212969   6.454   1.513   4.970
 4024SOL     OW12970   2.795   5.088   4.206
 4024SOL    HW112971   2.819   5.119   4.115
 4024SOL    HW212972   2.797   4.988   4.209
 4025SOL     OW12973   0.677   6.620   4.740
 4025SOL    HW112974   0.720   6.530   4.752
 4025SOL    HW212975   0.665   6.663   4.829
 4026SOL     OW12976   6.346   5.768   3.970
 4026SOL    HW112977   6.410   5.788   3.896
 4026SOL    HW212978   6.252   5.780   3.938
 4027SOL     OW12979   3.175   3.996   2.245
 4027SOL    HW112980   3.150   3.899   2.242
 4027SOL    HW212981   3.189   4.024   2.340
 4028SOL     OW12982   1.746   2.238   3.899
 4028SOL    HW112983   1.659   2.200   3.866
 4028SOL    HW212984   1.763   2.326   3.856
 4029SOL     OW12985   2.706   4.377   6.313
 4029SOL    HW112986   2.723   4.476   6.312
 4029SOL    HW212987   2.607   4.361   6.319
 4030SOL     OW12988   1.478   1.969   6.877
 4030SOL    HW112989   1.498   1.885   6.928
 4030SOL    HW212990   1.383   1.967   6.845
 4031SOL     OW12991   4.721   5.972   2.841
 4031SOL    HW112992   4.767   5.909   2.904
 4031SOL    HW212993   4.726   6.065   2.878
 4032SOL     OW12994   5.861   0.428   2.868
 4032SOL    HW112995   5.776   0.434   2.817
 4032SOL    HW212996   5.879   0.332   2.893
 4033SOL     OW12997   3.176   3.424   2.772
 4033SOL    HW112998   3.091   3.477   2.764
 4033SOL    HW212999   3.196   3.407   2.868
 4034SOL     OW13000   5.965   1.805   4.944
 4034SOL    HW113001   6.007   1.883   4.899
 4034SOL    HW213002   5.987   1.806   5.041
 4035SOL     OW13003   0.161   2.716   0.837
 4035SOL    HW113004   0.062   2.705   0.828
 4035SOL    HW213005   0.203   2.626   0.851
 4036SOL     OW13006   5.313   6.887   2.815
 4036SOL    HW113007   5.242   6.870   2.884
 4036SOL    HW213008   5.312   6.984   2.790
 4037SOL     OW13009   1.852   2.435   0.428
 4037SOL    HW113010   1.805   2.523   0.420
 4037SOL    HW213011   1.885   2.406   0.338
 4038SOL     OW13012   4.646   4.744   1.973
 4038SOL    HW113013   4.659   4.725   2.071
 4038SOL    HW213014   4.640   4.658   1.923
 4039SOL     OW13015   4.991   4.846   1.607
 4039SOL    HW113016   4.934   4.815   1.683
 4039SOL    HW213017   5.071   4.786   1.600
 4040SOL     OW13018   3.199   0.035   6.165
 4040SOL    HW113019   3.223   6.989   6.233
 4040SOL    HW213020   3.208   7.020   6.073
 4041SOL     OW13021   2.097   5.631   1.301
 4041SOL    HW113022   2.106   5.554   1.238
 4041SOL    HW213023   2.025   5.611   1.367
 4042SOL     OW13024   6.207   4.941   2.714
 4042SOL    HW113025   6.121   4.992   2.713
 4042SOL    HW213026   6.249   4.948   2.804
 4043SOL     OW13027   5.138   2.406   4.412
 4043SOL    HW113028   5.130   2.460   4.496
 4043SOL    HW213029   5.073   2.330   4.415
 4044SOL     OW13030   4.859   0.655   4.125
 4044SOL    HW113031   4.827   0.699   4.209
 4044SOL    HW213032   4.957   0.673   4.113
 4045SOL     OW13033   2.894   4.187   6.287
 4045SOL    HW113034   2.810   4.240   6.302
 4045SOL    HW213035   2.887   4.137   6.201
 4046SOL     OW13036   0.897   1.070   3.683
 4046SOL    HW113037   0.811   1.101   3.724
 4046SOL    HW213038   0.887   1.064   3.584
 4047SOL     OW13039   2.895   2.408   0.981
 4047SOL    HW113040   2.898   2.447   1.074
 4047SOL    HW213041   2.807   2.431   0.939
 4048SOL     OW13042   5.471   1.701   2.178
 4048SOL    HW113043   5.564   1.721   2.206
 4048SOL    HW213044   5.407   1.759   2.228
 4049SOL     OW13045   6.074   6.156   0.034
 4049SOL    HW113046   6.060   6.195   6.966
 4049SOL    HW213047   6.134   6.216   0.087
 4050SOL     OW13048   1.883   6.683   0.437
 4050SOL    HW113049   1.866   6.705   0.341
 4050SOL    HW213050   1.873   6.584   0.451
 4051SOL     OW13051   4.182   2.894   0.293
 4051SOL    HW113052   4.156   2.929   0.383
 4051SOL    HW213053   4.100   2.866   0.242
 4052SOL     OW13054   0.330   0.880   1.638
 4052SOL    HW113055   0.428   0.892   1.652
 4052SOL    HW213056   0.309   0.782   1.634
 4053SOL     OW13057   3.488   4.975   3.708
 4053SOL    HW113058   3.423   5.051   3.720
 4053SOL    HW213059   3.510   4.965   3.611
 4054SOL     OW13060   1.185   2.966   1.053
 4054SOL    HW113061   1.104   3.001   1.100
 4054SOL    HW213062   1.257   2.948   1.121
 4055SOL     OW13063   3.096   3.875   5.754
 4055SOL    HW113064   3.074   3.780   5.733
 4055SOL    HW213065   3.195   3.886   5.763
 4056SOL     OW13066   4.305   2.781   6.858
 4056SOL    HW113067   4.219   2.827   6.838
 4056SOL    HW213068   4.294   2.682   6.846
 4057SOL     OW13069   5.389   2.636   6.987
 4057SOL    HW113070   5.345   2.601   6.904
 4057SOL    HW213071   5.483   2.600   6.993
 4058SOL     OW13072   1.463   1.602   4.809
 4058SOL    HW113073   1.400   1.530   4.837
 4058SOL    HW213074   1.466   1.608   4.710
 4059SOL     OW13075   1.937   2.281   3.321
 4059SOL    HW113076   1.964   2.248   3.231
 4059SOL    HW213077   1.994   2.239   3.392
 4060SOL     OW13078   4.567   5.357   4.915
 4060SOL    HW113079   4.478   5.363   4.958
 4060SOL    HW213080   4.605   5.265   4.929
 4061SOL     OW13081   3.230   4.998   1.864
 4061SOL    HW113082   3.307   4.955   1.817
 4061SOL    HW213083   3.252   5.094   1.884
 4062SOL     OW13084   3.095   1.085   3.021
 4062SOL    HW113085   3.122   1.064   2.927
 4062SOL    HW213086   2.997   1.069   3.031
 4063SOL     OW13087   4.925   0.305   5.329
 4063SOL    HW113088   4.995   0.237   5.352
 4063SOL    HW213089   4.837   0.276   5.365
 4064SOL     OW13090   1.443   0.407   3.435
 4064SOL    HW113091   1.488   0.366   3.355
 4064SOL    HW213092   1.344   0.406   3.423
 4065SOL     OW13093   1.282   6.632   0.293
 4065SOL    HW113094   1.280   6.658   0.390
 4065SOL    HW213095   1.253   6.709   0.237
 4066SOL     OW13096   5.091   4.873   2.642
 4066SOL    HW113097   5.170   4.876   2.580
 4066SOL    HW213098   5.025   4.944   2.616
 4067SOL     OW13099   6.095   3.078   2.269
 4067SOL    HW113100   6.191   3.080   2.242
 4067SOL    HW213101   6.065   3.170   2.293
 4068SOL     OW13102   4.248   0.280   4.772
 4068SOL    HW113103   4.201   0.192   4.764
 4068SOL    HW213104   4.184   0.349   4.804
 4069SOL     OW13105   4.175   3.528   6.611
 4069SOL    HW113106   4.213   3.620   6.628
 4069SOL    HW213107   4.247   3.469   6.574
 4070SOL     OW13108   1.207   3.371   3.014
 4070SOL    HW113109   1.258   3.292   3.048
 4070SOL    HW213110   1.208   3.443   3.084
 4071SOL     OW13111   1.595   0.778   5.135
 4071SOL    HW113112   1.573   0.835   5.056
 4071SOL    HW213113   1.541   0.694   5.132
 4072SOL     OW13114   0.809   6.639   3.850
 4072SOL    HW113115   0.740   6.697   3.807
 4072SOL    HW213116   0.767   6.588   3.925
 4073SOL     OW13117   2.417   5.268   5.603
 4073SOL    HW113118   2.508   5.230   5.622
 4073SOL    HW213119   2.348   5.197   5.618
 4074SOL     OW13120   0.905   2.432   2.412
 4074SOL    HW113121   0.981   2.497   2.420
 4074SOL    HW213122   0.873   2.407   2.504
 4075SOL     OW13123   4.791   2.585   2.704
 4075SOL    HW113124   4.790   2.624   2.796
 4075SOL    HW213125   4.854   2.507   2.702
 4076SOL     OW13126   2.098   4.014   6.005
 4076SOL    HW113127   2.007   4.029   5.965
 4076SOL    HW213128   2.165   4.071   5.958
 4077SOL     OW13129   3.199   6.703   0.331
 4077SOL    HW113130   3.239   6.634   0.270
 4077SOL    HW213131   3.127   6.661   0.386
 4078SOL     OW13132   6.540   5.563   1.755
 4078SOL    HW113133   6.576   5.653   1.734
 4078SOL    HW213134   6.492   5.566   1.843
 4079SOL     OW13135   1.187   1.277   3.318
 4079SOL    HW113136   1.247   1.356   3.331
 4079SOL    HW213137   1.233   1.195   3.352
 4080SOL     OW13138   2.925   3.395   0.706
 4080SOL    HW113139   2.849   3.355   0.759
 4080SOL    HW213140   2.957   3.477   0.753
 4081SOL     OW13141   1.770   1.127   4.025
 4081SOL    HW113142   1.742   1.220   4.047
 4081SOL    HW213143   1.692   1.065   4.035
 4082SOL     OW13144   1.758   1.760   0.424
 4082SOL    HW113145   1.820   1.682   0.414
 4082SOL    HW213146   1.811   1.840   0.451
 4083SOL     OW13147   6.004   4.234   3.603
 4083SOL    HW113148   5.955   4.213   3.688
 4083SOL    HW213149   6.101   4.216   3.614
 4084SOL     OW13150   5.065   2.910   3.203
 4084SOL    HW113151   5.065   2.948   3.110
 4084SOL    HW213152   5.154   2.869   3.222
 4085SOL     OW13153   2.833   5.319   0.388
 4085SOL    HW113154   2.770   5.251   0.350
 4085SOL    HW213155   2.918   5.318   0.335
 4086SOL     OW13156   0.307   4.530   0.662
 4086SOL    HW113157   0.288   4.592   0.738
 4086SOL    HW213158   0.405   4.524   0.648
 4087SOL     OW13159   2.411   0.940   2.762
 4087SOL    HW113160   2.432   1.002   2.838
 4087SOL    HW213161   2.323   0.965   2.722
 4088SOL     OW13162   6.433   0.998   5.892
 4088SOL    HW113163   6.468   0.948   5.813
 4088SOL    HW213164   6.425   0.935   5.970
 4089SOL     OW13165   6.228   5.556   4.817
 4089SOL    HW113166   6.328   5.557   4.812
 4089SOL    HW213167   6.199   5.539   4.911
 4090SOL     OW13168   1.727   5.723   5.013
 4090SOL    HW113169   1.645   5.687   4.969
 4090SOL    HW213170   1.789   5.759   4.944
 4091SOL     OW13171   0.644   5.746   0.029
 4091SOL    HW113172   0.696   5.734   0.113
 4091SOL    HW213173   0.567   5.807   0.045
 4092SOL     OW13174   6.021   2.676   3.969
 4092SOL    HW113175   6.116   2.668   3.939
 4092SOL    HW213176   6.019   2.699   4.066
 4093SOL     OW13177   5.289   6.712   1.137
 4093SOL    HW113178   5.292   6.629   1.082
 4093SOL    HW213179   5.200   6.756   1.126
 4094SOL     OW13180   0.847   4.925   6.280
 4094SOL    HW113181   0.871   5.011   6.324
 4094SOL    HW213182   0.896   4.917   6.193
 4095SOL     OW13183   1.107   3.613   0.216
 4095SOL    HW113184   1.049   3.618   0.134
 4095SOL    HW213185   1.059   3.655   0.293
 4096SOL     OW13186   2.904   0.939   6.137
 4096SOL    HW113187   2.827   0.901   6.087
 4096SOL    HW213188   2.933   0.875   6.209
 4097SOL     OW13189   5.578   5.066   5.545
 4097SOL    HW113190   5.601   5.148   5.596
 4097SOL    HW213191   5.558   5.090   5.450
 4098SOL     OW13192   1.614   3.339   0.935
 4098SOL    HW113193   1.610   3.264   0.869
 4098SOL    HW213194   1.523   3.359   0.969
 4099SOL     OW13195   3.102   5.036   0.358
 4099SOL    HW113196   3.044   4.958   0.333
 4099SOL    HW213197   3.182   5.003   0.408
 4100SOL     OW13198   1.331   0.707   4.109
 4100SOL    HW113199   1.367   0.636   4.049
 4100SOL    HW213200   1.336   0.677   4.204
 4101SOL     OW13201   0.570   1.227   6.569
 4101SOL    HW113202   0.488   1.284   6.574
 4101SOL    HW213203   0.547   1.139   6.526
 4102SOL     OW13204   1.856   0.734   0.865
 4102SOL    HW113205   1.899   0.769   0.949
 4102SOL    HW213206   1.860   0.805   0.795
 4103SOL     OW13207   6.927   6.893   2.073
 4103SOL    HW113208   6.935   6.911   1.975
 4103SOL    HW213209   6.944   6.978   2.124
 4104SOL     OW13210   0.496   5.390   3.667
 4104SOL    HW113211   0.421   5.381   3.601
 4104SOL    HW213212   0.512   5.487   3.685
 4105SOL     OW13213   5.340   0.735   2.312
 4105SOL    HW113214   5.358   0.778   2.223
 4105SOL    HW213215   5.313   0.640   2.298
 4106SOL     OW13216   0.837   2.018   3.659
 4106SOL    HW113217   0.899   2.064   3.594
 4106SOL    HW213218   0.847   1.919   3.650
 4107SOL     OW13219   1.167   5.963   0.084
 4107SOL    HW113220   1.227   6.035   0.117
 4107SOL    HW213221   1.109   5.998   0.011
 4108SOL     OW13222   6.764   5.019   4.618
 4108SOL    HW113223   6.802   4.950   4.556
 4108SOL    HW213224   6.753   5.106   4.569
 4109SOL     OW13225   5.641   6.922   4.602
 4109SOL    HW113226   5.731   6.878   4.596
 4109SOL    HW213227   5.574   6.867   4.552
 4110SOL     OW13228   3.673   2.859   6.335
 4110SOL    HW113229   3.757   2.806   6.350
 4110SOL    HW213230   3.696   2.948   6.296
 4111SOL     OW13231   5.987   4.991   6.368
 4111SOL    HW113232   5.931   5.064   6.328
 4111SOL    HW213233   6.081   5.023   6.379
 4112SOL     OW13234   4.672   6.623   4.414
 4112SOL    HW113235   4.652   6.626   4.512
 4112SOL    HW213236   4.587   6.615   4.363
 4113SOL     OW13237   4.742   5.843   5.051
 4113SOL    HW113238   4.831   5.888   5.052
 4113SOL    HW213239   4.754   5.745   5.032
 4114SOL     OW13240   0.002   1.603   3.289
 4114SOL    HW113241   0.033   1.548   3.211
 4114SOL    HW213242   6.984   1.687   3.256
 4115SOL     OW13243   2.785   5.196   3.536
 4115SOL    HW113244   2.835   5.196   3.623
 4115SOL    HW213245   2.688   5.179   3.553
 4116SOL     OW13246   4.398   1.904   3.432
 4116SOL    HW113247   4.446   1.950   3.507
 4116SOL    HW213248   4.346   1.827   3.468
 4117SOL     OW13249   1.133   2.535   3.444
 4117SOL    HW113250   1.044   2.536   3.489
 4117SOL    HW213251   1.187   2.614   3.474
 4118SOL     OW13252   5.397   6.745   6.561
 4118SOL    HW113253   5.383   6.843   6.552
 4118SOL    HW213254   5.472   6.727   6.624
 4119SOL     OW13255   3.252   1.417   3.735
 4119SOL    HW113256   3.245   1.364   3.820
 4119SOL    HW213257   3.193   1.376   3.666
 4120SOL     OW13258   3.444   1.317   5.892
 4120SOL    HW113259   3.344   1.323   5.893
 4120SOL    HW213260   3.476   1.279   5.979
 4121SOL     OW13261   5.987   0.347   3.365
 4121SOL    HW113262   5.972   0.441   3.396
 4121SOL    HW213263   6.021   0.347   3.271
 4122SOL     OW13264   1.957   6.594   4.278
 4122SOL    HW113265   1.890   6.661   4.246
 4122SOL    HW213266   1.927   6.502   4.255
 4123SOL     OW13267   4.113   4.808   4.649
 4123SOL    HW113268   4.203   4.771   4.672
 4123SOL    HW213269   4.093   4.887   4.708
 4124SOL     OW13270   6.756   6.842   1.086
 4124SOL    HW113271   6.732   6.934   1.055
 4124SOL    HW213272   6.854   6.829   1.079
 4125SOL     OW13273   4.424   1.869   2.628
 4125SOL    HW113274   4.395   1.781   2.664
 4125SOL    HW213275   4.345   1.917   2.589
 4126SOL     OW13276   2.106   3.585   2.992
 4126SOL    HW113277   2.136   3.490   3.001
 4126SOL    HW213278   2.006   3.587   2.982
 4127SOL     OW13279   5.527   3.307   5.327
 4127SOL    HW113280   5.476   3.371   5.270
 4127SOL    HW213281   5.558   3.230   5.271
 4128SOL     OW13282   0.600   3.460   1.460
 4128SOL    HW113283   0.585   3.386   1.525
 4128SOL    HW213284   0.613   3.422   1.369
 4129SOL     OW13285   3.167   1.284   0.205
 4129SOL    HW113286   3.106   1.252   0.132
 4129SOL    HW213287   3.133   1.371   0.240
 4130SOL     OW13288   6.261   2.110   0.282
 4130SOL    HW113289   6.306   2.181   0.227
 4130SOL    HW213290   6.170   2.142   0.309
 4131SOL     OW13291   0.338   1.396   2.901
 4131SOL    HW113292   0.258   1.409   2.842
 4131SOL    HW213293   0.324   1.315   2.959
 4132SOL     OW13294   5.147   3.809   4.322
 4132SOL    HW113295   5.172   3.712   4.323
 4132SOL    HW213296   5.049   3.819   4.337
 4133SOL     OW13297   4.359   5.623   1.804
 4133SOL    HW113298   4.381   5.526   1.805
 4133SOL    HW213299   4.289   5.641   1.736
 4134SOL     OW13300   2.328   4.060   1.028
 4134SOL    HW113301   2.333   3.961   1.044
 4134SOL    HW213302   2.242   4.095   1.067
 4135SOL     OW13303   0.544   2.591   1.740
 4135SOL    HW113304   0.445   2.606   1.730
 4135SOL    HW213305   0.568   2.591   1.837
 4136SOL     OW13306   1.506   3.679   2.882
 4136SOL    HW113307   1.481   3.591   2.842
 4136SOL    HW213308   1.447   3.699   2.960
 4137SOL     OW13309   1.994   3.759   0.492
 4137SOL    HW113310   1.926   3.735   0.423
 4137SOL    HW213311   1.948   3.809   0.566
 4138SOL     OW13312   3.303   5.128   2.570
 4138SOL    HW113313   3.251   5.070   2.633
 4138SOL    HW213314   3.358   5.070   2.510
 4139SOL     OW13315   1.880   1.732   4.431
 4139SOL    HW113316   1.812   1.681   4.484
 4139SOL    HW213317   1.835   1.807   4.383
 4140SOL     OW13318   3.298   1.420   4.472
 4140SOL    HW113319   3.302   1.321   4.482
 4140SOL    HW213320   3.359   1.463   4.540
 4141SOL     OW13321   5.728   6.975   0.877
 4141SOL    HW113322   5.643   6.930   0.906
 4141SOL    HW213323   5.806   6.920   0.905
 4142SOL     OW13324   6.332   3.757   1.340
 4142SOL    HW113325   6.232   3.759   1.336
 4142SOL    HW213326   6.368   3.847   1.313
 4143SOL     OW13327   5.781   2.937   0.176
 4143SOL    HW113328   5.745   2.998   0.246
 4143SOL    HW213329   5.706   2.904   0.118
 4144SOL     OW13330   4.808   1.627   0.270
 4144SOL    HW113331   4.908   1.628   0.268
 4144SOL    HW213332   4.777   1.586   0.355
 4145SOL     OW13333   1.160   6.061   0.392
 4145SOL    HW113334   1.230   5.990   0.378
 4145SOL    HW213335   1.199   6.150   0.371
 4146SOL     OW13336   6.612   0.681   3.362
 4146SOL    HW113337   6.578   0.721   3.447
 4146SOL    HW213338   6.539   0.685   3.293
 4147SOL     OW13339   4.245   4.665   6.028
 4147SOL    HW113340   4.334   4.635   5.996
 4147SOL    HW213341   4.241   4.765   6.024
 4148SOL     OW13342   2.864   0.484   5.111
 4148SOL    HW113343   2.931   0.455   5.043
 4148SOL    HW213344   2.903   0.558   5.167
 4149SOL     OW13345   0.249   3.895   1.162
 4149SOL    HW113346   0.311   3.941   1.099
 4149SOL    HW213347   0.154   3.912   1.135
 4150SOL     OW13348   0.072   1.209   5.463
 4150SOL    HW113349   0.013   1.152   5.521
 4150SOL    HW213350   0.019   1.246   5.387
 4151SOL     OW13351   3.006   5.972   6.007
 4151SOL    HW113352   3.070   5.987   6.083
 4151SOL    HW213353   2.986   5.875   6.000
 4152SOL     OW13354   4.066   5.595   0.844
 4152SOL    HW113355   4.072   5.570   0.940
 4152SOL    HW213356   4.150   5.570   0.797
 4153SOL     OW13357   6.038   5.231   1.531
 4153SOL    HW113358   6.108   5.181   1.583
 4153SOL    HW213359   5.963   5.170   1.508
 4154SOL     OW13360   0.047   5.886   4.279
 4154SOL    HW113361   6.982   5.910   4.239
 4154SOL    HW213362   0.062   5.940   4.362
 4155SOL     OW13363   0.275   0.923   0.760
 4155SOL    HW113364   0.344   0.893   0.826
 4155SOL    HW213365   0.311   1.000   0.707
 4156SOL     OW13366   5.781   5.678   5.398
 4156SOL    HW113367   5.744   5.694   5.490
 4156SOL    HW213368   5.733   5.735   5.332
 4157SOL     OW13369   5.184   6.323   3.414
 4157SOL    HW113370   5.176   6.230   3.378
 4157SOL    HW213371   5.279   6.352   3.410
 4158SOL     OW13372   0.489   3.000   2.023
 4158SOL    HW113373   0.554   3.069   2.056
 4158SOL    HW213374   0.407   3.045   1.988
 4159SOL     OW13375   1.797   2.657   3.239
 4159SOL    HW113376   1.719   2.697   3.190
 4159SOL    HW213377   1.880   2.668   3.183
 4160SOL     OW13378   5.728   6.998   6.798
 4160SOL    HW113379   5.696   6.997   6.893
 4160SOL    HW213380   5.828   7.000   6.797
 4161SOL     OW13381   1.537   2.418   1.181
 4161SOL    HW113382   1.534   2.382   1.088
 4161SOL    HW213383   1.444   2.434   1.214
 4162SOL     OW13384   5.903   5.740   0.708
 4162SOL    HW113385   5.952   5.690   0.636
 4162SOL    HW213386   5.967   5.802   0.755
 4163SOL     OW13387   5.416   0.808   3.231
 4163SOL    HW113388   5.326   0.849   3.219
 4163SOL    HW213389   5.431   0.787   3.327
 4164SOL     OW13390   1.182   0.400   4.546
 4164SOL    HW113391   1.235   0.349   4.479
 4164SOL    HW213392   1.123   0.337   4.597
 4165SOL     OW13393   4.582   0.805   5.319
 4165SOL    HW113394   4.509   0.804   5.251
 4165SOL    HW213395   4.657   0.746   5.289
 4166SOL     OW13396   5.084   1.064   1.014
 4166SOL    HW113397   5.008   1.064   0.949
 4166SOL    HW213398   5.162   1.114   0.975
 4167SOL     OW13399   3.404   4.545   6.818
 4167SOL    HW113400   3.355   4.467   6.778
 4167SOL    HW213401   3.408   4.619   6.751
 4168SOL     OW13402   0.432   4.024   0.568
 4168SOL    HW113403   0.503   4.030   0.498
 4168SOL    HW213404   0.447   4.096   0.637
 4169SOL     OW13405   5.988   4.706   4.415
 4169SOL    HW113406   6.047   4.714   4.334
 4169SOL    HW213407   6.015   4.625   4.468
 4170SOL     OW13408   5.196   3.071   5.632
 4170SOL    HW113409   5.292   3.093   5.613
 4170SOL    HW213410   5.161   3.134   5.701
 4171SOL     OW13411   6.496   5.295   0.641
 4171SOL    HW113412   6.463   5.213   0.594
 4171SOL    HW213413   6.436   5.316   0.719
 4172SOL     OW13414   2.118   2.030   0.304
 4172SOL    HW113415   2.129   2.021   0.403
 4172SOL    HW213416   2.169   2.110   0.272
 4173SOL     OW13417   5.272   3.983   4.616
 4173SOL    HW113418   5.186   3.934   4.629
 4173SOL    HW213419   5.260   4.079   4.641
 4174SOL     OW13420   4.363   1.643   2.382
 4174SOL    HW113421   4.404   1.721   2.335
 4174SOL    HW213422   4.318   1.583   2.315
 4175SOL     OW13423   1.841   4.672   4.222
 4175SOL    HW113424   1.927   4.684   4.272
 4175SOL    HW213425   1.796   4.588   4.252
 4176SOL     OW13426   4.166   6.543   1.552
 4176SOL    HW113427   4.118   6.457   1.534
 4176SOL    HW213428   4.263   6.531   1.529
 4177SOL     OW13429   5.912   4.974   5.626
 4177SOL    HW113430   5.853   5.041   5.672
 4177SOL    HW213431   5.894   4.977   5.528
 4178SOL     OW13432   4.265   0.225   4.030
 4178SOL    HW113433   4.256   0.126   4.027
 4178SOL    HW213434   4.251   0.257   4.124
 4179SOL     OW13435   5.454   3.402   3.235
 4179SOL    HW113436   5.474   3.472   3.167
 4179SOL    HW213437   5.540   3.371   3.276
 4180SOL     OW13438   4.940   2.931   0.855
 4180SOL    HW113439   4.968   2.880   0.774
 4180SOL    HW213440   4.879   3.006   0.829
 4181SOL     OW13441   3.900   1.023   6.706
 4181SOL    HW113442   3.860   1.088   6.640
 4181SOL    HW213443   3.971   0.969   6.661
 4182SOL     OW13444   0.204   5.932   3.519
 4182SOL    HW113445   0.143   5.865   3.562
 4182SOL    HW213446   0.177   6.024   3.549
 4183SOL     OW13447   2.200   1.812   0.094
 4183SOL    HW113448   2.107   1.849   0.099
 4183SOL    HW213449   2.245   1.845   0.011
 4184SOL     OW13450   2.772   6.881   2.444
 4184SOL    HW113451   2.802   6.922   2.357
 4184SOL    HW213452   2.850   6.874   2.506
 4185SOL     OW13453   0.393   4.447   2.753
 4185SOL    HW113454   0.295   4.448   2.734
 4185SOL    HW213455   0.444   4.428   2.669
 4186SOL     OW13456   2.721   4.960   6.475
 4186SOL    HW113457   2.633   4.931   6.513
 4186SOL    HW213458   2.725   4.939   6.377
 4187SOL     OW13459   2.996   3.139   5.586
 4187SOL    HW113460   3.093   3.130   5.564
 4187SOL    HW213461   2.944   3.068   5.537
 4188SOL     OW13462   5.147   0.866   5.148
 4188SOL    HW113463   5.078   0.919   5.196
 4188SOL    HW213464   5.176   0.915   5.066
 4189SOL     OW13465   2.805   5.248   4.408
 4189SOL    HW113466   2.762   5.222   4.494
 4189SOL    HW213467   2.797   5.173   4.342
 4190SOL     OW13468   0.532   0.126   1.264
 4190SOL    HW113469   0.483   0.084   1.189
 4190SOL    HW213470   0.629   0.137   1.239
 4191SOL     OW13471   4.949   4.586   4.113
 4191SOL    HW113472   4.893   4.505   4.131
 4191SOL    HW213473   4.991   4.577   4.022
 4192SOL     OW13474   0.717   1.752   2.916
 4192SOL    HW113475   0.669   1.666   2.900
 4192SOL    HW213476   0.748   1.789   2.828
 4193SOL     OW13477   6.532   0.412   0.626
 4193SOL    HW113478   6.452   0.430   0.569
 4193SOL    HW213479   6.507   0.428   0.722
 4194SOL     OW13480   4.558   0.442   5.005
 4194SOL    HW113481   4.618   0.362   4.995
 4194SOL    HW213482   4.501   0.451   4.923
 4195SOL     OW13483   3.742   5.782   1.394
 4195SOL    HW113484   3.826   5.808   1.441
 4195SOL    HW213485   3.665   5.787   1.458
 4196SOL     OW13486   6.194   2.747   2.738
 4196SOL    HW113487   6.282   2.755   2.783
 4196SOL    HW213488   6.194   2.803   2.655
 4197SOL     OW13489   4.874   5.890   5.950
 4197SOL    HW113490   4.860   5.821   5.880
 4197SOL    HW213491   4.855   5.851   6.040
 4198SOL     OW13492   6.480   2.060   0.720
 4198SOL    HW113493   6.383   2.082   0.731
 4198SOL    HW213494   6.492   1.961   0.727
 4199SOL     OW13495   1.343   2.381   6.314
 4199SOL    HW113496   1.269   2.439   6.280
 4199SOL    HW213497   1.428   2.433   6.317
 4200SOL     OW13498   2.672   0.095   6.214
 4200SOL    HW113499   2.697   0.088   6.311
 4200SOL    HW213500   2.756   0.105   6.159
 4201SOL     OW13501   5.895   6.674   3.673
 4201SOL    HW113502   5.870   6.675   3.576
 4201SOL    HW213503   5.970   6.739   3.689
 4202SOL     OW13504   3.363   5.790   6.016
 4202SOL    HW113505   3.341   5.805   6.112
 4202SOL    HW213506   3.370   5.692   5.997
 4203SOL     OW13507   4.184   4.071   0.028
 4203SOL    HW113508   4.134   4.079   6.966
 4203SOL    HW213509   4.131   4.112   0.102
 4204SOL     OW13510   4.064   3.622   3.888
 4204SOL    HW113511   4.025   3.552   3.828
 4204SOL    HW213512   4.051   3.712   3.846
 4205SOL     OW13513   4.325   6.260   4.086
 4205SOL    HW113514   4.360   6.169   4.064
 4205SOL    HW213515   4.393   6.310   4.140
 4206SOL     OW13516   6.315   0.705   5.323
 4206SOL    HW113517   6.399   0.748   5.354
 4206SOL    HW213518   6.239   0.769   5.334
 4207SOL     OW13519   1.645   2.113   1.768
 4207SOL    HW113520   1.740   2.130   1.793
 4207SOL    HW213521   1.639   2.028   1.716
 4208SOL     OW13522   0.228   3.413   5.153
 4208SOL    HW113523   0.218   3.399   5.055
 4208SOL    HW213524   0.211   3.510   5.174
 4209SOL     OW13525   6.829   0.244   3.657
 4209SOL    HW113526   6.918   0.200   3.642
 4209SOL    HW213527   6.805   0.298   3.576
 4210SOL     OW13528   4.134   3.687   2.154
 4210SOL    HW113529   4.223   3.662   2.116
 4210SOL    HW213530   4.077   3.728   2.082
 4211SOL     OW13531   3.922   0.200   6.341
 4211SOL    HW113532   3.842   0.139   6.341
 4211SOL    HW213533   3.991   0.163   6.279
 4212SOL     OW13534   6.543   2.081   2.733
 4212SOL    HW113535   6.481   2.086   2.654
 4212SOL    HW213536   6.566   1.986   2.751
 4213SOL     OW13537   2.020   0.305   2.137
 4213SOL    HW113538   2.035   0.403   2.131
 4213SOL    HW213539   2.094   0.263   2.190
 4214SOL     OW13540   0.971   5.906   5.166
 4214SOL    HW113541   0.945   5.816   5.202
 4214SOL    HW213542   1.048   5.941   5.218
 4215SOL     OW13543   4.806   0.151   6.206
 4215SOL    HW113544   4.722   0.104   6.233
 4215SOL    HW213545   4.859   0.092   6.144
 4216SOL     OW13546   1.077   1.190   2.901
 4216SOL    HW113547   1.090   1.233   2.811
 4216SOL    HW213548   1.161   1.143   2.927
 4217SOL     OW13549   1.057   0.884   2.799
 4217SOL    HW113550   1.035   0.974   2.837
 4217SOL    HW213551   0.981   0.852   2.743
 4218SOL     OW13552   4.163   1.194   1.932
 4218SOL    HW113553   4.203   1.161   2.017
 4218SOL    HW213554   4.186   1.290   1.919
 4219SOL     OW13555   3.788   5.917   3.926
 4219SOL    HW113556   3.779   5.912   4.025
 4219SOL    HW213557   3.698   5.905   3.883
 4220SOL     OW13558   6.622   3.412   3.450
 4220SOL    HW113559   6.525   3.425   3.430
 4220SOL    HW213560   6.669   3.382   3.367
 4221SOL     OW13561   6.171   5.427   6.146
 4221SOL    HW113562   6.163   5.519   6.108
 4221SOL    HW213563   6.226   5.370   6.084
 4222SOL     OW13564   0.403   1.724   2.239
 4222SOL    HW113565   0.393   1.796   2.170
 4222SOL    HW213566   0.357   1.752   2.324
 4223SOL     OW13567   3.596   3.262   0.269
 4223SOL    HW113568   3.639   3.350   0.250
 4223SOL    HW213569   3.635   3.222   0.352
 4224SOL     OW13570   5.271   4.548   3.991
 4224SOL    HW113571   5.347   4.584   4.045
 4224SOL    HW213572   5.281   4.449   3.981
 4225SOL     OW13573   2.931   2.348   5.693
 4225SOL    HW113574   2.933   2.281   5.619
 4225SOL    HW213575   2.875   2.427   5.667
 4226SOL     OW13576   0.991   7.015   3.250
 4226SOL    HW113577   0.933   6.945   3.292
 4226SOL    HW213578   0.952   0.018   3.162
 4227SOL     OW13579   3.866   5.177   1.393
 4227SOL    HW113580   3.774   5.175   1.354
 4227SOL    HW213581   3.892   5.085   1.420
 4228SOL     OW13582   1.072   5.428   5.264
 4228SOL    HW113583   1.121   5.446   5.179
 4228SOL    HW213584   1.054   5.514   5.311
 4229SOL     OW13585   5.238   6.540   6.033
 4229SOL    HW113586   5.233   6.640   6.033
 4229SOL    HW213587   5.203   6.504   6.119
 4230SOL     OW13588   0.614   5.622   2.274
 4230SOL    HW113589   0.711   5.614   2.252
 4230SOL    HW213590   0.599   5.705   2.329
 4231SOL     OW13591   5.998   6.873   5.714
 4231SOL    HW113592   6.001   6.795   5.777
 4231SOL    HW213593   5.980   6.840   5.621
 4232SOL     OW13594   6.957   4.640   3.114
 4232SOL    HW113595   6.900   4.642   3.195
 4232SOL    HW213596   6.901   4.620   3.033
 4233SOL     OW13597   6.678   6.919   5.822
 4233SOL    HW113598   6.740   6.990   5.855
 4233SOL    HW213599   6.634   6.875   5.900
 4234SOL     OW13600   2.629   6.310   5.025
 4234SOL    HW113601   2.612   6.270   4.935
 4234SOL    HW213602   2.669   6.401   5.014
 4235SOL     OW13603   5.691   4.219   5.666
 4235SOL    HW113604   5.742   4.305   5.655
 4235SOL    HW213605   5.746   4.155   5.720
 4236SOL     OW13606   6.343   3.270   2.245
 4236SOL    HW113607   6.380   3.359   2.268
 4236SOL    HW213608   6.283   3.278   2.164
 4237SOL     OW13609   5.551   5.757   3.545
 4237SOL    HW113610   5.520   5.664   3.525
 4237SOL    HW213611   5.646   5.755   3.575
 4238SOL     OW13612   2.424   6.249   2.558
 4238SOL    HW113613   2.351   6.192   2.521
 4238SOL    HW213614   2.462   6.306   2.486
 4239SOL     OW13615   5.478   1.596   2.496
 4239SOL    HW113616   5.538   1.517   2.487
 4239SOL    HW213617   5.382   1.567   2.489
 4240SOL     OW13618   2.500   5.819   0.247
 4240SOL    HW113619   2.526   5.824   0.344
 4240SOL    HW213620   2.423   5.756   0.237
 4241SOL     OW13621   6.367   1.254   0.251
 4241SOL    HW113622   6.290   1.317   0.268
 4241SOL    HW213623   6.333   1.174   0.202
 4242SOL     OW13624   3.049   1.411   4.076
 4242SOL    HW113625   2.989   1.431   3.999
 4242SOL    HW213626   3.144   1.411   4.045
 4243SOL     OW13627   6.112   3.074   2.853
 4243SOL    HW113628   6.044   3.042   2.919
 4243SOL    HW213629   6.129   3.172   2.868
 4244SOL     OW13630   4.501   4.309   1.608
 4244SOL    HW113631   4.499   4.295   1.707
 4244SOL    HW213632   4.412   4.288   1.568
 4245SOL     OW13633   6.778   1.501   6.655
 4245SOL    HW113634   6.827   1.463   6.577
 4245SOL    HW213635   6.841   1.512   6.732
 4246SOL     OW13636   0.116   4.051   3.576
 4246SOL    HW113637   0.161   3.963   3.560
 4246SOL    HW213638   0.042   4.063   3.509
 4247SOL     OW13639   2.890   5.787   3.738
 4247SOL    HW113640   2.969   5.742   3.780
 4247SOL    HW213641   2.815   5.722   3.730
 4248SOL     OW13642   3.441   1.546   3.059
 4248SOL    HW113643   3.466   1.639   3.035
 4248SOL    HW213644   3.425   1.493   2.976
 4249SOL     OW13645   5.964   2.246   3.750
 4249SOL    HW113646   5.872   2.212   3.734
 4249SOL    HW213647   6.001   2.286   3.666
 4250SOL     OW13648   6.567   4.204   2.807
 4250SOL    HW113649   6.481   4.157   2.788
 4250SOL    HW213650   6.550   4.295   2.842
 4251SOL     OW13651   5.194   4.679   1.581
 4251SOL    HW113652   5.237   4.658   1.494
 4251SOL    HW213653   5.262   4.677   1.654
 4252SOL     OW13654   5.613   6.298   6.111
 4252SOL    HW113655   5.534   6.238   6.119
 4252SOL    HW213656   5.603   6.358   6.033
 4253SOL     OW13657   3.720   6.714   1.011
 4253SOL    HW113658   3.653   6.784   0.985
 4253SOL    HW213659   3.694   6.626   0.970
 4254SOL     OW13660   0.605   2.993   1.761
 4254SOL    HW113661   0.583   3.079   1.716
 4254SOL    HW213662   0.679   3.008   1.827
 4255SOL     OW13663   6.992   4.376   3.675
 4255SOL    HW113664   0.015   4.465   3.679
 4255SOL    HW213665   0.026   4.307   3.718
 4256SOL     OW13666   2.280   6.585   0.184
 4256SOL    HW113667   2.284   6.499   0.234
 4256SOL    HW213668   2.242   6.656   0.244
 4257SOL     OW13669   2.886   0.596   4.666
 4257SOL    HW113670   2.895   0.664   4.594
 4257SOL    HW213671   2.940   0.515   4.642
 4258SOL     OW13672   4.822   6.476   1.090
 4258SOL    HW113673   4.887   6.441   1.158
 4258SOL    HW213674   4.737   6.501   1.135
 4259SOL     OW13675   2.629   0.548   0.913
 4259SOL    HW113676   2.608   0.512   0.822
 4259SOL    HW213677   2.647   0.646   0.906
 4260SOL     OW13678   5.447   0.173   1.154
 4260SOL    HW113679   5.526   0.175   1.215
 4260SOL    HW213680   5.454   0.093   1.094
 4261SOL     OW13681   2.008   6.853   2.195
 4261SOL    HW113682   2.033   6.774   2.251
 4261SOL    HW213683   2.090   6.889   2.150
 4262SOL     OW13684   0.999   5.090   5.733
 4262SOL    HW113685   0.956   5.053   5.651
 4262SOL    HW213686   0.968   5.039   5.814
 4263SOL     OW13687   2.918   6.446   3.137
 4263SOL    HW113688   2.881   6.382   3.069
 4263SOL    HW213689   2.913   6.539   3.101
 4264SOL     OW13690   0.212   2.547   2.626
 4264SOL    HW113691   0.288   2.613   2.629
 4264SOL    HW213692   0.128   2.592   2.656
 4265SOL     OW13693   5.177   1.593   0.946
 4265SOL    HW113694   5.120   1.674   0.935
 4265SOL    HW213695   5.122   1.517   0.980
 4266SOL     OW13696   1.887   5.438   0.307
 4266SOL    HW113697   1.898   5.534   0.280
 4266SOL    HW213698   1.899   5.430   0.406
 4267SOL     OW13699   1.782   3.070   4.617
 4267SOL    HW113700   1.745   3.099   4.529
 4267SOL    HW213701   1.827   2.981   4.607
 4268SOL     OW13702   1.250   5.805   6.478
 4268SOL    HW113703   1.348   5.785   6.485
 4268SOL    HW213704   1.238   5.901   6.453
 4269SOL     OW13705   2.634   0.672   1.492
 4269SOL    HW113706   2.586   0.657   1.579
 4269SOL    HW213707   2.581   0.629   1.418
 4270SOL     OW13708   4.142   3.514   3.522
 4270SOL    HW113709   4.190   3.600   3.540
 4270SOL    HW213710   4.125   3.467   3.609
 4271SOL     OW13711   6.612   1.170   6.855
 4271SOL    HW113712   6.584   1.076   6.838
 4271SOL    HW213713   6.673   1.173   6.934
 4272SOL     OW13714   6.657   2.743   3.910
 4272SOL    HW113715   6.716   2.667   3.934
 4272SOL    HW213716   6.713   2.824   3.890
 4273SOL     OW13717   4.582   0.029   4.796
 4273SOL    HW113718   4.516   6.984   4.765
 4273SOL    HW213719   4.584   0.105   4.732
 4274SOL     OW13720   0.992   6.243   1.754
 4274SOL    HW113721   0.942   6.289   1.828
 4274SOL    HW213722   0.979   6.145   1.760
 4275SOL     OW13723   6.367   1.414   4.175
 4275SOL    HW113724   6.363   1.365   4.088
 4275SOL    HW213725   6.341   1.352   4.249
 4276SOL     OW13726   1.919   4.984   3.289
 4276SOL    HW113727   1.822   4.961   3.298
 4276SOL    HW213728   1.934   5.079   3.315
 4277SOL     OW13729   6.306   4.521   3.858
 4277SOL    HW113730   6.366   4.485   3.786
 4277SOL    HW213731   6.211   4.518   3.826
 4278SOL     OW13732   7.002   0.381   4.428
 4278SOL    HW113733   0.003   0.285   4.426
 4278SOL    HW213734   6.962   0.407   4.340
 4279SOL     OW13735   3.486   0.331   4.311
 4279SOL    HW113736   3.397   0.288   4.329
 4279SOL    HW213737   3.555   0.293   4.372
 4280SOL     OW13738   4.503   0.374   5.894
 4280SOL    HW113739   4.588   0.426   5.907
 4280SOL    HW213740   4.439   0.395   5.967
 4281SOL     OW13741   0.353   4.540   3.578
 4281SOL    HW113742   0.321   4.447   3.557
 4281SOL    HW213743   0.441   4.555   3.532
 4282SOL     OW13744   3.073   4.290   5.802
 4282SOL    HW113745   3.018   4.373   5.802
 4282SOL    HW213746   3.036   4.225   5.735
 4283SOL     OW13747   1.013   0.636   3.464
 4283SOL    HW113748   0.939   0.703   3.455
 4283SOL    HW213749   1.087   0.676   3.519
 4284SOL     OW13750   3.936   4.891   1.484
 4284SOL    HW113751   3.883   4.854   1.560
 4284SOL    HW213752   4.019   4.836   1.471
 4285SOL     OW13753   1.088   0.668   6.182
 4285SOL    HW113754   1.129   0.577   6.174
 4285SOL    HW213755   1.001   0.669   6.133
 4286SOL     OW13756   4.940   6.424   6.294
 4286SOL    HW113757   4.885   6.419   6.377
 4286SOL    HW213758   5.036   6.438   6.319
 4287SOL     OW13759   6.328   2.253   6.220
 4287SOL    HW113760   6.309   2.338   6.268
 4287SOL    HW213761   6.268   2.180   6.254
 4288SOL     OW13762   0.211   6.073   4.105
 4288SOL    HW113763   0.159   5.997   4.142
 4288SOL    HW213764   0.302   6.076   4.147
 4289SOL     OW13765   6.643   2.900   6.885
 4289SOL    HW113766   6.671   2.860   6.798
 4289SOL    HW213767   6.723   2.931   6.936
 4290SOL     OW13768   1.465   6.645   2.827
 4290SOL    HW113769   1.377   6.688   2.850
 4290SOL    HW213770   1.450   6.548   2.806
 4291SOL     OW13771   4.633   3.251   1.329
 4291SOL    HW113772   4.560   3.318   1.313
 4291SOL    HW213773   4.681   3.233   1.244
 4292SOL     OW13774   5.973   3.736   0.096
 4292SOL    HW113775   6.057   3.772   0.138
 4292SOL    HW213776   5.950   3.648   0.138
 4293SOL     OW13777   2.410   3.158   0.550
 4293SOL    HW113778   2.426   3.074   0.497
 4293SOL    HW213779   2.484   3.223   0.532
 4294SOL     OW13780   2.265   3.133   6.823
 4294SOL    HW113781   2.181   3.181   6.848
 4294SOL    HW213782   2.342   3.175   6.869
 4295SOL     OW13783   4.141   5.513   4.495
 4295SOL    HW113784   4.087   5.554   4.421
 4295SOL    HW213785   4.229   5.560   4.502
 4296SOL     OW13786   3.432   0.009   0.231
 4296SOL    HW113787   3.454   0.105   0.215
 4296SOL    HW213788   3.517   6.980   0.238
 4297SOL     OW13789   4.795   0.901   6.992
 4297SOL    HW113790   4.705   0.912   6.950
 4297SOL    HW213791   4.852   0.843   6.933
 4298SOL     OW13792   3.668   5.384   0.588
 4298SOL    HW113793   3.711   5.448   0.651
 4298SOL    HW213794   3.735   5.350   0.523
 4299SOL     OW13795   0.927   2.865   6.251
 4299SOL    HW113796   0.986   2.820   6.184
 4299SOL    HW213797   0.945   2.963   6.251
 4300SOL     OW13798   3.917   0.535   6.838
 4300SOL    HW113799   3.907   0.631   6.811
 4300SOL    HW213800   3.904   0.476   6.758
 4301SOL     OW13801   4.332   1.061   1.493
 4301SOL    HW113802   4.376   1.150   1.476
 4301SOL    HW213803   4.245   1.075   1.541
 4302SOL     OW13804   1.549   6.606   6.328
 4302SOL    HW113805   1.635   6.564   6.297
 4302SOL    HW213806   1.563   6.704   6.339
 4303SOL     OW13807   0.272   4.782   4.046
 4303SOL    HW113808   0.252   4.749   4.138
 4303SOL    HW213809   0.361   4.749   4.017
 4304SOL     OW13810   3.021   3.869   3.320
 4304SOL    HW113811   3.062   3.956   3.294
 4304SOL    HW213812   2.980   3.826   3.240
 4305SOL     OW13813   6.652   0.288   5.066
 4305SOL    HW113814   6.741   0.267   5.026
 4305SOL    HW213815   6.580   0.241   5.015
 4306SOL     OW13816   5.695   4.277   6.084
 4306SOL    HW113817   5.621   4.272   6.151
 4306SOL    HW213818   5.748   4.192   6.086
 4307SOL     OW13819   4.153   4.284   5.868
 4307SOL    HW113820   4.242   4.251   5.899
 4307SOL    HW213821   4.084   4.214   5.882
 4308SOL     OW13822   6.413   5.138   0.041
 4308SOL    HW113823   6.457   5.186   6.989
 4308SOL    HW213824   6.379   5.050   0.010
 4309SOL     OW13825   1.178   1.347   0.442
 4309SOL    HW113826   1.193   1.441   0.473
 4309SOL    HW213827   1.086   1.338   0.406
 4310SOL     OW13828   1.378   2.751   2.507
 4310SOL    HW113829   1.474   2.748   2.534
 4310SOL    HW213830   1.343   2.844   2.517
 4311SOL     OW13831   1.992   6.073   2.711
 4311SOL    HW113832   1.903   6.072   2.666
 4311SOL    HW213833   1.982   6.109   2.804
 4312SOL     OW13834   1.530   4.995   1.277
 4312SOL    HW113835   1.515   5.094   1.283
 4312SOL    HW213836   1.578   4.973   1.193
 4313SOL     OW13837   5.114   1.790   2.147
 4313SOL    HW113838   5.039   1.853   2.127
 4313SOL    HW213839   5.184   1.798   2.075
 4314SOL     OW13840   6.101   1.111   4.475
 4314SOL    HW113841   6.189   1.086   4.515
 4314SOL    HW213842   6.041   1.147   4.546
 4315SOL     OW13843   2.156   6.873   1.857
 4315SOL    HW113844   2.221   6.809   1.899
 4315SOL    HW213845   2.185   6.893   1.763
 4316SOL     OW13846   5.253   0.225   1.873
 4316SOL    HW113847   5.184   0.197   1.806
 4316SOL    HW213848   5.335   0.168   1.862
 4317SOL     OW13849   4.949   1.884   4.426
 4317SOL    HW113850   4.914   1.821   4.495
 4317SOL    HW213851   5.045   1.905   4.445
 4318SOL     OW13852   0.797   3.422   5.382
 4318SOL    HW113853   0.746   3.495   5.427
 4318SOL    HW213854   0.833   3.359   5.452
 4319SOL     OW13855   2.272   2.692   1.101
 4319SOL    HW113856   2.179   2.725   1.118
 4319SOL    HW213857   2.317   2.752   1.035
 4320SOL     OW13858   6.103   5.303   1.272
 4320SOL    HW113859   6.075   5.248   1.351
 4320SOL    HW213860   6.101   5.246   1.190
 4321SOL     OW13861   7.010   6.538   5.439
 4321SOL    HW113862   0.043   6.488   5.374
 4321SOL    HW213863   0.032   6.542   5.528
 4322SOL     OW13864   6.628   2.794   6.420
 4322SOL    HW113865   6.656   2.859   6.350
 4322SOL    HW213866   6.678   2.811   6.505
 4323SOL     OW13867   4.274   3.871   0.955
 4323SOL    HW113868   4.238   3.784   0.987
 4323SOL    HW213869   4.361   3.856   0.908
 4324SOL     OW13870   5.509   4.586   0.317
 4324SOL    HW113871   5.585   4.531   0.284
 4324SOL    HW213872   5.477   4.646   0.244
 4325SOL     OW13873   2.286   1.368   1.342
 4325SOL    HW113874   2.385   1.381   1.332
 4325SOL    HW213875   2.269   1.287   1.399
 4326SOL     OW13876   4.907   4.897   4.701
 4326SOL    HW113877   4.816   4.856   4.708
 4326SOL    HW213878   4.943   4.882   4.609
 4327SOL     OW13879   5.775   6.439   1.770
 4327SOL    HW113880   5.740   6.519   1.721
 4327SOL    HW213881   5.860   6.462   1.817
 4328SOL     OW13882   4.719   3.849   5.334
 4328SOL    HW113883   4.777   3.798   5.397
 4328SOL    HW213884   4.722   3.806   5.244
 4329SOL     OW13885   4.535   1.799   5.813
 4329SOL    HW113886   4.569   1.752   5.895
 4329SOL    HW213887   4.448   1.843   5.835
 4330SOL     OW13888   2.750   0.008   5.023
 4330SOL    HW113889   2.655   0.010   4.994
 4330SOL    HW213890   2.756   0.017   5.122
 4331SOL     OW13891   5.027   2.135   1.448
 4331SOL    HW113892   5.043   2.206   1.517
 4331SOL    HW213893   4.978   2.059   1.490
 4332SOL     OW13894   5.143   3.964   2.514
 4332SOL    HW113895   5.093   3.899   2.572
 4332SOL    HW213896   5.120   3.947   2.419
 4333SOL     OW13897   3.789   0.481   4.971
 4333SOL    HW113898   3.831   0.396   5.003
 4333SOL    HW213899   3.803   0.490   4.873
 4334SOL     OW13900   1.664   2.792   2.595
 4334SOL    HW113901   1.710   2.710   2.559
 4334SOL    HW213902   1.732   2.863   2.612
 4335SOL     OW13903   3.434   3.643   2.477
 4335SOL    HW113904   3.410   3.591   2.559
 4335SOL    HW213905   3.531   3.668   2.481
 4336SOL     OW13906   2.399   6.339   6.971
 4336SOL    HW113907   2.426   6.326   6.875
 4336SOL    HW213908   2.318   6.284   6.990
 4337SOL     OW13909   0.212   4.285   0.721
 4337SOL    HW113910   0.250   4.371   0.688
 4337SOL    HW213911   0.197   4.290   0.820
 4338SOL     OW13912   5.631   5.793   5.187
 4338SOL    HW113913   5.619   5.860   5.260
 4338SOL    HW213914   5.698   5.828   5.121
 4339SOL     OW13915   5.498   3.743   5.005
 4339SOL    HW113916   5.407   3.782   4.989
 4339SOL    HW213917   5.538   3.716   4.918
 4340SOL     OW13918   6.643   3.318   0.914
 4340SOL    HW113919   6.571   3.362   0.968
 4340SOL    HW213920   6.721   3.298   0.973
 4341SOL     OW13921   0.440   5.702   1.694
 4341SOL    HW113922   0.400   5.787   1.729
 4341SOL    HW213923   0.540   5.711   1.691
 4342SOL     OW13924   6.096   4.139   4.251
 4342SOL    HW113925   6.022   4.123   4.316
 4342SOL    HW213926   6.095   4.235   4.222
 4343SOL     OW13927   2.499   5.651   4.791
 4343SOL    HW113928   2.461   5.735   4.831
 4343SOL    HW213929   2.592   5.637   4.825
 4344SOL     OW13930   0.754   4.464   2.181
 4344SOL    HW113931   0.842   4.468   2.230
 4344SOL    HW213932   0.738   4.370   2.149
 4345SOL     OW13933   2.919   3.743   5.317
 4345SOL    HW113934   2.905   3.648   5.287
 4345SOL    HW213935   3.016   3.764   5.315
 4346SOL     OW13936   1.465   3.145   2.238
 4346SOL    HW113937   1.528   3.070   2.261
 4346SOL    HW213938   1.413   3.171   2.319
 4347SOL     OW13939   6.910   6.746   3.147
 4347SOL    HW113940   6.935   6.831   3.193
 4347SOL    HW213941   6.980   6.676   3.163
 4348SOL     OW13942   6.755   4.588   2.909
 4348SOL    HW113943   6.713   4.631   2.828
 4348SOL    HW213944   6.683   4.555   2.969
 4349SOL     OW13945   0.097   1.678   2.644
 4349SOL    HW113946   0.029   1.748   2.622
 4349SOL    HW213947   0.137   1.697   2.733
 4350SOL     OW13948   4.528   1.565   3.973
 4350SOL    HW113949   4.542   1.663   3.960
 4350SOL    HW213950   4.617   1.520   3.987
 4351SOL     OW13951   1.778   5.091   0.743
 4351SOL    HW113952   1.690   5.080   0.789
 4351SOL    HW213953   1.773   5.054   0.650
 4352SOL     OW13954   7.010   3.385   2.277
 4352SOL    HW113955   6.945   3.323   2.233
 4352SOL    HW213956   0.071   3.336   2.298
 4353SOL     OW13957   3.849   3.228   6.480
 4353SOL    HW113958   3.842   3.299   6.549
 4353SOL    HW213959   3.770   3.167   6.485
 4354SOL     OW13960   2.385   6.224   5.302
 4354SOL    HW113961   2.463   6.287   5.295
 4354SOL    HW213962   2.306   6.273   5.339
 4355SOL     OW13963   2.115   0.349   2.501
 4355SOL    HW113964   2.154   0.440   2.514
 4355SOL    HW213965   2.160   0.304   2.424
 4356SOL     OW13966   5.087   3.958   0.986
 4356SOL    HW113967   5.156   3.977   0.916
 4356SOL    HW213968   5.070   4.042   1.038
 4357SOL     OW13969   6.842   1.029   1.104
 4357SOL    HW113970   6.846   1.065   1.198
 4357SOL    HW213971   6.925   0.977   1.085
 4358SOL     OW13972   0.636   6.683   0.389
 4358SOL    HW113973   0.675   6.741   0.317
 4358SOL    HW213974   0.568   6.736   0.441
 4359SOL     OW13975   2.102   1.791   6.766
 4359SOL    HW113976   2.085   1.826   6.674
 4359SOL    HW213977   2.121   1.868   6.827
 4360SOL     OW13978   1.666   2.249   3.573
 4360SOL    HW113979   1.572   2.266   3.603
 4360SOL    HW213980   1.696   2.322   3.513
 4361SOL     OW13981   2.318   3.371   1.471
 4361SOL    HW113982   2.223   3.401   1.484
 4361SOL    HW213983   2.351   3.329   1.555
 4362SOL     OW13984   6.208   5.670   3.020
 4362SOL    HW113985   6.156   5.681   2.934
 4362SOL    HW213986   6.226   5.760   3.060
 4363SOL     OW13987   5.165   2.741   0.622
 4363SOL    HW113988   5.221   2.748   0.705
 4363SOL    HW213989   5.152   2.832   0.583
 4364SOL     OW13990   2.980   3.306   4.622
 4364SOL    HW113991   3.006   3.296   4.718
 4364SOL    HW213992   2.961   3.216   4.583
 4365SOL     OW13993   2.168   1.395   1.987
 4365SOL    HW113994   2.126   1.485   1.989
 4365SOL    HW213995   2.173   1.358   2.080
 4366SOL     OW13996   5.999   0.055   7.002
 4366SOL    HW113997   5.994   0.155   7.000
 4366SOL    HW213998   5.994   0.024   0.073
 4367SOL     OW13999   1.838   4.376   4.152
 4367SOL    HW114000   1.864   4.413   4.062
 4367SOL    HW214001   1.869   4.281   4.159
 4368SOL     OW14002   3.636   4.147   0.682
 4368SOL    HW114003   3.660   4.098   0.766
 4368SOL    HW214004   3.654   4.245   0.694
 4369SOL     OW14005   4.290   5.415   2.802
 4369SOL    HW114006   4.274   5.381   2.709
 4369SOL    HW214007   4.388   5.414   2.821
 4370SOL     OW14008   4.138   5.349   2.249
 4370SOL    HW114009   4.160   5.251   2.246
 4370SOL    HW214010   4.098   5.371   2.338
 4371SOL     OW14011   1.205   2.195   1.837
 4371SOL    HW114012   1.297   2.212   1.802
 4371SOL    HW214013   1.139   2.207   1.763
 4372SOL     OW14014   3.623   1.341   2.575
 4372SOL    HW114015   3.550   1.311   2.637
 4372SOL    HW214016   3.619   1.441   2.565
 4373SOL     OW14017   6.578   2.129   6.300
 4373SOL    HW114018   6.503   2.184   6.262
 4373SOL    HW214019   6.645   2.190   6.342
 4374SOL     OW14020   1.612   2.308   1.427
 4374SOL    HW114021   1.609   2.379   1.498
 4374SOL    HW214022   1.558   2.337   1.348
 4375SOL     OW14023   4.554   6.971   3.220
 4375SOL    HW114024   4.627   7.021   3.173
 4375SOL    HW214025   4.466   7.015   3.201
 4376SOL     OW14026   0.039   6.710   1.346
 4376SOL    HW114027   0.074   6.803   1.332
 4376SOL    HW214028   0.033   6.663   1.258
 4377SOL     OW14029   5.123   4.561   0.449
 4377SOL    HW114030   5.120   4.520   0.358
 4377SOL    HW214031   5.207   4.615   0.458
 4378SOL     OW14032   2.178   2.485   3.006
 4378SOL    HW114033   2.080   2.487   2.984
 4378SOL    HW214034   2.212   2.578   3.013
 4379SOL     OW14035   1.754   1.485   3.119
 4379SOL    HW114036   1.727   1.449   3.030
 4379SOL    HW214037   1.685   1.462   3.188
 4380SOL     OW14038   0.622   6.828   2.614
 4380SOL    HW114039   0.675   6.748   2.585
 4380SOL    HW214040   0.599   6.882   2.533
 4381SOL     OW14041   1.310   5.691   5.486
 4381SOL    HW114042   1.331   5.694   5.583
 4381SOL    HW214043   1.212   5.677   5.473
 4382SOL     OW14044   6.550   3.008   5.358
 4382SOL    HW114045   6.628   3.070   5.348
 4382SOL    HW214046   6.577   2.927   5.410
 4383SOL     OW14047   0.458   3.255   6.031
 4383SOL    HW114048   0.453   3.234   5.934
 4383SOL    HW214049   0.533   3.204   6.073
 4384SOL     OW14050   5.527   0.992   4.592
 4384SOL    HW114051   5.585   0.911   4.598
 4384SOL    HW214052   5.580   1.069   4.556
 4385SOL     OW14053   5.940   2.685   4.706
 4385SOL    HW114054   5.887   2.682   4.621
 4385SOL    HW214055   5.978   2.595   4.724
 4386SOL     OW14056   1.783   3.633   5.887
 4386SOL    HW114057   1.786   3.537   5.857
 4386SOL    HW214058   1.866   3.680   5.858
 4387SOL     OW14059   0.063   1.624   0.808
 4387SOL    HW114060   0.118   1.707   0.804
 4387SOL    HW214061   0.077   1.579   0.896
 4388SOL     OW14062   4.745   2.537   6.322
 4388SOL    HW114063   4.818   2.604   6.337
 4388SOL    HW214064   4.657   2.579   6.344
 4389SOL     OW14065   6.537   3.096   0.566
 4389SOL    HW114066   6.450   3.133   0.535
 4389SOL    HW214067   6.542   3.100   0.666
 4390SOL     OW14068   3.739   0.109   1.584
 4390SOL    HW114069   3.811   0.042   1.565
 4390SOL    HW214070   3.655   0.062   1.611
 4391SOL     OW14071   2.788   5.404   6.760
 4391SOL    HW114072   2.840   5.461   6.824
 4391SOL    HW214073   2.750   5.462   6.687
 4392SOL     OW14074   6.727   3.551   4.757
 4392SOL    HW114075   6.688   3.631   4.802
 4392SOL    HW214076   6.683   3.537   4.668
 4393SOL     OW14077   5.849   0.815   3.028
 4393SOL    HW114078   5.817   0.727   3.062
 4393SOL    HW214079   5.912   0.800   2.953
 4394SOL     OW14080   6.739   5.274   2.224
 4394SOL    HW114081   6.767   5.194   2.277
 4394SOL    HW214082   6.811   5.343   2.228
 4395SOL     OW14083   1.515   6.747   2.574
 4395SOL    HW114084   1.613   6.732   2.562
 4395SOL    HW214085   1.486   6.708   2.662
 4396SOL     OW14086   2.939   2.011   3.985
 4396SOL    HW114087   2.957   1.913   3.999
 4396SOL    HW214088   2.948   2.032   3.888
 4397SOL     OW14089   1.279   1.926   4.391
 4397SOL    HW114090   1.208   1.951   4.457
 4397SOL    HW214091   1.361   1.980   4.408
 4398SOL     OW14092   0.626   3.546   6.123
 4398SOL    HW114093   0.562   3.543   6.200
 4398SOL    HW214094   0.631   3.456   6.080
 4399SOL     OW14095   2.453   0.250   2.610
 4399SOL    HW114096   2.486   0.157   2.596
 4399SOL    HW214097   2.361   0.247   2.650
 4400SOL     OW14098   3.393   6.548   5.326
 4400SOL    HW114099   3.458   6.547   5.249
 4400SOL    HW214100   3.354   6.640   5.334
 4401SOL     OW14101   3.030   6.961   5.931
 4401SOL    HW114102   3.125   6.990   5.916
 4401SOL    HW214103   3.005   6.893   5.862
 4402SOL     OW14104   1.936   1.006   2.060
 4402SOL    HW114105   2.013   0.961   2.106
 4402SOL    HW214106   1.963   1.033   1.968
 4403SOL     OW14107   0.879   0.606   0.882
 4403SOL    HW114108   0.848   0.512   0.900
 4403SOL    HW214109   0.893   0.653   0.969
 4404SOL     OW14110   1.546   5.450   5.685
 4404SOL    HW114111   1.496   5.531   5.714
 4404SOL    HW214112   1.501   5.410   5.605
 4405SOL     OW14113   1.677   4.362   1.729
 4405SOL    HW114114   1.650   4.278   1.683
 4405SOL    HW214115   1.727   4.420   1.665
 4406SOL     OW14116   0.496   3.065   1.034
 4406SOL    HW114117   0.563   3.022   0.974
 4406SOL    HW214118   0.500   3.023   1.125
 4407SOL     OW14119   6.320   5.378   0.849
 4407SOL    HW114120   6.258   5.455   0.865
 4407SOL    HW214121   6.383   5.370   0.926
 4408SOL     OW14122   2.813   0.637   1.190
 4408SOL    HW114123   2.877   0.680   1.126
 4408SOL    HW214124   2.830   0.539   1.193
 4409SOL     OW14125   4.599   1.434   2.198
 4409SOL    HW114126   4.564   1.499   2.130
 4409SOL    HW214127   4.613   1.482   2.285
 4410SOL     OW14128   1.377   4.939   7.003
 4410SOL    HW114129   1.443   5.014   6.998
 4410SOL    HW214130   1.394   4.875   6.928
 4411SOL     OW14131   3.617   3.838   5.127
 4411SOL    HW114132   3.536   3.896   5.134
 4411SOL    HW214133   3.650   3.838   5.032
 4412SOL     OW14134   4.845   6.066   3.991
 4412SOL    HW114135   4.936   6.030   4.011
 4412SOL    HW214136   4.791   6.069   4.076
 4413SOL     OW14137   5.615   5.145   4.714
 4413SOL    HW114138   5.577   5.166   4.624
 4413SOL    HW214139   5.689   5.079   4.704
 4414SOL     OW14140   3.597   5.180   1.336
 4414SOL    HW114141   3.586   5.139   1.246
 4414SOL    HW214142   3.515   5.164   1.390
 4415SOL     OW14143   5.225   2.908   0.894
 4415SOL    HW114144   5.136   2.947   0.872
 4415SOL    HW214145   5.294   2.945   0.832
 4416SOL     OW14146   3.701   1.474   4.487
 4416SOL    HW114147   3.725   1.570   4.472
 4416SOL    HW214148   3.702   1.425   4.400
 4417SOL     OW14149   5.568   4.385   3.652
 4417SOL    HW114150   5.592   4.289   3.667
 4417SOL    HW214151   5.518   4.394   3.565
 4418SOL     OW14152   6.078   1.929   2.365
 4418SOL    HW114153   5.986   1.922   2.404
 4418SOL    HW214154   6.128   1.844   2.382
 4419SOL     OW14155   5.767   6.815   5.980
 4419SOL    HW114156   5.714   6.860   5.909
 4419SOL    HW214157   5.826   6.745   5.938
 4420SOL     OW14158   4.739   0.915   1.735
 4420SOL    HW114159   4.749   1.015   1.733
 4420SOL    HW214160   4.646   0.890   1.707
 4421SOL     OW14161   2.173   1.391   5.199
 4421SOL    HW114162   2.228   1.353   5.125
 4421SOL    HW214163   2.170   1.491   5.190
 4422SOL     OW14164   1.986   4.089   6.893
 4422SOL    HW114165   1.931   4.061   6.814
 4422SOL    HW214166   1.938   4.162   6.942
 4423SOL     OW14167   6.921   3.533   5.257
 4423SOL    HW114168   6.831   3.491   5.257
 4423SOL    HW214169   6.953   3.544   5.352
 4424SOL     OW14170   5.596   1.194   4.201
 4424SOL    HW114171   5.546   1.131   4.141
 4424SOL    HW214172   5.679   1.150   4.233
 4425SOL     OW14173   2.774   4.467   6.934
 4425SOL    HW114174   2.855   4.514   6.898
 4425SOL    HW214175   2.718   4.531   6.986
 4426SOL     OW14176   0.576   1.293   4.144
 4426SOL    HW114177   0.669   1.260   4.163
 4426SOL    HW214178   0.512   1.250   4.207
 4427SOL     OW14179   0.271   6.140   2.290
 4427SOL    HW114180   0.230   6.076   2.356
 4427SOL    HW214181   0.305   6.089   2.211
 4428SOL     OW14182   3.215   0.854   3.705
 4428SOL    HW114183   3.264   0.915   3.641
 4428SOL    HW214184   3.142   0.905   3.750
 4429SOL     OW14185   2.566   0.013   2.592
 4429SOL    HW114186   2.524   6.967   2.651
 4429SOL    HW214187   2.644   6.998   2.545
 4430SOL     OW14188   4.734   4.227   4.928
 4430SOL    HW114189   4.688   4.271   5.005
 4430SOL    HW214190   4.777   4.142   4.960
 4431SOL     OW14191   2.716   1.230   2.497
 4431SOL    HW114192   2.797   1.256   2.444
 4431SOL    HW214193   2.744   1.177   2.577
 4432SOL     OW14194   2.489   3.548   6.139
 4432SOL    HW114195   2.507   3.642   6.112
 4432SOL    HW214196   2.457   3.496   6.060
 4433SOL     OW14197   5.582   1.847   4.458
 4433SOL    HW114198   5.655   1.865   4.393
 4433SOL    HW214199   5.524   1.929   4.467
 4434SOL     OW14200   5.389   1.152   2.942
 4434SOL    HW114201   5.327   1.133   3.018
 4434SOL    HW214202   5.370   1.244   2.906
 4435SOL     OW14203   5.115   3.405   1.085
 4435SOL    HW114204   5.185   3.422   1.155
 4435SOL    HW214205   5.038   3.467   1.099
 4436SOL     OW14206   4.459   0.629   1.506
 4436SOL    HW114207   4.450   0.532   1.482
 4436SOL    HW214208   4.385   0.681   1.464
 4437SOL     OW14209   0.390   2.858   2.968
 4437SOL    HW114210   0.458   2.905   2.912
 4437SOL    HW214211   0.338   2.925   3.021
 4438SOL     OW14212   5.038   6.898   6.418
 4438SOL    HW114213   5.083   6.942   6.341
 4438SOL    HW214214   5.039   6.960   6.497
 4439SOL     OW14215   0.446   4.077   1.523
 4439SOL    HW114216   0.479   4.067   1.617
 4439SOL    HW214217   0.347   4.060   1.521
 4440SOL     OW14218   2.973   4.800   0.281
 4440SOL    HW114219   3.036   4.823   0.207
 4440SOL    HW214220   2.965   4.700   0.288
 4441SOL     OW14221   0.794   1.888   2.017
 4441SOL    HW114222   0.719   1.904   2.082
 4441SOL    HW214223   0.874   1.942   2.046
 4442SOL     OW14224   1.939   5.399   4.345
 4442SOL    HW114225   1.913   5.496   4.346
 4442SOL    HW214226   1.869   5.345   4.391
 4443SOL     OW14227   1.459   3.554   6.215
 4443SOL    HW114228   1.500   3.481   6.161
 4443SOL    HW214229   1.360   3.540   6.220
 4444SOL     OW14230   3.559   4.092   5.329
 4444SOL    HW114231   3.542   4.100   5.231
 4444SOL    HW214232   3.531   4.002   5.361
 4445SOL     OW14233   1.477   6.251   6.967
 4445SOL    HW114234   1.547   6.180   6.971
 4445SOL    HW214235   1.491   6.306   6.885
 4446SOL     OW14236   5.374   1.050   1.276
 4446SOL    HW114237   5.406   0.973   1.220
 4446SOL    HW214238   5.358   1.129   1.218
 4447SOL     OW14239   4.846   4.689   5.994
 4447SOL    HW114240   4.938   4.724   5.979
 4447SOL    HW214241   4.779   4.761   5.974
 4448SOL     OW14242   2.540   4.321   1.755
 4448SOL    HW114243   2.451   4.278   1.743
 4448SOL    HW214244   2.532   4.394   1.823
 4449SOL     OW14245   4.983   0.999   6.227
 4449SOL    HW114246   4.905   1.015   6.166
 4449SOL    HW214247   5.038   1.083   6.234
 4450SOL     OW14248   3.691   2.915   5.729
 4450SOL    HW114249   3.721   2.966   5.648
 4450SOL    HW214250   3.615   2.964   5.772
 4451SOL     OW14251   6.051   4.662   3.241
 4451SOL    HW114252   6.042   4.577   3.293
 4451SOL    HW214253   5.999   4.735   3.287
 4452SOL     OW14254   5.337   5.821   4.334
 4452SOL    HW114255   5.295   5.762   4.403
 4452SOL    HW214256   5.322   5.917   4.358
 4453SOL     OW14257   0.943   3.036   1.185
 4453SOL    HW114258   0.930   3.135   1.186
 4453SOL    HW214259   0.901   2.998   1.103
 4454SOL     OW14260   1.300   1.789   0.153
 4454SOL    HW114261   1.242   1.808   0.074
 4454SOL    HW214262   1.309   1.872   0.209
 4455SOL     OW14263   4.971   6.263   6.062
 4455SOL    HW114264   4.938   6.332   6.127
 4455SOL    HW214265   4.983   6.305   5.972
 4456SOL     OW14266   2.636   5.866   2.035
 4456SOL    HW114267   2.554   5.921   2.017
 4456SOL    HW214268   2.612   5.769   2.034
 4457SOL     OW14269   3.631   0.968   2.793
 4457SOL    HW114270   3.680   0.989   2.878
 4457SOL    HW214271   3.672   1.018   2.718
 4458SOL     OW14272   1.844   2.717   0.472
 4458SOL    HW114273   1.886   2.770   0.399
 4458SOL    HW214274   1.916   2.680   0.531
 4459SOL     OW14275   3.690   1.771   4.386
 4459SOL    HW114276   3.633   1.751   4.306
 4459SOL    HW214277   3.767   1.828   4.358
 4460SOL     OW14278   1.800   2.721   6.370
 4460SOL    HW114279   1.795   2.663   6.452
 4460SOL    HW214280   1.886   2.703   6.322
 4461SOL     OW14281   1.868   0.566   0.492
 4461SOL    HW114282   1.875   0.663   0.470
 4461SOL    HW214283   1.844   0.555   0.589
 4462SOL     OW14284   6.111   5.203   1.954
 4462SOL    HW114285   6.190   5.258   1.981
 4462SOL    HW214286   6.046   5.260   1.904
 4463SOL     OW14287   4.864   1.093   0.823
 4463SOL    HW114288   4.795   1.042   0.875
 4463SOL    HW214289   4.819   1.161   0.765
 4464SOL     OW14290   6.945   5.087   0.460
 4464SOL    HW114291   6.961   5.162   0.395
 4464SOL    HW214292   0.003   5.030   0.465
 4465SOL     OW14293   3.554   4.990   1.088
 4465SOL    HW114294   3.503   4.919   1.039
 4465SOL    HW214295   3.615   5.037   1.025
 4466SOL     OW14296   0.921   1.776   3.076
 4466SOL    HW114297   0.833   1.792   3.031
 4466SOL    HW214298   0.908   1.774   3.175
 4467SOL     OW14299   1.578   5.707   2.610
 4467SOL    HW114300   1.576   5.774   2.684
 4467SOL    HW214301   1.666   5.713   2.562
 4468SOL     OW14302   2.059   3.986   0.239
 4468SOL    HW114303   2.096   4.038   0.162
 4468SOL    HW214304   2.134   3.948   0.292
 4469SOL     OW14305   3.266   0.287   2.035
 4469SOL    HW114306   3.319   0.244   2.108
 4469SOL    HW214307   3.223   0.370   2.070
 4470SOL     OW14308   0.222   2.397   1.917
 4470SOL    HW114309   0.299   2.427   1.974
 4470SOL    HW214310   0.199   2.302   1.940
 4471SOL     OW14311   1.357   2.136   6.212
 4471SOL    HW114312   1.353   2.224   6.260
 4471SOL    HW214313   1.286   2.133   6.142
 4472SOL     OW14314   0.593   3.247   2.110
 4472SOL    HW114315   0.676   3.256   2.055
 4472SOL    HW214316   0.618   3.241   2.207
 4473SOL     OW14317   5.812   2.794   3.876
 4473SOL    HW114318   5.843   2.865   3.812
 4473SOL    HW214319   5.890   2.738   3.904
 4474SOL     OW14320   2.152   0.528   2.106
 4474SOL    HW114321   2.227   0.468   2.130
 4474SOL    HW214322   2.132   0.590   2.183
 4475SOL     OW14323   1.307   4.001   2.294
 4475SOL    HW114324   1.219   3.982   2.248
 4475SOL    HW214325   1.290   4.021   2.390
 4476SOL     OW14326   5.737   0.677   3.343
 4476SOL    HW114327   5.646   0.658   3.380
 4476SOL    HW214328   5.749   0.632   3.255
 4477SOL     OW14329   2.039   0.097   5.799
 4477SOL    HW114330   2.062   0.098   5.897
 4477SOL    HW214331   2.121   0.081   5.746
 4478SOL     OW14332   2.960   6.875   2.619
 4478SOL    HW114333   2.937   6.943   2.689
 4478SOL    HW214334   2.988   6.790   2.664
 4479SOL     OW14335   0.449   2.321   0.682
 4479SOL    HW114336   0.433   2.222   0.675
 4479SOL    HW214337   0.379   2.362   0.741
 4480SOL     OW14338   0.425   4.372   5.122
 4480SOL    HW114339   0.463   4.464   5.113
 4480SOL    HW214340   0.462   4.313   5.051
 4481SOL     OW14341   3.725   5.811   4.566
 4481SOL    HW114342   3.646   5.827   4.508
 4481SOL    HW214343   3.706   5.734   4.628
 4482SOL     OW14344   1.615   3.168   5.115
 4482SOL    HW114345   1.518   3.179   5.094
 4482SOL    HW214346   1.652   3.092   5.061
 4483SOL     OW14347   5.970   2.452   2.115
 4483SOL    HW114348   5.873   2.436   2.131
 4483SOL    HW214349   5.999   2.400   2.035
 4484SOL     OW14350   3.349   2.292   6.636
 4484SOL    HW114351   3.399   2.376   6.614
 4484SOL    HW214352   3.401   2.213   6.603
 4485SOL     OW14353   5.807   2.481   3.880
 4485SOL    HW114354   5.755   2.526   3.807
 4485SOL    HW214355   5.902   2.515   3.878
 4486SOL     OW14356   6.353   5.586   5.488
 4486SOL    HW114357   6.335   5.667   5.433
 4486SOL    HW214358   6.281   5.576   5.558
 4487SOL     OW14359   2.967   2.836   6.209
 4487SOL    HW114360   2.891   2.880   6.161
 4487SOL    HW214361   3.019   2.780   6.145
 4488SOL     OW14362   0.451   3.572   5.745
 4488SOL    HW114363   0.431   3.667   5.767
 4488SOL    HW214364   0.376   3.514   5.777
 4489SOL     OW14365   4.850   5.495   5.264
 4489SOL    HW114366   4.813   5.528   5.351
 4489SOL    HW214367   4.943   5.530   5.253
 4490SOL     OW14368   5.461   2.444   2.401
 4490SOL    HW114369   5.470   2.434   2.500
 4490SOL    HW214370   5.399   2.375   2.365
 4491SOL     OW14371   0.449   3.386   3.736
 4491SOL    HW114372   0.422   3.442   3.814
 4491SOL    HW214373   0.397   3.301   3.736
 4492SOL     OW14374   6.091   4.689   2.246
 4492SOL    HW114375   6.171   4.630   2.238
 4492SOL    HW214376   6.044   4.692   2.158
 4493SOL     OW14377   4.918   5.162   4.706
 4493SOL    HW114378   4.917   5.063   4.702
 4493SOL    HW214379   4.829   5.198   4.678
 4494SOL     OW14380   0.521   0.782   6.644
 4494SOL    HW114381   0.558   0.692   6.668
 4494SOL    HW214382   0.425   0.786   6.672
 4495SOL     OW14383   4.307   6.956   4.295
 4495SOL    HW114384   4.233   7.019   4.319
 4495SOL    HW214385   4.294   6.924   4.201
 4496SOL     OW14386   5.962   6.594   1.252
 4496SOL    HW114387   5.999   6.559   1.166
 4496SOL    HW214388   5.869   6.628   1.236
 4497SOL     OW14389   4.709   2.520   6.600
 4497SOL    HW114390   4.740   2.523   6.505
 4497SOL    HW214391   4.787   2.503   6.660
 4498SOL     OW14392   0.259   3.086   0.251
 4498SOL    HW114393   0.175   3.064   0.300
 4498SOL    HW214394   0.338   3.060   0.307
 4499SOL     OW14395   5.766   3.937   4.006
 4499SOL    HW114396   5.720   3.907   4.089
 4499SOL    HW214397   5.810   3.858   3.962
 4500SOL     OW14398   3.226   3.126   4.565
 4500SOL    HW114399   3.272   3.210   4.535
 4500SOL    HW214400   3.248   3.110   4.661
 4501SOL     OW14401   6.864   3.282   2.614
 4501SOL    HW114402   6.798   3.295   2.540
 4501SOL    HW214403   6.818   3.294   2.702
 4502SOL     OW14404   0.772   2.852   6.814
 4502SOL    HW114405   0.870   2.848   6.797
 4502SOL    HW214406   0.756   2.870   6.911
 4503SOL     OW14407   3.526   6.651   2.051
 4503SOL    HW114408   3.547   6.719   2.122
 4503SOL    HW214409   3.462   6.691   1.985
 4504SOL     OW14410   6.795   1.092   4.598
 4504SOL    HW114411   6.799   1.096   4.499
 4504SOL    HW214412   6.735   1.165   4.633
 4505SOL     OW14413   6.402   5.542   2.023
 4505SOL    HW114414   6.444   5.453   2.046
 4505SOL    HW214415   6.412   5.604   2.100
 4506SOL     OW14416   4.872   3.201   3.303
 4506SOL    HW114417   4.968   3.227   3.299
 4506SOL    HW214418   4.823   3.237   3.224
 4507SOL     OW14419   6.360   4.468   3.576
 4507SOL    HW114420   6.284   4.531   3.566
 4507SOL    HW214421   6.446   4.519   3.574
 4508SOL     OW14422   1.565   5.127   6.977
 4508SOL    HW114423   1.584   5.224   6.984
 4508SOL    HW214424   1.582   5.095   6.884
 4509SOL     OW14425   4.855   2.704   2.950
 4509SOL    HW114426   4.896   2.615   2.969
 4509SOL    HW214427   4.823   2.745   3.036
 4510SOL     OW14428   4.728   2.111   4.245
 4510SOL    HW114429   4.655   2.180   4.243
 4510SOL    HW214430   4.747   2.080   4.152
 4511SOL     OW14431   5.938   4.184   6.369
 4511SOL    HW114432   5.996   4.103   6.358
 4511SOL    HW214433   5.850   4.168   6.324
 4512SOL     OW14434   2.611   1.267   5.901
 4512SOL    HW114435   2.708   1.285   5.917
 4512SOL    HW214436   2.558   1.349   5.923
 4513SOL     OW14437   0.434   4.869   6.606
 4513SOL    HW114438   0.522   4.882   6.560
 4513SOL    HW214439   0.360   4.870   6.539
 4514SOL     OW14440   3.592   2.034   5.839
 4514SOL    HW114441   3.565   1.948   5.796
 4514SOL    HW214442   3.690   2.034   5.854
 4515SOL     OW14443   6.176   2.102   5.287
 4515SOL    HW114444   6.244   2.142   5.226
 4515SOL    HW214445   6.115   2.173   5.321
 4516SOL     OW14446   2.141   6.869   7.017
 4516SOL    HW114447   2.061   6.819   6.986
 4516SOL    HW214448   2.224   6.817   6.993
 4517SOL     OW14449   4.970   0.011   0.036
 4517SOL    HW114450   4.994   6.979   6.980
 4517SOL    HW214451   5.034   0.088   0.044
 4518SOL     OW14452   6.649   6.859   2.262
 4518SOL    HW114453   6.619   6.897   2.174
 4518SOL    HW214454   6.697   6.773   2.246
 4519SOL     OW14455   6.410   0.176   1.275
 4519SOL    HW114456   6.468   0.106   1.317
 4519SOL    HW214457   6.318   0.139   1.263
 4520SOL     OW14458   4.662   6.195   5.747
 4520SOL    HW114459   4.668   6.141   5.831
 4520SOL    HW214460   4.593   6.266   5.758
 4521SOL     OW14461   5.653   2.054   4.686
 4521SOL    HW114462   5.633   1.986   4.757
 4521SOL    HW214463   5.698   2.009   4.609
 4522SOL     OW14464   5.455   5.187   3.851
 4522SOL    HW114465   5.370   5.163   3.803
 4522SOL    HW214466   5.437   5.199   3.948
 4523SOL     OW14467   1.363   4.804   6.778
 4523SOL    HW114468   1.420   4.800   6.696
 4523SOL    HW214469   1.299   4.728   6.777
 4524SOL     OW14470   6.434   2.892   1.615
 4524SOL    HW114471   6.520   2.844   1.596
 4524SOL    HW214472   6.427   2.910   1.713
 4525SOL     OW14473   5.152   2.222   4.916
 4525SOL    HW114474   5.067   2.262   4.882
 4525SOL    HW214475   5.141   2.200   5.013
 4526SOL     OW14476   6.537   0.365   6.596
 4526SOL    HW114477   6.564   0.313   6.677
 4526SOL    HW214478   6.616   0.378   6.537
 4527SOL     OW14479   6.796   1.248   3.127
 4527SOL    HW114480   6.786   1.346   3.108
 4527SOL    HW214481   6.765   1.229   3.220
 4528SOL     OW14482   4.456   0.475   6.667
 4528SOL    HW114483   4.460   0.388   6.716
 4528SOL    HW214484   4.538   0.528   6.689
 4529SOL     OW14485   2.223   0.249   5.237
 4529SOL    HW114486   2.177   0.323   5.189
 4529SOL    HW214487   2.245   0.279   5.330
 4530SOL     OW14488   1.529   5.664   4.176
 4530SOL    HW114489   1.466   5.588   4.162
 4530SOL    HW214490   1.547   5.676   4.274
 4531SOL     OW14491   0.598   2.560   5.467
 4531SOL    HW114492   0.615   2.614   5.549
 4531SOL    HW214493   0.656   2.592   5.393
 4532SOL     OW14494   6.471   1.033   2.063
 4532SOL    HW114495   6.545   1.100   2.065
 4532SOL    HW214496   6.441   1.012   2.156
 4533SOL     OW14497   1.440   1.802   2.207
 4533SOL    HW114498   1.387   1.880   2.239
 4533SOL    HW214499   1.460   1.813   2.109
 4534SOL     OW14500   5.532   4.232   4.806
 4534SOL    HW114501   5.443   4.249   4.764
 4534SOL    HW214502   5.520   4.181   4.891
 4535SOL     OW14503   3.816   0.771   2.117
 4535SOL    HW114504   3.894   0.813   2.072
 4535SOL    HW214505   3.837   0.756   2.213
 4536SOL     OW14506   4.747   1.619   4.247
 4536SOL    HW114507   4.657   1.645   4.280
 4536SOL    HW214508   4.741   1.533   4.196
 4537SOL     OW14509   4.174   3.519   0.606
 4537SOL    HW114510   4.140   3.551   0.518
 4537SOL    HW214511   4.224   3.433   0.594
 4538SOL     OW14512   1.800   0.612   2.613
 4538SOL    HW114513   1.799   0.587   2.710
 4538SOL    HW214514   1.742   0.548   2.562
 4539SOL     OW14515   3.425   6.047   4.749
 4539SOL    HW114516   3.423   5.952   4.781
 4539SOL    HW214517   3.501   6.060   4.686
 4540SOL     OW14518   2.173   2.637   6.902
 4540SOL    HW114519   2.092   2.581   6.921
 4540SOL    HW214520   2.190   2.638   6.803
 4541SOL     OW14521   5.956   1.699   6.663
 4541SOL    HW114522   5.998   1.629   6.722
 4541SOL    HW214523   6.014   1.780   6.660
 4542SOL     OW14524   0.147   2.161   1.523
 4542SOL    HW114525   0.079   2.177   1.451
 4542SOL    HW214526   0.239   2.157   1.482
 4543SOL     OW14527   4.387   2.542   1.119
 4543SOL    HW114528   4.384   2.469   1.187
 4543SOL    HW214529   4.296   2.552   1.078
 4544SOL     OW14530   3.455   5.805   6.450
 4544SOL    HW114531   3.472   5.722   6.502
 4544SOL    HW214532   3.514   5.879   6.484
 4545SOL     OW14533   5.681   3.451   4.244
 4545SOL    HW114534   5.759   3.509   4.270
 4545SOL    HW214535   5.713   3.378   4.184
 4546SOL     OW14536   2.311   0.350   4.082
 4546SOL    HW114537   2.312   0.251   4.069
 4546SOL    HW214538   2.293   0.395   3.995
 4547SOL     OW14539   6.208   2.139   0.696
 4547SOL    HW114540   6.142   2.165   0.767
 4547SOL    HW214541   6.213   2.212   0.628
 4548SOL     OW14542   1.886   2.853   4.012
 4548SOL    HW114543   1.918   2.947   4.008
 4548SOL    HW214544   1.790   2.849   3.984
 4549SOL     OW14545   5.656   3.980   2.473
 4549SOL    HW114546   5.645   3.881   2.473
 4549SOL    HW214547   5.571   4.024   2.500
 4550SOL     OW14548   1.204   5.595   3.239
 4550SOL    HW114549   1.253   5.619   3.323
 4550SOL    HW214550   1.157   5.507   3.253
 4551SOL     OW14551   0.865   3.294   4.725
 4551SOL    HW114552   0.815   3.380   4.723
 4551SOL    HW214553   0.913   3.285   4.813
 4552SOL     OW14554   6.013   2.240   0.870
 4552SOL    HW114555   5.945   2.167   0.870
 4552SOL    HW214556   6.026   2.273   0.964
 4553SOL     OW14557   4.451   4.169   0.338
 4553SOL    HW114558   4.531   4.225   0.362
 4553SOL    HW214559   4.418   4.122   0.420
 4554SOL     OW14560   6.458   6.649   1.781
 4554SOL    HW114561   6.445   6.742   1.746
 4554SOL    HW214562   6.429   6.645   1.877
 4555SOL     OW14563   2.129   1.946   5.077
 4555SOL    HW114564   2.116   1.931   4.979
 4555SOL    HW214565   2.145   2.043   5.094
 4556SOL     OW14566   5.409   3.733   4.510
 4556SOL    HW114567   5.466   3.787   4.572
 4556SOL    HW214568   5.333   3.790   4.477
 4557SOL     OW14569   4.913   5.590   4.797
 4557SOL    HW114570   4.950   5.511   4.844
 4557SOL    HW214571   4.855   5.642   4.859
 4558SOL     OW14572   6.977   4.457   4.639
 4558SOL    HW114573   6.914   4.533   4.651
 4558SOL    HW214574   6.950   4.402   4.561
 4559SOL     OW14575   0.138   3.305   2.586
 4559SOL    HW114576   0.043   3.328   2.562
 4559SOL    HW214577   0.150   3.312   2.685
 4560SOL     OW14578   5.494   4.189   1.437
 4560SOL    HW114579   5.561   4.120   1.410
 4560SOL    HW214580   5.428   4.148   1.500
 4561SOL     OW14581   3.191   1.869   2.968
 4561SOL    HW114582   3.174   1.771   2.957
 4561SOL    HW214583   3.212   1.909   2.878
 4562SOL     OW14584   2.389   6.643   6.352
 4562SOL    HW114585   2.437   6.634   6.440
 4562SOL    HW214586   2.368   6.553   6.315
 4563SOL     OW14587   0.277   2.414   1.263
 4563SOL    HW114588   0.329   2.395   1.346
 4563SOL    HW214589   0.201   2.476   1.285
 4564SOL     OW14590   0.074   6.089   1.844
 4564SOL    HW114591   0.010   6.158   1.810
 4564SOL    HW214592   0.077   6.093   1.944
 4565SOL     OW14593   0.624   0.691   4.531
 4565SOL    HW114594   0.699   0.628   4.549
 4565SOL    HW214595   0.546   0.641   4.493
 4566SOL     OW14596   6.870   2.957   0.289
 4566SOL    HW114597   6.856   3.042   0.341
 4566SOL    HW214598   6.953   2.912   0.320
 4567SOL     OW14599   6.368   1.039   6.558
 4567SOL    HW114600   6.276   1.050   6.521
 4567SOL    HW214601   6.413   1.129   6.564
 4568SOL     OW14602   1.810   3.358   5.840
 4568SOL    HW114603   1.865   3.378   5.760
 4568SOL    HW214604   1.831   3.265   5.873
 4569SOL     OW14605   2.170   0.785   3.281
 4569SOL    HW114606   2.151   0.883   3.288
 4569SOL    HW214607   2.261   0.766   3.317
 4570SOL     OW14608   6.944   6.706   2.514
 4570SOL    HW114609   7.023   6.697   2.453
 4570SOL    HW214610   6.896   6.619   2.520
 4571SOL     OW14611   4.547   4.007   6.109
 4571SOL    HW114612   4.608   4.084   6.093
 4571SOL    HW214613   4.571   3.963   6.196
 4572SOL     OW14614   1.740   0.742   6.278
 4572SOL    HW114615   1.753   0.695   6.366
 4572SOL    HW214616   1.826   0.786   6.252
 4573SOL     OW14617   6.742   0.480   0.245
 4573SOL    HW114618   6.721   0.466   0.342
 4573SOL    HW214619   6.816   0.546   0.236
 4574SOL     OW14620   5.902   3.920   0.432
 4574SOL    HW114621   5.866   4.010   0.458
 4574SOL    HW214622   5.973   3.931   0.363
 4575SOL     OW14623   5.490   0.471   5.730
 4575SOL    HW114624   5.463   0.522   5.649
 4575SOL    HW214625   5.473   0.526   5.812
 4576SOL     OW14626   3.749   5.918   5.500
 4576SOL    HW114627   3.660   5.890   5.535
 4576SOL    HW214628   3.821   5.885   5.561
 4577SOL     OW14629   1.003   1.694   4.420
 4577SOL    HW114630   1.046   1.711   4.509
 4577SOL    HW214631   0.935   1.765   4.401
 4578SOL     OW14632   0.948   2.539   5.085
 4578SOL    HW114633   0.995   2.617   5.127
 4578SOL    HW214634   0.875   2.508   5.146
 4579SOL     OW14635   4.035   0.175   3.146
 4579SOL    HW114636   4.128   0.188   3.179
 4579SOL    HW214637   3.990   0.264   3.136
 4580SOL     OW14638   5.212   4.333   0.910
 4580SOL    HW114639   5.299   4.351   0.956
 4580SOL    HW214640   5.137   4.373   0.963
 4581SOL     OW14641   1.911   5.778   2.088
 4581SOL    HW114642   1.919   5.704   2.022
 4581SOL    HW214643   2.002   5.808   2.115
 4582SOL     OW14644   4.273   0.874   4.858
 4582SOL    HW114645   4.199   0.895   4.793
 4582SOL    HW214646   4.311   0.784   4.836
 4583SOL     OW14647   2.802   1.972   6.882
 4583SOL    HW114648   2.840   1.907   6.948
 4583SOL    HW214649   2.853   1.966   6.796
 4584SOL     OW14650   0.769   4.801   5.143
 4584SOL    HW114651   0.854   4.837   5.182
 4584SOL    HW214652   0.788   4.715   5.097
 4585SOL     OW14653   1.761   5.712   3.308
 4585SOL    HW114654   1.662   5.707   3.319
 4585SOL    HW214655   1.783   5.772   3.232
 4586SOL     OW14656   3.717   4.413   0.864
 4586SOL    HW114657   3.693   4.466   0.945
 4586SOL    HW214658   3.725   4.316   0.890
 4587SOL     OW14659   3.496   4.143   3.749
 4587SOL    HW114660   3.535   4.195   3.825
 4587SOL    HW214661   3.404   4.112   3.775
 4588SOL     OW14662   2.443   3.610   5.510
 4588SOL    HW114663   2.484   3.701   5.499
 4588SOL    HW214664   2.514   3.541   5.500
 4589SOL     OW14665   6.093   1.038   2.404
 4589SOL    HW114666   6.062   1.082   2.320
 4589SOL    HW214667   6.025   0.971   2.434
 4590SOL     OW14668   4.514   5.219   1.459
 4590SOL    HW114669   4.583   5.213   1.531
 4590SOL    HW214670   4.510   5.131   1.410
 4591SOL     OW14671   2.042   0.552   4.864
 4591SOL    HW114672   1.967   0.612   4.890
 4591SOL    HW214673   2.011   0.490   4.792
 4592SOL     OW14674   3.009   1.380   3.501
 4592SOL    HW114675   3.056   1.419   3.422
 4592SOL    HW214676   2.956   1.300   3.471
 4593SOL     OW14677   5.218   6.012   2.037
 4593SOL    HW114678   5.203   5.913   2.042
 4593SOL    HW214679   5.135   6.056   2.003
 4594SOL     OW14680   2.690   1.388   3.343
 4594SOL    HW114681   2.625   1.422   3.411
 4594SOL    HW214682   2.743   1.313   3.383
 4595SOL     OW14683   4.943   2.924   5.652
 4595SOL    HW114684   5.017   2.990   5.643
 4595SOL    HW214685   4.932   2.875   5.565
 4596SOL     OW14686   6.136   1.239   2.595
 4596SOL    HW114687   6.085   1.320   2.567
 4596SOL    HW214688   6.122   1.166   2.529
 4597SOL     OW14689   3.906   5.596   6.904
 4597SOL    HW114690   3.806   5.601   6.913
 4597SOL    HW214691   3.929   5.549   6.819
 4598SOL     OW14692   1.226   6.063   0.788
 4598SOL    HW114693   1.162   6.071   0.712
 4598SOL    HW214694   1.197   5.990   0.849
 4599SOL     OW14695   1.608   5.043   0.222
 4599SOL    HW114696   1.608   5.062   0.124
 4599SOL    HW214697   1.514   5.034   0.255
 4600SOL     OW14698   0.780   5.976   5.440
 4600SOL    HW114699   0.702   6.023   5.400
 4600SOL    HW214700   0.864   6.028   5.421
 4601SOL     OW14701   1.667   1.177   5.450
 4601SOL    HW114702   1.735   1.115   5.490
 4601SOL    HW214703   1.712   1.261   5.421
 4602SOL     OW14704   3.252   6.430   0.157
 4602SOL    HW114705   3.239   6.397   0.250
 4602SOL    HW214706   3.187   6.385   0.096
 4603SOL     OW14707   3.733   6.271   1.095
 4603SOL    HW114708   3.721   6.228   1.184
 4603SOL    HW214709   3.805   6.340   1.100
 4604SOL     OW14710   4.445   0.210   0.054
 4604SOL    HW114711   4.367   0.176   0.001
 4604SOL    HW214712   4.417   0.293   0.104
 4605SOL     OW14713   1.415   5.965   2.423
 4605SOL    HW114714   1.475   5.946   2.345
 4605SOL    HW214715   1.470   5.981   2.505
 4606SOL     OW14716   0.688   0.172   2.273
 4606SOL    HW114717   0.657   0.083   2.306
 4606SOL    HW214718   0.721   0.163   2.179
 4607SOL     OW14719   2.181   3.012   2.661
 4607SOL    HW114720   2.228   2.957   2.730
 4607SOL    HW214721   2.116   3.074   2.705
 4608SOL     OW14722   0.199   5.658   4.062
 4608SOL    HW114723   0.125   5.715   4.025
 4608SOL    HW214724   0.189   5.565   4.027
 4609SOL     OW14725   4.895   5.062   6.866
 4609SOL    HW114726   4.935   5.080   6.776
 4609SOL    HW214727   4.825   5.130   6.886
 4610SOL     OW14728   5.068   1.611   0.208
 4610SOL    HW114729   5.163   1.619   0.240
 4610SOL    HW214730   5.050   1.682   0.140
 4611SOL     OW14731   1.234   6.532   6.225
 4611SOL    HW114732   1.158   6.581   6.183
 4611SOL    HW214733   1.319   6.581   6.206
 4612SOL     OW14734   1.897   6.501   0.837
 4612SOL    HW114735   1.848   6.449   0.767
 4612SOL    HW214736   1.864   6.595   0.837
 4613SOL     OW14737   1.264   5.681   2.159
 4613SOL    HW114738   1.297   5.775   2.156
 4613SOL    HW214739   1.271   5.646   2.253
 4614SOL     OW14740   5.905   3.255   3.701
 4614SOL    HW114741   5.914   3.347   3.739
 4614SOL    HW214742   5.960   3.191   3.755
 4615SOL     OW14743   1.503   1.096   0.149
 4615SOL    HW114744   1.590   1.087   0.198
 4615SOL    HW214745   1.439   1.148   0.205
 4616SOL     OW14746   6.514   1.211   4.506
 4616SOL    HW114747   6.462   1.148   4.564
 4616SOL    HW214748   6.538   1.166   4.420
 4617SOL     OW14749   1.466   2.492   2.069
 4617SOL    HW114750   1.394   2.467   2.005
 4617SOL    HW214751   1.480   2.591   2.066
 4618SOL     OW14752   2.278   3.114   5.379
 4618SOL    HW114753   2.326   3.179   5.439
 4618SOL    HW214754   2.338   3.090   5.302
 4619SOL     OW14755   3.072   6.079   3.770
 4619SOL    HW114756   3.100   6.006   3.707
 4619SOL    HW214757   3.083   6.168   3.725
 4620SOL     OW14758   1.600   5.015   0.943
 4620SOL    HW114759   1.660   4.936   0.957
 4620SOL    HW214760   1.513   4.984   0.905
 4621SOL     OW14761   4.584   0.364   2.689
 4621SOL    HW114762   4.586   0.445   2.630
 4621SOL    HW214763   4.665   0.364   2.748
 4622SOL     OW14764   3.835   5.004   0.773
 4622SOL    HW114765   3.886   5.023   0.858
 4622SOL    HW214766   3.897   5.013   0.695
 4623SOL     OW14767   5.127   5.756   1.993
 4623SOL    HW114768   5.152   5.751   1.896
 4623SOL    HW214769   5.028   5.760   2.001
 4624SOL     OW14770   3.742   0.115   3.152
 4624SOL    HW114771   3.838   0.138   3.158
 4624SOL    HW214772   3.732   0.016   3.140
 4625SOL     OW14773   1.678   4.543   1.403
 4625SOL    HW114774   1.764   4.544   1.454
 4625SOL    HW214775   1.627   4.626   1.423
 4626SOL     OW14776   4.858   3.939   2.228
 4626SOL    HW114777   4.776   3.997   2.224
 4626SOL    HW214778   4.937   3.995   2.251
 4627SOL     OW14779   1.552   4.813   4.873
 4627SOL    HW114780   1.613   4.867   4.932
 4627SOL    HW214781   1.606   4.769   4.801
 4628SOL     OW14782   4.793   4.165   4.582
 4628SOL    HW114783   4.772   4.192   4.676
 4628SOL    HW214784   4.712   4.178   4.525
 4629SOL     OW14785   2.921   5.470   5.595
 4629SOL    HW114786   2.972   5.390   5.628
 4629SOL    HW214787   2.825   5.447   5.585
 4630SOL     OW14788   2.056   6.136   2.094
 4630SOL    HW114789   2.111   6.162   2.014
 4630SOL    HW214790   2.103   6.063   2.144
 4631SOL     OW14791   1.295   5.934   3.283
 4631SOL    HW114792   1.210   5.905   3.326
 4631SOL    HW214793   1.313   5.877   3.203
 4632SOL     OW14794   2.572   4.659   2.789
 4632SOL    HW114795   2.650   4.695   2.840
 4632SOL    HW214796   2.487   4.697   2.825
 4633SOL     OW14797   6.168   0.645   4.417
 4633SOL    HW114798   6.088   0.690   4.456
 4633SOL    HW214799   6.206   0.580   4.483
 4634SOL     OW14800   2.483   3.869   5.401
 4634SOL    HW114801   2.566   3.905   5.445
 4634SOL    HW214802   2.458   3.927   5.324
 4635SOL     OW14803   4.829   3.780   1.683
 4635SOL    HW114804   4.791   3.868   1.711
 4635SOL    HW214805   4.802   3.760   1.589
 4636SOL     OW14806   2.685   4.563   0.460
 4636SOL    HW114807   2.769   4.557   0.405
 4636SOL    HW214808   2.709   4.587   0.554
 4637SOL     OW14809   0.451   6.710   0.802
 4637SOL    HW114810   0.449   6.809   0.788
 4637SOL    HW214811   0.406   6.688   0.889
 4638SOL     OW14812   4.311   4.977   0.050
 4638SOL    HW114813   4.410   4.984   0.040
 4638SOL    HW214814   4.268   5.056   0.006
 4639SOL     OW14815   3.372   3.390   6.204
 4639SOL    HW114816   3.377   3.461   6.274
 4639SOL    HW214817   3.285   3.395   6.156
 4640SOL     OW14818   4.760   4.063   4.252
 4640SOL    HW114819   4.790   3.983   4.304
 4640SOL    HW214820   4.726   4.132   4.316
 4641SOL     OW14821   3.007   0.671   4.892
 4641SOL    HW114822   3.066   0.591   4.884
 4641SOL    HW214823   2.949   0.678   4.810
 4642SOL     OW14824   1.355   0.136   3.151
 4642SOL    HW114825   1.256   0.148   3.165
 4642SOL    HW214826   1.404   0.211   3.197
 4643SOL     OW14827   6.748   2.459   0.729
 4643SOL    HW114828   6.758   2.378   0.671
 4643SOL    HW214829   6.758   2.542   0.673
 4644SOL     OW14830   0.346   6.406   4.923
 4644SOL    HW114831   0.348   6.490   4.977
 4644SOL    HW214832   0.399   6.335   4.971
 4645SOL     OW14833   0.562   0.489   4.150
 4645SOL    HW114834   0.480   0.470   4.095
 4645SOL    HW214835   0.556   0.439   4.236
 4646SOL     OW14836   1.997   5.357   3.276
 4646SOL    HW114837   2.051   5.369   3.193
 4646SOL    HW214838   1.900   5.364   3.254
 4647SOL     OW14839   1.811   0.230   2.731
 4647SOL    HW114840   1.856   0.184   2.655
 4647SOL    HW214841   1.847   0.323   2.740
 4648SOL     OW14842   3.460   0.497   2.740
 4648SOL    HW114843   3.424   0.442   2.665
 4648SOL    HW214844   3.387   0.549   2.782
 4649SOL     OW14845   5.396   1.003   0.400
 4649SOL    HW114846   5.400   1.002   0.300
 4649SOL    HW214847   5.450   1.079   0.435
 4650SOL     OW14848   4.842   5.659   2.204
 4650SOL    HW114849   4.890   5.695   2.284
 4650SOL    HW214850   4.760   5.610   2.234
 4651SOL     OW14851   6.042   3.930   6.369
 4651SOL    HW114852   6.056   3.888   6.279
 4651SOL    HW214853   6.053   3.861   6.441
 4652SOL     OW14854   5.743   6.446   4.714
 4652SOL    HW114855   5.726   6.350   4.738
 4652SOL    HW214856   5.706   6.465   4.623
 4653SOL     OW14857   5.162   5.622   1.353
 4653SOL    HW114858   5.146   5.547   1.416
 4653SOL    HW214859   5.158   5.709   1.403
 4654SOL     OW14860   0.764   6.042   6.407
 4654SOL    HW114861   0.840   6.071   6.465
 4654SOL    HW214862   0.760   6.099   6.325
 4655SOL     OW14863   5.870   3.762   1.067
 4655SOL    HW114864   5.800   3.695   1.041
 4655SOL    HW214865   5.904   3.740   1.159
 4656SOL     OW14866   1.364   0.657   1.928
 4656SOL    HW114867   1.317   0.745   1.919
 4656SOL    HW214868   1.313   0.587   1.878
 4657SOL     OW14869   4.668   5.633   1.623
 4657SOL    HW114870   4.589   5.572   1.636
 4657SOL    HW214871   4.659   5.712   1.683
 4658SOL     OW14872   3.274   0.135   4.450
 4658SOL    HW114873   3.331   0.055   4.430
 4658SOL    HW214874   3.186   0.105   4.486
 4659SOL     OW14875   2.548   4.195   5.739
 4659SOL    HW114876   2.489   4.117   5.721
 4659SOL    HW214877   2.609   4.209   5.660
 4660SOL     OW14878   0.636   5.814   4.957
 4660SOL    HW114879   0.694   5.889   4.988
 4660SOL    HW214880   0.605   5.832   4.864
 4661SOL     OW14881   3.370   4.395   6.471
 4661SOL    HW114882   3.288   4.358   6.428
 4661SOL    HW214883   3.350   4.423   6.565
 4662SOL     OW14884   2.751   0.168   5.509
 4662SOL    HW114885   2.746   0.144   5.605
 4662SOL    HW214886   2.688   0.244   5.490
 4663SOL     OW14887   0.381   1.403   1.446
 4663SOL    HW114888   0.446   1.471   1.412
 4663SOL    HW214889   0.367   1.333   1.376
 4664SOL     OW14890   1.423   1.208   0.774
 4664SOL    HW114891   1.439   1.123   0.825
 4664SOL    HW214892   1.394   1.186   0.681
 4665SOL     OW14893   4.317   6.939   6.369
 4665SOL    HW114894   4.300   6.851   6.324
 4665SOL    HW214895   4.388   6.988   6.319
 4666SOL     OW14896   2.660   2.423   7.005
 4666SOL    HW114897   2.619   2.438   0.072
 4666SOL    HW214898   2.673   2.511   6.960
 4667SOL     OW14899   6.242   3.715   1.777
 4667SOL    HW114900   6.263   3.687   1.870
 4667SOL    HW214901   6.173   3.654   1.738
 4668SOL     OW14902   5.034   1.735   3.428
 4668SOL    HW114903   5.017   1.815   3.486
 4668SOL    HW214904   4.982   1.743   3.344
 4669SOL     OW14905   4.926   6.310   0.863
 4669SOL    HW114906   4.886   6.349   0.946
 4669SOL    HW214907   4.859   6.251   0.819
 4670SOL     OW14908   1.732   2.124   6.224
 4670SOL    HW114909   1.684   2.144   6.309
 4670SOL    HW214910   1.674   2.149   6.147
 4671SOL     OW14911   0.996   3.444   6.621
 4671SOL    HW114912   1.093   3.446   6.596
 4671SOL    HW214913   0.974   3.357   6.663
 4672SOL     OW14914   2.628   5.117   5.749
 4672SOL    HW114915   2.694   5.044   5.731
 4672SOL    HW214916   2.649   5.160   5.836
 4673SOL     OW14917   5.011   6.890   1.678
 4673SOL    HW114918   4.962   6.858   1.759
 4673SOL    HW214919   4.999   6.989   1.669
 4674SOL     OW14920   4.977   1.362   0.092
 4674SOL    HW114921   4.914   1.340   0.167
 4674SOL    HW214922   5.038   1.436   0.121
 4675SOL     OW14923   2.114   1.053   0.445
 4675SOL    HW114924   2.098   1.137   0.392
 4675SOL    HW214925   2.170   1.075   0.525
 4676SOL     OW14926   6.357   6.368   3.953
 4676SOL    HW114927   6.280   6.334   3.899
 4676SOL    HW214928   6.411   6.432   3.898
 4677SOL     OW14929   2.874   0.763   0.221
 4677SOL    HW114930   2.869   0.709   0.137
 4677SOL    HW214931   2.928   0.713   0.289
 4678SOL     OW14932   1.765   4.403   2.701
 4678SOL    HW114933   1.711   4.472   2.652
 4678SOL    HW214934   1.735   4.399   2.797
 4679SOL     OW14935   3.403   1.576   0.145
 4679SOL    HW114936   3.380   1.673   0.139
 4679SOL    HW214937   3.404   1.536   0.053
 4680SOL     OW14938   1.990   1.082   1.503
 4680SOL    HW114939   2.085   1.113   1.497
 4680SOL    HW214940   1.950   1.114   1.590
 4681SOL     OW14941   5.887   5.830   5.839
 4681SOL    HW114942   5.904   5.839   5.937
 4681SOL    HW214943   5.975   5.824   5.791
 4682SOL     OW14944   3.974   4.629   6.014
 4682SOL    HW114945   4.073   4.636   6.009
 4682SOL    HW214946   3.948   4.535   6.035
 4683SOL     OW14947   4.342   4.634   2.805
 4683SOL    HW114948   4.273   4.647   2.877
 4683SOL    HW214949   4.396   4.552   2.825
 4684SOL     OW14950   0.014   1.744   5.034
 4684SOL    HW114951   0.114   1.749   5.029
 4684SOL    HW214952   6.999   1.827   4.993
 4685SOL     OW14953   0.373   6.642   5.046
 4685SOL    HW114954   0.464   6.680   5.030
 4685SOL    HW214955   0.346   6.660   5.141
 4686SOL     OW14956   5.367   5.601   0.743
 4686SOL    HW114957   5.397   5.526   0.802
 4686SOL    HW214958   5.298   5.568   0.679
 4687SOL     OW14959   6.405   4.683   5.330
 4687SOL    HW114960   6.337   4.692   5.257
 4687SOL    HW214961   6.478   4.622   5.301
 4688SOL     OW14962   6.134   3.937   5.324
 4688SOL    HW114963   6.225   3.920   5.286
 4688SOL    HW214964   6.111   4.034   5.314
 4689SOL     OW14965   6.093   0.924   0.151
 4689SOL    HW114966   6.060   0.877   0.234
 4689SOL    HW214967   6.029   0.907   0.076
 4690SOL     OW14968   1.286   0.814   0.139
 4690SOL    HW114969   1.301   0.864   0.053
 4690SOL    HW214970   1.276   0.879   0.214
 4691SOL     OW14971   2.926   4.715   2.268
 4691SOL    HW114972   2.828   4.697   2.276
 4691SOL    HW214973   2.968   4.646   2.209
 4692SOL     OW14974   6.424   5.714   2.256
 4692SOL    HW114975   6.462   5.651   2.324
 4692SOL    HW214976   6.369   5.783   2.302
 4693SOL     OW14977   0.778   0.478   3.440
 4693SOL    HW114978   0.872   0.508   3.454
 4693SOL    HW214979   0.777   0.381   3.413
 4694SOL     OW14980   2.836   0.240   0.400
 4694SOL    HW114981   2.786   0.325   0.385
 4694SOL    HW214982   2.868   0.204   0.312
 4695SOL     OW14983   2.445   3.311   1.702
 4695SOL    HW114984   2.402   3.385   1.754
 4695SOL    HW214985   2.543   3.311   1.720
 4696SOL     OW14986   0.226   4.328   6.056
 4696SOL    HW114987   0.133   4.335   6.092
 4696SOL    HW214988   0.226   4.274   5.972
 4697SOL     OW14989   2.614   3.088   0.755
 4697SOL    HW114990   2.660   3.021   0.696
 4697SOL    HW214991   2.529   3.117   0.713
 4698SOL     OW14992   4.249   5.846   2.724
 4698SOL    HW114993   4.192   5.892   2.656
 4698SOL    HW214994   4.194   5.781   2.775
 4699SOL     OW14995   1.026   6.682   1.800
 4699SOL    HW114996   1.083   6.691   1.881
 4699SOL    HW214997   0.930   6.681   1.826
 4700SOL     OW14998   6.516   1.611   2.421
 4700SOL    HW114999   6.604   1.565   2.412
 4700SOL    HW215000   6.479   1.629   2.330
 4701SOL     OW15001   2.360   2.441   1.022
 4701SOL    HW115002   2.310   2.528   1.017
 4701SOL    HW215003   2.348   2.400   1.112
 4702SOL     OW15004   5.580   4.889   6.734
 4702SOL    HW115005   5.517   4.825   6.690
 4702SOL    HW215006   5.673   4.871   6.703
 4703SOL     OW15007   1.301   2.514   1.841
 4703SOL    HW115008   1.202   2.505   1.837
 4703SOL    HW215009   1.343   2.439   1.789
 4704SOL     OW15010   1.538   6.624   6.947
 4704SOL    HW115011   1.451   6.595   6.906
 4704SOL    HW215012   1.611   6.615   6.880
 4705SOL     OW15013   3.418   3.518   2.702
 4705SOL    HW115014   3.474   3.436   2.687
 4705SOL    HW215015   3.325   3.490   2.727
 4706SOL     OW15016   3.758   6.495   6.137
 4706SOL    HW115017   3.713   6.420   6.186
 4706SOL    HW215018   3.837   6.526   6.189
 4707SOL     OW15019   2.981   5.743   1.037
 4707SOL    HW115020   2.913   5.783   1.100
 4707SOL    HW215021   2.957   5.767   0.943
 4708SOL     OW15022   1.551   2.227   6.012
 4708SOL    HW115023   1.467   2.201   6.059
 4708SOL    HW215024   1.553   2.184   5.921
 4709SOL     OW15025   4.337   6.004   6.002
 4709SOL    HW115026   4.436   6.011   5.996
 4709SOL    HW215027   4.312   5.950   6.083
 4710SOL     OW15028   4.079   1.270   5.737
 4710SOL    HW115029   4.156   1.272   5.673
 4710SOL    HW215030   4.113   1.266   5.830
 4711SOL     OW15031   5.375   1.255   1.936
 4711SOL    HW115032   5.366   1.296   1.845
 4711SOL    HW215033   5.472   1.247   1.960
 4712SOL     OW15034   3.593   3.844   7.003
 4712SOL    HW115035   3.598   3.944   7.005
 4712SOL    HW215036   3.557   3.811   0.067
 4713SOL     OW15037   3.409   3.404   1.487
 4713SOL    HW115038   3.439   3.343   1.561
 4713SOL    HW215039   3.486   3.459   1.456
 4714SOL     OW15040   1.726   2.558   0.162
 4714SOL    HW115041   1.700   2.655   0.168
 4714SOL    HW215042   1.656   2.503   0.208
 4715SOL     OW15043   6.732   3.256   1.441
 4715SOL    HW115044   6.700   3.220   1.354
 4715SOL    HW215045   6.736   3.181   1.509
 4716SOL     OW15046   4.593   6.345   6.415
 4716SOL    HW115047   4.686   6.346   6.451
 4716SOL    HW215048   4.588   6.404   6.334
 4717SOL     OW15049   0.011   6.320   3.380
 4717SOL    HW115050   0.075   6.248   3.355
 4717SOL    HW215051   0.030   6.402   3.326
 4718SOL     OW15052   5.427   2.575   0.813
 4718SOL    HW115053   5.385   2.528   0.890
 4718SOL    HW215054   5.472   2.508   0.754
 4719SOL     OW15055   5.268   2.963   2.161
 4719SOL    HW115056   5.227   3.051   2.187
 4719SOL    HW215057   5.366   2.964   2.181
 4720SOL     OW15058   1.755   5.600   5.259
 4720SOL    HW115059   1.685   5.637   5.320
 4720SOL    HW215060   1.750   5.646   5.170
 4721SOL     OW15061   6.785   2.606   1.315
 4721SOL    HW115062   6.778   2.705   1.327
 4721SOL    HW215063   6.820   2.587   1.223
 4722SOL     OW15064   0.513   5.922   6.766
 4722SOL    HW115065   0.428   5.906   6.718
 4722SOL    HW215066   0.497   5.983   6.844
 4723SOL     OW15067   1.293   4.501   6.104
 4723SOL    HW115068   1.350   4.421   6.118
 4723SOL    HW215069   1.288   4.555   6.188
 4724SOL     OW15070   5.282   5.903   3.067
 4724SOL    HW115071   5.343   5.918   3.145
 4724SOL    HW215072   5.234   5.988   3.046
 4725SOL     OW15073   6.282   6.731   2.784
 4725SOL    HW115074   6.292   6.637   2.751
 4725SOL    HW215075   6.371   6.777   2.781
 4726SOL     OW15076   1.411   2.988   6.193
 4726SOL    HW115077   1.435   3.038   6.110
 4726SOL    HW215078   1.495   2.960   6.240
 4727SOL     OW15079   0.840   6.384   0.126
 4727SOL    HW115080   0.747   6.414   0.149
 4727SOL    HW215081   0.835   6.313   0.055
 4728SOL     OW15082   5.196   0.275   0.780
 4728SOL    HW115083   5.106   0.316   0.796
 4728SOL    HW215084   5.248   0.275   0.866
 4729SOL     OW15085   2.116   1.450   1.720
 4729SOL    HW115086   2.151   1.422   1.809
 4729SOL    HW215087   2.189   1.491   1.666
 4730SOL     OW15088   3.038   5.956   4.439
 4730SOL    HW115089   3.136   5.956   4.419
 4730SOL    HW215090   3.000   5.865   4.423
 4731SOL     OW15091   4.492   0.147   6.196
 4731SOL    HW115092   4.444   0.224   6.154
 4731SOL    HW215093   4.505   0.165   6.294
 4732SOL     OW15094   0.592   3.588   5.478
 4732SOL    HW115095   0.601   3.688   5.472
 4732SOL    HW215096   0.576   3.562   5.573
 4733SOL     OW15097   1.602   4.217   3.470
 4733SOL    HW115098   1.557   4.241   3.556
 4733SOL    HW215099   1.638   4.123   3.477
 4734SOL     OW15100   5.304   2.505   6.737
 4734SOL    HW115101   5.361   2.425   6.717
 4734SOL    HW215102   5.343   2.585   6.691
 4735SOL     OW15103   0.304   6.277   4.485
 4735SOL    HW115104   0.204   6.275   4.483
 4735SOL    HW215105   0.337   6.352   4.429
 4736SOL     OW15106   6.968   1.891   6.749
 4736SOL    HW115107   6.870   1.914   6.746
 4736SOL    HW215108   7.021   1.967   6.713
 4737SOL     OW15109   2.037   5.002   2.087
 4737SOL    HW115110   2.007   4.911   2.058
 4737SOL    HW215111   1.961   5.049   2.132
 4738SOL     OW15112   6.798   6.386   2.831
 4738SOL    HW115113   6.828   6.480   2.852
 4738SOL    HW215114   6.838   6.323   2.898
 4739SOL     OW15115   4.558   6.687   3.347
 4739SOL    HW115116   4.636   6.625   3.338
 4739SOL    HW215117   4.574   6.769   3.292
 4740SOL     OW15118   1.114   1.822   0.763
 4740SOL    HW115119   1.158   1.878   0.833
 4740SOL    HW215120   1.067   1.881   0.697
 4741SOL     OW15121   3.646   2.784   1.920
 4741SOL    HW115122   3.557   2.764   1.880
 4741SOL    HW215123   3.670   2.880   1.902
 4742SOL     OW15124   2.537   6.418   5.701
 4742SOL    HW115125   2.559   6.321   5.700
 4742SOL    HW215126   2.450   6.433   5.653
 4743SOL     OW15127   2.057   3.875   3.146
 4743SOL    HW115128   1.978   3.813   3.146
 4743SOL    HW215129   2.090   3.887   3.052
 4744SOL     OW15130   2.692   4.691   0.703
 4744SOL    HW115131   2.662   4.616   0.761
 4744SOL    HW215132   2.612   4.745   0.675
 4745SOL     OW15133   2.818   3.628   5.987
 4745SOL    HW115134   2.822   3.682   6.071
 4745SOL    HW215135   2.861   3.539   6.002
 4746SOL     OW15136   4.978   6.467   3.512
 4746SOL    HW115137   4.988   6.455   3.611
 4746SOL    HW215138   5.061   6.435   3.466
 4747SOL     OW15139   1.449   4.121   6.901
 4747SOL    HW115140   1.392   4.135   6.820
 4747SOL    HW215141   1.468   4.209   6.944
 4748SOL     OW15142   2.130   5.409   1.149
 4748SOL    HW115143   2.147   5.372   1.240
 4748SOL    HW215144   2.098   5.336   1.089
 4749SOL     OW15145   2.389   6.391   6.244
 4749SOL    HW115146   2.446   6.400   6.163
 4749SOL    HW215147   2.415   6.308   6.295
 4750SOL     OW15148   7.013   3.562   5.007
 4750SOL    HW115149   6.985   3.558   5.103
 4750SOL    HW215150   6.987   3.651   4.968
 4751SOL     OW15151   4.289   2.032   3.019
 4751SOL    HW115152   4.331   2.055   3.106
 4751SOL    HW215153   4.276   2.116   2.965
 4752SOL     OW15154   4.635   1.206   6.989
 4752SOL    HW115155   4.559   1.268   7.010
 4752SOL    HW215156   4.712   1.258   6.954
 4753SOL     OW15157   0.387   0.393   4.477
 4753SOL    HW115158   0.384   0.293   4.479
 4753SOL    HW215159   0.437   0.426   4.557
 4754SOL     OW15160   5.458   4.249   4.410
 4754SOL    HW115161   5.411   4.167   4.377
 4754SOL    HW215162   5.410   4.330   4.377
 4755SOL     OW15163   2.661   1.076   0.448
 4755SOL    HW115164   2.580   1.038   0.403
 4755SOL    HW215165   2.709   1.003   0.497
 4756SOL     OW15166   5.821   3.657   5.944
 4756SOL    HW115167   5.825   3.559   5.961
 4756SOL    HW215168   5.750   3.699   6.001
 4757SOL     OW15169   2.290   2.397   1.307
 4757SOL    HW115170   2.212   2.344   1.339
 4757SOL    HW215171   2.281   2.492   1.336
 4758SOL     OW15172   1.568   6.699   3.084
 4758SOL    HW115173   1.659   6.742   3.083
 4758SOL    HW215174   1.533   6.695   2.990
 4759SOL     OW15175   0.601   4.809   6.373
 4759SOL    HW115176   0.544   4.795   6.293
 4759SOL    HW215177   0.678   4.869   6.349
 4760SOL     OW15178   1.876   1.998   0.531
 4760SOL    HW115179   1.931   2.074   0.498
 4760SOL    HW215180   1.868   2.004   0.631
 4761SOL     OW15181   0.942   6.669   0.284
 4761SOL    HW115182   1.019   6.622   0.241
 4761SOL    HW215183   0.895   6.605   0.345
 4762SOL     OW15184   1.234   5.507   1.958
 4762SOL    HW115185   1.221   5.579   2.026
 4762SOL    HW215186   1.272   5.426   2.001
 4763SOL     OW15187   5.192   0.680   2.629
 4763SOL    HW115188   5.125   0.745   2.665
 4763SOL    HW215189   5.243   0.723   2.555
 4764SOL     OW15190   4.316   4.066   5.382
 4764SOL    HW115191   4.249   4.001   5.346
 4764SOL    HW215192   4.274   4.156   5.392
 4765SOL     OW15193   3.825   0.945   5.820
 4765SOL    HW115194   3.845   0.882   5.745
 4765SOL    HW215195   3.767   0.900   5.887
 4766SOL     OW15196   5.682   5.064   3.761
 4766SOL    HW115197   5.744   5.141   3.776
 4766SOL    HW215198   5.589   5.091   3.783
 4767SOL     OW15199   3.223   5.183   5.085
 4767SOL    HW115200   3.226   5.137   4.996
 4767SOL    HW215201   3.158   5.136   5.145
 4768SOL     OW15202   4.238   2.553   6.483
 4768SOL    HW115203   4.311   2.550   6.552
 4768SOL    HW215204   4.275   2.527   6.394
 4769SOL     OW15205   4.697   6.028   0.453
 4769SOL    HW115206   4.744   6.111   0.482
 4769SOL    HW215207   4.764   5.958   0.430
 4770SOL     OW15208   0.404   2.232   4.591
 4770SOL    HW115209   0.377   2.327   4.602
 4770SOL    HW215210   0.501   2.227   4.567
 4771SOL     OW15211   2.984   6.465   5.977
 4771SOL    HW115212   2.925   6.542   5.951
 4771SOL    HW215213   3.001   6.468   6.075
 4772SOL     OW15214   3.808   4.951   6.795
 4772SOL    HW115215   3.888   4.966   6.737
 4772SOL    HW215216   3.811   4.860   6.835
 4773SOL     OW15217   0.096   5.101   5.601
 4773SOL    HW115218   0.009   5.148   5.593
 4773SOL    HW215219   0.167   5.165   5.629
 4774SOL     OW15220   1.843   3.887   0.697
 4774SOL    HW115221   1.775   3.956   0.673
 4774SOL    HW215222   1.799   3.814   0.750
 4775SOL     OW15223   5.435   6.363   3.404
 4775SOL    HW115224   5.506   6.403   3.463
 4775SOL    HW215225   5.471   6.280   3.361
 4776SOL     OW15226   0.719   0.417   5.093
 4776SOL    HW115227   0.674   0.336   5.057
 4776SOL    HW215228   0.682   0.499   5.049
 4777SOL     OW15229   1.748   4.944   0.531
 4777SOL    HW115230   1.782   4.852   0.511
 4777SOL    HW215231   1.707   4.982   0.448
 4778SOL     OW15232   6.792   2.808   4.688
 4778SOL    HW115233   6.707   2.764   4.656
 4778SOL    HW215234   6.832   2.860   4.612
 4779SOL     OW15235   5.349   0.325   3.685
 4779SOL    HW115236   5.415   0.375   3.629
 4779SOL    HW215237   5.292   0.389   3.736
 4780SOL     OW15238   6.342   2.992   6.733
 4780SOL    HW115239   6.429   2.981   6.780
 4780SOL    HW215240   6.355   3.053   6.654
 4781SOL     OW15241   2.654   5.311   2.263
 4781SOL    HW115242   2.564   5.287   2.300
 4781SOL    HW215243   2.688   5.392   2.310
 4782SOL     OW15244   6.163   5.184   6.822
 4782SOL    HW115245   6.219   5.195   6.740
 4782SOL    HW215246   6.150   5.273   6.866
 4783SOL     OW15247   5.126   3.472   6.573
 4783SOL    HW115248   5.075   3.436   6.495
 4783SOL    HW215249   5.066   3.475   6.653
 4784SOL     OW15250   6.445   1.953   6.478
 4784SOL    HW115251   6.491   1.994   6.399
 4784SOL    HW215252   6.513   1.926   6.546
 4785SOL     OW15253   0.438   6.249   2.890
 4785SOL    HW115254   0.533   6.224   2.874
 4785SOL    HW215255   0.428   6.286   2.982
 4786SOL     OW15256   2.296   6.998   0.239
 4786SOL    HW115257   2.305   6.990   0.140
 4786SOL    HW215258   2.254   6.915   0.276
 4787SOL     OW15259   3.727   1.435   2.841
 4787SOL    HW115260   3.632   1.459   2.819
 4787SOL    HW215261   3.785   1.455   2.762
 4788SOL     OW15262   7.010   6.723   0.246
 4788SOL    HW115263   6.983   6.746   0.339
 4788SOL    HW215264   0.078   6.760   0.228
 4789SOL     OW15265   5.375   1.391   1.655
 4789SOL    HW115266   5.450   1.447   1.619
 4789SOL    HW215267   5.353   1.318   1.590
 4790SOL     OW15268   6.139   1.456   5.497
 4790SOL    HW115269   6.120   1.503   5.410
 4790SOL    HW215270   6.144   1.524   5.570
 4791SOL     OW15271   7.018   2.938   1.382
 4791SOL    HW115272   0.068   2.910   1.444
 4791SOL    HW215273   0.033   2.983   1.302
 4792SOL     OW15274   2.440   4.440   3.961
 4792SOL    HW115275   2.373   4.503   4.000
 4792SOL    HW215276   2.398   4.350   3.951
 4793SOL     OW15277   1.461   2.724   5.562
 4793SOL    HW115278   1.529   2.685   5.624
 4793SOL    HW215279   1.508   2.760   5.481
 4794SOL     OW15280   4.748   0.200   4.426
 4794SOL    HW115281   4.830   0.253   4.409
 4794SOL    HW215282   4.743   0.176   4.523
 4795SOL     OW15283   6.403   1.712   4.734
 4795SOL    HW115284   6.423   1.650   4.658
 4795SOL    HW215285   6.450   1.679   4.816
 4796SOL     OW15286   4.156   0.966   5.668
 4796SOL    HW115287   4.114   1.018   5.742
 4796SOL    HW215288   4.130   1.006   5.580
 4797SOL     OW15289   0.335   6.998   5.016
 4797SOL    HW115290   0.312   0.071   5.034
 4797SOL    HW215291   0.271   6.961   4.949
 4798SOL     OW15292   0.191   4.461   5.732
 4798SOL    HW115293   0.182   4.372   5.777
 4798SOL    HW215294   0.105   4.511   5.739
 4799SOL     OW15295   4.451   2.004   0.363
 4799SOL    HW115296   4.518   1.973   0.431
 4799SOL    HW215297   4.497   2.018   0.276
 4800SOL     OW15298   1.936   3.332   6.667
 4800SOL    HW115299   2.030   3.333   6.632
 4800SOL    HW215300   1.874   3.301   6.595
 4801SOL     OW15301   3.176   2.402   0.336
 4801SOL    HW115302   3.086   2.402   0.293
 4801SOL    HW215303   3.248   2.403   0.266
 4802SOL     OW15304   0.504   6.623   1.822
 4802SOL    HW115305   0.502   6.572   1.908
 4802SOL    HW215306   0.588   6.677   1.817
 4803SOL     OW15307   0.589   4.489   0.641
 4803SOL    HW115308   0.567   4.569   0.585
 4803SOL    HW215309   0.673   4.447   0.607
 4804SOL     OW15310   6.437   6.343   1.597
 4804SOL    HW115311   6.340   6.341   1.621
 4804SOL    HW215312   6.451   6.401   1.517
 4805SOL     OW15313   6.021   1.017   2.698
 4805SOL    HW115314   6.058   1.109   2.684
 4805SOL    HW215315   5.925   1.016   2.671
 4806SOL     OW15316   0.943   4.212   2.662
 4806SOL    HW115317   0.999   4.295   2.658
 4806SOL    HW215318   0.850   4.235   2.690
 4807SOL     OW15319   0.455   5.152   6.717
 4807SOL    HW115320   0.411   5.102   6.791
 4807SOL    HW215321   0.395   5.155   6.638
 4808SOL     OW15322   4.210   5.749   0.501
 4808SOL    HW115323   4.196   5.780   0.406
 4808SOL    HW215324   4.304   5.716   0.511
 4809SOL     OW15325   3.465   4.659   0.880
 4809SOL    HW115326   3.493   4.653   0.784
 4809SOL    HW215327   3.547   4.653   0.938
 4810SOL     OW15328   1.359   4.019   3.399
 4810SOL    HW115329   1.456   4.006   3.377
 4810SOL    HW215330   1.332   4.113   3.376
 4811SOL     OW15331   3.892   3.559   2.705
 4811SOL    HW115332   3.899   3.498   2.627
 4811SOL    HW215333   3.923   3.651   2.679
 4812SOL     OW15334   0.563   0.403   2.362
 4812SOL    HW115335   0.615   0.324   2.329
 4812SOL    HW215336   0.566   0.405   2.462
 4813SOL     OW15337   6.097   1.494   6.766
 4813SOL    HW115338   6.045   1.426   6.714
 4813SOL    HW215339   6.188   1.504   6.727
 4814SOL     OW15340   6.892   3.177   1.023
 4814SOL    HW115341   6.967   3.150   1.083
 4814SOL    HW215342   6.840   3.096   0.997
 4815SOL     OW15343   5.522   4.291   3.225
 4815SOL    HW115344   5.453   4.335   3.284
 4815SOL    HW215345   5.478   4.256   3.143
 4816SOL     OW15346   2.477   5.277   1.224
 4816SOL    HW115347   2.569   5.315   1.214
 4816SOL    HW215348   2.436   5.264   1.133
 4817SOL     OW15349   2.569   1.177   0.957
 4817SOL    HW115350   2.513   1.258   0.973
 4817SOL    HW215351   2.530   1.099   1.005
 4818SOL     OW15352   0.913   1.230   4.352
 4818SOL    HW115353   0.892   1.149   4.408
 4818SOL    HW215354   0.900   1.207   4.255
 4819SOL     OW15355   2.326   2.244   1.837
 4819SOL    HW115356   2.398   2.231   1.769
 4819SOL    HW215357   2.268   2.321   1.810
 4820SOL     OW15358   6.688   1.791   1.247
 4820SOL    HW115359   6.626   1.739   1.188
 4820SOL    HW215360   6.655   1.885   1.253
 4821SOL     OW15361   0.379   0.378   1.979
 4821SOL    HW115362   0.383   0.293   2.031
 4821SOL    HW215363   0.293   0.425   1.998
 4822SOL     OW15364   1.995   3.104   4.027
 4822SOL    HW115365   2.013   3.138   3.935
 4822SOL    HW215366   2.036   3.166   4.094
 4823SOL     OW15367   1.026   1.452   3.988
 4823SOL    HW115368   1.071   1.517   4.049
 4823SOL    HW215369   1.072   1.453   3.899
 4824SOL     OW15370   5.739   1.802   4.085
 4824SOL    HW115371   5.788   1.834   4.167
 4824SOL    HW215372   5.759   1.864   4.009
 4825SOL     OW15373   1.600   2.532   4.775
 4825SOL    HW115374   1.510   2.512   4.815
 4825SOL    HW215375   1.667   2.544   4.848
 4826SOL     OW15376   0.258   0.409   6.173
 4826SOL    HW115377   0.264   0.448   6.080
 4826SOL    HW215378   0.195   0.332   6.172
 4827SOL     OW15379   6.035   2.248   1.923
 4827SOL    HW115380   6.108   2.267   1.857
 4827SOL    HW215381   6.052   2.161   1.968
 4828SOL     OW15382   5.475   3.282   0.885
 4828SOL    HW115383   5.536   3.324   0.817
 4828SOL    HW215384   5.485   3.331   0.972
 4829SOL     OW15385   3.933   6.500   6.958
 4829SOL    HW115386   3.937   6.567   6.884
 4829SOL    HW215387   4.026   6.470   6.981
 4830SOL     OW15388   4.928   6.415   3.775
 4830SOL    HW115389   4.986   6.391   3.853
 4830SOL    HW215390   4.853   6.350   3.767
 4831SOL     OW15391   0.255   4.720   6.869
 4831SOL    HW115392   0.157   4.709   6.885
 4831SOL    HW215393   0.279   4.678   6.782
 4832SOL     OW15394   2.858   2.594   5.616
 4832SOL    HW115395   2.876   2.629   5.524
 4832SOL    HW215396   2.936   2.615   5.676
 4833SOL     OW15397   4.924   1.157   2.564
 4833SOL    HW115398   4.944   1.062   2.589
 4833SOL    HW215399   4.846   1.190   2.618
 4834SOL     OW15400   4.021   0.077   0.983
 4834SOL    HW115401   3.997   0.095   1.078
 4834SOL    HW215402   3.994   7.008   0.958
 4835SOL     OW15403   0.802   1.692   6.324
 4835SOL    HW115404   0.892   1.722   6.292
 4835SOL    HW215405   0.751   1.652   6.247
 4836SOL     OW15406   4.934   2.680   3.899
 4836SOL    HW115407   4.883   2.595   3.910
 4836SOL    HW215408   4.901   2.748   3.964
 4837SOL     OW15409   4.889   3.560   2.255
 4837SOL    HW115410   4.792   3.582   2.266
 4837SOL    HW215411   4.925   3.606   2.174
 4838SOL     OW15412   0.952   4.786   1.746
 4838SOL    HW115413   1.021   4.761   1.678
 4838SOL    HW215414   0.946   4.715   1.816
 4839SOL     OW15415   1.261   3.321   5.983
 4839SOL    HW115416   1.249   3.307   6.081
 4839SOL    HW215417   1.284   3.417   5.965
 4840SOL     OW15418   0.602   5.993   6.058
 4840SOL    HW115419   0.668   6.049   6.106
 4840SOL    HW215420   0.551   6.049   5.992
 4841SOL     OW15421   2.994   6.311   1.570
 4841SOL    HW115422   3.085   6.284   1.539
 4841SOL    HW215423   2.959   6.242   1.633
 4842SOL     OW15424   2.947   4.915   2.084
 4842SOL    HW115425   2.941   5.000   2.138
 4842SOL    HW215426   2.934   4.836   2.144
 4843SOL     OW15427   6.121   3.239   0.139
 4843SOL    HW115428   6.033   3.270   0.104
 4843SOL    HW215429   6.121   3.139   0.146
 4844SOL     OW15430   6.704   4.085   5.441
 4844SOL    HW115431   6.785   4.144   5.440
 4844SOL    HW215432   6.709   4.020   5.365
 4845SOL     OW15433   5.970   5.461   5.336
 4845SOL    HW115434   5.932   5.423   5.252
 4845SOL    HW215435   5.925   5.548   5.356
 4846SOL     OW15436   6.415   3.219   3.014
 4846SOL    HW115437   6.403   3.126   3.049
 4846SOL    HW215438   6.477   3.269   3.075
 4847SOL     OW15439   2.926   1.456   5.873
 4847SOL    HW115440   2.899   1.458   5.969
 4847SOL    HW215441   2.894   1.539   5.828
 4848SOL     OW15442   1.559   1.145   4.354
 4848SOL    HW115443   1.489   1.102   4.297
 4848SOL    HW215444   1.546   1.119   4.449
 4849SOL     OW15445   1.466   6.588   6.571
 4849SOL    HW115446   1.512   6.661   6.623
 4849SOL    HW215447   1.495   6.593   6.476
 4850SOL     OW15448   3.876   1.597   2.645
 4850SOL    HW115449   3.878   1.640   2.735
 4850SOL    HW215450   3.967   1.600   2.604
 4851SOL     OW15451   4.070   6.397   5.747
 4851SOL    HW115452   3.993   6.447   5.787
 4851SOL    HW215453   4.131   6.461   5.701
 4852SOL     OW15454   1.245   0.256   5.269
 4852SOL    HW115455   1.340   0.236   5.292
 4852SOL    HW215456   1.220   0.346   5.304
 4853SOL     OW15457   2.721   0.901   3.443
 4853SOL    HW115458   2.626   0.917   3.416
 4853SOL    HW215459   2.745   0.805   3.425
 4854SOL     OW15460   4.976   6.733   1.889
 4854SOL    HW115461   4.918   6.695   1.961
 4854SOL    HW215462   5.049   6.668   1.867
 4855SOL     OW15463   6.573   2.969   2.628
 4855SOL    HW115464   6.509   2.932   2.695
 4855SOL    HW215465   6.600   2.896   2.564
 4856SOL     OW15466   1.789   3.933   2.388
 4856SOL    HW115467   1.826   3.843   2.363
 4856SOL    HW215468   1.711   3.955   2.328
 4857SOL     OW15469   1.530   2.305   5.191
 4857SOL    HW115470   1.454   2.241   5.208
 4857SOL    HW215471   1.555   2.300   5.095
 4858SOL     OW15472   1.209   0.913   4.832
 4858SOL    HW115473   1.282   0.942   4.893
 4858SOL    HW215474   1.197   0.981   4.759
 4859SOL     OW15475   0.834   0.504   4.643
 4859SOL    HW115476   0.891   0.547   4.712
 4859SOL    HW215477   0.869   0.527   4.552
 4860SOL     OW15478   3.783   4.339   1.228
 4860SOL    HW115479   3.689   4.306   1.215
 4860SOL    HW215480   3.781   4.434   1.258
 4861SOL     OW15481   5.004   4.697   6.703
 4861SOL    HW115482   5.050   4.758   6.767
 4861SOL    HW215483   4.907   4.722   6.696
 4862SOL     OW15484   2.729   4.783   4.531
 4862SOL    HW115485   2.800   4.779   4.461
 4862SOL    HW215486   2.772   4.794   4.621
 4863SOL     OW15487   5.879   3.733   1.880
 4863SOL    HW115488   5.784   3.736   1.911
 4863SOL    HW215489   5.940   3.726   1.958
 4864SOL     OW15490   3.802   1.493   3.337
 4864SOL    HW115491   3.799   1.590   3.362
 4864SOL    HW215492   3.725   1.446   3.380
 4865SOL     OW15493   2.142   0.491   5.101
 4865SOL    HW115494   2.159   0.577   5.149
 4865SOL    HW215495   2.129   0.509   5.004
 4866SOL     OW15496   6.351   1.969   1.112
 4866SOL    HW115497   6.329   2.064   1.136
 4866SOL    HW215498   6.325   1.952   1.017
 4867SOL     OW15499   3.386   5.484   2.259
 4867SOL    HW115500   3.290   5.487   2.288
 4867SOL    HW215501   3.417   5.576   2.238
 4868SOL     OW15502   6.531   5.079   2.421
 4868SOL    HW115503   6.618   5.060   2.375
 4868SOL    HW215504   6.458   5.030   2.375
 4869SOL     OW15505   1.183   1.679   2.067
 4869SOL    HW115506   1.154   1.758   2.013
 4869SOL    HW215507   1.271   1.699   2.109
 4870SOL     OW15508   0.585   6.390   1.700
 4870SOL    HW115509   0.513   6.454   1.728
 4870SOL    HW215510   0.644   6.434   1.632
 4871SOL     OW15511   1.431   0.751   3.782
 4871SOL    HW115512   1.475   0.683   3.723
 4871SOL    HW215513   1.345   0.780   3.741
 4872SOL     OW15514   6.287   7.009   3.778
 4872SOL    HW115515   6.233   6.927   3.797
 4872SOL    HW215516   6.286   0.004   3.680
 4873SOL     OW15517   6.025   5.117   3.549
 4873SOL    HW115518   6.094   5.045   3.561
 4873SOL    HW215519   6.070   5.200   3.514
 4874SOL     OW15520   6.523   3.256   2.634
 4874SOL    HW115521   6.534   3.160   2.659
 4874SOL    HW215522   6.426   3.275   2.620
 4875SOL     OW15523   5.837   2.013   0.853
 4875SOL    HW115524   5.810   2.011   0.949
 4875SOL    HW215525   5.757   2.002   0.795
 4876SOL     OW15526   6.024   2.435   3.101
 4876SOL    HW115527   6.075   2.472   3.179
 4876SOL    HW215528   6.087   2.383   3.043
 4877SOL     OW15529   1.317   1.799   6.652
 4877SOL    HW115530   1.407   1.844   6.652
 4877SOL    HW215531   1.270   1.819   6.567
 4878SOL     OW15532   6.165   1.333   2.041
 4878SOL    HW115533   6.142   1.254   2.097
 4878SOL    HW215534   6.133   1.319   1.948
 4879SOL     OW15535   4.337   0.836   3.007
 4879SOL    HW115536   4.403   0.783   2.954
 4879SOL    HW215537   4.245   0.799   2.994
 4880SOL     OW15538   5.363   3.580   6.652
 4880SOL    HW115539   5.273   3.567   6.612
 4880SOL    HW215540   5.433   3.559   6.583
 4881SOL     OW15541   1.235   0.909   0.399
 4881SOL    HW115542   1.158   0.860   0.359
 4881SOL    HW215543   1.247   0.881   0.495
 4882SOL     OW15544   4.597   0.974   4.580
 4882SOL    HW115545   4.660   0.959   4.504
 4882SOL    HW215546   4.505   0.993   4.545
 4883SOL     OW15547   5.063   5.095   1.822
 4883SOL    HW115548   4.993   5.083   1.751
 4883SOL    HW215549   5.058   5.187   1.858
 4884SOL     OW15550   2.733   6.662   0.925
 4884SOL    HW115551   2.725   6.639   0.828
 4884SOL    HW215552   2.791   6.594   0.971
 4885SOL     OW15553   2.092   5.331   1.731
 4885SOL    HW115554   2.071   5.273   1.653
 4885SOL    HW215555   2.021   5.401   1.741
 4886SOL     OW15556   1.266   6.168   1.190
 4886SOL    HW115557   1.203   6.111   1.137
 4886SOL    HW215558   1.270   6.134   1.284
 4887SOL     OW15559   0.004   0.503   2.317
 4887SOL    HW115560   0.098   0.496   2.349
 4887SOL    HW215561   6.975   0.424   2.349
 4888SOL     OW15562   2.728   0.175   4.223
 4888SOL    HW115563   2.766   0.179   4.315
 4888SOL    HW215564   2.701   0.081   4.203
 4889SOL     OW15565   6.859   2.006   5.243
 4889SOL    HW115566   6.863   2.099   5.279
 4889SOL    HW215567   6.811   1.947   5.309
 4890SOL     OW15568   0.122   1.044   6.733
 4890SOL    HW115569   0.157   1.017   6.643
 4890SOL    HW215570   0.075   1.132   6.725
 4891SOL     OW15571   2.636   4.624   0.106
 4891SOL    HW115572   2.640   4.544   0.166
 4891SOL    HW215573   2.610   4.704   0.159
 4892SOL     OW15574   3.539   6.238   2.383
 4892SOL    HW115575   3.467   6.197   2.328
 4892SOL    HW215576   3.547   6.335   2.361
 4893SOL     OW15577   6.594   3.110   1.228
 4893SOL    HW115578   6.664   3.039   1.238
 4893SOL    HW215579   6.511   3.083   1.277
 4894SOL     OW15580   2.812   0.395   3.161
 4894SOL    HW115581   2.739   0.401   3.093
 4894SOL    HW215582   2.772   0.386   3.252
 4895SOL     OW15583   0.857   4.729   4.342
 4895SOL    HW115584   0.944   4.689   4.369
 4895SOL    HW215585   0.823   4.787   4.416
 4896SOL     OW15586   1.529   4.857   1.968
 4896SOL    HW115587   1.458   4.841   1.899
 4896SOL    HW215588   1.528   4.953   1.995
 4897SOL     OW15589   1.856   4.045   5.706
 4897SOL    HW115590   1.947   4.084   5.695
 4897SOL    HW215591   1.840   4.024   5.802
 4898SOL     OW15592   4.232   0.816   4.358
 4898SOL    HW115593   4.243   0.845   4.453
 4898SOL    HW215594   4.170   0.879   4.311
 4899SOL     OW15595   5.208   5.339   3.115
 4899SOL    HW115596   5.262   5.415   3.152
 4899SOL    HW215597   5.236   5.320   3.021
 4900SOL     OW15598   3.501   6.123   5.015
 4900SOL    HW115599   3.474   6.114   4.919
 4900SOL    HW215600   3.432   6.177   5.064
 4901SOL     OW15601   2.939   1.303   5.201
 4901SOL    HW115602   2.952   1.258   5.290
 4901SOL    HW215603   3.004   1.266   5.135
 4902SOL     OW15604   1.840   1.693   4.894
 4902SOL    HW115605   1.766   1.679   4.960
 4902SOL    HW215606   1.805   1.746   4.816
 4903SOL     OW15607   3.948   5.867   6.926
 4903SOL    HW115608   3.877   5.902   6.865
 4903SOL    HW215609   3.928   5.772   6.951
 4904SOL     OW15610   2.469   0.080   4.979
 4904SOL    HW115611   2.444   0.154   4.917
 4904SOL    HW215612   2.505   0.118   5.064
 4905SOL     OW15613   3.225   0.537   2.836
 4905SOL    HW115614   3.173   0.609   2.881
 4905SOL    HW215615   3.202   0.448   2.876
 4906SOL     OW15616   5.517   1.749   6.412
 4906SOL    HW115617   5.553   1.752   6.505
 4906SOL    HW215618   5.588   1.716   6.350
 4907SOL     OW15619   4.305   6.238   2.445
 4907SOL    HW115620   4.273   6.308   2.381
 4907SOL    HW215621   4.391   6.199   2.412
 4908SOL     OW15622   5.621   6.193   0.597
 4908SOL    HW115623   5.670   6.124   0.652
 4908SOL    HW215624   5.656   6.192   0.504
 4909SOL     OW15625   0.489   0.050   4.290
 4909SOL    HW115626   0.567   0.112   4.304
 4909SOL    HW215627   0.459   0.014   4.378
 4910SOL     OW15628   5.226   1.096   4.991
 4910SOL    HW115629   5.238   1.157   4.913
 4910SOL    HW215630   5.196   1.148   5.071
 4911SOL     OW15631   1.620   4.166   3.775
 4911SOL    HW115632   1.697   4.113   3.741
 4911SOL    HW215633   1.573   4.115   3.847
 4912SOL     OW15634   5.537   1.299   6.730
 4912SOL    HW115635   5.595   1.378   6.711
 4912SOL    HW215636   5.543   1.234   6.655
 4913SOL     OW15637   4.193   3.017   5.435
 4913SOL    HW115638   4.246   3.034   5.518
 4913SOL    HW215639   4.219   3.084   5.365
 4914SOL     OW15640   3.123   0.186   4.756
 4914SOL    HW115641   3.222   0.183   4.770
 4914SOL    HW215642   3.081   0.106   4.799
 4915SOL     OW15643   3.403   6.431   5.836
 4915SOL    HW115644   3.373   6.351   5.887
 4915SOL    HW215645   3.438   6.401   5.747
 4916SOL     OW15646   1.051   0.502   3.873
 4916SOL    HW115647   1.083   0.528   3.964
 4916SOL    HW215648   0.975   0.562   3.846
 4917SOL     OW15649   2.328   5.762   1.354
 4917SOL    HW115650   2.299   5.856   1.340
 4917SOL    HW215651   2.253   5.700   1.332
 4918SOL     OW15652   4.811   5.825   3.105
 4918SOL    HW115653   4.783   5.903   3.161
 4918SOL    HW215654   4.753   5.746   3.126
 4919SOL     OW15655   3.497   2.575   0.815
 4919SOL    HW115656   3.474   2.518   0.736
 4919SOL    HW215657   3.575   2.535   0.863
 4920SOL     OW15658   5.476   0.566   4.373
 4920SOL    HW115659   5.448   0.590   4.466
 4920SOL    HW215660   5.395   0.563   4.315
 4921SOL     OW15661   1.186   5.259   0.914
 4921SOL    HW115662   1.197   5.282   0.818
 4921SOL    HW215663   1.193   5.159   0.925
 4922SOL     OW15664   2.523   2.510   5.311
 4922SOL    HW115665   2.600   2.482   5.253
 4922SOL    HW215666   2.527   2.608   5.326
 4923SOL     OW15667   3.538   2.063   2.721
 4923SOL    HW115668   3.580   2.073   2.811
 4923SOL    HW215669   3.441   2.085   2.726
 4924SOL     OW15670   3.764   1.222   5.005
 4924SOL    HW115671   3.776   1.315   4.972
 4924SOL    HW215672   3.827   1.205   5.081
 4925SOL     OW15673   6.553   6.718   2.729
 4925SOL    HW115674   6.641   6.763   2.739
 4925SOL    HW215675   6.545   6.680   2.637
 4926SOL     OW15676   4.674   1.243   0.564
 4926SOL    HW115677   4.609   1.208   0.631
 4926SOL    HW215678   4.689   1.174   0.493
 4927SOL     OW15679   3.515   3.987   4.644
 4927SOL    HW115680   3.484   3.957   4.734
 4927SOL    HW215681   3.436   4.008   4.587
 4928SOL     OW15682   2.196   6.680   6.740
 4928SOL    HW115683   2.225   6.775   6.732
 4928SOL    HW215684   2.245   6.636   6.815
 4929SOL     OW15685   6.841   6.761   4.236
 4929SOL    HW115686   6.819   6.814   4.154
 4929SOL    HW215687   6.759   6.715   4.269
 4930SOL     OW15688   5.146   0.837   3.099
 4930SOL    HW115689   5.159   0.785   3.015
 4930SOL    HW215690   5.099   0.780   3.167
 4931SOL     OW15691   6.992   6.629   0.850
 4931SOL    HW115692   6.896   6.604   0.864
 4931SOL    HW215693   0.012   6.560   0.792
 4932SOL     OW15694   3.040   3.054   2.141
 4932SOL    HW115695   3.015   2.992   2.215
 4932SOL    HW215696   2.956   3.094   2.102
 4933SOL     OW15697   2.419   6.851   2.713
 4933SOL    HW115698   2.342   6.814   2.662
 4933SOL    HW215699   2.390   6.877   2.805
 4934SOL     OW15700   3.316   5.791   3.027
 4934SOL    HW115701   3.270   5.715   2.982
 4934SOL    HW215702   3.410   5.798   2.994
 4935SOL     OW15703   2.047   1.897   6.519
 4935SOL    HW115704   1.982   1.971   6.502
 4935SOL    HW215705   2.136   1.921   6.479
 4936SOL     OW15706   2.410   4.784   1.495
 4936SOL    HW115707   2.413   4.875   1.452
 4936SOL    HW215708   2.500   4.741   1.486
 4937SOL     OW15709   5.829   3.090   5.533
 4937SOL    HW115710   5.747   3.045   5.498
 4937SOL    HW215711   5.864   3.154   5.465
 4938SOL     OW15712   2.225   5.055   5.610
 4938SOL    HW115713   2.153   5.088   5.671
 4938SOL    HW215714   2.185   5.018   5.527
 4939SOL     OW15715   6.386   2.133   4.516
 4939SOL    HW115716   6.313   2.198   4.495
 4939SOL    HW215717   6.367   2.088   4.603
 4940SOL     OW15718   0.053   1.448   4.596
 4940SOL    HW115719   0.151   1.465   4.588
 4940SOL    HW215720   0.002   1.527   4.562
 4941SOL     OW15721   5.225   2.212   5.616
 4941SOL    HW115722   5.162   2.276   5.571
 4941SOL    HW215723   5.316   2.222   5.577
 4942SOL     OW15724   4.984   2.324   6.348
 4942SOL    HW115725   4.887   2.336   6.324
 4942SOL    HW215726   5.007   2.388   6.421
 4943SOL     OW15727   4.949   3.468   6.775
 4943SOL    HW115728   5.013   3.485   6.850
 4943SOL    HW215729   4.856   3.488   6.805
 4944SOL     OW15730   1.923   4.561   1.565
 4944SOL    HW115731   1.997   4.607   1.516
 4944SOL    HW215732   1.861   4.630   1.603
 4945SOL     OW15733   1.229   0.624   4.359
 4945SOL    HW115734   1.195   0.702   4.411
 4945SOL    HW215735   1.208   0.539   4.408
 4946SOL     OW15736   0.991   3.980   0.118
 4946SOL    HW115737   1.045   4.034   0.183
 4946SOL    HW215738   0.979   3.887   0.154
 4947SOL     OW15739   2.441   0.913   1.181
 4947SOL    HW115740   2.443   0.816   1.206
 4947SOL    HW215741   2.530   0.955   1.199
 4948SOL     OW15742   1.478   2.223   2.225
 4948SOL    HW115743   1.452   2.319   2.232
 4948SOL    HW215744   1.413   2.175   2.166
 4949SOL     OW15745   4.801   6.796   6.293
 4949SOL    HW115746   4.875   6.844   6.341
 4949SOL    HW215747   4.744   6.748   6.360
 4950SOL     OW15748   2.220   5.319   4.635
 4950SOL    HW115749   2.232   5.245   4.570
 4950SOL    HW215750   2.309   5.354   4.663
 4951SOL     OW15751   4.963   1.383   4.184
 4951SOL    HW115752   5.048   1.431   4.161
 4951SOL    HW215753   4.968   1.350   4.278
 4952SOL     OW15754   6.920   0.994   5.592
 4952SOL    HW115755   6.858   0.996   5.670
 4952SOL    HW215756   6.991   0.926   5.607
 4953SOL     OW15757   1.944   6.423   2.195
 4953SOL    HW115758   1.956   6.328   2.165
 4953SOL    HW215759   1.926   6.480   2.116
 4954SOL     OW15760   4.176   3.355   6.845
 4954SOL    HW115761   4.139   3.408   6.922
 4954SOL    HW215762   4.171   3.410   6.762
 4955SOL     OW15763   2.945   5.899   6.540
 4955SOL    HW115764   2.845   5.893   6.530
 4955SOL    HW215765   2.978   5.821   6.593
 4956SOL     OW15766   2.341   6.657   4.947
 4956SOL    HW115767   2.303   6.750   4.943
 4956SOL    HW215768   2.270   6.592   4.920
 4957SOL     OW15769   6.855   1.786   2.245
 4957SOL    HW115770   6.901   1.834   2.171
 4957SOL    HW215771   6.798   1.713   2.207
 4958SOL     OW15772   6.844   5.232   5.105
 4958SOL    HW115773   6.911   5.206   5.175
 4958SOL    HW215774   6.845   5.164   5.032
 4959SOL     OW15775   6.536   1.276   6.548
 4959SOL    HW115776   6.560   1.351   6.486
 4959SOL    HW215777   6.534   1.310   6.642
 4960SOL     OW15778   3.744   5.889   3.152
 4960SOL    HW115779   3.765   5.956   3.223
 4960SOL    HW215780   3.676   5.926   3.089
 4961SOL     OW15781   4.949   1.639   6.077
 4961SOL    HW115782   5.037   1.684   6.087
 4961SOL    HW215783   4.939   1.570   6.149
 4962SOL     OW15784   6.308   2.337   0.165
 4962SOL    HW115785   6.217   2.322   0.126
 4962SOL    HW215786   6.310   2.426   0.211
 4963SOL     OW15787   5.980   5.797   6.939
 4963SOL    HW115788   5.936   5.853   7.010
 4963SOL    HW215789   5.990   5.703   6.971
 4964SOL     OW15790   3.447   6.859   3.975
 4964SOL    HW115791   3.406   6.773   4.004
 4964SOL    HW215792   3.400   6.892   3.893
 4965SOL     OW15793   0.244   0.408   3.563
 4965SOL    HW115794   0.343   0.414   3.550
 4965SOL    HW215795   0.200   0.486   3.520
 4966SOL     OW15796   2.466   0.550   4.675
 4966SOL    HW115797   2.397   0.604   4.723
 4966SOL    HW215798   2.547   0.539   4.733
 4967SOL     OW15799   3.479   3.978   6.085
 4967SOL    HW115800   3.558   4.031   6.057
 4967SOL    HW215801   3.423   4.031   6.148
 4968SOL     OW15802   6.165   2.551   3.300
 4968SOL    HW115803   6.168   2.635   3.355
 4968SOL    HW215804   6.243   2.550   3.236
 4969SOL     OW15805   2.502   0.719   2.143
 4969SOL    HW115806   2.561   0.647   2.181
 4969SOL    HW215807   2.439   0.751   2.214
 4970SOL     OW15808   1.998   2.135   3.914
 4970SOL    HW115809   2.041   2.226   3.914
 4970SOL    HW215810   1.899   2.146   3.923
 4971SOL     OW15811   6.446   6.605   3.831
 4971SOL    HW115812   6.385   6.676   3.865
 4971SOL    HW215813   6.535   6.645   3.808
 4972SOL     OW15814   2.339   2.863   6.947
 4972SOL    HW115815   2.266   2.796   6.952
 4972SOL    HW215816   2.307   2.943   6.896
 4973SOL     OW15817   0.640   0.432   2.630
 4973SOL    HW115818   0.730   0.468   2.605
 4973SOL    HW215819   0.635   0.420   2.729
 4974SOL     OW15820   5.801   4.977   1.312
 4974SOL    HW115821   5.871   4.981   1.383
 4974SOL    HW215822   5.710   4.984   1.354
 4975SOL     OW15823   5.464   5.256   5.887
 4975SOL    HW115824   5.490   5.166   5.851
 4975SOL    HW215825   5.396   5.297   5.827
 4976SOL     OW15826   2.814   6.863   4.437
 4976SOL    HW115827   2.855   6.788   4.488
 4976SOL    HW215828   2.777   6.829   4.351
 4977SOL     OW15829   4.088   4.013   0.787
 4977SOL    HW115830   4.153   3.958   0.840
 4977SOL    HW215831   4.118   4.109   0.788
 4978SOL     OW15832   6.886   4.304   5.480
 4978SOL    HW115833   6.809   4.358   5.515
 4978SOL    HW215834   6.971   4.355   5.494
 4979SOL     OW15835   0.497   0.342   5.426
 4979SOL    HW115836   0.469   0.406   5.355
 4979SOL    HW215837   0.509   0.391   5.512
 4980SOL     OW15838   4.796   6.530   3.309
 4980SOL    HW115839   4.784   6.456   3.243
 4980SOL    HW215840   4.858   6.501   3.382
 4981SOL     OW15841   5.069   5.827   6.266
 4981SOL    HW115842   5.098   5.858   6.356
 4981SOL    HW215843   5.124   5.872   6.196
 4982SOL     OW15844   2.634   1.686   6.390
 4982SOL    HW115845   2.679   1.597   6.395
 4982SOL    HW215846   2.590   1.707   6.477
 4983SOL     OW15847   5.349   2.314   4.270
 4983SOL    HW115848   5.399   2.391   4.230
 4983SOL    HW215849   5.260   2.344   4.302
 4984SOL     OW15850   6.008   4.410   4.232
 4984SOL    HW115851   5.968   4.457   4.311
 4984SOL    HW215852   6.010   4.471   4.154
 4985SOL     OW15853   6.147   6.672   3.462
 4985SOL    HW115854   6.134   6.646   3.366
 4985SOL    HW215855   6.219   6.616   3.503
 4986SOL     OW15856   5.817   4.145   2.913
 4986SOL    HW115857   5.855   4.192   2.993
 4986SOL    HW215858   5.883   4.076   2.881
 4987SOL     OW15859   1.000   1.685   1.089
 4987SOL    HW115860   1.086   1.710   1.044
 4987SOL    HW215861   1.006   1.591   1.122
 4988SOL     OW15862   5.946   1.230   3.340
 4988SOL    HW115863   6.014   1.274   3.398
 4988SOL    HW215864   5.880   1.181   3.397
 4989SOL     OW15865   5.450   0.376   0.968
 4989SOL    HW115866   5.439   0.304   1.037
 4989SOL    HW215867   5.451   0.465   1.013
 4990SOL     OW15868   1.931   1.500   5.630
 4990SOL    HW115869   1.936   1.420   5.691
 4990SOL    HW215870   1.855   1.558   5.657
 4991SOL     OW15871   0.417   3.730   4.645
 4991SOL    HW115872   0.452   3.692   4.731
 4991SOL    HW215873   0.323   3.762   4.659
 4992SOL     OW15874   4.786   1.275   5.021
 4992SOL    HW115875   4.800   1.228   5.108
 4992SOL    HW215876   4.750   1.211   4.954
 4993SOL     OW15877   3.732   5.155   3.879
 4993SOL    HW115878   3.830   5.143   3.893
 4993SOL    HW215879   3.694   5.072   3.837
 4994SOL     OW15880   1.184   6.971   2.491
 4994SOL    HW115881   1.253   6.966   2.418
 4994SOL    HW215882   1.119   0.020   2.469
 4995SOL     OW15883   6.616   2.958   5.667
 4995SOL    HW115884   6.522   2.922   5.664
 4995SOL    HW215885   6.615   3.050   5.707
 4996SOL     OW15886   1.310   1.343   2.742
 4996SOL    HW115887   1.329   1.267   2.680
 4996SOL    HW215888   1.374   1.417   2.724
 4997SOL     OW15889   6.471   1.580   3.202
 4997SOL    HW115890   6.428   1.669   3.190
 4997SOL    HW215891   6.506   1.571   3.295
 4998SOL     OW15892   2.254   3.731   5.303
 4998SOL    HW115893   2.350   3.746   5.329
 4998SOL    HW215894   2.247   3.722   5.204
 4999SOL     OW15895   5.829   4.742   1.200
 4999SOL    HW115896   5.816   4.839   1.216
 4999SOL    HW215897   5.869   4.700   1.282
 5000SOL     OW15898   2.092   6.296   3.880
 5000SOL    HW115899   2.095   6.300   3.780
 5000SOL    HW215900   2.142   6.374   3.918
 5001SOL     OW15901   1.431   4.468   0.479
 5001SOL    HW115902   1.460   4.402   0.409
 5001SOL    HW215903   1.373   4.537   0.436
 5002SOL     OW15904   1.517   3.285   3.325
 5002SOL    HW115905   1.614   3.268   3.340
 5002SOL    HW215906   1.505   3.337   3.241
 5003SOL     OW15907   2.297   6.591   2.806
 5003SOL    HW115908   2.380   6.616   2.756
 5003SOL    HW215909   2.286   6.491   2.803
 5004SOL     OW15910   3.082   5.041   5.672
 5004SOL    HW115911   3.097   5.032   5.573
 5004SOL    HW215912   3.166   5.018   5.721
 5005SOL     OW15913   3.711   2.064   1.002
 5005SOL    HW115914   3.751   2.127   0.935
 5005SOL    HW215915   3.643   2.113   1.057
 5006SOL     OW15916   4.767   6.625   6.807
 5006SOL    HW115917   4.695   6.571   6.765
 5006SOL    HW215918   4.754   6.627   6.906
 5007SOL     OW15919   1.797   0.295   6.747
 5007SOL    HW115920   1.822   0.279   6.843
 5007SOL    HW215921   1.732   0.371   6.742
 5008SOL     OW15922   6.407   0.674   3.193
 5008SOL    HW115923   6.320   0.624   3.195
 5008SOL    HW215924   6.400   0.750   3.128
 5009SOL     OW15925   1.555   6.366   1.436
 5009SOL    HW115926   1.467   6.337   1.475
 5009SOL    HW215927   1.546   6.377   1.337
 5010SOL     OW15928   3.455   2.948   2.957
 5010SOL    HW115929   3.499   2.924   2.870
 5010SOL    HW215930   3.496   2.893   3.030
 5011SOL     OW15931   1.953   3.417   2.587
 5011SOL    HW115932   1.854   3.409   2.587
 5011SOL    HW215933   1.988   3.415   2.493
 5012SOL     OW15934   4.989   3.390   6.325
 5012SOL    HW115935   4.893   3.381   6.297
 5012SOL    HW215936   5.042   3.316   6.283
 5013SOL     OW15937   5.341   1.656   0.323
 5013SOL    HW115938   5.428   1.687   0.285
 5013SOL    HW215939   5.351   1.561   0.355
 5014SOL     OW15940   5.253   4.264   0.642
 5014SOL    HW115941   5.221   4.282   0.734
 5014SOL    HW215942   5.175   4.255   0.580
 5015SOL     OW15943   4.739   2.048   3.790
 5015SOL    HW115944   4.808   2.066   3.719
 5015SOL    HW215945   4.761   2.102   3.871
 5016SOL     OW15946   2.829   1.761   0.802
 5016SOL    HW115947   2.897   1.688   0.810
 5016SOL    HW215948   2.798   1.766   0.707
 5017SOL     OW15949   1.964   2.528   0.025
 5017SOL    HW115950   1.970   2.429   0.011
 5017SOL    HW215951   1.886   2.548   0.085
 5018SOL     OW15952   0.943   4.394   1.293
 5018SOL    HW115953   0.847   4.419   1.282
 5018SOL    HW215954   0.993   4.472   1.331
 5019SOL     OW15955   2.158   4.898   6.455
 5019SOL    HW115956   2.179   4.982   6.505
 5019SOL    HW215957   2.131   4.920   6.362
 5020SOL     OW15958   4.932   6.701   6.047
 5020SOL    HW115959   4.897   6.707   6.140
 5020SOL    HW215960   4.857   6.716   5.982
 5021SOL     OW15961   1.829   1.839   5.731
 5021SOL    HW115962   1.898   1.792   5.786
 5021SOL    HW215963   1.830   1.936   5.752
 5022SOL     OW15964   1.860   0.050   0.091
 5022SOL    HW115965   1.785   7.015   0.061
 5022SOL    HW215966   1.920   0.070   0.013
 5023SOL     OW15967   6.320   2.612   1.022
 5023SOL    HW115968   6.319   2.623   1.121
 5023SOL    HW215969   6.227   2.599   0.989
 5024SOL     OW15970   6.591   5.124   3.061
 5024SOL    HW115971   6.599   5.217   3.026
 5024SOL    HW215972   6.621   5.121   3.156
 5025SOL     OW15973   3.910   2.076   2.170
 5025SOL    HW115974   3.826   2.125   2.146
 5025SOL    HW215975   3.894   1.978   2.169
 5026SOL     OW15976   5.597   6.174   6.597
 5026SOL    HW115977   5.620   6.271   6.592
 5026SOL    HW215978   5.672   6.124   6.640
 5027SOL     OW15979   0.558   6.954   2.364
 5027SOL    HW115980   0.581   6.910   2.277
 5027SOL    HW215981   0.462   6.982   2.363
 5028SOL     OW15982   0.495   6.310   3.165
 5028SOL    HW115983   0.438   6.308   3.247
 5028SOL    HW215984   0.581   6.357   3.185
 5029SOL     OW15985   6.847   3.925   3.682
 5029SOL    HW115986   6.905   3.875   3.617
 5029SOL    HW215987   6.835   4.019   3.650
 5030SOL     OW15988   6.979   0.748   6.545
 5030SOL    HW115989   6.909   0.682   6.518
 5030SOL    HW215990   0.044   0.703   6.550
 5031SOL     OW15991   5.289   0.891   4.637
 5031SOL    HW115992   5.230   0.948   4.580
 5031SOL    HW215993   5.379   0.934   4.646
 5032SOL     OW15994   1.565   4.353   1.259
 5032SOL    HW115995   1.626   4.275   1.271
 5032SOL    HW215996   1.609   4.435   1.295
 5033SOL     OW15997   1.660   4.937   6.473
 5033SOL    HW115998   1.726   4.865   6.450
 5033SOL    HW215999   1.645   4.995   6.393
 5034SOL     OW16000   6.809   2.187   2.670
 5034SOL    HW116001   6.752   2.114   2.707
 5034SOL    HW216002   6.769   2.220   2.585
 5035SOL     OW16003   6.235   4.701   0.768
 5035SOL    HW116004   6.264   4.743   0.855
 5035SOL    HW216005   6.180   4.620   0.787
 5036SOL     OW16006   6.995   4.502   6.980
 5036SOL    HW116007   6.914   4.479   6.926
 5036SOL    HW216008   0.030   4.422   6.990
 5037SOL     OW16009   5.311   2.080   2.523
 5037SOL    HW116010   5.332   2.072   2.426
 5037SOL    HW216011   5.253   2.003   2.551
 5038SOL     OW16012   1.949   4.772   5.269
 5038SOL    HW116013   1.955   4.703   5.197
 5038SOL    HW216014   1.861   4.819   5.263
 5039SOL     OW16015   2.063   3.693   5.817
 5039SOL    HW116016   2.062   3.757   5.740
 5039SOL    HW216017   2.158   3.679   5.847
 5040SOL     OW16018   1.877   4.761   6.454
 5040SOL    HW116019   1.959   4.809   6.485
 5040SOL    HW216020   1.825   4.730   6.533
 5041SOL     OW16021   1.640   3.003   1.339
 5041SOL    HW116022   1.603   2.991   1.431
 5041SOL    HW216023   1.603   2.932   1.279
 5042SOL     OW16024   6.806   3.179   0.034
 5042SOL    HW116025   6.733   3.174   0.102
 5042SOL    HW216026   6.842   3.087   0.018
 5043SOL     OW16027   2.644   1.737   6.119
 5043SOL    HW116028   2.700   1.659   6.091
 5043SOL    HW216029   2.622   1.729   6.216
 5044SOL     OW16030   5.882   6.576   2.364
 5044SOL    HW116031   5.949   6.558   2.435
 5044SOL    HW216032   5.808   6.632   2.402
 5045SOL     OW16033   5.670   3.099   6.906
 5045SOL    HW116034   5.594   3.035   6.915
 5045SOL    HW216035   5.639   3.179   6.855
 5046SOL     OW16036   3.434   4.045   5.056
 5046SOL    HW116037   3.344   4.088   5.065
 5046SOL    HW216038   3.502   4.114   5.032
 5047SOL     OW16039   0.281   2.765   2.064
 5047SOL    HW116040   0.323   2.750   1.974
 5047SOL    HW216041   0.208   2.833   2.056
 5048SOL     OW16042   6.919   1.352   1.377
 5048SOL    HW116043   6.885   1.296   1.453
 5048SOL    HW216044   6.859   1.432   1.366
 5049SOL     OW16045   6.439   1.468   4.540
 5049SOL    HW116046   6.522   1.519   4.516
 5049SOL    HW216047   6.448   1.374   4.507
 5050SOL     OW16048   0.913   1.055   1.887
 5050SOL    HW116049   0.963   1.107   1.956
 5050SOL    HW216050   0.871   0.975   1.930
 5051SOL     OW16051   4.563   3.408   0.340
 5051SOL    HW116052   4.604   3.333   0.288
 5051SOL    HW216053   4.579   3.394   0.438
 5052SOL     OW16054   2.687   5.223   5.992
 5052SOL    HW116055   2.614   5.185   6.050
 5052SOL    HW216056   2.757   5.265   6.050
 5053SOL     OW16057   1.635   3.919   3.365
 5053SOL    HW116058   1.723   3.956   3.334
 5053SOL    HW216059   1.651   3.846   3.431
 5054SOL     OW16060   3.556   5.748   5.640
 5054SOL    HW116061   3.610   5.725   5.721
 5054SOL    HW216062   3.461   5.723   5.656
 5055SOL     OW16063   0.788   0.786   5.322
 5055SOL    HW116064   0.846   0.814   5.246
 5055SOL    HW216065   0.838   0.799   5.408
 5056SOL     OW16066   6.238   3.410   0.310
 5056SOL    HW116067   6.165   3.445   0.369
 5056SOL    HW216068   6.199   3.347   0.242
 5057SOL     OW16069   0.770   5.479   4.173
 5057SOL    HW116070   0.825   5.515   4.248
 5057SOL    HW216071   0.683   5.529   4.169
 5058SOL     OW16072   2.517   4.033   6.278
 5058SOL    HW116073   2.423   4.044   6.311
 5058SOL    HW216074   2.532   4.092   6.198
 5059SOL     OW16075   5.773   3.515   3.824
 5059SOL    HW116076   5.736   3.515   3.731
 5059SOL    HW216077   5.710   3.465   3.885
 5060SOL     OW16078   0.214   2.977   5.353
 5060SOL    HW116079   0.298   3.032   5.346
 5060SOL    HW216080   0.236   2.881   5.332
 5061SOL     OW16081   3.315   2.937   3.833
 5061SOL    HW116082   3.330   2.917   3.736
 5061SOL    HW216083   3.398   2.977   3.871
 5062SOL     OW16084   5.482   1.232   2.532
 5062SOL    HW116085   5.489   1.312   2.591
 5062SOL    HW216086   5.496   1.259   2.437
 5063SOL     OW16087   1.088   6.476   1.621
 5063SOL    HW116088   1.044   6.394   1.659
 5063SOL    HW216089   1.099   6.544   1.694
 5064SOL     OW16090   4.860   4.193   1.506
 5064SOL    HW116091   4.766   4.177   1.535
 5064SOL    HW216092   4.862   4.257   1.430
 5065SOL     OW16093   1.125   1.956   2.889
 5065SOL    HW116094   1.191   1.907   2.946
 5065SOL    HW216095   1.039   1.904   2.886
 5066SOL     OW16096   3.306   4.031   1.447
 5066SOL    HW116097   3.208   4.036   1.467
 5066SOL    HW216098   3.357   4.063   1.527
 5067SOL     OW16099   3.306   0.758   2.588
 5067SOL    HW116100   3.377   0.785   2.654
 5067SOL    HW216101   3.231   0.714   2.637
 5068SOL     OW16102   3.807   4.714   6.929
 5068SOL    HW116103   3.903   4.700   6.954
 5068SOL    HW216104   3.755   4.734   7.012
 5069SOL     OW16105   1.619   2.486   6.038
 5069SOL    HW116106   1.604   2.511   6.134
 5069SOL    HW216107   1.609   2.387   6.027
 5070SOL     OW16108   5.180   5.160   4.905
 5070SOL    HW116109   5.126   5.118   4.832
 5070SOL    HW216110   5.276   5.131   4.896
 5071SOL     OW16111   3.746   1.947   3.808
 5071SOL    HW116112   3.776   1.969   3.715
 5071SOL    HW216113   3.679   2.015   3.838
 5072SOL     OW16114   1.765   1.564   1.278
 5072SOL    HW116115   1.682   1.597   1.233
 5072SOL    HW216116   1.743   1.480   1.328
 5073SOL     OW16117   1.983   4.889   0.808
 5073SOL    HW116118   1.912   4.951   0.774
 5073SOL    HW216119   2.001   4.909   0.904
 5074SOL     OW16120   3.520   2.084   2.257
 5074SOL    HW116121   3.591   2.136   2.210
 5074SOL    HW216122   3.430   2.111   2.224
 5075SOL     OW16123   1.120   1.845   6.987
 5075SOL    HW116124   1.036   1.795   7.009
 5075SOL    HW216125   1.140   1.836   6.890
 5076SOL     OW16126   5.238   0.074   0.539
 5076SOL    HW116127   5.317   0.115   0.584
 5076SOL    HW216128   5.165   0.142   0.531
 5077SOL     OW16129   1.146   4.037   5.951
 5077SOL    HW116130   1.225   4.087   5.987
 5077SOL    HW216131   1.066   4.097   5.951
 5078SOL     OW16132   0.628   1.038   3.829
 5078SOL    HW116133   0.664   1.131   3.836
 5078SOL    HW216134   0.589   1.024   3.738
 5079SOL     OW16135   2.477   2.831   5.368
 5079SOL    HW116136   2.488   2.898   5.294
 5079SOL    HW216137   2.386   2.791   5.363
 5080SOL     OW16138   6.297   6.034   5.171
 5080SOL    HW116139   6.257   6.068   5.086
 5080SOL    HW216140   6.368   6.097   5.201
 5081SOL     OW16141   2.816   4.091   6.062
 5081SOL    HW116142   2.874   4.066   5.985
 5081SOL    HW216143   2.733   4.136   6.028
 5082SOL     OW16144   5.271   6.899   0.812
 5082SOL    HW116145   5.204   6.850   0.867
 5082SOL    HW216146   5.223   6.960   0.748
 5083SOL     OW16147   2.996   0.285   2.630
 5083SOL    HW116148   2.970   0.359   2.692
 5083SOL    HW216149   2.983   0.197   2.675
 5084SOL     OW16150   0.946   5.479   3.593
 5084SOL    HW116151   0.879   5.489   3.520
 5084SOL    HW216152   0.945   5.385   3.627
 5085SOL     OW16153   6.972   2.715   5.571
 5085SOL    HW116154   6.999   2.783   5.639
 5085SOL    HW216155   0.010   2.635   5.577
 5086SOL     OW16156   1.429   4.722   2.863
 5086SOL    HW116157   1.487   4.655   2.816
 5086SOL    HW216158   1.409   4.688   2.955
 5087SOL     OW16159   0.432   5.179   1.563
 5087SOL    HW116160   0.358   5.122   1.599
 5087SOL    HW216161   0.412   5.205   1.469
 5088SOL     OW16162   5.393   0.083   3.791
 5088SOL    HW116163   5.460   0.092   3.864
 5088SOL    HW216164   5.383   0.172   3.744
 5089SOL     OW16165   6.200   4.709   4.215
 5089SOL    HW116166   6.239   4.631   4.264
 5089SOL    HW216167   6.169   4.679   4.125
 5090SOL     OW16168   1.819   2.000   2.684
 5090SOL    HW116169   1.868   1.961   2.761
 5090SOL    HW216170   1.733   1.951   2.670
 5091SOL     OW16171   6.269   1.048   1.885
 5091SOL    HW116172   6.330   1.063   1.963
 5091SOL    HW216173   6.314   0.989   1.818
 5092SOL     OW16174   3.714   3.242   3.754
 5092SOL    HW116175   3.700   3.327   3.704
 5092SOL    HW216176   3.801   3.201   3.727
 5093SOL     OW16177   3.362   1.242   0.538
 5093SOL    HW116178   3.351   1.332   0.496
 5093SOL    HW216179   3.276   1.191   0.531
 5094SOL     OW16180   2.082   5.674   5.960
 5094SOL    HW116181   2.072   5.755   5.901
 5094SOL    HW216182   2.178   5.663   5.984
 5095SOL     OW16183   6.946   2.537   2.876
 5095SOL    HW116184   6.857   2.536   2.921
 5095SOL    HW216185   7.018   2.551   2.943
 5096SOL     OW16186   4.727   4.801   6.685
 5096SOL    HW116187   4.671   4.846   6.616
 5096SOL    HW216188   4.693   4.823   6.776
 5097SOL     OW16189   1.036   6.788   6.655
 5097SOL    HW116190   1.020   6.736   6.571
 5097SOL    HW216191   1.122   6.839   6.648
 5098SOL     OW16192   2.600   0.623   1.901
 5098SOL    HW116193   2.683   0.677   1.909
 5098SOL    HW216194   2.534   0.653   1.971
 5099SOL     OW16195   0.515   6.788   1.489
 5099SOL    HW116196   0.515   6.793   1.389
 5099SOL    HW216197   0.549   6.699   1.518
 5100SOL     OW16198   3.112   5.516   4.701
 5100SOL    HW116199   3.028   5.507   4.648
 5100SOL    HW216200   3.095   5.490   4.796
 5101SOL     OW16201   4.337   0.012   6.036
 5101SOL    HW116202   4.363   6.953   5.985
 5101SOL    HW216203   4.415   0.043   6.091
 5102SOL     OW16204   4.936   6.700   4.577
 5102SOL    HW116205   5.026   6.715   4.536
 5102SOL    HW216206   4.878   6.648   4.514
 5103SOL     OW16207   0.015   1.332   3.937
 5103SOL    HW116208   0.082   1.317   4.010
 5103SOL    HW216209   0.061   1.330   3.848
 5104SOL     OW16210   1.779   6.857   2.039
 5104SOL    HW116211   1.811   6.835   1.947
 5104SOL    HW216212   1.858   6.871   2.099
 5105SOL     OW16213   3.289   2.600   0.498
 5105SOL    HW116214   3.256   2.532   0.433
 5105SOL    HW216215   3.225   2.607   0.574
 5106SOL     OW16216   4.542   1.454   0.927
 5106SOL    HW116217   4.446   1.481   0.914
 5106SOL    HW216218   4.554   1.418   1.020
 5107SOL     OW16219   4.503   2.657   1.558
 5107SOL    HW116220   4.530   2.565   1.530
 5107SOL    HW216221   4.493   2.715   1.477
 5108SOL     OW16222   4.128   3.895   5.279
 5108SOL    HW116223   4.054   3.927   5.220
 5108SOL    HW216224   4.132   3.795   5.276
 5109SOL     OW16225   0.803   2.044   0.023
 5109SOL    HW116226   0.834   1.981   0.094
 5109SOL    HW216227   0.753   2.120   0.065
 5110SOL     OW16228   0.539   0.350   6.340
 5110SOL    HW116229   0.514   0.280   6.407
 5110SOL    HW216230   0.457   0.376   6.288
 5111SOL     OW16231   1.577   1.018   4.583
 5111SOL    HW116232   1.537   1.027   4.674
 5111SOL    HW216233   1.614   0.926   4.572
 5112SOL     OW16234   1.234   0.447   3.061
 5112SOL    HW116235   1.163   0.397   3.110
 5112SOL    HW216236   1.212   0.545   3.062
 5113SOL     OW16237   2.301   5.547   0.988
 5113SOL    HW116238   2.266   5.640   0.986
 5113SOL    HW216239   2.251   5.495   1.058
 5114SOL     OW16240   4.223   0.242   6.368
 5114SOL    HW116241   4.284   0.183   6.421
 5114SOL    HW216242   4.168   0.186   6.306
 5115SOL     OW16243   1.501   5.615   3.331
 5115SOL    HW116244   1.450   5.665   3.402
 5115SOL    HW216245   1.465   5.522   3.324
 5116SOL     OW16246   0.825   6.486   0.452
 5116SOL    HW116247   0.744   6.539   0.477
 5116SOL    HW216248   0.798   6.392   0.432
 5117SOL     OW16249   1.496   3.571   3.933
 5117SOL    HW116250   1.561   3.510   3.979
 5117SOL    HW216251   1.405   3.558   3.971
 5118SOL     OW16252   5.355   0.986   0.116
 5118SOL    HW116253   5.255   0.986   0.112
 5118SOL    HW216254   5.391   1.057   0.055
 5119SOL     OW16255   4.675   0.792   2.392
 5119SOL    HW116256   4.633   0.821   2.477
 5119SOL    HW216257   4.702   0.873   2.339
 5120SOL     OW16258   4.047   0.085   4.897
 5120SOL    HW116259   4.002   7.022   4.918
 5120SOL    HW216260   3.996   0.160   4.940
 5121SOL     OW16261   3.705   2.816   0.137
 5121SOL    HW116262   3.675   2.822   0.232
 5121SOL    HW216263   3.630   2.841   0.076
 5122SOL     OW16264   3.439   6.144   3.078
 5122SOL    HW116265   3.443   6.162   2.979
 5122SOL    HW216266   3.479   6.221   3.127
 5123SOL     OW16267   4.649   2.500   4.393
 5123SOL    HW116268   4.562   2.511   4.442
 5123SOL    HW216269   4.643   2.421   4.332
 5124SOL     OW16270   1.637   6.012   5.035
 5124SOL    HW116271   1.625   5.917   5.007
 5124SOL    HW216272   1.572   6.070   4.986
 5125SOL     OW16273   6.558   3.815   3.615
 5125SOL    HW116274   6.516   3.759   3.687
 5125SOL    HW216275   6.657   3.799   3.615
 5126SOL     OW16276   6.167   5.471   6.443
 5126SOL    HW116277   6.203   5.449   6.353
 5126SOL    HW216278   6.070   5.446   6.447
 5127SOL     OW16279   0.068   3.975   0.332
 5127SOL    HW116280   7.016   3.915   0.305
 5127SOL    HW216281   0.073   3.980   0.431
 5128SOL     OW16282   0.254   6.999   6.336
 5128SOL    HW116283   0.288   6.950   6.256
 5128SOL    HW216284   0.177   6.948   6.375
 5129SOL     OW16285   6.545   0.215   2.688
 5129SOL    HW116286   6.625   0.226   2.747
 5129SOL    HW216287   6.567   0.152   2.613
 5130SOL     OW16288   0.109   5.564   3.337
 5130SOL    HW116289   0.180   5.614   3.288
 5130SOL    HW216290   0.020   5.607   3.320
 5131SOL     OW16291   2.250   4.585   4.082
 5131SOL    HW116292   2.235   4.529   4.164
 5131SOL    HW216293   2.266   4.680   4.108
 5132SOL     OW16294   3.700   2.912   6.815
 5132SOL    HW116295   3.781   2.961   6.781
 5132SOL    HW216296   3.623   2.975   6.822
 5133SOL     OW16297   2.122   4.989   6.962
 5133SOL    HW116298   2.201   5.026   7.011
 5133SOL    HW216299   2.047   4.974   0.002
 5134SOL     OW16300   0.295   3.322   2.086
 5134SOL    HW116301   0.393   3.311   2.073
 5134SOL    HW216302   0.271   3.303   2.181
 5135SOL     OW16303   6.062   2.974   4.697
 5135SOL    HW116304   6.017   2.988   4.785
 5135SOL    HW216305   6.090   2.879   4.688
 5136SOL     OW16306   3.898   1.110   6.052
 5136SOL    HW116307   3.892   1.056   5.968
 5136SOL    HW216308   3.905   1.049   6.131
 5137SOL     OW16309   5.614   3.529   6.062
 5137SOL    HW116310   5.658   3.448   6.101
 5137SOL    HW216311   5.520   3.535   6.096
 5138SOL     OW16312   3.145   2.821   5.457
 5138SOL    HW116313   3.183   2.779   5.540
 5138SOL    HW216314   3.219   2.862   5.403
 5139SOL     OW16315   1.922   0.673   3.000
 5139SOL    HW116316   1.872   0.686   3.086
 5139SOL    HW216317   1.990   0.745   2.990
 5140SOL     OW16318   3.962   2.565   0.417
 5140SOL    HW116319   3.993   2.631   0.348
 5140SOL    HW216320   3.948   2.612   0.504
 5141SOL     OW16321   6.520   3.842   0.162
 5141SOL    HW116322   6.542   3.758   0.112
 5141SOL    HW216323   6.591   3.910   0.146
 5142SOL     OW16324   6.193   0.275   3.894
 5142SOL    HW116325   6.180   0.176   3.905
 5142SOL    HW216326   6.174   0.300   3.799
 5143SOL     OW16327   6.789   4.105   4.248
 5143SOL    HW116328   6.734   4.101   4.164
 5143SOL    HW216329   6.837   4.018   4.260
 5144SOL     OW16330   0.769   4.638   6.190
 5144SOL    HW116331   0.777   4.733   6.221
 5144SOL    HW216332   0.678   4.624   6.151
 5145SOL     OW16333   2.348   4.853   5.379
 5145SOL    HW116334   2.373   4.829   5.285
 5145SOL    HW216335   2.425   4.895   5.425
 5146SOL     OW16336   3.899   3.949   5.131
 5146SOL    HW116337   3.875   4.036   5.087
 5146SOL    HW216338   3.823   3.885   5.123
 5147SOL     OW16339   6.849   4.909   2.765
 5147SOL    HW116340   6.891   4.973   2.829
 5147SOL    HW216341   6.914   4.886   2.693
 5148SOL     OW16342   0.143   6.412   1.652
 5148SOL    HW116343   0.193   6.494   1.627
 5148SOL    HW216344   0.153   6.395   1.750
 5149SOL     OW16345   6.531   5.763   3.374
 5149SOL    HW116346   6.524   5.825   3.295
 5149SOL    HW216347   6.504   5.671   3.346
 5150SOL     OW16348   2.302   5.134   2.612
 5150SOL    HW116349   2.208   5.151   2.583
 5150SOL    HW216350   2.366   5.170   2.544
 5151SOL     OW16351   5.449   2.843   1.034
 5151SOL    HW116352   5.446   2.775   1.106
 5151SOL    HW216353   5.370   2.832   0.974
 5152SOL     OW16354   2.330   5.153   0.033
 5152SOL    HW116355   2.334   5.171   0.131
 5152SOL    HW216356   2.422   5.128   7.023
 5153SOL     OW16357   2.203   0.267   6.792
 5153SOL    HW116358   2.299   0.241   6.795
 5153SOL    HW216359   2.190   0.343   6.728
 5154SOL     OW16360   0.992   3.775   6.333
 5154SOL    HW116361   0.950   3.749   6.420
 5154SOL    HW216362   1.023   3.870   6.337
 5155SOL     OW16363   4.244   6.437   2.285
 5155SOL    HW116364   4.219   6.423   2.190
 5155SOL    HW216365   4.168   6.478   2.335
 5156SOL     OW16366   6.068   3.626   5.809
 5156SOL    HW116367   6.099   3.534   5.830
 5156SOL    HW216368   5.976   3.639   5.845
 5157SOL     OW16369   4.158   1.926   3.646
 5157SOL    HW116370   4.118   2.017   3.651
 5157SOL    HW216371   4.256   1.934   3.628
 5158SOL     OW16372   3.845   1.029   1.673
 5158SOL    HW116373   3.789   0.989   1.745
 5158SOL    HW216374   3.800   1.113   1.639
 5159SOL     OW16375   6.836   3.587   3.812
 5159SOL    HW116376   6.917   3.634   3.846
 5159SOL    HW216377   6.761   3.599   3.878
 5160SOL     OW16378   0.150   4.586   3.266
 5160SOL    HW116379   0.062   4.594   3.220
 5160SOL    HW216380   0.141   4.525   3.345
 5161SOL     OW16381   1.405   4.071   5.291
 5161SOL    HW116382   1.471   4.035   5.225
 5161SOL    HW216383   1.451   4.089   5.378
 5162SOL     OW16384   1.028   5.128   3.316
 5162SOL    HW116385   1.058   5.089   3.229
 5162SOL    HW216386   0.931   5.109   3.329
 5163SOL     OW16387   3.688   6.390   0.533
 5163SOL    HW116388   3.742   6.473   0.548
 5163SOL    HW216389   3.593   6.408   0.556
 5164SOL     OW16390   4.254   2.526   6.875
 5164SOL    HW116391   4.159   2.513   6.901
 5164SOL    HW216392   4.314   2.493   6.948
 5165SOL     OW16393   5.937   4.554   5.952
 5165SOL    HW116394   5.856   4.577   6.006
 5165SOL    HW216395   6.018   4.559   6.011
 5166SOL     OW16396   0.646   5.375   3.225
 5166SOL    HW116397   0.695   5.401   3.142
 5166SOL    HW216398   0.563   5.325   3.200
 5167SOL     OW16399   6.162   6.140   5.680
 5167SOL    HW116400   6.160   6.102   5.587
 5167SOL    HW216401   6.182   6.066   5.745
 5168SOL     OW16402   4.786   4.038   2.935
 5168SOL    HW116403   4.814   4.049   2.839
 5168SOL    HW216404   4.805   3.944   2.964
 5169SOL     OW16405   4.317   1.863   4.944
 5169SOL    HW116406   4.355   1.913   4.867
 5169SOL    HW216407   4.390   1.816   4.994
 5170SOL     OW16408   0.639   4.504   5.457
 5170SOL    HW116409   0.617   4.569   5.384
 5170SOL    HW216410   0.557   4.488   5.512
 5171SOL     OW16411   1.238   5.875   4.262
 5171SOL    HW116412   1.310   5.891   4.195
 5171SOL    HW216413   1.158   5.837   4.217
 5172SOL     OW16414   0.606   2.349   2.156
 5172SOL    HW116415   0.611   2.317   2.250
 5172SOL    HW216416   0.522   2.401   2.143
 5173SOL     OW16417   5.612   4.705   5.983
 5173SOL    HW116418   5.586   4.775   5.916
 5173SOL    HW216419   5.619   4.616   5.937
 5174SOL     OW16420   2.046   4.449   2.710
 5174SOL    HW116421   2.044   4.497   2.622
 5174SOL    HW216422   1.956   4.410   2.729
 5175SOL     OW16423   2.386   3.798   6.987
 5175SOL    HW116424   2.462   3.863   6.995
 5175SOL    HW216425   2.309   3.842   6.940
 5176SOL     OW16426   4.800   3.068   6.501
 5176SOL    HW116427   4.840   3.098   6.588
 5176SOL    HW216428   4.738   3.138   6.467
 5177SOL     OW16429   5.098   0.405   6.901
 5177SOL    HW116430   5.157   0.386   6.822
 5177SOL    HW216431   5.007   0.368   6.884
 5178SOL     OW16432   1.492   3.665   1.491
 5178SOL    HW116433   1.529   3.622   1.409
 5178SOL    HW216434   1.402   3.704   1.472
 5179SOL     OW16435   4.065   5.975   4.255
 5179SOL    HW116436   4.032   5.922   4.332
 5179SOL    HW216437   4.125   5.918   4.198
 5180SOL     OW16438   3.108   2.529   0.718
 5180SOL    HW116439   3.024   2.482   0.691
 5180SOL    HW216440   3.091   2.583   0.801
 5181SOL     OW16441   5.426   2.061   2.246
 5181SOL    HW116442   5.454   2.013   2.163
 5181SOL    HW216443   5.391   2.152   2.223
 5182SOL     OW16444   3.925   4.441   1.577
 5182SOL    HW116445   3.945   4.520   1.634
 5182SOL    HW216446   3.940   4.464   1.481
 5183SOL     OW16447   4.181   1.674   2.587
 5183SOL    HW116448   4.120   1.753   2.580
 5183SOL    HW216449   4.243   1.673   2.509
 5184SOL     OW16450   0.264   2.443   4.402
 5184SOL    HW116451   0.327   2.479   4.333
 5184SOL    HW216452   0.256   2.509   4.477
 5185SOL     OW16453   5.387   1.052   2.317
 5185SOL    HW116454   5.308   1.101   2.354
 5185SOL    HW216455   5.357   0.992   2.242
 5186SOL     OW16456   6.124   2.870   0.406
 5186SOL    HW116457   6.122   2.913   0.316
 5186SOL    HW216458   6.217   2.876   0.444
 5187SOL     OW16459   0.287   0.425   3.986
 5187SOL    HW116460   0.245   0.397   4.073
 5187SOL    HW216461   0.215   0.437   3.917
 5188SOL     OW16462   0.459   5.907   0.333
 5188SOL    HW116463   0.556   5.906   0.309
 5188SOL    HW216464   0.443   5.977   0.403
 5189SOL     OW16465   4.712   4.753   0.715
 5189SOL    HW116466   4.640   4.693   0.752
 5189SOL    HW216467   4.776   4.699   0.660
 5190SOL     OW16468   0.280   3.006   4.209
 5190SOL    HW116469   0.227   3.072   4.156
 5190SOL    HW216470   0.375   3.037   4.215
 5191SOL     OW16471   3.941   0.462   1.910
 5191SOL    HW116472   3.928   0.390   1.841
 5191SOL    HW216473   3.854   0.480   1.956
 5192SOL     OW16474   2.833   5.077   3.006
 5192SOL    HW116475   2.851   5.023   2.924
 5192SOL    HW216476   2.745   5.050   3.045
 5193SOL     OW16477   5.124   4.468   4.345
 5193SOL    HW116478   5.090   4.518   4.266
 5193SOL    HW216479   5.191   4.524   4.394
 5194SOL     OW16480   3.638   1.232   0.389
 5194SOL    HW116481   3.699   1.306   0.416
 5194SOL    HW216482   3.547   1.247   0.428
 5195SOL     OW16483   6.211   5.815   4.259
 5195SOL    HW116484   6.264   5.738   4.224
 5195SOL    HW216485   6.205   5.809   4.359
 5196SOL     OW16486   2.462   4.439   0.742
 5196SOL    HW116487   2.389   4.505   0.725
 5196SOL    HW216488   2.479   4.385   0.660
 5197SOL     OW16489   2.073   5.554   4.965
 5197SOL    HW116490   2.069   5.457   4.941
 5197SOL    HW216491   2.059   5.565   5.063
 5198SOL     OW16492   4.316   6.656   3.453
 5198SOL    HW116493   4.312   6.626   3.549
 5198SOL    HW216494   4.408   6.641   3.418
 5199SOL     OW16495   1.329   6.184   0.161
 5199SOL    HW116496   1.248   6.242   0.174
 5199SOL    HW216497   1.370   6.203   0.072
 5200SOL     OW16498   1.517   1.507   5.511
 5200SOL    HW116499   1.596   1.458   5.474
 5200SOL    HW216500   1.543   1.552   5.597
 5201SOL     OW16501   5.964   6.021   4.332
 5201SOL    HW116502   6.044   6.072   4.362
 5201SOL    HW216503   5.885   6.083   4.328
 5202SOL     OW16504   5.803   4.460   5.703
 5202SOL    HW116505   5.802   4.506   5.614
 5202SOL    HW216506   5.850   4.517   5.769
 5203SOL     OW16507   2.163   0.584   0.151
 5203SOL    HW116508   2.091   0.650   0.170
 5203SOL    HW216509   2.235   0.592   0.221
 5204SOL     OW16510   4.380   6.700   6.951
 5204SOL    HW116511   4.430   6.686   0.013
 5204SOL    HW216512   4.382   6.616   6.897
 5205SOL     OW16513   6.850   5.766   0.067
 5205SOL    HW116514   6.810   5.715   7.014
 5205SOL    HW216515   6.840   5.714   0.152
 5206SOL     OW16516   0.644   4.772   0.019
 5206SOL    HW116517   0.597   4.738   0.100
 5206SOL    HW216518   0.660   4.696   6.979
 5207SOL     OW16519   1.324   6.928   3.865
 5207SOL    HW116520   1.332   0.004   3.877
 5207SOL    HW216521   1.347   6.883   3.951
 5208SOL     OW16522   4.892   2.159   0.001
 5208SOL    HW116523   4.988   2.163   6.997
 5208SOL    HW216524   4.879   2.210   0.086
 5209SOL     OW16525   5.808   0.414   1.426
 5209SOL    HW116526   5.711   0.431   1.443
 5209SOL    HW216527   5.846   0.490   1.373
 5210SOL     OW16528   4.841   3.560   0.538
 5210SOL    HW116529   4.779   3.482   0.548
 5210SOL    HW216530   4.910   3.540   0.469
 5211SOL     OW16531   4.319   1.989   5.307
 5211SOL    HW116532   4.246   2.008   5.374
 5211SOL    HW216533   4.286   2.009   5.215
 5212SOL     OW16534   1.134   3.564   0.625
 5212SOL    HW116535   1.225   3.601   0.639
 5212SOL    HW216536   1.091   3.546   0.714
 5213SOL     OW16537   4.500   3.195   1.013
 5213SOL    HW116538   4.435   3.197   1.088
 5213SOL    HW216539   4.490   3.278   0.958
 5214SOL     OW16540   5.743   2.685   6.208
 5214SOL    HW116541   5.719   2.630   6.128
 5214SOL    HW216542   5.799   2.631   6.271
 5215SOL     OW16543   1.115   4.883   4.172
 5215SOL    HW116544   1.068   4.896   4.085
 5215SOL    HW216545   1.086   4.796   4.213
 5216SOL     OW16546   4.760   4.710   1.341
 5216SOL    HW116547   4.713   4.672   1.262
 5216SOL    HW216548   4.844   4.756   1.312
 5217SOL     OW16549   3.515   5.439   4.664
 5217SOL    HW116550   3.559   5.349   4.668
 5217SOL    HW216551   3.416   5.427   4.655
 5218SOL     OW16552   0.730   1.168   1.341
 5218SOL    HW116553   0.730   1.249   1.282
 5218SOL    HW216554   0.816   1.164   1.391
 5219SOL     OW16555   3.579   1.722   4.879
 5219SOL    HW116556   3.638   1.685   4.950
 5219SOL    HW216557   3.634   1.745   4.798
 5220SOL     OW16558   1.117   5.679   2.697
 5220SOL    HW116559   1.092   5.651   2.790
 5220SOL    HW216560   1.193   5.622   2.665
 5221SOL     OW16561   6.324   1.214   3.233
 5221SOL    HW116562   6.350   1.259   3.319
 5221SOL    HW216563   6.335   1.278   3.157
 5222SOL     OW16564   3.869   6.694   2.329
 5222SOL    HW116565   3.847   6.601   2.298
 5222SOL    HW216566   3.899   6.691   2.425
 5223SOL     OW16567   6.892   2.650   0.098
 5223SOL    HW116568   6.882   2.744   0.067
 5223SOL    HW216569   6.887   2.588   0.020
 5224SOL     OW16570   6.570   3.465   4.465
 5224SOL    HW116571   6.577   3.366   4.462
 5224SOL    HW216572   6.474   3.493   4.468
 5225SOL     OW16573   6.689   1.051   3.916
 5225SOL    HW116574   6.767   1.070   3.975
 5225SOL    HW216575   6.707   1.089   3.825
 5226SOL     OW16576   0.004   6.783   4.669
 5226SOL    HW116577   0.026   6.789   4.571
 5226SOL    HW216578   0.060   6.849   4.719
 5227SOL     OW16579   0.669   4.042   5.674
 5227SOL    HW116580   0.583   4.094   5.679
 5227SOL    HW216581   0.745   4.105   5.663
 5228SOL     OW16582   0.438   2.508   6.908
 5228SOL    HW116583   0.521   2.499   6.852
 5228SOL    HW216584   0.455   2.470   6.999
 5229SOL     OW16585   2.997   6.577   0.473
 5229SOL    HW116586   2.952   6.634   0.542
 5229SOL    HW216587   2.994   6.481   0.502
 5230SOL     OW16588   0.041   6.124   2.127
 5230SOL    HW116589   6.989   6.181   2.160
 5230SOL    HW216590   0.127   6.160   2.163
 5231SOL     OW16591   4.321   2.360   3.689
 5231SOL    HW116592   4.365   2.395   3.606
 5231SOL    HW216593   4.222   2.355   3.675
 5232SOL     OW16594   1.202   3.827   6.122
 5232SOL    HW116595   1.126   3.790   6.175
 5232SOL    HW216596   1.171   3.907   6.071
 5233SOL     OW16597   3.967   1.328   2.945
 5233SOL    HW116598   3.876   1.352   2.910
 5233SOL    HW216599   4.004   1.406   2.996
 5234SOL     OW16600   2.744   2.545   6.071
 5234SOL    HW116601   2.718   2.531   5.976
 5234SOL    HW216602   2.844   2.549   6.079
 5235SOL     OW16603   1.638   2.584   0.879
 5235SOL    HW116604   1.737   2.591   0.889
 5235SOL    HW216605   1.610   2.489   0.894
 5236SOL     OW16606   3.952   5.911   2.347
 5236SOL    HW116607   4.019   5.954   2.286
 5236SOL    HW216608   3.948   5.813   2.327
 5237SOL     OW16609   0.692   1.059   4.738
 5237SOL    HW116610   0.687   1.132   4.806
 5237SOL    HW216611   0.780   1.012   4.746
 5238SOL     OW16612   0.979   4.948   0.562
 5238SOL    HW116613   0.940   4.861   0.592
 5238SOL    HW216614   0.943   4.972   0.472
 5239SOL     OW16615   3.678   2.459   6.311
 5239SOL    HW116616   3.729   2.373   6.301
 5239SOL    HW216617   3.591   2.441   6.356
 5240SOL     OW16618   3.400   2.200   5.259
 5240SOL    HW116619   3.419   2.167   5.166
 5240SOL    HW216620   3.333   2.274   5.256
 5241SOL     OW16621   0.310   5.811   4.349
 5241SOL    HW116622   0.210   5.822   4.354
 5241SOL    HW216623   0.344   5.853   4.265
 5242SOL     OW16624   6.476   0.193   1.010
 5242SOL    HW116625   6.412   0.258   0.971
 5242SOL    HW216626   6.458   0.183   1.108
 5243SOL     OW16627   1.752   5.844   1.652
 5243SOL    HW116628   1.768   5.940   1.672
 5243SOL    HW216629   1.700   5.802   1.727
 5244SOL     OW16630   3.727   4.584   6.415
 5244SOL    HW116631   3.660   4.554   6.347
 5244SOL    HW216632   3.759   4.505   6.468
 5245SOL     OW16633   3.780   4.267   0.264
 5245SOL    HW116634   3.697   4.280   0.319
 5245SOL    HW216635   3.830   4.353   0.259
 5246SOL     OW16636   6.181   2.723   1.298
 5246SOL    HW116637   6.182   2.755   1.393
 5246SOL    HW216638   6.168   2.801   1.237
 5247SOL     OW16639   2.809   0.180   6.464
 5247SOL    HW116640   2.822   0.243   6.541
 5247SOL    HW216641   2.878   0.198   6.394
 5248SOL     OW16642   6.325   1.758   2.980
 5248SOL    HW116643   6.283   1.804   2.901
 5248SOL    HW216644   6.419   1.792   2.992
 5249SOL     OW16645   0.567   5.322   6.377
 5249SOL    HW116646   0.594   5.227   6.393
 5249SOL    HW216647   0.642   5.372   6.336
 5250SOL     OW16648   2.027   6.149   6.791
 5250SOL    HW116649   1.989   6.092   6.863
 5250SOL    HW216650   1.999   6.244   6.804
 5251SOL     OW16651   0.771   3.248   6.843
 5251SOL    HW116652   0.698   3.237   6.909
 5251SOL    HW216653   0.757   3.333   6.791
 5252SOL     OW16654   2.591   6.110   0.524
 5252SOL    HW116655   2.560   6.198   0.488
 5252SOL    HW216656   2.562   6.102   0.620
 5253SOL     OW16657   0.079   3.604   4.712
 5253SOL    HW116658   0.107   3.695   4.742
 5253SOL    HW216659   0.067   3.545   4.791
 5254SOL     OW16660   5.084   1.089   2.827
 5254SOL    HW116661   5.122   1.159   2.766
 5254SOL    HW216662   5.144   1.079   2.907
 5255SOL     OW16663   5.921   2.749   5.001
 5255SOL    HW116664   5.934   2.845   5.027
 5255SOL    HW216665   5.894   2.744   4.905
 5256SOL     OW16666   5.116   1.571   3.823
 5256SOL    HW116667   5.026   1.612   3.837
 5256SOL    HW216668   5.158   1.552   3.912
 5257SOL     OW16669   5.517   6.881   1.704
 5257SOL    HW116670   5.429   6.842   1.730
 5257SOL    HW216671   5.505   6.939   1.624
 5258SOL     OW16672   5.815   3.012   1.694
 5258SOL    HW116673   5.716   3.009   1.706
 5258SOL    HW216674   5.842   2.946   1.624
 5259SOL     OW16675   5.013   6.645   2.256
 5259SOL    HW116676   5.006   6.745   2.263
 5259SOL    HW216677   4.933   6.609   2.208
 5260SOL     OW16678   5.369   3.622   0.985
 5260SOL    HW116679   5.435   3.659   1.050
 5260SOL    HW216680   5.320   3.546   1.028
 5261SOL     OW16681   0.244   3.983   5.645
 5261SOL    HW116682   0.278   4.071   5.612
 5261SOL    HW216683   0.259   3.913   5.575
 5262SOL     OW16684   2.476   1.361   3.921
 5262SOL    HW116685   2.532   1.280   3.936
 5262SOL    HW216686   2.393   1.355   3.978
 5263SOL     OW16687   1.725   1.281   3.457
 5263SOL    HW116688   1.690   1.279   3.363
 5263SOL    HW216689   1.650   1.263   3.521
 5264SOL     OW16690   0.100   2.150   2.053
 5264SOL    HW116691   0.135   2.158   2.146
 5264SOL    HW216692   0.018   2.207   2.043
 5265SOL     OW16693   6.237   4.106   3.845
 5265SOL    HW116694   6.178   4.041   3.798
 5265SOL    HW216695   6.295   4.153   3.778
 5266SOL     OW16696   3.525   4.952   6.753
 5266SOL    HW116697   3.489   4.894   6.680
 5266SOL    HW216698   3.624   4.941   6.758
 5267SOL     OW16699   5.536   2.899   5.234
 5267SOL    HW116700   5.541   2.839   5.154
 5267SOL    HW216701   5.441   2.903   5.266
 5268SOL     OW16702   5.509   1.210   0.533
 5268SOL    HW116703   5.462   1.298   0.535
 5268SOL    HW216704   5.593   1.217   0.587
 5269SOL     OW16705   0.743   6.173   2.833
 5269SOL    HW116706   0.738   6.113   2.753
 5269SOL    HW216707   0.838   6.175   2.866
 5270SOL     OW16708   5.916   1.091   1.443
 5270SOL    HW116709   5.905   1.129   1.351
 5270SOL    HW216710   5.828   1.090   1.489
 5271SOL     OW16711   6.539   5.413   5.930
 5271SOL    HW116712   6.555   5.314   5.925
 5271SOL    HW216713   6.574   5.455   5.846
 5272SOL     OW16714   3.130   6.166   1.895
 5272SOL    HW116715   3.180   6.251   1.877
 5272SOL    HW216716   3.039   6.172   1.854
 5273SOL     OW16717   0.312   3.169   3.669
 5273SOL    HW116718   0.341   3.167   3.573
 5273SOL    HW216719   0.279   3.079   3.695
 5274SOL     OW16720   5.798   0.104   2.590
 5274SOL    HW116721   5.709   0.065   2.564
 5274SOL    HW216722   5.870   0.060   2.537
 5275SOL     OW16723   3.699   1.805   0.863
 5275SOL    HW116724   3.793   1.801   0.829
 5275SOL    HW216725   3.690   1.879   0.929
 5276SOL     OW16726   1.724   0.197   0.847
 5276SOL    HW116727   1.630   0.176   0.875
 5276SOL    HW216728   1.740   0.165   0.754
 5277SOL     OW16729   2.359   1.050   2.122
 5277SOL    HW116730   2.448   1.044   2.166
 5277SOL    HW216731   2.367   1.101   2.036
 5278SOL     OW16732   6.128   6.303   3.729
 5278SOL    HW116733   6.148   6.283   3.633
 5278SOL    HW216734   6.151   6.223   3.784
 5279SOL     OW16735   2.795   5.234   6.462
 5279SOL    HW116736   2.771   5.137   6.472
 5279SOL    HW216737   2.886   5.249   6.502
 5280SOL     OW16738   2.905   5.745   4.813
 5280SOL    HW116739   2.982   5.732   4.875
 5280SOL    HW216740   2.837   5.673   4.830
 5281SOL     OW16741   0.411   2.071   2.533
 5281SOL    HW116742   0.375   1.978   2.528
 5281SOL    HW216743   0.366   2.119   2.609
 5282SOL     OW16744   3.341   1.374   4.029
 5282SOL    HW116745   3.422   1.426   4.001
 5282SOL    HW216746   3.368   1.280   4.052
 5283SOL     OW16747   4.372   6.258   1.509
 5283SOL    HW116748   4.307   6.256   1.433
 5283SOL    HW216749   4.445   6.323   1.488
 5284SOL     OW16750   4.739   4.050   3.238
 5284SOL    HW116751   4.727   4.141   3.276
 5284SOL    HW216752   4.709   4.050   3.142
 5285SOL     OW16753   2.340   4.837   3.827
 5285SOL    HW116754   2.265   4.779   3.858
 5285SOL    HW216755   2.358   4.908   3.895
 5286SOL     OW16756   1.822   4.711   0.415
 5286SOL    HW116757   1.760   4.706   0.338
 5286SOL    HW216758   1.917   4.716   0.382
 5287SOL     OW16759   3.579   0.342   6.983
 5287SOL    HW116760   3.663   0.370   0.007
 5287SOL    HW216761   3.578   0.382   6.891
 5288SOL     OW16762   3.168   0.011   2.086
 5288SOL    HW116763   3.089   7.009   2.141
 5288SOL    HW216764   3.182   0.110   2.092
 5289SOL     OW16765   2.184   5.161   6.579
 5289SOL    HW116766   2.260   5.221   6.605
 5289SOL    HW216767   2.104   5.184   6.635
 5290SOL     OW16768   2.166   6.060   4.568
 5290SOL    HW116769   2.240   6.085   4.630
 5290SOL    HW216770   2.130   5.970   4.593
 5291SOL     OW16771   2.555   5.782   6.066
 5291SOL    HW116772   2.496   5.862   6.055
 5291SOL    HW216773   2.571   5.740   5.976
 5292SOL     OW16774   6.393   3.129   6.513
 5292SOL    HW116775   6.317   3.125   6.448
 5292SOL    HW216776   6.476   3.160   6.466
 5293SOL     OW16777   0.394   0.922   5.099
 5293SOL    HW116778   0.474   0.982   5.101
 5293SOL    HW216779   0.331   0.954   5.028
 5294SOL     OW16780   4.532   3.453   5.848
 5294SOL    HW116781   4.538   3.482   5.752
 5294SOL    HW216782   4.465   3.510   5.895
 5295SOL     OW16783   6.272   0.917   2.570
 5295SOL    HW116784   6.350   0.934   2.509
 5295SOL    HW216785   6.193   0.968   2.537
 5296SOL     OW16786   2.075   5.632   6.776
 5296SOL    HW116787   2.026   5.642   6.689
 5296SOL    HW216788   2.039   5.553   6.825
 5297SOL     OW16789   1.927   2.259   1.333
 5297SOL    HW116790   1.851   2.312   1.372
 5297SOL    HW216791   1.992   2.237   1.406
 5298SOL     OW16792   0.140   6.048   1.549
 5298SOL    HW116793   0.122   6.057   1.647
 5298SOL    HW216794   0.186   5.961   1.532
 5299SOL     OW16795   3.027   1.767   0.413
 5299SOL    HW116796   2.983   1.823   0.343
 5299SOL    HW216797   3.112   1.812   0.444
 5300SOL     OW16798   0.105   5.565   2.606
 5300SOL    HW116799   0.129   5.470   2.584
 5300SOL    HW216800   0.187   5.614   2.636
 5301SOL     OW16801   4.469   1.564   0.437
 5301SOL    HW116802   4.563   1.550   0.469
 5301SOL    HW216803   4.413   1.485   0.461
 5302SOL     OW16804   5.436   4.843   3.406
 5302SOL    HW116805   5.388   4.839   3.494
 5302SOL    HW216806   5.404   4.922   3.354
 5303SOL     OW16807   0.108   6.660   3.919
 5303SOL    HW116808   0.151   6.744   3.886
 5303SOL    HW216809   0.178   6.596   3.951
 5304SOL     OW16810   6.645   2.554   6.073
 5304SOL    HW116811   6.737   2.519   6.057
 5304SOL    HW216812   6.578   2.489   6.038
 5305SOL     OW16813   1.396   6.855   4.134
 5305SOL    HW116814   1.464   6.918   4.171
 5305SOL    HW216815   1.421   6.761   4.158
 5306SOL     OW16816   1.512   6.221   4.679
 5306SOL    HW116817   1.503   6.232   4.580
 5306SOL    HW216818   1.598   6.262   4.710
 5307SOL     OW16819   4.255   6.472   6.809
 5307SOL    HW116820   4.238   6.473   6.907
 5307SOL    HW216821   4.233   6.381   6.772
 5308SOL     OW16822   0.512   0.437   4.718
 5308SOL    HW116823   0.542   0.344   4.739
 5308SOL    HW216824   0.544   0.499   4.788
 5309SOL     OW16825   3.553   4.095   3.122
 5309SOL    HW116826   3.464   4.107   3.165
 5309SOL    HW216827   3.623   4.085   3.193
 5310SOL     OW16828   5.129   2.454   2.149
 5310SOL    HW116829   5.049   2.462   2.089
 5310SOL    HW216830   5.168   2.544   2.165
 5311SOL     OW16831   0.308   5.694   0.207
 5311SOL    HW116832   0.232   5.733   0.155
 5311SOL    HW216833   0.369   5.768   0.237
 5312SOL     OW16834   6.765   4.289   2.164
 5312SOL    HW116835   6.837   4.331   2.219
 5312SOL    HW216836   6.787   4.193   2.147
 5313SOL     OW16837   0.993   5.514   0.050
 5313SOL    HW116838   1.046   5.591   0.014
 5313SOL    HW216839   0.960   5.458   6.997
 5314SOL     OW16840   4.748   4.799   1.027
 5314SOL    HW116841   4.670   4.737   1.039
 5314SOL    HW216842   4.763   4.815   0.929
 5315SOL     OW16843   4.579   4.503   1.848
 5315SOL    HW116844   4.558   4.408   1.872
 5315SOL    HW216845   4.518   4.533   1.774
 5316SOL     OW16846   6.245   5.296   4.465
 5316SOL    HW116847   6.230   5.320   4.369
 5316SOL    HW216848   6.336   5.325   4.493
 5317SOL     OW16849   5.904   1.349   4.387
 5317SOL    HW116850   5.994   1.366   4.347
 5317SOL    HW216851   5.879   1.253   4.375
 5318SOL     OW16852   0.128   1.922   5.272
 5318SOL    HW116853   0.046   1.929   5.216
 5318SOL    HW216854   0.206   1.894   5.215
 5319SOL     OW16855   4.811   6.757   0.092
 5319SOL    HW116856   4.816   6.856   0.110
 5319SOL    HW216857   4.824   6.707   0.177
 5320SOL     OW16858   5.725   5.231   6.517
 5320SOL    HW116859   5.784   5.258   6.441
 5320SOL    HW216860   5.781   5.216   6.599
 5321SOL     OW16861   0.790   5.118   2.512
 5321SOL    HW116862   0.752   5.096   2.602
 5321SOL    HW216863   0.725   5.095   2.441
 5322SOL     OW16864   3.645   0.034   6.030
 5322SOL    HW116865   3.704   0.085   5.968
 5322SOL    HW216866   3.595   6.987   5.979
 5323SOL     OW16867   3.798   3.156   1.062
 5323SOL    HW116868   3.718   3.117   1.107
 5323SOL    HW216869   3.879   3.102   1.085
 5324SOL     OW16870   3.631   2.401   1.470
 5324SOL    HW116871   3.626   2.301   1.474
 5324SOL    HW216872   3.640   2.438   1.563
 5325SOL     OW16873   5.512   0.100   3.487
 5325SOL    HW116874   5.578   0.132   3.555
 5325SOL    HW216875   5.422   0.137   3.508
 5326SOL     OW16876   5.985   5.271   2.665
 5326SOL    HW116877   6.081   5.296   2.659
 5326SOL    HW216878   5.977   5.171   2.675
 5327SOL     OW16879   0.420   6.183   5.920
 5327SOL    HW116880   0.339   6.240   5.932
 5327SOL    HW216881   0.400   6.108   5.856
 5328SOL     OW16882   3.740   2.389   5.536
 5328SOL    HW116883   3.828   2.401   5.491
 5328SOL    HW216884   3.744   2.425   5.629
 5329SOL     OW16885   0.424   3.647   0.210
 5329SOL    HW116886   0.382   3.699   0.136
 5329SOL    HW216887   0.415   3.697   0.296
 5330SOL     OW16888   3.321   3.883   6.672
 5330SOL    HW116889   3.404   3.886   6.616
 5330SOL    HW216890   3.279   3.974   6.675
 5331SOL     OW16891   5.222   1.371   1.301
 5331SOL    HW116892   5.257   1.307   1.369
 5331SOL    HW216893   5.299   1.407   1.247
 5332SOL     OW16894   6.037   4.158   6.894
 5332SOL    HW116895   5.973   4.082   6.906
 5332SOL    HW216896   6.091   4.144   6.812
 5333SOL     OW16897   1.163   0.693   3.702
 5333SOL    HW116898   1.089   0.756   3.721
 5333SOL    HW216899   1.157   0.614   3.764
 5334SOL     OW16900   4.461   5.105   4.633
 5334SOL    HW116901   4.449   5.008   4.612
 5334SOL    HW216902   4.394   5.159   4.581
 5335SOL     OW16903   0.146   4.417   1.965
 5335SOL    HW116904   0.087   4.489   2.002
 5335SOL    HW216905   0.235   4.421   2.010
 5336SOL     OW16906   2.608   1.818   3.476
 5336SOL    HW116907   2.514   1.820   3.443
 5336SOL    HW216908   2.669   1.787   3.403
 5337SOL     OW16909   5.981   4.991   2.326
 5337SOL    HW116910   5.992   4.977   2.227
 5337SOL    HW216911   6.071   4.996   2.369
 5338SOL     OW16912   5.733   2.490   6.643
 5338SOL    HW116913   5.745   2.399   6.605
 5338SOL    HW216914   5.758   2.559   6.574
 5339SOL     OW16915   5.655   2.054   1.690
 5339SOL    HW116916   5.564   2.089   1.668
 5339SOL    HW216917   5.647   1.963   1.731
 5340SOL     OW16918   5.520   3.374   1.176
 5340SOL    HW116919   5.486   3.460   1.215
 5340SOL    HW216920   5.489   3.297   1.232
 5341SOL     OW16921   3.888   4.919   4.530
 5341SOL    HW116922   3.825   4.947   4.602
 5341SOL    HW216923   3.961   4.861   4.569
 5342SOL     OW16924   4.741   6.337   4.865
 5342SOL    HW116925   4.726   6.254   4.917
 5342SOL    HW216926   4.751   6.415   4.927
 5343SOL     OW16927   3.838   3.542   5.041
 5343SOL    HW116928   3.807   3.550   4.946
 5343SOL    HW216929   3.835   3.446   5.069
 5344SOL     OW16930   0.747   1.497   6.881
 5344SOL    HW116931   0.674   1.556   6.847
 5344SOL    HW216932   0.716   1.401   6.879
 5345SOL     OW16933   4.835   1.105   0.227
 5345SOL    HW116934   4.827   1.089   0.129
 5345SOL    HW216935   4.870   1.023   0.272
 5346SOL     OW16936   2.920   4.832   4.349
 5346SOL    HW116937   2.953   4.772   4.276
 5346SOL    HW216938   2.997   4.866   4.402
 5347SOL     OW16939   0.059   3.310   3.755
 5347SOL    HW116940   7.004   3.268   3.711
 5347SOL    HW216941   0.143   3.269   3.720
 5348SOL     OW16942   0.418   1.339   5.792
 5348SOL    HW116943   0.386   1.432   5.776
 5348SOL    HW216944   0.346   1.274   5.770
 5349SOL     OW16945   2.555   2.909   1.719
 5349SOL    HW116946   2.593   3.001   1.734
 5349SOL    HW216947   2.612   2.860   1.653
 5350SOL     OW16948   2.303   6.131   5.662
 5350SOL    HW116949   2.331   6.147   5.757
 5350SOL    HW216950   2.324   6.036   5.637
 5351SOL     OW16951   0.170   4.598   1.461
 5351SOL    HW116952   0.222   4.547   1.529
 5351SOL    HW216953   0.231   4.632   1.390
 5352SOL     OW16954   2.227   4.059   3.337
 5352SOL    HW116955   2.204   3.961   3.339
 5352SOL    HW216956   2.202   4.097   3.247
 5353SOL     OW16957   3.766   5.154   3.059
 5353SOL    HW116958   3.822   5.139   2.977
 5353SOL    HW216959   3.821   5.202   3.128
 5354SOL     OW16960   2.945   3.964   6.494
 5354SOL    HW116961   3.005   3.885   6.484
 5354SOL    HW216962   2.912   3.993   6.404
 5355SOL     OW16963   5.000   4.910   4.978
 5355SOL    HW116964   5.097   4.897   4.999
 5355SOL    HW216965   4.986   4.905   4.879
 5356SOL     OW16966   6.715   3.442   1.953
 5356SOL    HW116967   6.735   3.346   1.936
 5356SOL    HW216968   6.665   3.480   1.874
 5357SOL     OW16969   4.183   4.776   1.426
 5357SOL    HW116970   4.175   4.720   1.344
 5357SOL    HW216971   4.274   4.766   1.466
 5358SOL     OW16972   4.434   1.925   0.918
 5358SOL    HW116973   4.518   1.875   0.895
 5358SOL    HW216974   4.374   1.928   0.838
 5359SOL     OW16975   2.104   2.165   6.775
 5359SOL    HW116976   2.063   2.125   6.693
 5359SOL    HW216977   2.032   2.187   6.841
 5360SOL     OW16978   5.382   5.570   3.167
 5360SOL    HW116979   5.478   5.575   3.194
 5360SOL    HW216980   5.332   5.647   3.207
 5361SOL     OW16981   2.317   6.479   3.568
 5361SOL    HW116982   2.409   6.482   3.606
 5361SOL    HW216983   2.295   6.386   3.539
 5362SOL     OW16984   6.103   6.919   2.860
 5362SOL    HW116985   6.162   6.846   2.827
 5362SOL    HW216986   6.008   6.889   2.857
 5363SOL     OW16987   5.299   6.244   4.993
 5363SOL    HW116988   5.285   6.342   5.009
 5363SOL    HW216989   5.318   6.198   5.080
 5364SOL     OW16990   5.506   0.335   2.573
 5364SOL    HW116991   5.592   0.341   2.522
 5364SOL    HW216992   5.431   0.316   2.510
 5365SOL     OW16993   2.934   3.502   2.465
 5365SOL    HW116994   2.882   3.528   2.384
 5365SOL    HW216995   2.938   3.580   2.527
 5366SOL     OW16996   6.993   0.718   2.132
 5366SOL    HW116997   7.006   0.654   2.208
 5366SOL    HW216998   0.043   0.785   2.132
 5367SOL     OW16999   6.410   0.505   0.862
 5367SOL    HW117000   6.334   0.450   0.896
 5367SOL    HW217001   6.379   0.600   0.850
 5368SOL     OW17002   6.832   5.921   2.185
 5368SOL    HW117003   6.771   5.998   2.203
 5368SOL    HW217004   6.919   5.955   2.148
 5369SOL     OW17005   2.754   5.924   1.505
 5369SOL    HW117006   2.757   5.841   1.448
 5369SOL    HW217007   2.844   5.966   1.507
 5370SOL     OW17008   4.447   3.392   1.693
 5370SOL    HW117009   4.430   3.490   1.702
 5370SOL    HW217010   4.544   3.374   1.703
 5371SOL     OW17011   0.031   5.377   5.416
 5371SOL    HW117012   0.001   5.285   5.393
 5371SOL    HW217013   0.080   5.417   5.338
 5372SOL     OW17014   1.229   6.746   2.870
 5372SOL    HW117015   1.200   6.778   2.961
 5372SOL    HW217016   1.161   6.772   2.802
 5373SOL     OW17017   3.785   0.267   5.692
 5373SOL    HW117018   3.883   0.284   5.681
 5373SOL    HW217019   3.754   0.310   5.777
 5374SOL     OW17020   2.198   4.481   1.209
 5374SOL    HW117021   2.255   4.437   1.278
 5374SOL    HW217022   2.231   4.457   1.118
 5375SOL     OW17023   0.746   5.985   5.691
 5375SOL    HW117024   0.837   5.996   5.730
 5375SOL    HW217025   0.751   5.996   5.592
 5376SOL     OW17026   1.409   2.729   1.429
 5376SOL    HW117027   1.479   2.660   1.441
 5376SOL    HW217028   1.426   2.805   1.492
 5377SOL     OW17029   1.343   1.093   2.909
 5377SOL    HW117030   1.382   1.023   2.850
 5377SOL    HW217031   1.380   1.183   2.884
 5378SOL     OW17032   6.693   0.612   1.587
 5378SOL    HW117033   6.755   0.619   1.664
 5378SOL    HW217034   6.741   0.569   1.510
 5379SOL     OW17035   1.303   3.323   5.257
 5379SOL    HW117036   1.210   3.338   5.289
 5379SOL    HW217037   1.363   3.394   5.294
 5380SOL     OW17038   3.372   6.940   1.327
 5380SOL    HW117039   3.337   6.955   1.420
 5380SOL    HW217040   3.472   6.943   1.329
 5381SOL     OW17041   5.997   5.885   2.793
 5381SOL    HW117042   6.081   5.913   2.747
 5381SOL    HW217043   5.961   5.962   2.847
 5382SOL     OW17044   2.817   2.194   2.638
 5382SOL    HW117045   2.826   2.237   2.548
 5382SOL    HW217046   2.772   2.257   2.701
 5383SOL     OW17047   1.531   3.246   4.815
 5383SOL    HW117048   1.479   3.327   4.842
 5383SOL    HW217049   1.628   3.260   4.834
 5384SOL     OW17050   4.426   5.561   4.513
 5384SOL    HW117051   4.394   5.470   4.542
 5384SOL    HW217052   4.467   5.608   4.591
 5385SOL     OW17053   6.445   2.868   4.849
 5385SOL    HW117054   6.499   2.784   4.860
 5385SOL    HW217055   6.503   2.947   4.867
 5386SOL     OW17056   6.293   1.796   3.984
 5386SOL    HW117057   6.271   1.700   3.965
 5386SOL    HW217058   6.253   1.853   3.912
 5387SOL     OW17059   3.037   6.316   3.613
 5387SOL    HW117060   2.947   6.328   3.572
 5387SOL    HW217061   3.100   6.278   3.544
 5388SOL     OW17062   1.750   6.448   3.055
 5388SOL    HW117063   1.700   6.533   3.075
 5388SOL    HW217064   1.837   6.470   3.012
 5389SOL     OW17065   4.186   2.344   4.561
 5389SOL    HW117066   4.134   2.302   4.635
 5389SOL    HW217067   4.172   2.292   4.477
 5390SOL     OW17068   5.047   4.004   4.104
 5390SOL    HW117069   5.070   3.909   4.129
 5390SOL    HW217070   5.129   4.049   4.069
 5391SOL     OW17071   2.943   1.941   0.216
 5391SOL    HW117072   2.894   2.020   0.253
 5391SOL    HW217073   3.029   1.971   0.176
 5392SOL     OW17074   4.858   3.061   2.510
 5392SOL    HW117075   4.948   3.104   2.519
 5392SOL    HW217076   4.843   3.036   2.414
 5393SOL     OW17077   4.575   1.055   5.426
 5393SOL    HW117078   4.532   1.058   5.516
 5393SOL    HW217079   4.589   0.960   5.399
 5394SOL     OW17080   0.603   6.199   0.798
 5394SOL    HW117081   0.555   6.167   0.881
 5394SOL    HW217082   0.600   6.299   0.795
 5395SOL     OW17083   4.818   1.218   1.239
 5395SOL    HW117084   4.870   1.133   1.242
 5395SOL    HW217085   4.732   1.206   1.288
 5396SOL     OW17086   5.274   5.559   2.134
 5396SOL    HW117087   5.326   5.622   2.192
 5396SOL    HW217088   5.247   5.606   2.050
 5397SOL     OW17089   6.968   2.153   1.712
 5397SOL    HW117090   6.958   2.058   1.739
 5397SOL    HW217091   0.018   2.161   1.644
 5398SOL     OW17092   3.522   2.127   3.784
 5398SOL    HW117093   3.454   2.093   3.720
 5398SOL    HW217094   3.485   2.207   3.833
 5399SOL     OW17095   2.745   6.663   5.956
 5399SOL    HW117096   2.658   6.621   5.929
 5399SOL    HW217097   2.750   6.756   5.920
 5400SOL     OW17098   3.670   3.413   0.869
 5400SOL    HW117099   3.667   3.419   0.769
 5400SOL    HW217100   3.727   3.335   0.896
 5401SOL     OW17101   5.431   4.174   2.969
 5401SOL    HW117102   5.488   4.244   2.925
 5401SOL    HW217103   5.440   4.088   2.920
 5402SOL     OW17104   3.421   6.087   0.839
 5402SOL    HW117105   3.384   6.000   0.872
 5402SOL    HW217106   3.512   6.102   0.879
 5403SOL     OW17107   5.217   3.022   6.515
 5403SOL    HW117108   5.133   2.978   6.481
 5403SOL    HW217109   5.226   3.004   6.613
 5404SOL     OW17110   0.631   0.345   0.811
 5404SOL    HW117111   0.602   0.435   0.780
 5404SOL    HW217112   0.689   0.353   0.891
 5405SOL     OW17113   5.965   4.879   6.989
 5405SOL    HW117114   6.005   4.909   6.902
 5405SOL    HW217115   5.941   4.959   0.020
 5406SOL     OW17116   1.969   0.994   5.105
 5406SOL    HW117117   1.947   0.975   5.009
 5406SOL    HW217118   1.919   0.931   5.164
 5407SOL     OW17119   2.745   1.510   1.124
 5407SOL    HW117120   2.674   1.489   1.058
 5407SOL    HW217121   2.817   1.563   1.081
 5408SOL     OW17122   3.143   1.836   4.771
 5408SOL    HW117123   3.087   1.819   4.852
 5408SOL    HW217124   3.133   1.932   4.743
 5409SOL     OW17125   6.207   1.691   2.418
 5409SOL    HW117126   6.187   1.639   2.335
 5409SOL    HW217127   6.276   1.644   2.472
 5410SOL     OW17128   0.700   2.877   0.054
 5410SOL    HW117129   0.745   2.947   0.110
 5410SOL    HW217130   0.613   2.852   0.095
 5411SOL     OW17131   5.258   4.372   6.974
 5411SOL    HW117132   5.250   4.468   7.003
 5411SOL    HW217133   5.262   4.314   0.032
 5412SOL     OW17134   2.355   1.134   6.521
 5412SOL    HW117135   2.300   1.136   6.438
 5412SOL    HW217136   2.295   1.135   6.601
 5413SOL     OW17137   0.164   6.829   5.766
 5413SOL    HW117138   0.166   6.830   5.866
 5413SOL    HW217139   0.109   6.906   5.733
 5414SOL     OW17140   6.411   4.656   5.618
 5414SOL    HW117141   6.364   4.591   5.678
 5414SOL    HW217142   6.375   4.646   5.525
 5415SOL     OW17143   2.866   5.784   0.769
 5415SOL    HW117144   2.896   5.768   0.675
 5415SOL    HW217145   2.835   5.698   0.809
 5416SOL     OW17146   2.763   5.565   4.954
 5416SOL    HW117147   2.722   5.550   5.044
 5416SOL    HW217148   2.757   5.480   4.901
 5417SOL     OW17149   4.056   6.698   4.187
 5417SOL    HW117150   4.145   6.658   4.163
 5417SOL    HW217151   4.005   6.633   4.243
 5418SOL     OW17152   5.636   5.436   4.803
 5418SOL    HW117153   5.678   5.346   4.802
 5418SOL    HW217154   5.544   5.431   4.763
 5419SOL     OW17155   4.064   6.440   0.315
 5419SOL    HW117156   4.129   6.482   0.378
 5419SOL    HW217157   4.035   6.351   0.351
 5420SOL     OW17158   1.837   1.984   1.080
 5420SOL    HW117159   1.877   1.972   1.171
 5420SOL    HW217160   1.778   2.064   1.081
 5421SOL     OW17161   3.047   5.384   1.892
 5421SOL    HW117162   2.996   5.355   1.973
 5421SOL    HW217163   3.005   5.468   1.856
 5422SOL     OW17164   1.819   5.784   4.115
 5422SOL    HW117165   1.862   5.785   4.206
 5422SOL    HW217166   1.740   5.723   4.116
 5423SOL     OW17167   6.278   5.128   1.589
 5423SOL    HW117168   6.320   5.118   1.499
 5423SOL    HW217169   6.292   5.044   1.641
 5424SOL     OW17170   4.858   3.702   4.036
 5424SOL    HW117171   4.809   3.616   4.021
 5424SOL    HW217172   4.903   3.700   4.125
 5425SOL     OW17173   6.902   3.245   4.635
 5425SOL    HW117174   6.864   3.328   4.595
 5425SOL    HW217175   6.957   3.197   4.567
 5426SOL     OW17176   4.599   5.560   2.292
 5426SOL    HW117177   4.548   5.626   2.237
 5426SOL    HW217178   4.615   5.598   2.383
 5427SOL     OW17179   4.556   2.808   0.213
 5427SOL    HW117180   4.578   2.748   0.136
 5427SOL    HW217181   4.457   2.816   0.222
 5428SOL     OW17182   5.139   6.444   2.784
 5428SOL    HW117183   5.083   6.363   2.800
 5428SOL    HW217184   5.178   6.440   2.692
 5429SOL     OW17185   2.589   6.654   5.178
 5429SOL    HW117186   2.549   6.587   5.116
 5429SOL    HW217187   2.528   6.733   5.187
 5430SOL     OW17188   1.738   2.843   5.828
 5430SOL    HW117189   1.706   2.930   5.790
 5430SOL    HW217190   1.724   2.770   5.762
 5431SOL     OW17191   3.532   4.774   6.350
 5431SOL    HW117192   3.537   4.793   6.252
 5431SOL    HW217193   3.614   4.726   6.379
 5432SOL     OW17194   5.474   5.640   0.416
 5432SOL    HW117195   5.461   5.729   0.458
 5432SOL    HW217196   5.546   5.590   0.465
 5433SOL     OW17197   1.147   6.904   1.096
 5433SOL    HW117198   1.166   6.913   0.998
 5433SOL    HW217199   1.128   6.994   1.135
 5434SOL     OW17200   4.979   1.452   4.919
 5434SOL    HW117201   5.021   1.401   4.845
 5434SOL    HW217202   4.931   1.389   4.980
 5435SOL     OW17203   6.247   3.437   0.664
 5435SOL    HW117204   6.186   3.516   0.653
 5435SOL    HW217205   6.194   3.353   0.661
 5436SOL     OW17206   0.194   5.529   4.366
 5436SOL    HW117207   0.139   5.466   4.313
 5436SOL    HW217208   0.215   5.611   4.312
 5437SOL     OW17209   3.338   4.585   5.949
 5437SOL    HW117210   3.259   4.644   5.931
 5437SOL    HW217211   3.312   4.490   5.938
 5438SOL     OW17212   5.360   5.074   2.019
 5438SOL    HW117213   5.266   5.039   2.020
 5438SOL    HW217214   5.363   5.161   2.068
 5439SOL     OW17215   1.490   3.767   0.370
 5439SOL    HW117216   1.556   3.765   0.445
 5439SOL    HW217217   1.439   3.681   0.368
 5440SOL     OW17218   5.549   6.897   3.301
 5440SOL    HW117219   5.607   6.963   3.348
 5440SOL    HW217220   5.455   6.905   3.334
 5441SOL     OW17221   5.314   3.300   3.447
 5441SOL    HW117222   5.312   3.350   3.534
 5441SOL    HW217223   5.352   3.358   3.376
 5442SOL     OW17224   3.609   0.458   3.368
 5442SOL    HW117225   3.703   0.440   3.398
 5442SOL    HW217226   3.599   0.430   3.272
 5443SOL     OW17227   4.243   6.401   3.852
 5443SOL    HW117228   4.311   6.343   3.897
 5443SOL    HW217229   4.234   6.374   3.757
 5444SOL     OW17230   7.022   2.302   4.061
 5444SOL    HW117231   0.022   2.227   4.123
 5444SOL    HW217232   0.076   2.364   4.052
 5445SOL     OW17233   4.944   4.287   4.155
 5445SOL    HW117234   4.952   4.243   4.244
 5445SOL    HW217235   5.034   4.316   4.123
 5446SOL     OW17236   6.596   4.652   4.504
 5446SOL    HW117237   6.504   4.614   4.504
 5446SOL    HW217238   6.636   4.642   4.413
 5447SOL     OW17239   2.516   1.460   0.963
 5447SOL    HW117240   2.524   1.496   0.870
 5447SOL    HW217241   2.425   1.481   0.999
 5448SOL     OW17242   4.641   5.378   3.912
 5448SOL    HW117243   4.680   5.468   3.893
 5448SOL    HW217244   4.617   5.333   3.826
 5449SOL     OW17245   2.336   1.172   1.845
 5449SOL    HW117246   2.391   1.193   1.764
 5449SOL    HW217247   2.277   1.251   1.866
 5450SOL     OW17248   4.052   6.173   0.968
 5450SOL    HW117249   4.018   6.084   0.995
 5450SOL    HW217250   4.014   6.244   1.028
 5451SOL     OW17251   1.731   6.508   3.362
 5451SOL    HW117252   1.700   6.427   3.311
 5451SOL    HW217253   1.654   6.570   3.375
 5452SOL     OW17254   2.222   4.614   0.697
 5452SOL    HW117255   2.136   4.645   0.657
 5452SOL    HW217256   2.223   4.635   0.795
 5453SOL     OW17257   5.051   4.175   1.971
 5453SOL    HW117258   5.039   4.117   1.890
 5453SOL    HW217259   4.982   4.247   1.970
 5454SOL     OW17260   5.482   6.494   1.855
 5454SOL    HW117261   5.500   6.536   1.943
 5454SOL    HW217262   5.568   6.460   1.816
 5455SOL     OW17263   0.575   1.585   3.165
 5455SOL    HW117264   0.508   1.565   3.237
 5455SOL    HW217265   0.541   1.551   3.077
 5456SOL     OW17266   4.322   0.925   6.877
 5456SOL    HW117267   4.266   0.888   6.802
 5456SOL    HW217268   4.323   1.025   6.871
 5457SOL     OW17269   6.530   1.734   0.282
 5457SOL    HW117270   6.557   1.638   0.289
 5457SOL    HW217271   6.611   1.790   0.264
 5458SOL     OW17272   0.012   5.225   1.310
 5458SOL    HW117273   0.009   5.162   1.388
 5458SOL    HW217274   0.030   5.173   1.226
 5459SOL     OW17275   1.929   4.356   5.157
 5459SOL    HW117276   1.836   4.357   5.192
 5459SOL    HW217277   1.947   4.268   5.111
 5460SOL     OW17278   2.397   0.593   1.691
 5460SOL    HW117279   2.458   0.611   1.768
 5460SOL    HW217280   2.321   0.536   1.721
 5461SOL     OW17281   1.206   1.506   5.581
 5461SOL    HW117282   1.176   1.545   5.667
 5461SOL    HW217283   1.305   1.519   5.572
 5462SOL     OW17284   5.091   6.397   6.869
 5462SOL    HW117285   5.190   6.386   6.879
 5462SOL    HW217286   5.071   6.488   6.832
 5463SOL     OW17287   6.370   1.810   6.809
 5463SOL    HW117288   6.286   1.791   6.757
 5463SOL    HW217289   6.397   1.905   6.794
 5464SOL     OW17290   6.789   5.642   5.320
 5464SOL    HW117291   6.744   5.611   5.404
 5464SOL    HW217292   6.753   5.731   5.293
 5465SOL     OW17293   6.968   7.022   2.982
 5465SOL    HW117294   0.024   6.967   3.008
 5465SOL    HW217295   6.985   0.042   2.894
 5466SOL     OW17296   5.973   2.793   5.567
 5466SOL    HW117297   5.874   2.804   5.574
 5466SOL    HW217298   6.001   2.794   5.471
 5467SOL     OW17299   5.551   4.101   3.666
 5467SOL    HW117300   5.612   4.025   3.648
 5467SOL    HW217301   5.490   4.115   3.588
 5468SOL     OW17302   6.901   2.561   3.837
 5468SOL    HW117303   6.937   2.468   3.830
 5468SOL    HW217304   6.885   2.597   3.745
 5469SOL     OW17305   2.987   6.437   6.255
 5469SOL    HW117306   3.038   6.486   6.326
 5469SOL    HW217307   2.898   6.481   6.242
 5470SOL     OW17308   3.943   5.433   3.445
 5470SOL    HW117309   3.898   5.522   3.432
 5470SOL    HW217310   3.967   5.422   3.542
 5471SOL     OW17311   5.340   0.290   2.364
 5471SOL    HW117312   5.361   0.282   2.266
 5471SOL    HW217313   5.241   0.297   2.376
 5472SOL     OW17314   3.634   3.081   6.511
 5472SOL    HW117315   3.622   2.988   6.477
 5472SOL    HW217316   3.546   3.127   6.515
 5473SOL     OW17317   2.460   4.887   0.136
 5473SOL    HW117318   2.399   4.927   0.205
 5473SOL    HW217319   2.555   4.913   0.157
 5474SOL     OW17320   0.339   5.840   3.867
 5474SOL    HW117321   0.295   5.918   3.823
 5474SOL    HW217322   0.275   5.798   3.931
 5475SOL     OW17323   1.565   1.957   0.696
 5475SOL    HW117324   1.656   1.995   0.711
 5475SOL    HW217325   1.536   1.905   0.776
 5476SOL     OW17326   2.541   4.952   5.538
 5476SOL    HW117327   2.539   4.996   5.627
 5476SOL    HW217328   2.633   4.959   5.499
 5477SOL     OW17329   1.838   3.559   2.950
 5477SOL    HW117330   1.827   3.644   2.899
 5477SOL    HW217331   1.793   3.484   2.901
 5478SOL     OW17332   5.202   6.033   5.514
 5478SOL    HW117333   5.138   5.956   5.510
 5478SOL    HW217334   5.233   6.045   5.608
 5479SOL     OW17335   4.804   1.628   4.763
 5479SOL    HW117336   4.850   1.628   4.674
 5479SOL    HW217337   4.839   1.552   4.818
 5480SOL     OW17338   5.922   4.927   5.126
 5480SOL    HW117339   5.844   4.963   5.075
 5480SOL    HW217340   6.006   4.954   5.081
 5481SOL     OW17341   4.820   1.321   4.621
 5481SOL    HW117342   4.851   1.238   4.667
 5481SOL    HW217343   4.724   1.339   4.645
 5482SOL     OW17344   3.262   4.000   3.028
 5482SOL    HW117345   3.329   4.034   2.962
 5482SOL    HW217346   3.259   3.900   3.024
 5483SOL     OW17347   6.403   2.392   5.087
 5483SOL    HW117348   6.502   2.384   5.098
 5483SOL    HW217349   6.372   2.479   5.124
 5484SOL     OW17350   6.249   0.557   3.557
 5484SOL    HW117351   6.171   0.606   3.518
 5484SOL    HW217352   6.333   0.587   3.511
 5485SOL     OW17353   3.238   6.541   4.768
 5485SOL    HW117354   3.255   6.449   4.802
 5485SOL    HW217355   3.151   6.575   4.803
 5486SOL     OW17356   1.829   6.650   3.647
 5486SOL    HW117357   1.768   6.572   3.640
 5486SOL    HW217358   1.830   6.699   3.560
 5487SOL     OW17359   5.364   3.635   6.150
 5487SOL    HW117360   5.310   3.719   6.157
 5487SOL    HW217361   5.341   3.574   6.225
 5488SOL     OW17362   5.455   1.527   1.235
 5488SOL    HW117363   5.463   1.617   1.192
 5488SOL    HW217364   5.546   1.488   1.247
 5489SOL     OW17365   1.104   4.267   1.612
 5489SOL    HW117366   1.022   4.324   1.609
 5489SOL    HW217367   1.129   4.238   1.520
 5490SOL     OW17368   3.550   6.925   0.999
 5490SOL    HW117369   3.451   6.910   1.006
 5490SOL    HW217370   3.583   6.966   1.084
 5491SOL     OW17371   1.453   3.904   6.109
 5491SOL    HW117372   1.373   3.866   6.155
 5491SOL    HW217373   1.533   3.849   6.130
 5492SOL     OW17374   1.199   1.951   6.449
 5492SOL    HW117375   1.204   2.050   6.462
 5492SOL    HW217376   1.110   1.917   6.480
 5493SOL     OW17377   4.029   3.701   4.376
 5493SOL    HW117378   4.038   3.655   4.288
 5493SOL    HW217379   3.974   3.645   4.438
 5494SOL     OW17380   6.120   3.061   6.907
 5494SOL    HW117381   6.102   3.154   6.874
 5494SOL    HW217382   6.207   3.028   6.869
 5495SOL     OW17383   2.994   2.526   1.581
 5495SOL    HW117384   2.908   2.504   1.535
 5495SOL    HW217385   2.989   2.496   1.676
 5496SOL     OW17386   2.541   6.804   3.423
 5496SOL    HW117387   2.532   6.842   3.515
 5496SOL    HW217388   2.613   6.734   3.423
 5497SOL     OW17389   0.333   1.908   3.435
 5497SOL    HW117390   0.286   1.832   3.478
 5497SOL    HW217391   0.285   1.994   3.454
 5498SOL     OW17392   5.254   0.270   1.378
 5498SOL    HW117393   5.311   0.214   1.318
 5498SOL    HW217394   5.169   0.222   1.398
 5499SOL     OW17395   0.885   0.791   3.741
 5499SOL    HW117396   0.904   0.878   3.787
 5499SOL    HW217397   0.816   0.740   3.792
 5500SOL     OW17398   1.767   6.172   0.137
 5500SOL    HW117399   1.707   6.219   0.202
 5500SOL    HW217400   1.786   6.080   0.171
 5501SOL     OW17401   3.506   0.361   0.969
 5501SOL    HW117402   3.468   0.318   0.887
 5501SOL    HW217403   3.443   0.347   1.046
 5502SOL     OW17404   5.151   4.325   6.334
 5502SOL    HW117405   5.102   4.244   6.368
 5502SOL    HW217406   5.168   4.388   6.409
 5503SOL     OW17407   0.137   4.707   2.929
 5503SOL    HW117408   0.068   4.689   3.000
 5503SOL    HW217409   0.223   4.734   2.972
 5504SOL     OW17410   4.189   1.760   5.566
 5504SOL    HW117411   4.156   1.812   5.645
 5504SOL    HW217412   4.117   1.697   5.536
 5505SOL     OW17413   2.284   5.132   4.439
 5505SOL    HW117414   2.224   5.159   4.364
 5505SOL    HW217415   2.380   5.141   4.411
 5506SOL     OW17416   0.110   0.889   6.116
 5506SOL    HW117417   0.102   0.986   6.136
 5506SOL    HW217418   0.053   0.867   6.036
 5507SOL     OW17419   2.090   6.695   2.567
 5507SOL    HW117420   2.102   6.609   2.617
 5507SOL    HW217421   2.143   6.692   2.482
 5508SOL     OW17422   1.885   1.065   0.115
 5508SOL    HW117423   1.982   1.078   0.094
 5508SOL    HW217424   1.835   1.151   0.099
 5509SOL     OW17425   1.047   6.401   0.581
 5509SOL    HW117426   0.964   6.428   0.532
 5509SOL    HW217427   1.032   6.313   0.626
 5510SOL     OW17428   5.291   6.005   0.845
 5510SOL    HW117429   5.376   5.956   0.828
 5510SOL    HW217430   5.286   6.084   0.784
 5511SOL     OW17431   2.496   0.013   4.419
 5511SOL    HW117432   2.547   0.041   4.501
 5511SOL    HW217433   2.558   0.012   4.340
 5512SOL     OW17434   5.902   2.249   1.399
 5512SOL    HW117435   5.968   2.199   1.456
 5512SOL    HW217436   5.815   2.256   1.448
 5513SOL     OW17437   3.280   4.133   6.152
 5513SOL    HW117438   3.206   4.083   6.106
 5513SOL    HW217439   3.305   4.213   6.097
 5514SOL     OW17440   4.273   5.835   2.298
 5514SOL    HW117441   4.246   5.772   2.225
 5514SOL    HW217442   4.331   5.787   2.363
 5515SOL     OW17443   0.425   4.391   1.048
 5515SOL    HW117444   0.337   4.345   1.044
 5515SOL    HW217445   0.458   4.394   1.142
 5516SOL     OW17446   1.428   3.625   6.901
 5516SOL    HW117447   1.485   3.560   6.851
 5516SOL    HW217448   1.349   3.650   6.845
 5517SOL     OW17449   2.304   2.833   2.293
 5517SOL    HW117450   2.276   2.866   2.202
 5517SOL    HW217451   2.259   2.746   2.313
 5518SOL     OW17452   6.451   6.871   6.501
 5518SOL    HW117453   6.432   6.849   6.596
 5518SOL    HW217454   6.450   6.970   6.488
 5519SOL     OW17455   5.113   3.097   2.973
 5519SOL    HW117456   5.022   3.116   2.935
 5519SOL    HW217457   5.120   3.139   3.064
 5520SOL     OW17458   6.802   5.579   2.489
 5520SOL    HW117459   6.839   5.599   2.398
 5520SOL    HW217460   6.836   5.490   2.519
 5521SOL     OW17461   4.040   6.568   2.568
 5521SOL    HW117462   4.110   6.515   2.614
 5521SOL    HW217463   4.028   6.656   2.614
 5522SOL     OW17464   0.559   4.948   0.675
 5522SOL    HW117465   0.535   5.004   0.595
 5522SOL    HW217466   0.650   4.974   0.708
 5523SOL     OW17467   2.791   6.885   2.931
 5523SOL    HW117468   2.881   6.866   2.970
 5523SOL    HW217469   2.763   6.809   2.872
 5524SOL     OW17470   5.978   4.991   4.527
 5524SOL    HW117471   6.062   5.015   4.575
 5524SOL    HW217472   5.977   4.893   4.508
 5525SOL     OW17473   6.895   3.439   0.090
 5525SOL    HW117474   6.866   3.455   7.018
 5525SOL    HW217475   6.929   3.346   0.099
 5526SOL     OW17476   5.300   4.257   4.692
 5526SOL    HW117477   5.261   4.299   4.610
 5526SOL    HW217478   5.227   4.236   4.757
 5527SOL     OW17479   0.813   3.675   4.043
 5527SOL    HW117480   0.833   3.637   4.133
 5527SOL    HW217481   0.722   3.717   4.044
 5528SOL     OW17482   0.942   1.783   6.729
 5528SOL    HW117483   0.844   1.771   6.711
 5528SOL    HW217484   0.961   1.880   6.747
 5529SOL     OW17485   2.172   0.246   4.593
 5529SOL    HW117486   2.081   0.218   4.561
 5529SOL    HW217487   2.230   0.267   4.514
 5530SOL     OW17488   0.402   2.403   2.413
 5530SOL    HW117489   0.339   2.378   2.487
 5530SOL    HW217490   0.474   2.333   2.405
 5531SOL     OW17491   3.709   4.071   2.417
 5531SOL    HW117492   3.711   4.027   2.507
 5531SOL    HW217493   3.797   4.113   2.398
 5532SOL     OW17494   1.634   1.580   0.918
 5532SOL    HW117495   1.672   1.612   0.831
 5532SOL    HW217496   1.658   1.484   0.931
 5533SOL     OW17497   2.792   0.770   3.126
 5533SOL    HW117498   2.789   0.752   3.225
 5533SOL    HW217499   2.876   0.731   3.088
 5534SOL     OW17500   0.842   2.553   5.634
 5534SOL    HW117501   0.901   2.561   5.714
 5534SOL    HW217502   0.855   2.633   5.575
 5535SOL     OW17503   0.893   3.454   4.271
 5535SOL    HW117504   0.917   3.365   4.309
 5535SOL    HW217505   0.940   3.468   4.184
 5536SOL     OW17506   3.342   0.766   4.285
 5536SOL    HW117507   3.398   0.846   4.263
 5536SOL    HW217508   3.363   0.692   4.220
 5537SOL     OW17509   3.140   0.876   4.596
 5537SOL    HW117510   3.044   0.864   4.573
 5537SOL    HW217511   3.194   0.803   4.554
 5538SOL     OW17512   3.252   6.961   4.850
 5538SOL    HW117513   3.301   6.875   4.836
 5538SOL    HW217514   3.164   6.943   4.893
 5539SOL     OW17515   1.386   2.913   0.454
 5539SOL    HW117516   1.387   2.938   0.358
 5539SOL    HW217517   1.478   2.923   0.492
 5540SOL     OW17518   6.223   3.576   3.175
 5540SOL    HW117519   6.316   3.588   3.138
 5540SOL    HW217520   6.172   3.661   3.165
 5541SOL     OW17521   5.711   1.504   6.640
 5541SOL    HW117522   5.669   1.582   6.686
 5541SOL    HW217523   5.811   1.516   6.639
 5542SOL     OW17524   5.722   6.707   6.372
 5542SOL    HW117525   5.664   6.760   6.311
 5542SOL    HW217526   5.791   6.767   6.412
 5543SOL     OW17527   2.861   5.315   6.204
 5543SOL    HW117528   2.862   5.415   6.212
 5543SOL    HW217529   2.828   5.274   6.288
 5544SOL     OW17530   5.471   5.770   6.392
 5544SOL    HW117531   5.396   5.836   6.381
 5544SOL    HW217532   5.433   5.677   6.392
 5545SOL     OW17533   4.439   1.525   3.539
 5545SOL    HW117534   4.514   1.575   3.581
 5545SOL    HW217535   4.370   1.589   3.506
 5546SOL     OW17536   1.722   6.957   3.954
 5546SOL    HW117537   1.733   6.858   3.961
 5546SOL    HW217538   1.665   6.978   3.874
 5547SOL     OW17539   3.997   0.605   4.629
 5547SOL    HW117540   4.060   0.590   4.705
 5547SOL    HW217541   3.931   0.530   4.625
 5548SOL     OW17542   5.368   3.500   4.717
 5548SOL    HW117543   5.430   3.578   4.704
 5548SOL    HW217544   5.414   3.429   4.769
 5549SOL     OW17545   4.028   4.769   0.984
 5549SOL    HW117546   4.008   4.847   1.043
 5549SOL    HW217547   3.958   4.763   0.913
 5550SOL     OW17548   2.282   4.249   2.202
 5550SOL    HW117549   2.217   4.296   2.144
 5550SOL    HW217550   2.249   4.249   2.297
 5551SOL     OW17551   1.539   6.317   3.341
 5551SOL    HW117552   1.523   6.357   3.431
 5551SOL    HW217553   1.552   6.219   3.351
 5552SOL     OW17554   0.086   0.005   6.800
 5552SOL    HW117555   0.021   6.992   6.867
 5552SOL    HW217556   0.070   6.986   6.711
 5553SOL     OW17557   5.021   6.416   0.347
 5553SOL    HW117558   5.091   6.487   0.340
 5553SOL    HW217559   5.004   6.377   0.256
 5554SOL     OW17560   4.806   1.925   6.722
 5554SOL    HW117561   4.748   1.928   6.640
 5554SOL    HW217562   4.748   1.916   6.802
 5555SOL     OW17563   1.177   3.896   3.237
 5555SOL    HW117564   1.106   3.887   3.307
 5555SOL    HW217565   1.256   3.941   3.276
 5556SOL     OW17566   6.922   1.672   3.658
 5556SOL    HW117567   6.871   1.738   3.603
 5556SOL    HW217568   6.959   1.601   3.598
 5557SOL     OW17569   3.237   0.022   2.822
 5557SOL    HW117570   3.263   0.036   2.726
 5557SOL    HW217571   3.302   0.070   2.881
 5558SOL     OW17572   3.506   3.222   5.580
 5558SOL    HW117573   3.549   3.142   5.539
 5558SOL    HW217574   3.564   3.302   5.566
 5559SOL     OW17575   1.224   0.655   1.521
 5559SOL    HW117576   1.227   0.558   1.499
 5559SOL    HW217577   1.137   0.677   1.564
 5560SOL     OW17578   0.392   5.532   2.453
 5560SOL    HW117579   0.422   5.553   2.546
 5560SOL    HW217580   0.455   5.571   2.387
 5561SOL     OW17581   1.745   1.411   4.065
 5561SOL    HW117582   1.817   1.455   4.011
 5561SOL    HW217583   1.760   1.429   4.162
 5562SOL     OW17584   4.148   2.256   6.357
 5562SOL    HW117585   4.188   2.340   6.318
 5562SOL    HW217586   4.191   2.237   6.445
 5563SOL     OW17587   3.623   5.271   1.959
 5563SOL    HW117588   3.542   5.306   1.911
 5563SOL    HW217589   3.634   5.321   2.045
 5564SOL     OW17590   4.870   0.474   1.351
 5564SOL    HW117591   4.949   0.437   1.302
 5564SOL    HW217592   4.808   0.518   1.286
 5565SOL     OW17593   4.689   1.693   6.038
 5565SOL    HW117594   4.784   1.662   6.044
 5565SOL    HW217595   4.658   1.721   6.129
 5566SOL     OW17596   1.504   4.723   6.536
 5566SOL    HW117597   1.588   4.700   6.585
 5566SOL    HW217598   1.526   4.736   6.439
 5567SOL     OW17599   0.182   2.126   0.865
 5567SOL    HW117600   0.226   2.087   0.946
 5567SOL    HW217601   0.085   2.140   0.884
 5568SOL     OW17602   4.546   1.853   3.955
 5568SOL    HW117603   4.451   1.852   3.986
 5568SOL    HW217604   4.567   1.943   3.916
 5569SOL     OW17605   1.638   2.351   2.423
 5569SOL    HW117606   1.549   2.396   2.439
 5569SOL    HW217607   1.639   2.313   2.330
 5570SOL     OW17608   6.203   4.720   5.153
 5570SOL    HW117609   6.146   4.713   5.235
 5570SOL    HW217610   6.157   4.673   5.077
 5571SOL     OW17611   6.991   5.775   0.444
 5571SOL    HW117612   0.054   5.757   0.397
 5571SOL    HW217613   6.987   5.871   0.471
 5572SOL     OW17614   1.384   1.970   5.195
 5572SOL    HW117615   1.413   2.011   5.281
 5572SOL    HW217616   1.313   2.026   5.154
 5573SOL     OW17617   2.407   4.445   4.273
 5573SOL    HW117618   2.459   4.448   4.187
 5573SOL    HW217619   2.353   4.361   4.276
 5574SOL     OW17620   0.612   2.081   2.133
 5574SOL    HW117621   0.596   2.177   2.110
 5574SOL    HW217622   0.630   2.073   2.231
 5575SOL     OW17623   6.858   0.823   1.389
 5575SOL    HW117624   6.769   0.833   1.346
 5575SOL    HW217625   6.900   0.914   1.402
 5576SOL     OW17626   1.114   5.146   1.707
 5576SOL    HW117627   1.061   5.082   1.651
 5576SOL    HW217628   1.211   5.138   1.685
 5577SOL     OW17629   3.505   3.707   5.690
 5577SOL    HW117630   3.454   3.721   5.605
 5577SOL    HW217631   3.602   3.724   5.673
 5578SOL     OW17632   3.786   3.666   0.629
 5578SOL    HW117633   3.820   3.732   0.696
 5578SOL    HW217634   3.857   3.647   0.562
 5579SOL     OW17635   0.637   3.621   0.014
 5579SOL    HW117636   0.627   3.545   6.973
 5579SOL    HW217637   0.554   3.629   0.070
 5580SOL     OW17638   5.677   2.633   5.555
 5580SOL    HW117639   5.713   2.642   5.462
 5580SOL    HW217640   5.610   2.560   5.558
 5581SOL     OW17641   1.318   6.985   1.579
 5581SOL    HW117642   1.404   0.001   1.547
 5581SOL    HW217643   1.248   0.033   1.580
 5582SOL     OW17644   2.931   4.004   5.207
 5582SOL    HW117645   2.916   3.914   5.249
 5582SOL    HW217646   2.851   4.062   5.225
 5583SOL     OW17647   4.928   0.286   2.682
 5583SOL    HW117648   5.009   0.333   2.646
 5583SOL    HW217649   4.905   0.324   2.771
 5584SOL     OW17650   5.643   4.521   3.999
 5584SOL    HW117651   5.628   4.538   3.902
 5584SOL    HW217652   5.644   4.607   4.049
 5585SOL     OW17653   5.272   6.185   4.091
 5585SOL    HW117654   5.183   6.227   4.075
 5585SOL    HW217655   5.265   6.086   4.080
 5586SOL     OW17656   0.180   2.491   6.854
 5586SOL    HW117657   0.278   2.493   6.873
 5586SOL    HW217658   0.143   2.584   6.860
 5587SOL     OW17659   4.059   6.157   1.943
 5587SOL    HW117660   4.109   6.082   1.900
 5587SOL    HW217661   4.002   6.203   1.874
 5588SOL     OW17662   1.640   5.844   2.891
 5588SOL    HW117663   1.546   5.810   2.895
 5588SOL    HW217664   1.666   5.882   2.980
 5589SOL     OW17665   6.020   3.724   5.470
 5589SOL    HW117666   6.070   3.804   5.437
 5589SOL    HW217667   5.948   3.752   5.533
 5590SOL     OW17668   6.665   5.687   4.145
 5590SOL    HW117669   6.681   5.695   4.047
 5590SOL    HW217670   6.651   5.777   4.184
 5591SOL     OW17671   5.202   1.891   0.265
 5591SOL    HW117672   5.256   1.968   0.231
 5591SOL    HW217673   5.262   1.816   0.292
 5592SOL     OW17674   6.927   4.402   2.774
 5592SOL    HW117675   6.979   4.472   2.726
 5592SOL    HW217676   6.873   4.445   2.847
 5593SOL     OW17677   0.696   3.120   6.418
 5593SOL    HW117678   0.782   3.171   6.417
 5593SOL    HW217679   0.636   3.158   6.487
 5594SOL     OW17680   3.821   1.518   6.660
 5594SOL    HW117681   3.814   1.570   6.575
 5594SOL    HW217682   3.917   1.507   6.684
 5595SOL     OW17683   6.363   0.647   5.051
 5595SOL    HW117684   6.459   0.626   5.035
 5595SOL    HW217685   6.345   0.652   5.149
 5596SOL     OW17686   4.790   0.593   3.290
 5596SOL    HW117687   4.803   0.524   3.361
 5596SOL    HW217688   4.697   0.630   3.296
 5597SOL     OW17689   5.396   2.955   4.968
 5597SOL    HW117690   5.349   2.980   4.883
 5597SOL    HW217691   5.405   3.036   5.026
 5598SOL     OW17692   6.158   3.844   3.752
 5598SOL    HW117693   6.222   3.776   3.788
 5598SOL    HW217694   6.174   3.856   3.654
 5599SOL     OW17695   0.536   2.674   1.345
 5599SOL    HW117696   0.573   2.759   1.380
 5599SOL    HW217697   0.555   2.600   1.410
 5600SOL     OW17698   2.379   0.276   1.741
 5600SOL    HW117699   2.326   0.353   1.778
 5600SOL    HW217700   2.317   0.206   1.707
 5601SOL     OW17701   2.771   1.161   6.584
 5601SOL    HW117702   2.845   1.158   6.517
 5601SOL    HW217703   2.768   1.252   6.627
 5602SOL     OW17704   6.988   1.079   1.347
 5602SOL    HW117705   6.964   1.176   1.347
 5602SOL    HW217706   0.024   1.059   1.425
 5603SOL     OW17707   5.715   2.507   0.012
 5603SOL    HW117708   5.768   2.465   0.087
 5603SOL    HW217709   5.777   2.556   6.975
 5604SOL     OW17710   6.280   1.834   4.497
 5604SOL    HW117711   6.311   1.808   4.588
 5604SOL    HW217712   6.348   1.892   4.453
 5605SOL     OW17713   6.621   1.348   5.117
 5605SOL    HW117714   6.707   1.310   5.083
 5605SOL    HW217715   6.544   1.301   5.073
 5606SOL     OW17716   4.866   6.747   0.569
 5606SOL    HW117717   4.950   6.746   0.623
 5606SOL    HW217718   4.802   6.813   0.608
 5607SOL     OW17719   6.088   1.063   2.971
 5607SOL    HW117720   6.063   1.045   2.876
 5607SOL    HW217721   6.038   1.143   3.004
 5608SOL     OW17722   6.177   0.615   3.821
 5608SOL    HW117723   6.254   0.650   3.873
 5608SOL    HW217724   6.194   0.626   3.723
 5609SOL     OW17725   3.942   6.074   1.374
 5609SOL    HW117726   3.930   6.008   1.448
 5609SOL    HW217727   4.031   6.059   1.330
 5610SOL     OW17728   4.492   5.418   1.253
 5610SOL    HW117729   4.403   5.464   1.258
 5610SOL    HW217730   4.499   5.352   1.329
 5611SOL     OW17731   0.805   5.411   3.014
 5611SOL    HW117732   0.783   5.350   2.938
 5611SOL    HW217733   0.862   5.486   2.980
 5612SOL     OW17734   4.522   2.735   6.015
 5612SOL    HW117735   4.442   2.785   5.981
 5612SOL    HW217736   4.582   2.713   5.939
 5613SOL     OW17737   5.997   5.725   4.971
 5613SOL    HW117738   5.962   5.633   4.955
 5613SOL    HW217739   6.097   5.723   4.976
 5614SOL     OW17740   4.647   2.637   4.819
 5614SOL    HW117741   4.739   2.617   4.851
 5614SOL    HW217742   4.604   2.552   4.787
 5615SOL     OW17743   6.721   1.787   4.139
 5615SOL    HW117744   6.774   1.769   4.056
 5615SOL    HW217745   6.642   1.725   4.141
 5616SOL     OW17746   2.750   2.405   5.192
 5616SOL    HW117747   2.750   2.307   5.175
 5616SOL    HW217748   2.822   2.427   5.258
 5617SOL     OW17749   2.507   5.398   5.871
 5617SOL    HW117750   2.565   5.336   5.923
 5617SOL    HW217751   2.489   5.359   5.780
 5618SOL     OW17752   6.820   4.370   4.448
 5618SOL    HW117753   6.786   4.279   4.424
 5618SOL    HW217754   6.786   4.437   4.381
 5619SOL     OW17755   3.860   4.039   4.725
 5619SOL    HW117756   3.788   4.103   4.699
 5619SOL    HW217757   3.901   4.000   4.642
 5620SOL     OW17758   4.107   3.473   1.229
 5620SOL    HW117759   4.121   3.428   1.140
 5620SOL    HW217760   4.080   3.405   1.297
 5621SOL     OW17761   2.548   2.482   0.216
 5621SOL    HW117762   2.457   2.522   0.208
 5621SOL    HW217763   2.614   2.553   0.240
 5622SOL     OW17764   4.725   0.704   5.811
 5622SOL    HW117765   4.643   0.688   5.757
 5622SOL    HW217766   4.753   0.618   5.854
 5623SOL     OW17767   4.412   6.053   5.489
 5623SOL    HW117768   4.365   6.038   5.576
 5623SOL    HW217769   4.504   6.015   5.494
 5624SOL     OW17770   0.576   4.123   3.405
 5624SOL    HW117771   0.642   4.195   3.425
 5624SOL    HW217772   0.574   4.057   3.480
 5625SOL     OW17773   6.681   6.839   5.391
 5625SOL    HW117774   6.692   6.867   5.487
 5625SOL    HW217775   6.595   6.875   5.355
 5626SOL     OW17776   1.992   5.944   4.297
 5626SOL    HW117777   2.073   5.887   4.315
 5626SOL    HW217778   2.007   5.996   4.213
 5627SOL     OW17779   0.844   4.920   6.794
 5627SOL    HW117780   0.940   4.928   6.767
 5627SOL    HW217781   0.835   4.854   6.868
 5628SOL     OW17782   1.866   2.266   2.580
 5628SOL    HW117783   1.842   2.177   2.620
 5628SOL    HW217784   1.831   2.271   2.487
 5629SOL     OW17785   3.898   3.575   1.865
 5629SOL    HW117786   3.878   3.539   1.956
 5629SOL    HW217787   3.832   3.646   1.842
 5630SOL     OW17788   1.726   3.807   6.088
 5630SOL    HW117789   1.741   3.757   6.003
 5630SOL    HW217790   1.771   3.758   6.163
 5631SOL     OW17791   4.458   1.897   2.212
 5631SOL    HW117792   4.537   1.906   2.272
 5631SOL    HW217793   4.452   1.977   2.152
 5632SOL     OW17794   3.017   2.562   6.119
 5632SOL    HW117795   3.096   2.600   6.071
 5632SOL    HW217796   3.044   2.539   6.213
 5633SOL     OW17797   5.763   5.101   4.335
 5633SOL    HW117798   5.682   5.055   4.371
 5633SOL    HW217799   5.835   5.100   4.405
 5634SOL     OW17800   1.857   5.042   4.201
 5634SOL    HW117801   1.954   5.060   4.185
 5634SOL    HW217802   1.836   5.061   4.297
 5635SOL     OW17803   1.809   5.342   6.404
 5635SOL    HW117804   1.814   5.303   6.496
 5635SOL    HW217805   1.713   5.347   6.375
 5636SOL     OW17806   4.692   0.185   5.005
 5636SOL    HW117807   4.791   0.202   5.011
 5636SOL    HW217808   4.670   0.145   4.916
 5637SOL     OW17809   5.129   6.834   3.000
 5637SOL    HW117810   5.220   6.802   3.027
 5637SOL    HW217811   5.061   6.763   3.019
 5638SOL     OW17812   6.455   3.902   0.925
 5638SOL    HW117813   6.382   3.855   0.876
 5638SOL    HW217814   6.516   3.835   0.967
 5639SOL     OW17815   1.595   0.460   2.514
 5639SOL    HW117816   1.667   0.405   2.473
 5639SOL    HW217817   1.551   0.409   2.588
 5640SOL     OW17818   3.261   0.209   3.484
 5640SOL    HW117819   3.225   0.115   3.486
 5640SOL    HW217820   3.327   0.221   3.557
 5641SOL     OW17821   0.706   5.046   5.008
 5641SOL    HW117822   0.709   5.123   5.071
 5641SOL    HW217823   0.738   4.963   5.055
 5642SOL     OW17824   1.449   6.603   4.451
 5642SOL    HW117825   1.525   6.554   4.407
 5642SOL    HW217826   1.414   6.549   4.528
 5643SOL     OW17827   4.472   1.645   4.347
 5643SOL    HW117828   4.506   1.739   4.357
 5643SOL    HW217829   4.387   1.646   4.293
 5644SOL     OW17830   3.042   6.945   5.228
 5644SOL    HW117831   3.141   6.931   5.238
 5644SOL    HW217832   2.993   6.863   5.257
 5645SOL     OW17833   6.436   4.829   3.486
 5645SOL    HW117834   6.507   4.762   3.507
 5645SOL    HW217835   6.408   4.819   3.390
 5646SOL     OW17836   1.304   5.670   3.537
 5646SOL    HW117837   1.245   5.622   3.602
 5646SOL    HW217838   1.371   5.725   3.588
 5647SOL     OW17839   4.673   5.963   0.728
 5647SOL    HW117840   4.621   5.915   0.799
 5647SOL    HW217841   4.634   5.944   0.639
 5648SOL     OW17842   1.687   6.990   3.164
 5648SOL    HW117843   1.644   7.014   3.077
 5648SOL    HW217844   1.777   0.011   3.170
 5649SOL     OW17845   0.800   0.974   4.452
 5649SOL    HW117846   0.784   0.955   4.549
 5649SOL    HW217847   0.712   0.981   4.404
 5650SOL     OW17848   0.478   5.693   0.529
 5650SOL    HW117849   0.420   5.725   0.454
 5650SOL    HW217850   0.469   5.593   0.538
 5651SOL     OW17851   1.602   1.429   1.513
 5651SOL    HW117852   1.691   1.415   1.556
 5651SOL    HW217853   1.547   1.346   1.525
 5652SOL     OW17854   6.117   0.167   2.075
 5652SOL    HW117855   6.037   0.121   2.115
 5652SOL    HW217856   6.133   0.131   1.983
 5653SOL     OW17857   6.390   6.329   6.864
 5653SOL    HW117858   6.490   6.326   6.853
 5653SOL    HW217859   6.349   6.356   6.777
 5654SOL     OW17860   6.949   6.876   5.305
 5654SOL    HW117861   7.015   6.806   5.276
 5654SOL    HW217862   6.857   6.836   5.307
 5655SOL     OW17863   0.989   3.879   4.308
 5655SOL    HW117864   0.955   3.791   4.341
 5655SOL    HW217865   1.017   3.935   4.386
 5656SOL     OW17866   0.121   3.760   6.499
 5656SOL    HW117867   0.157   3.819   6.427
 5656SOL    HW217868   0.191   3.744   6.568
 5657SOL     OW17869   5.814   2.333   0.198
 5657SOL    HW117870   5.878   2.392   0.247
 5657SOL    HW217871   5.776   2.265   0.260
 5658SOL     OW17872   3.368   3.598   6.414
 5658SOL    HW117873   3.291   3.632   6.467
 5658SOL    HW217874   3.408   3.673   6.361
 5659SOL     OW17875   3.921   3.265   5.368
 5659SOL    HW117876   3.837   3.318   5.354
 5659SOL    HW217877   3.997   3.327   5.387
 5660SOL     OW17878   5.185   6.624   0.294
 5660SOL    HW117879   5.192   6.672   0.206
 5660SOL    HW217880   5.180   6.691   0.368
 5661SOL     OW17881   1.416   6.097   4.904
 5661SOL    HW117882   1.448   6.123   4.814
 5661SOL    HW217883   1.349   6.164   4.937
 5662SOL     OW17884   2.890   5.971   3.545
 5662SOL    HW117885   2.989   5.965   3.534
 5662SOL    HW217886   2.862   5.921   3.627
 5663SOL     OW17887   1.627   3.154   6.612
 5663SOL    HW117888   1.600   3.155   6.709
 5663SOL    HW217889   1.692   3.080   6.596
 5664SOL     OW17890   6.890   3.886   4.614
 5664SOL    HW117891   6.812   3.939   4.583
 5664SOL    HW217892   6.891   3.798   4.567
 5665SOL     OW17893   1.830   0.911   0.647
 5665SOL    HW117894   1.883   0.884   0.566
 5665SOL    HW217895   1.850   1.006   0.669
 5666SOL     OW17896   5.836   0.144   2.871
 5666SOL    HW117897   5.866   0.064   2.922
 5666SOL    HW217898   5.843   0.126   2.773
 5667SOL     OW17899   1.158   5.135   4.591
 5667SOL    HW117900   1.113   5.047   4.605
 5667SOL    HW217901   1.256   5.121   4.577
 5668SOL     OW17902   5.195   2.660   3.821
 5668SOL    HW117903   5.192   2.727   3.747
 5668SOL    HW217904   5.128   2.684   3.891
 5669SOL     OW17905   0.338   3.424   0.327
 5669SOL    HW117906   0.359   3.499   0.264
 5669SOL    HW217907   0.386   3.342   0.297
 5670SOL     OW17908   0.799   3.485   3.815
 5670SOL    HW117909   0.788   3.558   3.882
 5670SOL    HW217910   0.731   3.414   3.832
 5671SOL     OW17911   6.068   6.237   6.787
 5671SOL    HW117912   6.075   6.260   6.690
 5671SOL    HW217913   6.089   6.317   6.843
 5672SOL     OW17914   4.495   3.931   0.109
 5672SOL    HW117915   4.419   3.946   0.172
 5672SOL    HW217916   4.478   3.848   0.056
 5673SOL     OW17917   1.549   0.320   1.708
 5673SOL    HW117918   1.533   0.281   1.798
 5673SOL    HW217919   1.619   0.392   1.715
 5674SOL     OW17920   0.105   4.888   5.009
 5674SOL    HW117921   0.099   4.986   4.992
 5674SOL    HW217922   0.038   4.863   5.079
 5675SOL     OW17923   3.987   2.464   6.533
 5675SOL    HW117924   4.082   2.495   6.531
 5675SOL    HW217925   3.930   2.527   6.481
 5676SOL     OW17926   2.509   2.535   2.525
 5676SOL    HW117927   2.584   2.490   2.574
 5676SOL    HW217928   2.443   2.467   2.495
 5677SOL     OW17929   0.614   1.728   0.308
 5677SOL    HW117930   0.531   1.684   0.275
 5677SOL    HW217931   0.625   1.711   0.406
 5678SOL     OW17932   4.115   6.343   2.838
 5678SOL    HW117933   4.189   6.380   2.781
 5678SOL    HW217934   4.135   6.360   2.934
 5679SOL     OW17935   6.521   0.899   4.088
 5679SOL    HW117936   6.557   0.969   4.027
 5679SOL    HW217937   6.587   0.825   4.097
 5680SOL     OW17938   1.760   5.016   6.211
 5680SOL    HW117939   1.764   4.919   6.184
 5680SOL    HW217940   1.853   5.052   6.218
 5681SOL     OW17941   0.367   3.995   0.914
 5681SOL    HW117942   0.353   3.901   0.884
 5681SOL    HW217943   0.445   4.034   0.866
 5682SOL     OW17944   2.017   5.074   5.014
 5682SOL    HW117945   1.963   5.113   5.089
 5682SOL    HW217946   1.965   5.002   4.970
 5683SOL     OW17947   4.623   1.282   6.146
 5683SOL    HW117948   4.578   1.325   6.224
 5683SOL    HW217949   4.576   1.309   6.062
 5684SOL     OW17950   2.660   3.876   5.766
 5684SOL    HW117951   2.625   3.786   5.743
 5684SOL    HW217952   2.657   3.935   5.686
 5685SOL     OW17953   2.076   1.948   3.145
 5685SOL    HW117954   2.085   1.930   3.243
 5685SOL    HW217955   2.004   1.890   3.106
 5686SOL     OW17956   2.530   1.806   6.628
 5686SOL    HW117957   2.503   1.724   6.679
 5686SOL    HW217958   2.543   1.882   6.692
 5687SOL     OW17959   1.117   5.152   0.300
 5687SOL    HW117960   1.116   5.248   0.274
 5687SOL    HW217961   1.032   5.130   0.348
 5688SOL     OW17962   0.689   2.504   1.516
 5688SOL    HW117963   0.784   2.477   1.533
 5688SOL    HW217964   0.647   2.533   1.602
 5689SOL     OW17965   3.270   1.498   1.043
 5689SOL    HW117966   3.217   1.581   1.025
 5689SOL    HW217967   3.365   1.512   1.015
 5690SOL     OW17968   2.536   5.631   6.951
 5690SOL    HW117969   2.494   5.697   6.890
 5690SOL    HW217970   2.619   5.670   6.991
 5691SOL     OW17971   3.449   0.054   2.569
 5691SOL    HW117972   3.418   6.986   2.542
 5691SOL    HW217973   3.548   0.055   2.576
 5692SOL     OW17974   5.741   3.854   0.711
 5692SOL    HW117975   5.720   3.807   0.625
 5692SOL    HW217976   5.813   3.922   0.695
 5693SOL     OW17977   5.034   1.711   3.125
 5693SOL    HW117978   4.951   1.735   3.073
 5693SOL    HW217979   5.032   1.614   3.146
 5694SOL     OW17980   1.018   1.315   3.119
 5694SOL    HW117981   1.076   1.287   3.195
 5694SOL    HW217982   1.045   1.267   3.036
 5695SOL     OW17983   1.671   1.898   3.733
 5695SOL    HW117984   1.710   1.809   3.707
 5695SOL    HW217985   1.582   1.909   3.688
 5696SOL     OW17986   0.908   1.094   3.382
 5696SOL    HW117987   0.987   1.052   3.337
 5696SOL    HW217988   0.833   1.102   3.316
 5697SOL     OW17989   5.909   2.581   1.173
 5697SOL    HW117990   5.937   2.660   1.228
 5697SOL    HW217991   5.834   2.608   1.112
 5698SOL     OW17992   1.399   5.219   4.104
 5698SOL    HW117993   1.392   5.121   4.123
 5698SOL    HW217994   1.494   5.242   4.084
 5699SOL     OW17995   0.657   2.476   3.188
 5699SOL    HW117996   0.730   2.432   3.136
 5699SOL    HW217997   0.693   2.557   3.234
 5700SOL     OW17998   6.524   6.978   3.100
 5700SOL    HW117999   6.524   6.961   3.198
 5700SOL    HW218000   6.599   0.016   3.077
 5701SOL     OW18001   1.334   0.380   1.539
 5701SOL    HW118002   1.393   0.375   1.620
 5701SOL    HW218003   1.275   0.300   1.536
 5702SOL     OW18004   2.577   5.570   4.051
 5702SOL    HW118005   2.489   5.607   4.023
 5702SOL    HW218006   2.564   5.501   4.122
 5703SOL     OW18007   6.042   4.671   1.940
 5703SOL    HW118008   6.101   4.605   1.893
 5703SOL    HW218009   5.946   4.651   1.919
 5704SOL     OW18010   5.034   4.296   2.683
 5704SOL    HW118011   4.969   4.221   2.684
 5704SOL    HW218012   5.013   4.360   2.757
 5705SOL     OW18013   5.365   7.019   0.063
 5705SOL    HW118014   5.296   6.955   0.099
 5705SOL    HW218015   5.338   0.089   0.086
 5706SOL     OW18016   0.187   3.911   1.449
 5706SOL    HW118017   0.229   3.826   1.480
 5706SOL    HW218018   0.192   3.917   1.349
 5707SOL     OW18019   0.444   6.178   6.945
 5707SOL    HW118020   0.400   6.189   6.856
 5707SOL    HW218021   0.405   6.244   7.009
 5708SOL     OW18022   5.387   5.300   2.162
 5708SOL    HW118023   5.375   5.399   2.148
 5708SOL    HW218024   5.398   5.282   2.260
 5709SOL     OW18025   1.438   0.862   2.300
 5709SOL    HW118026   1.380   0.937   2.332
 5709SOL    HW218027   1.504   0.898   2.233
 5710SOL     OW18028   2.862   2.848   1.222
 5710SOL    HW118029   2.775   2.851   1.172
 5710SOL    HW218030   2.906   2.938   1.216
 5711SOL     OW18031   4.840   0.716   3.048
 5711SOL    HW118032   4.833   0.660   3.130
 5711SOL    HW218033   4.917   0.684   2.993
 5712SOL     OW18034   6.291   0.475   6.625
 5712SOL    HW118035   6.390   0.460   6.618
 5712SOL    HW218036   6.265   0.554   6.570
 5713SOL     OW18037   3.621   3.061   1.922
 5713SOL    HW118038   3.577   3.143   1.886
 5713SOL    HW218039   3.661   3.081   2.012
 5714SOL     OW18040   0.251   5.149   0.247
 5714SOL    HW118041   0.321   5.175   0.181
 5714SOL    HW218042   0.172   5.112   0.199
 5715SOL     OW18043   1.078   0.709   3.017
 5715SOL    HW118044   1.163   0.743   3.058
 5715SOL    HW218045   1.047   0.773   2.947
 5716SOL     OW18046   1.535   4.914   5.956
 5716SOL    HW118047   1.508   4.879   6.046
 5716SOL    HW218048   1.634   4.900   5.944
 5717SOL     OW18049   1.748   4.788   0.956
 5717SOL    HW118050   1.830   4.799   0.900
 5717SOL    HW218051   1.761   4.713   1.021
 5718SOL     OW18052   0.421   3.456   6.347
 5718SOL    HW118053   0.375   3.473   6.260
 5718SOL    HW218054   0.359   3.406   6.408
 5719SOL     OW18055   2.536   2.687   6.544
 5719SOL    HW118056   2.626   2.694   6.500
 5719SOL    HW218057   2.538   2.734   6.632
 5720SOL     OW18058   1.947   6.240   4.556
 5720SOL    HW118059   1.983   6.328   4.585
 5720SOL    HW218060   2.018   6.170   4.566
 5721SOL     OW18061   6.837   3.286   0.698
 5721SOL    HW118062   6.853   3.198   0.742
 5721SOL    HW218063   6.900   3.354   0.737
 5722SOL     OW18064   0.327   1.993   5.046
 5722SOL    HW118065   0.398   1.940   5.092
 5722SOL    HW218066   0.285   1.937   4.974
 5723SOL     OW18067   5.020   3.355   0.147
 5723SOL    HW118068   5.056   3.261   0.144
 5723SOL    HW218069   5.069   3.411   0.081
 5724SOL     OW18070   5.375   3.035   4.697
 5724SOL    HW118071   5.418   3.006   4.612
 5724SOL    HW218072   5.292   3.087   4.676
 5725SOL     OW18073   5.413   5.440   4.266
 5725SOL    HW118074   5.321   5.469   4.240
 5725SOL    HW218075   5.459   5.514   4.316
 5726SOL     OW18076   0.058   5.371   4.153
 5726SOL    HW118077   7.022   5.415   4.086
 5726SOL    HW218078   0.011   5.291   4.192
 5727SOL     OW18079   0.437   1.972   4.051
 5727SOL    HW118080   0.407   2.067   4.060
 5727SOL    HW218081   0.382   1.926   3.981
 5728SOL     OW18082   3.919   0.417   6.193
 5728SOL    HW118083   3.994   0.469   6.233
 5728SOL    HW218084   3.911   0.329   6.238
 5729SOL     OW18085   1.419   0.632   0.913
 5729SOL    HW118086   1.403   0.643   1.011
 5729SOL    HW218087   1.516   0.620   0.896
 5730SOL     OW18088   5.027   4.944   6.564
 5730SOL    HW118089   5.121   4.960   6.532
 5730SOL    HW218090   4.990   4.864   6.518
 5731SOL     OW18091   0.259   6.849   3.824
 5731SOL    HW118092   0.214   6.931   3.860
 5731SOL    HW218093   0.322   6.875   3.751
 5732SOL     OW18094   6.674   5.274   4.500
 5732SOL    HW118095   6.735   5.318   4.567
 5732SOL    HW218096   6.587   5.323   4.497
 5733SOL     OW18097   4.375   6.392   5.722
 5733SOL    HW118098   4.435   6.470   5.743
 5733SOL    HW218099   4.312   6.378   5.798
 5734SOL     OW18100   1.033   6.996   5.431
 5734SOL    HW118101   0.994   0.012   5.347
 5734SOL    HW218102   1.081   0.044   5.482
 5735SOL     OW18103   4.201   1.813   1.715
 5735SOL    HW118104   4.276   1.748   1.706
 5735SOL    HW218105   4.129   1.791   1.650
 5736SOL     OW18106   6.297   3.598   0.120
 5736SOL    HW118107   6.301   3.694   0.146
 5736SOL    HW218108   6.284   3.542   0.203
 5737SOL     OW18109   5.813   6.955   1.400
 5737SOL    HW118110   5.786   6.873   1.350
 5737SOL    HW218111   5.835   6.931   1.494
 5738SOL     OW18112   2.406   2.464   5.677
 5738SOL    HW118113   2.344   2.428   5.747
 5738SOL    HW218114   2.413   2.398   5.602
 5739SOL     OW18115   1.514   0.169   5.740
 5739SOL    HW118116   1.613   0.182   5.740
 5739SOL    HW218117   1.488   0.111   5.817
 5740SOL     OW18118   4.516   3.729   0.861
 5740SOL    HW118119   4.561   3.676   0.933
 5740SOL    HW218120   4.538   3.691   0.772
 5741SOL     OW18121   1.113   4.600   4.359
 5741SOL    HW118122   1.193   4.605   4.419
 5741SOL    HW218123   1.118   4.517   4.304
 5742SOL     OW18124   5.382   6.834   2.105
 5742SOL    HW118125   5.396   6.898   2.180
 5742SOL    HW218126   5.369   6.742   2.141
 5743SOL     OW18127   2.673   5.500   5.201
 5743SOL    HW118128   2.583   5.537   5.181
 5743SOL    HW218129   2.672   5.456   5.291
 5744SOL     OW18130   4.996   0.532   2.012
 5744SOL    HW118131   4.921   0.472   2.037
 5744SOL    HW218132   4.966   0.627   2.019
 5745SOL     OW18133   2.841   0.482   4.231
 5745SOL    HW118134   2.785   0.477   4.314
 5745SOL    HW218135   2.787   0.454   4.152
 5746SOL     OW18136   6.088   6.853   1.535
 5746SOL    HW118137   5.997   6.872   1.573
 5746SOL    HW218138   6.098   6.900   1.448
 5747SOL     OW18139   6.575   4.693   2.685
 5747SOL    HW118140   6.564   4.790   2.707
 5747SOL    HW218141   6.485   4.654   2.667
 5748SOL     OW18142   1.852   5.919   0.874
 5748SOL    HW118143   1.782   5.985   0.901
 5748SOL    HW218144   1.891   5.876   0.955
 5749SOL     OW18145   1.647   0.592   4.883
 5749SOL    HW118146   1.557   0.598   4.927
 5749SOL    HW218147   1.668   0.497   4.860
 5750SOL     OW18148   5.264   6.069   4.475
 5750SOL    HW118149   5.237   6.144   4.535
 5750SOL    HW218150   5.286   5.988   4.530
 5751SOL     OW18151   2.231   2.661   4.561
 5751SOL    HW118152   2.252   2.574   4.516
 5751SOL    HW218153   2.251   2.655   4.658
 5752SOL     OW18154   6.327   0.866   6.788
 5752SOL    HW118155   6.320   0.957   6.747
 5752SOL    HW218156   6.419   0.852   6.824
 5753SOL     OW18157   3.467   4.148   5.797
 5753SOL    HW118158   3.431   4.206   5.723
 5753SOL    HW218159   3.418   4.061   5.797
 5754SOL     OW18160   5.604   4.512   1.746
 5754SOL    HW118161   5.533   4.466   1.800
 5754SOL    HW218162   5.646   4.584   1.800
 5755SOL     OW18163   2.163   3.803   6.159
 5755SOL    HW118164   2.135   3.863   6.083
 5755SOL    HW218165   2.123   3.713   6.146
 5756SOL     OW18166   6.146   5.958   3.603
 5756SOL    HW118167   6.225   6.015   3.579
 5756SOL    HW218168   6.063   5.999   3.567
 5757SOL     OW18169   6.787   6.843   2.716
 5757SOL    HW118170   6.825   6.934   2.733
 5757SOL    HW218171   6.816   6.811   2.626
 5758SOL     OW18172   2.882   0.843   4.522
 5758SOL    HW118173   2.844   0.892   4.444
 5758SOL    HW218174   2.830   0.865   4.604
 5759SOL     OW18175   5.119   1.910   6.809
 5759SOL    HW118176   5.169   1.960   6.879
 5759SOL    HW218177   5.083   1.974   6.741
 5760SOL     OW18178   0.935   4.670   1.323
 5760SOL    HW118179   1.024   4.660   1.278
 5760SOL    HW218180   0.888   4.751   1.286
 5761SOL     OW18181   5.715   6.946   6.214
 5761SOL    HW118182   5.617   6.962   6.219
 5761SOL    HW218183   5.738   6.905   6.126
 5762SOL     OW18184   4.543   6.636   0.528
 5762SOL    HW118185   4.597   6.596   0.602
 5762SOL    HW218186   4.564   6.734   0.520
 5763SOL     OW18187   0.025   0.493   0.209
 5763SOL    HW118188   0.025   0.447   0.121
 5763SOL    HW218189   7.019   0.430   0.281
 5764SOL     OW18190   4.346   4.742   6.490
 5764SOL    HW118191   4.369   4.646   6.472
 5764SOL    HW218192   4.250   4.759   6.465
 5765SOL     OW18193   6.585   4.342   6.601
 5765SOL    HW118194   6.504   4.375   6.650
 5765SOL    HW218195   6.568   4.249   6.569
 5766SOL     OW18196   2.892   2.384   0.575
 5766SOL    HW118197   2.834   2.434   0.511
 5766SOL    HW218198   2.844   2.301   0.604
 5767SOL     OW18199   2.266   6.398   0.492
 5767SOL    HW118200   2.211   6.467   0.540
 5767SOL    HW218201   2.205   6.339   0.439
 5768SOL     OW18202   0.185   6.932   3.036
 5768SOL    HW118203   0.210   6.935   2.939
 5768SOL    HW218204   0.262   6.897   3.090
 5769SOL     OW18205   2.233   6.417   4.250
 5769SOL    HW118206   2.241   6.472   4.333
 5769SOL    HW218207   2.213   6.476   4.172
 5770SOL     OW18208   6.379   0.328   6.865
 5770SOL    HW118209   6.333   0.358   6.948
 5770SOL    HW218210   6.360   0.393   6.791
 5771SOL     OW18211   0.755   5.948   2.682
 5771SOL    HW118212   0.789   5.966   2.590
 5771SOL    HW218213   0.821   5.893   2.733
 5772SOL     OW18214   6.680   2.632   0.284
 5772SOL    HW118215   6.624   2.713   0.270
 5772SOL    HW218216   6.751   2.627   0.214
 5773SOL     OW18217   5.164   0.802   4.078
 5773SOL    HW118218   5.250   0.828   4.123
 5773SOL    HW218219   5.163   0.838   3.985
 5774SOL     OW18220   2.526   5.185   3.603
 5774SOL    HW118221   2.519   5.132   3.687
 5774SOL    HW218222   2.482   5.274   3.615
 5775SOL     OW18223   1.721   0.137   1.916
 5775SOL    HW118224   1.657   0.060   1.911
 5775SOL    HW218225   1.697   0.195   1.994
 5776SOL     OW18226   6.786   1.213   6.223
 5776SOL    HW118227   6.859   1.162   6.270
 5776SOL    HW218228   6.704   1.156   6.218
 5777SOL     OW18229   6.306   0.606   4.194
 5777SOL    HW118230   6.253   0.645   4.270
 5777SOL    HW218231   6.277   0.512   4.177
 5778SOL     OW18232   1.588   0.291   1.266
 5778SOL    HW118233   1.599   0.372   1.324
 5778SOL    HW218234   1.493   0.285   1.235
 5779SOL     OW18235   4.257   1.097   0.677
 5779SOL    HW118236   4.250   0.998   0.666
 5779SOL    HW218237   4.344   1.120   0.721
 5780SOL     OW18238   5.634   5.623   3.220
 5780SOL    HW118239   5.731   5.602   3.234
 5780SOL    HW218240   5.621   5.722   3.224
 5781SOL     OW18241   1.353   3.864   4.488
 5781SOL    HW118242   1.351   3.872   4.388
 5781SOL    HW218243   1.424   3.800   4.515
 5782SOL     OW18244   1.689   1.319   0.906
 5782SOL    HW118245   1.637   1.251   0.854
 5782SOL    HW218246   1.743   1.273   0.977
 5783SOL     OW18247   1.874   1.611   1.032
 5783SOL    HW118248   1.784   1.601   0.990
 5783SOL    HW218249   1.868   1.587   1.129
 5784SOL     OW18250   0.006   6.648   6.766
 5784SOL    HW118251   0.057   6.655   6.680
 5784SOL    HW218252   0.070   6.634   6.841
 5785SOL     OW18253   2.139   2.190   1.512
 5785SOL    HW118254   2.169   2.272   1.561
 5785SOL    HW218255   2.147   2.111   1.572
 5786SOL     OW18256   1.424   4.466   0.757
 5786SOL    HW118257   1.445   4.445   0.662
 5786SOL    HW218258   1.478   4.544   0.787
 5787SOL     OW18259   4.883   2.250   4.803
 5787SOL    HW118260   4.889   2.295   4.713
 5787SOL    HW218261   4.789   2.256   4.837
 5788SOL     OW18262   3.130   0.451   1.665
 5788SOL    HW118263   3.116   0.511   1.586
 5788SOL    HW218264   3.042   0.417   1.697
 5789SOL     OW18265   2.820   3.152   6.323
 5789SOL    HW118266   2.919   3.146   6.331
 5789SOL    HW218267   2.786   3.226   6.381
 5790SOL     OW18268   6.785   5.506   5.068
 5790SOL    HW118269   6.812   5.567   5.143
 5790SOL    HW218270   6.820   5.414   5.086
 5791SOL     OW18271   2.590   2.066   2.426
 5791SOL    HW118272   2.633   1.998   2.485
 5791SOL    HW218273   2.653   2.142   2.411
 5792SOL     OW18274   5.157   3.697   2.863
 5792SOL    HW118275   5.211   3.778   2.839
 5792SOL    HW218276   5.193   3.617   2.814
 5793SOL     OW18277   5.669   0.639   5.306
 5793SOL    HW118278   5.748   0.665   5.249
 5793SOL    HW218279   5.635   0.719   5.354
 5794SOL     OW18280   3.617   0.022   6.769
 5794SOL    HW118281   3.684   0.033   6.695
 5794SOL    HW218282   3.655   0.059   6.854
 5795SOL     OW18283   0.175   7.011   0.663
 5795SOL    HW118284   0.188   0.045   0.582
 5795SOL    HW218285   0.141   6.922   0.635
 5796SOL     OW18286   4.501   0.797   6.574
 5796SOL    HW118287   4.514   0.738   6.654
 5796SOL    HW218288   4.590   0.815   6.532
 5797SOL     OW18289   5.281   1.168   0.805
 5797SOL    HW118290   5.287   1.081   0.755
 5797SOL    HW218291   5.245   1.238   0.743
 5798SOL     OW18292   0.326   3.601   4.216
 5798SOL    HW118293   0.352   3.566   4.306
 5798SOL    HW218294   0.244   3.657   4.225
 5799SOL     OW18295   0.063   0.421   3.779
 5799SOL    HW118296   0.128   0.397   3.706
 5799SOL    HW218297   0.031   0.338   3.824
 5800SOL     OW18298   0.685   0.348   1.638
 5800SOL    HW118299   0.717   0.382   1.726
 5800SOL    HW218300   0.602   0.396   1.611
 5801SOL     OW18301   2.398   2.588   3.502
 5801SOL    HW118302   2.461   2.575   3.579
 5801SOL    HW218303   2.340   2.507   3.492
 5802SOL     OW18304   6.258   3.313   2.588
 5802SOL    HW118305   6.230   3.218   2.607
 5802SOL    HW218306   6.240   3.334   2.492
 5803SOL     OW18307   1.521   4.779   3.896
 5803SOL    HW118308   1.458   4.726   3.952
 5803SOL    HW218309   1.615   4.757   3.921
 5804SOL     OW18310   6.651   5.911   3.680
 5804SOL    HW118311   6.679   6.008   3.680
 5804SOL    HW218312   6.551   5.905   3.683
 5805SOL     OW18313   1.660   2.924   0.558
 5805SOL    HW118314   1.714   3.002   0.590
 5805SOL    HW218315   1.721   2.854   0.521
 5806SOL     OW18316   6.984   4.760   5.215
 5806SOL    HW118317   6.955   4.804   5.300
 5806SOL    HW218318   6.934   4.674   5.202
 5807SOL     OW18319   1.259   5.598   1.165
 5807SOL    HW118320   1.186   5.665   1.175
 5807SOL    HW218321   1.305   5.611   1.077
 5808SOL     OW18322   6.933   6.982   4.980
 5808SOL    HW118323   6.843   7.001   4.941
 5808SOL    HW218324   6.944   0.011   5.065
 5809SOL     OW18325   6.450   2.562   5.327
 5809SOL    HW118326   6.531   2.610   5.294
 5809SOL    HW218327   6.451   2.558   5.427
 5810SOL     OW18328   3.976   1.462   5.355
 5810SOL    HW118329   3.962   1.421   5.445
 5810SOL    HW218330   3.922   1.546   5.348
 5811SOL     OW18331   2.708   1.975   5.525
 5811SOL    HW118332   2.627   1.950   5.577
 5811SOL    HW218333   2.767   1.894   5.514
 5812SOL     OW18334   5.084   3.927   5.742
 5812SOL    HW118335   5.151   3.973   5.684
 5812SOL    HW218336   5.103   3.829   5.744
 5813SOL     OW18337   2.980   6.740   0.855
 5813SOL    HW118338   3.042   6.663   0.839
 5813SOL    HW218339   2.898   6.708   0.902
 5814SOL     OW18340   6.956   2.742   1.631
 5814SOL    HW118341   7.002   2.734   1.719
 5814SOL    HW218342   7.017   2.712   1.558
 5815SOL     OW18343   5.120   1.642   4.140
 5815SOL    HW118344   5.036   1.687   4.111
 5815SOL    HW218345   5.188   1.712   4.164
 5816SOL     OW18346   6.143   4.741   1.059
 5816SOL    HW118347   6.059   4.788   1.031
 5816SOL    HW218348   6.163   4.764   1.155
 5817SOL     OW18349   6.130   5.632   5.727
 5817SOL    HW118350   6.100   5.548   5.682
 5817SOL    HW218351   6.128   5.619   5.826
 5818SOL     OW18352   6.920   5.806   4.960
 5818SOL    HW118353   6.903   5.902   4.941
 5818SOL    HW218354   7.017   5.786   4.944
 5819SOL     OW18355   3.255   5.387   6.557
 5819SOL    HW118356   3.325   5.417   6.622
 5819SOL    HW218357   3.199   5.316   6.599
 5820SOL     OW18358   4.045   4.809   2.791
 5820SOL    HW118359   4.106   4.792   2.713
 5820SOL    HW218360   4.100   4.833   2.871
 5821SOL     OW18361   6.617   0.995   1.591
 5821SOL    HW118362   6.588   0.975   1.498
 5821SOL    HW218363   6.709   0.959   1.606
 5822SOL     OW18364   1.686   2.816   1.956
 5822SOL    HW118365   1.594   2.814   1.997
 5822SOL    HW218366   1.682   2.867   1.870
 5823SOL     OW18367   2.576   6.668   4.652
 5823SOL    HW118368   2.619   6.749   4.691
 5823SOL    HW218369   2.476   6.681   4.650
 5824SOL     OW18370   0.690   6.731   3.546
 5824SOL    HW118371   0.634   6.648   3.551
 5824SOL    HW218372   0.659   6.796   3.615
 5825SOL     OW18373   0.038   5.805   5.292
 5825SOL    HW118374   0.002   5.720   5.330
 5825SOL    HW218375   6.998   5.880   5.311
 5826SOL     OW18376   0.731   6.439   6.060
 5826SOL    HW118377   0.768   6.508   5.997
 5826SOL    HW218378   0.635   6.421   6.038
 5827SOL     OW18379   1.174   3.643   4.869
 5827SOL    HW118380   1.243   3.620   4.937
 5827SOL    HW218381   1.185   3.738   4.841
 5828SOL     OW18382   4.787   0.978   3.056
 5828SOL    HW118383   4.801   0.880   3.062
 5828SOL    HW218384   4.841   1.015   2.980
 5829SOL     OW18385   1.410   0.609   5.025
 5829SOL    HW118386   1.336   0.648   4.971
 5829SOL    HW218387   1.375   0.581   5.115
 5830SOL     OW18388   4.409   7.021   5.343
 5830SOL    HW118389   4.382   0.072   5.403
 5830SOL    HW218390   4.491   0.023   5.293
 5831SOL     OW18391   1.676   1.565   6.023
 5831SOL    HW118392   1.625   1.650   6.011
 5831SOL    HW218393   1.650   1.522   6.109
 5832SOL     OW18394   3.330   4.192   0.663
 5832SOL    HW118395   3.418   4.171   0.704
 5832SOL    HW218396   3.297   4.112   0.613
 5833SOL     OW18397   3.598   3.013   5.423
 5833SOL    HW118398   3.543   2.933   5.447
 5833SOL    HW218399   3.693   2.985   5.406
 5834SOL     OW18400   6.593   4.088   6.487
 5834SOL    HW118401   6.561   4.030   6.413
 5834SOL    HW218402   6.646   4.034   6.552
 5835SOL     OW18403   6.219   1.832   2.716
 5835SOL    HW118404   6.295   1.780   2.678
 5835SOL    HW218405   6.238   1.930   2.710
 5836SOL     OW18406   2.730   6.697   2.045
 5836SOL    HW118407   2.748   6.795   2.051
 5836SOL    HW218408   2.784   6.657   1.971
 5837SOL     OW18409   3.921   3.051   6.690
 5837SOL    HW118410   3.902   3.113   6.613
 5837SOL    HW218411   3.963   3.103   6.764
 5838SOL     OW18412   3.264   1.451   1.532
 5838SOL    HW118413   3.351   1.413   1.502
 5838SOL    HW218414   3.216   1.385   1.589
 5839SOL     OW18415   0.439   2.559   0.522
 5839SOL    HW118416   0.450   2.463   0.546
 5839SOL    HW218417   0.431   2.568   0.423
 5840SOL     OW18418   0.419   3.768   0.452
 5840SOL    HW118419   0.372   3.699   0.506
 5840SOL    HW218420   0.402   3.859   0.490
 5841SOL     OW18421   5.161   0.541   1.579
 5841SOL    HW118422   5.218   0.563   1.657
 5841SOL    HW218423   5.104   0.462   1.601
 5842SOL     OW18424   4.523   2.194   1.774
 5842SOL    HW118425   4.442   2.166   1.723
 5842SOL    HW218426   4.513   2.290   1.801
 5843SOL     OW18427   1.572   3.526   1.285
 5843SOL    HW118428   1.593   3.430   1.269
 5843SOL    HW218429   1.572   3.575   1.198
 5844SOL     OW18430   1.242   6.262   5.037
 5844SOL    HW118431   1.221   6.353   5.072
 5844SOL    HW218432   1.238   6.196   5.112
 5845SOL     OW18433   1.040   0.071   2.247
 5845SOL    HW118434   0.972   0.028   2.188
 5845SOL    HW218435   1.042   0.169   2.230
 5846SOL     OW18436   5.581   3.626   5.361
 5846SOL    HW118437   5.593   3.604   5.458
 5846SOL    HW218438   5.572   3.725   5.350
 5847SOL     OW18439   2.717   2.418   1.726
 5847SOL    HW118440   2.657   2.493   1.752
 5847SOL    HW218441   2.773   2.391   1.804
 5848SOL     OW18442   1.905   5.546   3.472
 5848SOL    HW118443   1.949   5.482   3.409
 5848SOL    HW218444   1.849   5.610   3.420
 5849SOL     OW18445   1.921   6.798   4.958
 5849SOL    HW118446   1.874   6.876   5.000
 5849SOL    HW218447   1.995   6.767   5.018
 5850SOL     OW18448   6.979   3.410   1.727
 5850SOL    HW118449   0.008   3.472   1.785
 5850SOL    HW218450   6.906   3.368   1.781
 5851SOL     OW18451   5.122   3.640   3.899
 5851SOL    HW118452   5.198   3.702   3.882
 5851SOL    HW218453   5.048   3.689   3.944
 5852SOL     OW18454   4.917   6.187   2.378
 5852SOL    HW118455   4.828   6.145   2.364
 5852SOL    HW218456   4.907   6.286   2.388
 5853SOL     OW18457   4.467   5.669   6.032
 5853SOL    HW118458   4.434   5.727   6.106
 5853SOL    HW218459   4.526   5.597   6.069
 5854SOL     OW18460   3.907   4.638   5.642
 5854SOL    HW118461   3.994   4.600   5.674
 5854SOL    HW218462   3.831   4.592   5.688
 5855SOL     OW18463   1.339   2.028   4.692
 5855SOL    HW118464   1.335   1.944   4.746
 5855SOL    HW218465   1.434   2.049   4.669
 5856SOL     OW18466   1.201   6.394   2.967
 5856SOL    HW118467   1.175   6.485   3.000
 5856SOL    HW218468   1.257   6.348   3.036
 5857SOL     OW18469   6.709   3.767   5.451
 5857SOL    HW118470   6.760   3.818   5.382
 5857SOL    HW218471   6.617   3.806   5.460
 5858SOL     OW18472   2.374   2.670   3.043
 5858SOL    HW118473   2.406   2.620   2.963
 5858SOL    HW218474   2.421   2.636   3.124
 5859SOL     OW18475   6.161   6.287   1.648
 5859SOL    HW118476   6.126   6.347   1.577
 5859SOL    HW218477   6.084   6.250   1.701
 5860SOL     OW18478   0.658   4.971   2.751
 5860SOL    HW118479   0.626   4.908   2.680
 5860SOL    HW218480   0.704   4.919   2.823
 5861SOL     OW18481   4.640   0.782   4.777
 5861SOL    HW118482   4.734   0.749   4.761
 5861SOL    HW218483   4.616   0.847   4.705
 5862SOL     OW18484   6.221   5.378   1.728
 5862SOL    HW118485   6.274   5.298   1.701
 5862SOL    HW218486   6.273   5.431   1.795
 5863SOL     OW18487   2.937   1.873   4.935
 5863SOL    HW118488   2.954   1.971   4.921
 5863SOL    HW218489   2.838   1.857   4.939
 5864SOL     OW18490   3.890   3.459   2.143
 5864SOL    HW118491   3.936   3.481   2.229
 5864SOL    HW218492   3.916   3.367   2.115
 5865SOL     OW18493   5.374   0.800   5.269
 5865SOL    HW118494   5.452   0.840   5.219
 5865SOL    HW218495   5.290   0.820   5.219
 5866SOL     OW18496   3.106   2.712   1.321
 5866SOL    HW118497   3.077   2.797   1.278
 5866SOL    HW218498   3.034   2.644   1.314
 5867SOL     OW18499   1.783   2.932   1.679
 5867SOL    HW118500   1.804   3.020   1.636
 5867SOL    HW218501   1.868   2.882   1.695
 5868SOL     OW18502   1.385   1.580   5.854
 5868SOL    HW118503   1.480   1.562   5.879
 5868SOL    HW218504   1.382   1.651   5.784
 5869SOL     OW18505   1.694   4.399   2.968
 5869SOL    HW118506   1.756   4.465   3.011
 5869SOL    HW218507   1.653   4.341   3.038
 5870SOL     OW18508   4.617   5.848   5.339
 5870SOL    HW118509   4.530   5.803   5.320
 5870SOL    HW218510   4.675   5.843   5.257
 5871SOL     OW18511   3.971   3.201   2.061
 5871SOL    HW118512   4.012   3.156   1.981
 5871SOL    HW218513   3.882   3.160   2.080
 5872SOL     OW18514   4.052   6.701   1.197
 5872SOL    HW118515   4.122   6.634   1.172
 5872SOL    HW218516   4.035   6.763   1.120
 5873SOL     OW18517   3.146   6.731   2.135
 5873SOL    HW118518   3.182   6.808   2.084
 5873SOL    HW218519   3.107   6.763   2.221
 5874SOL     OW18520   2.088   4.391   4.365
 5874SOL    HW118521   2.006   4.337   4.386
 5874SOL    HW218522   2.163   4.329   4.340
 5875SOL     OW18523   3.925   2.018   0.619
 5875SOL    HW118524   3.938   2.086   0.547
 5875SOL    HW218525   3.968   1.932   0.592
 5876SOL     OW18526   4.155   3.459   1.923
 5876SOL    HW118527   4.071   3.451   1.977
 5876SOL    HW218528   4.228   3.405   1.965
 5877SOL     OW18529   6.323   6.312   0.930
 5877SOL    HW118530   6.383   6.367   0.988
 5877SOL    HW218531   6.298   6.228   0.978
 5878SOL     OW18532   0.405   6.464   4.291
 5878SOL    HW118533   0.483   6.403   4.279
 5878SOL    HW218534   0.338   6.447   4.218
 5879SOL     OW18535   1.606   3.876   6.824
 5879SOL    HW118536   1.551   3.957   6.847
 5879SOL    HW218537   1.563   3.795   6.863
 5880SOL     OW18538   3.737   4.091   0.048
 5880SOL    HW118539   3.795   4.012   0.070
 5880SOL    HW218540   3.715   4.140   0.132
 5881SOL     OW18541   0.132   5.566   2.899
 5881SOL    HW118542   0.044   5.600   2.930
 5881SOL    HW218543   0.125   5.538   2.803
 5882SOL     OW18544   0.073   6.471   1.062
 5882SOL    HW118545   0.065   6.372   1.073
 5882SOL    HW218546   0.020   6.501   0.983
 5883SOL     OW18547   0.498   1.921   6.831
 5883SOL    HW118548   0.561   1.862   6.782
 5883SOL    HW218549   0.420   1.944   6.772
 5884SOL     OW18550   2.869   1.429   3.876
 5884SOL    HW118551   2.799   1.360   3.898
 5884SOL    HW218552   2.843   1.478   3.793
 5885SOL     OW18553   0.089   0.592   2.747
 5885SOL    HW118554   0.141   0.644   2.679
 5885SOL    HW218555   7.021   0.574   2.713
 5886SOL     OW18556   0.581   2.112   4.821
 5886SOL    HW118557   0.498   2.139   4.772
 5886SOL    HW218558   0.580   2.014   4.838
 5887SOL     OW18559   3.177   1.059   3.406
 5887SOL    HW118560   3.231   1.063   3.321
 5887SOL    HW218561   3.235   1.085   3.483
 5888SOL     OW18562   3.179   0.700   1.774
 5888SOL    HW118563   3.205   0.604   1.766
 5888SOL    HW218564   3.103   0.709   1.838
 5889SOL     OW18565   0.995   6.435   1.047
 5889SOL    HW118566   1.019   6.354   0.994
 5889SOL    HW218567   1.069   6.503   1.039
 5890SOL     OW18568   1.399   0.271   4.781
 5890SOL    HW118569   1.328   0.341   4.785
 5890SOL    HW218570   1.367   0.188   4.826
 5891SOL     OW18571   2.655   2.990   6.193
 5891SOL    HW118572   2.732   3.014   6.251
 5891SOL    HW218573   2.684   2.923   6.125
 5892SOL     OW18574   0.483   5.653   1.179
 5892SOL    HW118575   0.446   5.627   1.268
 5892SOL    HW218576   0.580   5.628   1.174
 5893SOL     OW18577   1.644   4.070   4.406
 5893SOL    HW118578   1.614   4.164   4.392
 5893SOL    HW218579   1.664   4.055   4.503
 5894SOL     OW18580   6.935   5.688   4.588
 5894SOL    HW118581   6.903   5.628   4.514
 5894SOL    HW218582   0.012   5.684   4.593
 5895SOL     OW18583   5.263   3.287   4.304
 5895SOL    HW118584   5.322   3.363   4.331
 5895SOL    HW218585   5.313   3.200   4.314
 5896SOL     OW18586   4.327   1.231   0.325
 5896SOL    HW118587   4.424   1.214   0.306
 5896SOL    HW218588   4.277   1.236   0.239
 5897SOL     OW18589   3.999   0.466   0.971
 5897SOL    HW118590   4.092   0.438   0.948
 5897SOL    HW218591   3.935   0.393   0.949
 5898SOL     OW18592   2.574   6.251   3.016
 5898SOL    HW118593   2.543   6.156   3.013
 5898SOL    HW218594   2.595   6.282   2.923
 5899SOL     OW18595   5.156   6.584   5.665
 5899SOL    HW118596   5.250   6.604   5.691
 5899SOL    HW218597   5.123   6.505   5.715
 5900SOL     OW18598   4.880   5.135   3.611
 5900SOL    HW118599   4.959   5.176   3.566
 5900SOL    HW218600   4.910   5.063   3.674
 5901SOL     OW18601   2.863   0.057   0.186
 5901SOL    HW118602   2.777   0.009   0.200
 5901SOL    HW218603   2.939   7.016   0.195
 5902SOL     OW18604   6.993   2.659   6.558
 5902SOL    HW118605   6.937   2.633   6.479
 5902SOL    HW218606   0.039   2.589   6.573
 5903SOL     OW18607   4.046   3.503   0.860
 5903SOL    HW118608   4.032   3.410   0.894
 5903SOL    HW218609   4.094   3.498   0.772
 5904SOL     OW18610   0.990   3.372   1.381
 5904SOL    HW118611   0.936   3.302   1.429
 5904SOL    HW218612   0.932   3.452   1.364
 5905SOL     OW18613   6.143   6.383   3.208
 5905SOL    HW118614   6.167   6.446   3.135
 5905SOL    HW218615   6.204   6.304   3.205
 5906SOL     OW18616   4.489   2.098   3.692
 5906SOL    HW118617   4.489   2.178   3.632
 5906SOL    HW218618   4.583   2.078   3.721
 5907SOL     OW18619   1.679   5.153   1.477
 5907SOL    HW118620   1.605   5.094   1.508
 5907SOL    HW218621   1.642   5.224   1.416
 5908SOL     OW18622   0.496   2.420   6.522
 5908SOL    HW118623   0.563   2.418   6.596
 5908SOL    HW218624   0.475   2.515   6.499
 5909SOL     OW18625   6.696   5.126   1.036
 5909SOL    HW118626   6.706   5.038   0.991
 5909SOL    HW218627   6.730   5.199   0.976
 5910SOL     OW18628   0.730   3.212   3.666
 5910SOL    HW118629   0.813   3.265   3.653
 5910SOL    HW218630   0.697   3.225   3.760
 5911SOL     OW18631   6.124   6.629   6.666
 5911SOL    HW118632   6.100   6.699   6.600
 5911SOL    HW218633   6.042   6.599   6.714
 5912SOL     OW18634   6.948   0.380   5.593
 5912SOL    HW118635   6.934   0.477   5.612
 5912SOL    HW218636   6.871   0.345   5.538
 5913SOL     OW18637   5.009   2.627   6.439
 5913SOL    HW118638   5.018   2.562   6.515
 5913SOL    HW218639   5.083   2.612   6.374
 5914SOL     OW18640   1.298   5.230   6.828
 5914SOL    HW118641   1.292   5.174   6.910
 5914SOL    HW218642   1.221   5.208   6.767
 5915SOL     OW18643   4.772   5.855   1.759
 5915SOL    HW118644   4.680   5.893   1.766
 5915SOL    HW218645   4.817   5.893   1.678
 5916SOL     OW18646   6.198   6.249   3.471
 5916SOL    HW118647   6.147   6.317   3.418
 5916SOL    HW218648   6.272   6.212   3.415
 5917SOL     OW18649   3.313   4.172   4.458
 5917SOL    HW118650   3.370   4.204   4.533
 5917SOL    HW218651   3.226   4.139   4.495
 5918SOL     OW18652   1.921   4.591   5.027
 5918SOL    HW118653   1.978   4.591   4.945
 5918SOL    HW218654   1.927   4.503   5.073
 5919SOL     OW18655   3.166   3.024   3.048
 5919SOL    HW118656   3.237   3.018   2.978
 5919SOL    HW218657   3.083   2.978   3.016
 5920SOL     OW18658   4.959   0.782   6.389
 5920SOL    HW118659   4.964   0.857   6.323
 5920SOL    HW218660   5.000   0.811   6.475
 5921SOL     OW18661   4.205   5.324   6.612
 5921SOL    HW118662   4.213   5.232   6.572
 5921SOL    HW218663   4.273   5.384   6.570
 5922SOL     OW18664   5.604   3.877   4.276
 5922SOL    HW118665   5.635   3.836   4.362
 5922SOL    HW218666   5.607   3.976   4.283
 5923SOL     OW18667   6.927   1.881   1.774
 5923SOL    HW118668   6.914   1.786   1.805
 5923SOL    HW218669   6.901   1.888   1.678
 5924SOL     OW18670   6.152   0.115   2.673
 5924SOL    HW118671   6.134   0.077   2.763
 5924SOL    HW218672   6.220   0.188   2.681
 5925SOL     OW18673   3.307   6.723   1.704
 5925SOL    HW118674   3.253   6.808   1.703
 5925SOL    HW218675   3.256   6.651   1.657
 5926SOL     OW18676   3.462   4.914   2.482
 5926SOL    HW118677   3.437   4.915   2.385
 5926SOL    HW218678   3.559   4.892   2.491
 5927SOL     OW18679   0.842   5.129   2.125
 5927SOL    HW118680   0.858   5.228   2.127
 5927SOL    HW218681   0.874   5.093   2.037
 5928SOL     OW18682   3.339   6.672   0.650
 5928SOL    HW118683   3.280   6.705   0.724
 5928SOL    HW218684   3.345   6.742   0.579
 5929SOL     OW18685   6.190   0.554   6.033
 5929SOL    HW118686   6.233   0.465   6.047
 5929SOL    HW218687   6.091   0.541   6.022
 5930SOL     OW18688   6.832   3.719   3.486
 5930SOL    HW118689   6.910   3.672   3.444
 5930SOL    HW218690   6.806   3.671   3.570
 5931SOL     OW18691   6.501   6.713   2.998
 5931SOL    HW118692   6.499   6.807   3.032
 5931SOL    HW218693   6.521   6.714   2.900
 5932SOL     OW18694   3.486   6.839   0.436
 5932SOL    HW118695   3.564   6.882   0.481
 5932SOL    HW218696   3.436   6.907   0.383
 5933SOL     OW18697   6.417   5.072   4.102
 5933SOL    HW118698   6.335   5.059   4.158
 5933SOL    HW218699   6.417   5.164   4.063
 5934SOL     OW18700   3.636   2.825   5.149
 5934SOL    HW118701   3.677   2.768   5.220
 5934SOL    HW218702   3.708   2.864   5.092
 5935SOL     OW18703   6.992   5.091   6.420
 5935SOL    HW118704   7.000   5.035   6.503
 5935SOL    HW218705   0.060   5.106   6.381
 5936SOL     OW18706   3.371   2.947   1.624
 5936SOL    HW118707   3.403   3.020   1.684
 5936SOL    HW218708   3.343   2.868   1.679
 5937SOL     OW18709   6.001   3.248   1.778
 5937SOL    HW118710   6.010   3.329   1.721
 5937SOL    HW218711   5.935   3.185   1.737
 5938SOL     OW18712   6.181   5.605   3.643
 5938SOL    HW118713   6.153   5.667   3.716
 5938SOL    HW218714   6.224   5.524   3.683
 5939SOL     OW18715   2.082   5.587   3.728
 5939SOL    HW118716   2.026   5.584   3.645
 5939SOL    HW218717   2.053   5.664   3.785
 5940SOL     OW18718   4.536   5.285   2.949
 5940SOL    HW118719   4.621   5.258   2.904
 5940SOL    HW218720   4.544   5.380   2.980
 5941SOL     OW18721   5.708   3.427   2.345
 5941SOL    HW118722   5.721   3.387   2.255
 5941SOL    HW218723   5.614   3.412   2.375
 5942SOL     OW18724   5.134   3.809   6.539
 5942SOL    HW118725   5.112   3.756   6.457
 5942SOL    HW218726   5.053   3.817   6.596
 5943SOL     OW18727   3.098   3.951   6.043
 5943SOL    HW118728   3.088   3.940   5.944
 5943SOL    HW218729   3.152   3.875   6.079
 5944SOL     OW18730   6.957   2.196   0.185
 5944SOL    HW118731   6.910   2.135   0.122
 5944SOL    HW218732   6.890   2.253   0.233
 5945SOL     OW18733   6.837   4.763   4.914
 5945SOL    HW118734   6.862   4.860   4.914
 5945SOL    HW218735   6.915   4.709   4.945
 5946SOL     OW18736   3.113   3.481   6.055
 5946SOL    HW118737   3.183   3.494   5.986
 5946SOL    HW218738   3.120   3.554   6.124
 5947SOL     OW18739   3.431   3.512   3.424
 5947SOL    HW118740   3.420   3.420   3.387
 5947SOL    HW218741   3.469   3.571   3.353
 5948SOL     OW18742   3.553   5.056   2.729
 5948SOL    HW118743   3.530   5.060   2.826
 5948SOL    HW218744   3.484   5.003   2.680
 5949SOL     OW18745   5.003   4.482   1.539
 5949SOL    HW118746   4.913   4.521   1.558
 5949SOL    HW218747   5.072   4.554   1.543
 5950SOL     OW18748   5.487   1.761   4.721
 5950SOL    HW118749   5.556   1.765   4.794
 5950SOL    HW218750   5.532   1.766   4.632
 5951SOL     OW18751   1.071   5.391   4.475
 5951SOL    HW118752   0.973   5.404   4.467
 5951SOL    HW218753   1.091   5.294   4.487
 5952SOL     OW18754   5.188   6.048   3.350
 5952SOL    HW118755   5.115   6.027   3.415
 5952SOL    HW218756   5.175   5.994   3.266
 5953SOL     OW18757   6.647   4.103   5.087
 5953SOL    HW118758   6.587   4.147   5.021
 5953SOL    HW218759   6.723   4.164   5.110
 5954SOL     OW18760   6.834   5.300   5.567
 5954SOL    HW118761   6.902   5.325   5.498
 5954SOL    HW218762   6.760   5.368   5.567
 5955SOL     OW18763   4.528   5.373   2.086
 5955SOL    HW118764   4.575   5.441   2.141
 5955SOL    HW218765   4.436   5.404   2.065
 5956SOL     OW18766   5.474   1.926   3.979
 5956SOL    HW118767   5.542   1.990   4.014
 5956SOL    HW218768   5.399   1.919   4.044
 5957SOL     OW18769   3.081   1.432   4.670
 5957SOL    HW118770   3.142   1.451   4.594
 5957SOL    HW218771   3.100   1.497   4.745
 5958SOL     OW18772   4.326   7.020   2.546
 5958SOL    HW118773   4.349   6.964   2.466
 5958SOL    HW218774   4.366   0.087   2.536
 5959SOL     OW18775   4.774   2.739   5.788
 5959SOL    HW118776   4.718   2.821   5.806
 5959SOL    HW218777   4.871   2.763   5.796
 5960SOL     OW18778   3.538   5.681   4.943
 5960SOL    HW118779   3.449   5.691   4.898
 5960SOL    HW218780   3.608   5.660   4.875
 5961SOL     OW18781   4.800   1.772   2.989
 5961SOL    HW118782   4.717   1.827   2.975
 5961SOL    HW218783   4.792   1.686   2.939
 5962SOL     OW18784   5.683   6.309   6.836
 5962SOL    HW118785   5.703   6.286   6.741
 5962SOL    HW218786   5.670   6.225   6.889
 5963SOL     OW18787   2.896   3.454   6.278
 5963SOL    HW118788   2.977   3.510   6.266
 5963SOL    HW218789   2.874   3.408   6.192
 5964SOL     OW18790   1.206   6.820   4.873
 5964SOL    HW118791   1.175   6.828   4.968
 5964SOL    HW218792   1.155   6.747   4.828
 5965SOL     OW18793   1.967   1.190   6.869
 5965SOL    HW118794   1.871   1.190   6.898
 5965SOL    HW218795   2.024   1.224   6.943
 5966SOL     OW18796   2.644   6.119   6.438
 5966SOL    HW118797   2.651   6.033   6.488
 5966SOL    HW218798   2.655   6.196   6.501
 5967SOL     OW18799   2.531   0.483   5.887
 5967SOL    HW118800   2.554   0.555   5.822
 5967SOL    HW218801   2.609   0.464   5.945
 5968SOL     OW18802   5.368   2.240   0.557
 5968SOL    HW118803   5.311   2.319   0.537
 5968SOL    HW218804   5.337   2.197   0.642
 5969SOL     OW18805   6.005   0.528   6.760
 5969SOL    HW118806   6.077   0.531   6.829
 5969SOL    HW218807   6.032   0.583   6.681
 5970SOL     OW18808   7.008   4.600   2.063
 5970SOL    HW118809   0.028   4.635   2.145
 5970SOL    HW218810   6.953   4.672   2.021
 5971SOL     OW18811   6.881   1.017   1.930
 5971SOL    HW118812   6.964   1.011   1.986
 5971SOL    HW218813   6.901   0.984   1.838
 5972SOL     OW18814   4.797   5.989   6.495
 5972SOL    HW118815   4.777   6.018   6.402
 5972SOL    HW218816   4.766   5.894   6.508
 5973SOL     OW18817   1.865   2.815   2.184
 5973SOL    HW118818   1.903   2.907   2.174
 5973SOL    HW218819   1.813   2.792   2.101
 5974SOL     OW18820   5.135   5.753   0.529
 5974SOL    HW118821   5.222   5.755   0.579
 5974SOL    HW218822   5.152   5.769   0.432
 5975SOL     OW18823   3.946   6.827   0.940
 5975SOL    HW118824   3.855   6.806   0.977
 5975SOL    HW218825   3.977   6.750   0.885
 5976SOL     OW18826   4.177   2.606   5.883
 5976SOL    HW118827   4.232   2.690   5.889
 5976SOL    HW218828   4.127   2.605   5.797
 5977SOL     OW18829   1.316   6.336   0.552
 5977SOL    HW118830   1.217   6.350   0.554
 5977SOL    HW218831   1.360   6.401   0.614
 5978SOL     OW18832   3.496   5.453   1.313
 5978SOL    HW118833   3.435   5.472   1.235
 5978SOL    HW218834   3.544   5.367   1.298
 5979SOL     OW18835   6.637   0.667   2.817
 5979SOL    HW118836   6.609   0.603   2.745
 5979SOL    HW218837   6.706   0.729   2.781
 5980SOL     OW18838   4.043   4.201   1.589
 5980SOL    HW118839   4.008   4.294   1.602
 5980SOL    HW218840   3.986   4.154   1.521
 5981SOL     OW18841   5.114   1.649   0.664
 5981SOL    HW118842   5.150   1.594   0.588
 5981SOL    HW218843   5.116   1.596   0.748
 5982SOL     OW18844   6.373   2.041   2.502
 5982SOL    HW118845   6.305   1.986   2.453
 5982SOL    HW218846   6.383   2.130   2.457
 5983SOL     OW18847   1.225   1.130   4.677
 5983SOL    HW118848   1.205   1.169   4.587
 5983SOL    HW218849   1.257   1.203   4.738
 5984SOL     OW18850   5.565   6.114   3.390
 5984SOL    HW118851   5.547   6.126   3.487
 5984SOL    HW218852   5.640   6.174   3.362
 5985SOL     OW18853   6.824   2.936   3.587
 5985SOL    HW118854   6.768   2.968   3.663
 5985SOL    HW218855   6.851   2.841   3.603
 5986SOL     OW18856   3.049   3.968   4.863
 5986SOL    HW118857   3.006   3.879   4.876
 5986SOL    HW218858   2.994   4.039   4.907
 5987SOL     OW18859   5.393   0.603   4.620
 5987SOL    HW118860   5.418   0.510   4.648
 5987SOL    HW218861   5.433   0.668   4.685
 5988SOL     OW18862   4.568   0.669   5.588
 5988SOL    HW118863   4.569   0.756   5.538
 5988SOL    HW218864   4.544   0.595   5.526
 5989SOL     OW18865   1.945   5.557   6.176
 5989SOL    HW118866   1.984   5.589   6.090
 5989SOL    HW218867   1.885   5.479   6.159
 5990SOL     OW18868   3.872   3.325   0.471
 5990SOL    HW118869   3.802   3.384   0.510
 5990SOL    HW218870   3.841   3.230   0.473
 5991SOL     OW18871   4.117   5.592   0.153
 5991SOL    HW118872   4.126   5.606   0.054
 5991SOL    HW218873   4.146   5.674   0.201
 5992SOL     OW18874   3.283   0.218   1.765
 5992SOL    HW118875   3.230   0.284   1.712
 5992SOL    HW218876   3.285   0.245   1.861
 5993SOL     OW18877   3.942   4.077   5.889
 5993SOL    HW118878   3.842   4.071   5.883
 5993SOL    HW218879   3.973   4.030   5.972
 5994SOL     OW18880   6.746   2.223   0.330
 5994SOL    HW118881   6.697   2.262   0.408
 5994SOL    HW218882   6.733   2.124   0.329
 5995SOL     OW18883   4.866   2.986   2.261
 5995SOL    HW118884   4.964   3.003   2.253
 5995SOL    HW218885   4.821   3.007   2.174
 5996SOL     OW18886   0.059   6.735   0.545
 5996SOL    HW118887   0.035   6.658   0.604
 5996SOL    HW218888   0.156   6.730   0.520
 5997SOL     OW18889   0.340   5.004   2.515
 5997SOL    HW118890   0.397   4.922   2.526
 5997SOL    HW218891   0.383   5.081   2.562
 5998SOL     OW18892   6.277   1.592   2.163
 5998SOL    HW118893   6.360   1.628   2.119
 5998SOL    HW218894   6.249   1.508   2.115
 5999SOL     OW18895   2.915   3.558   1.599
 5999SOL    HW118896   3.009   3.571   1.568
 5999SOL    HW218897   2.865   3.501   1.532
 6000SOL     OW18898   2.276   6.075   6.727
 6000SOL    HW118899   2.183   6.090   6.761
 6000SOL    HW218900   2.322   6.008   6.786
 6001SOL     OW18901   0.100   5.107   6.885
 6001SOL    HW118902   0.189   5.065   6.901
 6001SOL    HW218903   0.112   5.195   6.840
 6002SOL     OW18904   5.589   0.226   0.081
 6002SOL    HW118905   5.585   0.126   0.085
 6002SOL    HW218906   5.665   0.259   0.138
 6003SOL     OW18907   5.505   2.271   4.682
 6003SOL    HW118908   5.464   2.273   4.773
 6003SOL    HW218909   5.571   2.196   4.677
 6004SOL     OW18910   6.666   3.869   3.294
 6004SOL    HW118911   6.574   3.830   3.294
 6004SOL    HW218912   6.724   3.818   3.357
 6005SOL     OW18913   5.239   5.669   4.515
 6005SOL    HW118914   5.156   5.677   4.570
 6005SOL    HW218915   5.314   5.638   4.573
 6006SOL     OW18916   2.317   0.746   5.212
 6006SOL    HW118917   2.331   0.739   5.311
 6006SOL    HW218918   2.378   0.682   5.165
 6007SOL     OW18919   5.790   3.743   5.686
 6007SOL    HW118920   5.715   3.706   5.630
 6007SOL    HW218921   5.787   3.702   5.777
 6008SOL     OW18922   2.656   5.387   5.546
 6008SOL    HW118923   2.690   5.315   5.487
 6008SOL    HW218924   2.556   5.384   5.548
 6009SOL     OW18925   3.233   0.428   3.314
 6009SOL    HW118926   3.310   0.492   3.307
 6009SOL    HW218927   3.249   0.364   3.389
 6010SOL     OW18928   1.281   5.253   3.727
 6010SOL    HW118929   1.342   5.189   3.773
 6010SOL    HW218930   1.188   5.219   3.731
 6011SOL     OW18931   5.965   2.951   3.713
 6011SOL    HW118932   6.064   2.944   3.724
 6011SOL    HW218933   5.942   2.936   3.617
 6012SOL     OW18934   5.899   1.109   0.852
 6012SOL    HW118935   5.865   1.201   0.873
 6012SOL    HW218936   5.858   1.077   0.766
 6013SOL     OW18937   5.008   0.892   2.662
 6013SOL    HW118938   5.033   0.968   2.723
 6013SOL    HW218939   4.913   0.865   2.680
 6014SOL     OW18940   3.620   3.813   3.462
 6014SOL    HW118941   3.642   3.909   3.480
 6014SOL    HW218942   3.700   3.767   3.424
 6015SOL     OW18943   5.696   4.145   4.272
 6015SOL    HW118944   5.748   4.205   4.212
 6015SOL    HW218945   5.617   4.195   4.308
 6016SOL     OW18946   6.959   2.489   6.072
 6016SOL    HW118947   7.006   2.408   6.106
 6016SOL    HW218948   7.009   2.571   6.100
 6017SOL     OW18949   6.218   4.964   3.628
 6017SOL    HW118950   6.198   4.896   3.698
 6017SOL    HW218951   6.306   4.943   3.586
 6018SOL     OW18952   3.781   1.375   6.341
 6018SOL    HW118953   3.696   1.357   6.392
 6018SOL    HW218954   3.859   1.362   6.402
 6019SOL     OW18955   0.528   2.717   4.884
 6019SOL    HW118956   0.530   2.621   4.910
 6019SOL    HW218957   0.547   2.774   4.964
 6020SOL     OW18958   0.457   4.879   0.285
 6020SOL    HW118959   0.506   4.801   0.247
 6020SOL    HW218960   0.362   4.877   0.253
 6021SOL     OW18961   4.508   0.956   3.182
 6021SOL    HW118962   4.594   0.976   3.137
 6021SOL    HW218963   4.445   0.914   3.117
 6022SOL     OW18964   6.796   1.793   3.427
 6022SOL    HW118965   6.704   1.825   3.448
 6022SOL    HW218966   6.855   1.871   3.408
 6023SOL     OW18967   5.650   1.392   1.592
 6023SOL    HW118968   5.709   1.387   1.673
 6023SOL    HW218969   5.625   1.487   1.575
 6024SOL     OW18970   1.350   4.178   1.724
 6024SOL    HW118971   1.346   4.101   1.787
 6024SOL    HW218972   1.258   4.205   1.698
 6025SOL     OW18973   3.137   1.532   3.290
 6025SOL    HW118974   3.223   1.481   3.289
 6025SOL    HW218975   3.144   1.607   3.357
 6026SOL     OW18976   0.279   5.248   5.752
 6026SOL    HW118977   0.273   5.339   5.711
 6026SOL    HW218978   0.197   5.231   5.805
 6027SOL     OW18979   0.142   3.539   5.882
 6027SOL    HW118980   0.063   3.478   5.877
 6027SOL    HW218981   0.119   3.627   5.839
 6028SOL     OW18982   5.735   4.616   0.947
 6028SOL    HW118983   5.665   4.671   0.899
 6028SOL    HW218984   5.758   4.660   1.033
 6029SOL     OW18985   2.988   6.256   4.126
 6029SOL    HW118986   2.893   6.229   4.146
 6029SOL    HW218987   2.988   6.345   4.081
 6030SOL     OW18988   4.229   5.035   2.928
 6030SOL    HW118989   4.197   5.129   2.938
 6030SOL    HW218990   4.255   4.998   3.017
 6031SOL     OW18991   3.284   5.407   4.499
 6031SOL    HW118992   3.215   5.431   4.567
 6031SOL    HW218993   3.259   5.448   4.411
 6032SOL     OW18994   1.966   4.751   2.049
 6032SOL    HW118995   1.935   4.675   2.107
 6032SOL    HW218996   1.986   4.716   1.957
 6033SOL     OW18997   2.437   2.113   3.301
 6033SOL    HW118998   2.392   2.188   3.252
 6033SOL    HW218999   2.536   2.120   3.287
 6034SOL     OW19000   0.893   0.937   5.107
 6034SOL    HW119001   0.942   0.866   5.056
 6034SOL    HW219002   0.959   0.997   5.152
 6035SOL     OW19003   1.414   1.215   1.888
 6035SOL    HW119004   1.377   1.281   1.954
 6035SOL    HW219005   1.509   1.194   1.911
 6036SOL     OW19006   5.092   5.485   2.903
 6036SOL    HW119007   5.047   5.419   2.844
 6036SOL    HW219008   5.023   5.536   2.955
 6037SOL     OW19009   3.770   0.036   0.286
 6037SOL    HW119010   3.819   6.972   0.286
 6037SOL    HW219011   3.733   0.054   0.377
 6038SOL     OW19012   1.409   3.330   5.764
 6038SOL    HW119013   1.502   3.295   5.751
 6038SOL    HW219014   1.379   3.311   5.858
 6039SOL     OW19015   3.731   2.977   3.165
 6039SOL    HW119016   3.727   3.036   3.084
 6039SOL    HW219017   3.808   2.914   3.156
 6040SOL     OW19018   1.614   2.156   1.046
 6040SOL    HW119019   1.544   2.105   1.096
 6040SOL    HW219020   1.570   2.216   0.979
 6041SOL     OW19021   2.957   1.110   5.454
 6041SOL    HW119022   3.046   1.065   5.462
 6041SOL    HW219023   2.938   1.163   5.536
 6042SOL     OW19024   4.281   6.444   2.635
 6042SOL    HW119025   4.347   6.514   2.607
 6042SOL    HW219026   4.291   6.364   2.575
 6043SOL     OW19027   0.835   6.635   5.282
 6043SOL    HW119028   0.796   6.687   5.358
 6043SOL    HW219029   0.933   6.620   5.298
 6044SOL     OW19030   1.599   2.693   1.138
 6044SOL    HW119031   1.646   2.727   1.056
 6044SOL    HW219032   1.567   2.599   1.121
 6045SOL     OW19033   6.051   3.808   3.105
 6045SOL    HW119034   5.971   3.787   3.048
 6045SOL    HW219035   6.032   3.891   3.159
 6046SOL     OW19036   3.327   2.627   1.485
 6046SOL    HW119037   3.255   2.681   1.441
 6046SOL    HW219038   3.300   2.605   1.578
 6047SOL     OW19039   5.160   2.156   1.935
 6047SOL    HW119040   5.238   2.187   1.989
 6047SOL    HW219041   5.076   2.196   1.973
 6048SOL     OW19042   4.733   4.908   5.336
 6048SOL    HW119043   4.748   5.005   5.355
 6048SOL    HW219044   4.821   4.863   5.323
 6049SOL     OW19045   4.727   3.576   6.955
 6049SOL    HW119046   4.632   3.605   6.969
 6049SOL    HW219047   4.783   3.608   0.009
 6050SOL     OW19048   2.948   4.631   5.872
 6050SOL    HW119049   3.018   4.703   5.867
 6050SOL    HW219050   2.960   4.579   5.957
 6051SOL     OW19051   1.962   0.128   3.145
 6051SOL    HW119052   2.019   0.208   3.126
 6051SOL    HW219053   1.934   0.086   3.059
 6052SOL     OW19054   5.392   1.243   1.072
 6052SOL    HW119055   5.453   1.320   1.090
 6052SOL    HW219056   5.342   1.259   0.986
 6053SOL     OW19057   4.301   1.346   6.214
 6053SOL    HW119058   4.341   1.438   6.206
 6053SOL    HW219059   4.204   1.354   6.237
 6054SOL     OW19060   2.736   3.056   0.268
 6054SOL    HW119061   2.832   3.031   0.263
 6054SOL    HW219062   2.683   2.997   0.207
 6055SOL     OW19063   5.252   6.889   5.417
 6055SOL    HW119064   5.303   6.907   5.501
 6055SOL    HW219065   5.314   6.898   5.339
 6056SOL     OW19066   4.898   3.248   5.237
 6056SOL    HW119067   4.822   3.287   5.288
 6056SOL    HW219068   4.901   3.288   5.146
 6057SOL     OW19069   7.019   1.088   2.289
 6057SOL    HW119070   6.929   1.122   2.262
 6057SOL    HW219071   0.058   1.166   2.302
 6058SOL     OW19072   5.209   4.040   1.293
 6058SOL    HW119073   5.301   4.071   1.269
 6058SOL    HW219074   5.143   4.078   1.228
 6059SOL     OW19075   4.714   5.494   6.371
 6059SOL    HW119076   4.811   5.468   6.374
 6059SOL    HW219077   4.670   5.451   6.293
 6060SOL     OW19078   2.643   3.221   6.034
 6060SOL    HW119079   2.727   3.264   6.066
 6060SOL    HW219080   2.629   3.135   6.083
 6061SOL     OW19081   5.164   3.409   0.696
 6061SOL    HW119082   5.167   3.312   0.719
 6061SOL    HW219083   5.089   3.453   0.747
 6062SOL     OW19084   2.464   1.502   5.927
 6062SOL    HW119085   2.372   1.505   5.887
 6062SOL    HW219086   2.507   1.592   5.915
 6063SOL     OW19087   4.602   1.921   6.533
 6063SOL    HW119088   4.527   1.884   6.589
 6063SOL    HW219089   4.567   1.987   6.467
 6064SOL     OW19090   1.036   0.449   1.368
 6064SOL    HW119091   0.972   0.380   1.401
 6064SOL    HW219092   0.986   0.517   1.314
 6065SOL     OW19093   0.901   6.168   3.145
 6065SOL    HW119094   0.839   6.091   3.129
 6065SOL    HW219095   0.958   6.183   3.063
 6066SOL     OW19096   5.333   1.988   5.367
 6066SOL    HW119097   5.414   1.933   5.388
 6066SOL    HW219098   5.259   1.960   5.428
 6067SOL     OW19099   5.392   0.660   5.925
 6067SOL    HW119100   5.315   0.663   5.988
 6067SOL    HW219101   5.478   0.663   5.977
 6068SOL     OW19102   4.678   2.835   4.640
 6068SOL    HW119103   4.665   2.751   4.693
 6068SOL    HW219104   4.591   2.865   4.603
 6069SOL     OW19105   5.859   3.094   4.899
 6069SOL    HW119106   5.793   3.049   4.839
 6069SOL    HW219107   5.839   3.192   4.902
 6070SOL     OW19108   2.815   2.089   1.625
 6070SOL    HW119109   2.821   2.088   1.525
 6070SOL    HW219110   2.723   2.116   1.653
 6071SOL     OW19111   6.587   5.847   5.250
 6071SOL    HW119112   6.669   5.901   5.234
 6071SOL    HW219113   6.531   5.891   5.320
 6072SOL     OW19114   0.002   0.203   1.942
 6072SOL    HW119115   0.001   0.280   1.879
 6072SOL    HW219116   0.066   0.133   1.910
 6073SOL     OW19117   5.447   3.000   0.732
 6073SOL    HW119118   5.477   3.029   0.822
 6073SOL    HW219119   5.476   3.066   0.663
 6074SOL     OW19120   0.887   5.870   2.180
 6074SOL    HW119121   0.870   5.791   2.239
 6074SOL    HW219122   0.961   5.849   2.116
 6075SOL     OW19123   4.768   7.019   5.853
 6075SOL    HW119124   4.810   6.983   5.770
 6075SOL    HW219125   4.696   0.061   5.828
 6076SOL     OW19126   3.514   5.458   3.127
 6076SOL    HW119127   3.475   5.402   3.054
 6076SOL    HW219128   3.600   5.497   3.096
 6077SOL     OW19129   6.425   5.049   1.381
 6077SOL    HW119130   6.441   5.141   1.344
 6077SOL    HW219131   6.507   5.019   1.431
 6078SOL     OW19132   5.113   5.402   0.634
 6078SOL    HW119133   5.115   5.337   0.558
 6078SOL    HW219134   5.193   5.388   0.693
 6079SOL     OW19135   4.874   3.655   5.447
 6079SOL    HW119136   4.837   3.563   5.446
 6079SOL    HW219137   4.875   3.690   5.541
 6080SOL     OW19138   0.092   6.208   0.847
 6080SOL    HW119139   0.153   6.191   0.770
 6080SOL    HW219140   0.143   6.201   0.932
 6081SOL     OW19141   6.779   2.700   4.994
 6081SOL    HW119142   6.817   2.650   4.916
 6081SOL    HW219143   6.853   2.746   5.044
 6082SOL     OW19144   2.498   0.135   2.977
 6082SOL    HW119145   2.424   0.155   3.042
 6082SOL    HW219146   2.549   0.055   3.009
 6083SOL     OW19147   6.088   6.201   0.402
 6083SOL    HW119148   6.170   6.158   0.363
 6083SOL    HW219149   6.053   6.269   0.337
 6084SOL     OW19150   0.858   6.615   3.078
 6084SOL    HW119151   0.935   6.620   3.142
 6084SOL    HW219152   0.874   6.677   3.001
 6085SOL     OW19153   0.263   6.876   0.111
 6085SOL    HW119154   0.322   6.957   0.116
 6085SOL    HW219155   0.244   6.855   0.015
 6086SOL     OW19156   2.942   1.267   5.679
 6086SOL    HW119157   2.923   1.313   5.766
 6086SOL    HW219158   3.007   1.320   5.626
 6087SOL     OW19159   3.636   5.827   1.139
 6087SOL    HW119160   3.676   5.816   1.230
 6087SOL    HW219161   3.557   5.766   1.129
 6088SOL     OW19162   5.358   6.581   4.724
 6088SOL    HW119163   5.399   6.490   4.716
 6088SOL    HW219164   5.402   6.630   4.799
 6089SOL     OW19165   5.753   2.351   2.649
 6089SOL    HW119166   5.721   2.261   2.620
 6089SOL    HW219167   5.675   2.411   2.664
 6090SOL     OW19168   2.614   5.547   4.543
 6090SOL    HW119169   2.556   5.556   4.624
 6090SOL    HW219170   2.591   5.619   4.478
 6091SOL     OW19171   2.175   1.553   6.868
 6091SOL    HW119172   2.138   1.559   6.961
 6091SOL    HW219173   2.143   1.630   6.814
 6092SOL     OW19174   4.366   0.588   2.778
 6092SOL    HW119175   4.411   0.509   2.737
 6092SOL    HW219176   4.284   0.611   2.725
 6093SOL     OW19177   2.174   3.170   1.985
 6093SOL    HW119178   2.265   3.209   1.996
 6093SOL    HW219179   2.140   3.190   1.893
 6094SOL     OW19180   1.547   6.001   2.667
 6094SOL    HW119181   1.619   6.007   2.736
 6094SOL    HW219182   1.460   6.030   2.706
 6095SOL     OW19183   5.006   4.522   0.161
 6095SOL    HW119184   5.077   4.571   0.110
 6095SOL    HW219185   4.923   4.516   0.105
 6096SOL     OW19186   5.938   0.092   3.752
 6096SOL    HW119187   5.988   0.054   3.675
 6096SOL    HW219188   5.900   0.018   3.808
 6097SOL     OW19189   1.859   5.467   1.959
 6097SOL    HW119190   1.780   5.466   2.020
 6097SOL    HW219191   1.937   5.425   2.005
 6098SOL     OW19192   0.555   1.510   5.438
 6098SOL    HW119193   0.494   1.445   5.391
 6098SOL    HW219194   0.617   1.460   5.498
 6099SOL     OW19195   5.398   6.340   6.896
 6099SOL    HW119196   5.490   6.329   6.859
 6099SOL    HW219197   5.355   6.250   6.907
 6100SOL     OW19198   5.440   6.375   1.445
 6100SOL    HW119199   5.415   6.427   1.526
 6100SOL    HW219200   5.357   6.350   1.395
 6101SOL     OW19201   0.097   2.925   3.470
 6101SOL    HW119202   0.095   2.884   3.378
 6101SOL    HW219203   0.008   2.965   3.490
 6102SOL     OW19204   3.462   5.905   3.242
 6102SOL    HW119205   3.465   5.990   3.189
 6102SOL    HW219206   3.415   5.834   3.190
 6103SOL     OW19207   5.998   1.779   2.039
 6103SOL    HW119208   6.087   1.738   2.058
 6103SOL    HW219209   5.998   1.875   2.068
 6104SOL     OW19210   5.342   0.234   5.543
 6104SOL    HW119211   5.387   0.302   5.485
 6104SOL    HW219212   5.249   0.219   5.511
 6105SOL     OW19213   3.165   5.960   6.709
 6105SOL    HW119214   3.256   5.984   6.676
 6105SOL    HW219215   3.104   5.946   6.630
 6106SOL     OW19216   1.189   4.796   6.276
 6106SOL    HW119217   1.146   4.778   6.188
 6106SOL    HW219218   1.134   4.757   6.349
 6107SOL     OW19219   4.513   6.386   5.103
 6107SOL    HW119220   4.520   6.455   5.030
 6107SOL    HW219221   4.421   6.347   5.102
 6108SOL     OW19222   2.171   2.903   2.080
 6108SOL    HW119223   2.086   2.893   2.132
 6108SOL    HW219224   2.180   2.998   2.051
 6109SOL     OW19225   5.693   1.848   4.881
 6109SOL    HW119226   5.766   1.783   4.899
 6109SOL    HW219227   5.641   1.864   4.964
 6110SOL     OW19228   3.002   4.015   0.936
 6110SOL    HW119229   2.973   3.933   0.886
 6110SOL    HW219230   2.931   4.086   0.928
 6111SOL     OW19231   1.498   3.198   2.640
 6111SOL    HW119232   1.532   3.153   2.723
 6111SOL    HW219233   1.414   3.154   2.610
 6112SOL     OW19234   2.915   0.082   2.806
 6112SOL    HW119235   2.838   0.144   2.793
 6112SOL    HW219236   2.900   0.026   2.888
 6113SOL     OW19237   3.377   2.469   6.125
 6113SOL    HW119238   3.322   2.461   6.208
 6113SOL    HW219239   3.442   2.544   6.134
 6114SOL     OW19240   5.079   4.575   2.435
 6114SOL    HW119241   5.059   4.634   2.357
 6114SOL    HW219242   5.023   4.605   2.513
 6115SOL     OW19243   5.920   0.587   4.225
 6115SOL    HW119244   5.989   0.538   4.278
 6115SOL    HW219245   5.939   0.576   4.127
 6116SOL     OW19246   4.894   1.418   6.240
 6116SOL    HW119247   4.820   1.357   6.215
 6116SOL    HW219248   4.974   1.365   6.268
 6117SOL     OW19249   1.568   1.210   3.654
 6117SOL    HW119250   1.555   1.113   3.634
 6117SOL    HW219251   1.579   1.221   3.753
 6118SOL     OW19252   6.590   0.926   1.308
 6118SOL    HW119253   6.509   0.868   1.301
 6118SOL    HW219254   6.606   0.971   1.220
 6119SOL     OW19255   0.922   3.619   7.000
 6119SOL    HW119256   0.926   3.648   6.904
 6119SOL    HW219257   0.835   3.648   0.016
 6120SOL     OW19258   3.728   6.552   5.584
 6120SOL    HW119259   3.739   6.651   5.592
 6120SOL    HW219260   3.755   6.508   5.669
 6121SOL     OW19261   0.633   3.560   5.144
 6121SOL    HW119262   0.691   3.518   5.075
 6121SOL    HW219263   0.629   3.502   5.225
 6122SOL     OW19264   4.227   5.407   0.538
 6122SOL    HW119265   4.261   5.383   0.447
 6122SOL    HW219266   4.146   5.352   0.559
 6123SOL     OW19267   5.212   0.123   6.299
 6123SOL    HW119268   5.149   0.158   6.368
 6123SOL    HW219269   5.189   0.161   6.210
 6124SOL     OW19270   1.321   6.961   5.786
 6124SOL    HW119271   1.405   6.934   5.738
 6124SOL    HW219272   1.344   6.994   5.877
 6125SOL     OW19273   2.455   4.143   0.235
 6125SOL    HW119274   2.513   4.062   0.239
 6125SOL    HW219275   2.381   4.128   0.170
 6126SOL     OW19276   0.721   0.703   4.228
 6126SOL    HW119277   0.789   0.668   4.293
 6126SOL    HW219278   0.658   0.630   4.203
 6127SOL     OW19279   3.225   6.980   1.090
 6127SOL    HW119280   3.134   7.016   1.110
 6127SOL    HW219281   3.276   6.969   1.176
 6128SOL     OW19282   6.158   4.439   0.796
 6128SOL    HW119283   6.177   4.360   0.855
 6128SOL    HW219284   6.239   4.459   0.741
 6129SOL     OW19285   6.932   3.595   2.498
 6129SOL    HW119286   6.915   3.514   2.441
 6129SOL    HW219287   7.006   3.649   2.457
 6130SOL     OW19288   5.531   2.734   2.647
 6130SOL    HW119289   5.607   2.712   2.586
 6130SOL    HW219290   5.446   2.736   2.594
 6131SOL     OW19291   0.670   1.606   3.856
 6131SOL    HW119292   0.714   1.614   3.945
 6131SOL    HW219293   0.578   1.570   3.867
 6132SOL     OW19294   4.540   1.908   0.055
 6132SOL    HW119295   4.636   1.884   0.072
 6132SOL    HW219296   4.521   1.904   6.981
 6133SOL     OW19297   2.091   3.292   3.028
 6133SOL    HW119298   2.068   3.299   3.126
 6133SOL    HW219299   2.144   3.209   3.013
 6134SOL     OW19300   4.218   5.205   6.899
 6134SOL    HW119301   4.124   5.225   6.925
 6134SOL    HW219302   4.274   5.287   6.909
 6135SOL     OW19303   6.817   0.163   0.163
 6135SOL    HW119304   6.788   0.234   0.227
 6135SOL    HW219305   6.759   0.082   0.174
 6136SOL     OW19306   1.215   3.284   1.952
 6136SOL    HW119307   1.287   3.349   1.975
 6136SOL    HW219308   1.251   3.191   1.960
 6137SOL     OW19309   6.449   3.934   2.046
 6137SOL    HW119310   6.371   3.880   2.012
 6137SOL    HW219311   6.489   3.984   1.969
 6138SOL     OW19312   3.523   6.802   2.803
 6138SOL    HW119313   3.591   6.848   2.861
 6138SOL    HW219314   3.519   6.705   2.827
 6139SOL     OW19315   1.785   6.839   5.876
 6139SOL    HW119316   1.835   6.885   5.803
 6139SOL    HW219317   1.710   6.785   5.837
 6140SOL     OW19318   0.981   6.964   1.907
 6140SOL    HW119319   1.014   7.004   1.822
 6140SOL    HW219320   1.052   6.906   1.947
 6141SOL     OW19321   0.759   6.917   6.405
 6141SOL    HW119322   0.799   7.000   6.366
 6141SOL    HW219323   0.677   6.940   6.457
 6142SOL     OW19324   0.517   6.340   6.449
 6142SOL    HW119325   0.469   6.280   6.385
 6142SOL    HW219326   0.610   6.358   6.416
 6143SOL     OW19327   6.513   3.117   0.833
 6143SOL    HW119328   6.569   3.190   0.872
 6143SOL    HW219329   6.512   3.039   0.895
 6144SOL     OW19330   4.894   4.923   4.425
 6144SOL    HW119331   4.795   4.919   4.413
 6144SOL    HW219332   4.931   5.000   4.371
 6145SOL     OW19333   5.166   4.984   4.673
 6145SOL    HW119334   5.204   5.002   4.582
 6145SOL    HW219335   5.090   4.919   4.664
 6146SOL     OW19336   3.171   5.362   3.987
 6146SOL    HW119337   3.260   5.396   3.956
 6146SOL    HW219338   3.106   5.437   3.991
 6147SOL     OW19339   2.266   2.090   4.734
 6147SOL    HW119340   2.333   2.102   4.807
 6147SOL    HW219341   2.184   2.145   4.755
 6148SOL     OW19342   4.872   6.983   5.245
 6148SOL    HW119343   4.782   6.940   5.239
 6148SOL    HW219344   4.910   6.993   5.154
 6149SOL     OW19345   2.636   6.640   1.299
 6149SOL    HW119346   2.609   6.685   1.215
 6149SOL    HW219347   2.620   6.542   1.291
 6150SOL     OW19348   5.710   5.421   0.819
 6150SOL    HW119349   5.748   5.497   0.871
 6150SOL    HW219350   5.768   5.340   0.831
 6151SOL     OW19351   6.246   5.085   6.296
 6151SOL    HW119352   6.234   5.134   6.210
 6151SOL    HW219353   6.339   5.051   6.303
 6152SOL     OW19354   6.502   5.587   4.833
 6152SOL    HW119355   6.496   5.593   4.933
 6152SOL    HW219356   6.586   5.631   4.801
 6153SOL     OW19357   5.400   4.614   1.007
 6153SOL    HW119358   5.461   4.544   0.971
 6153SOL    HW219359   5.355   4.661   0.930
 6154SOL     OW19360   6.259   2.367   2.639
 6154SOL    HW119361   6.181   2.306   2.653
 6154SOL    HW219362   6.227   2.462   2.643
 6155SOL     OW19363   1.546   1.354   3.241
 6155SOL    HW119364   1.476   1.423   3.258
 6155SOL    HW219365   1.505   1.275   3.196
 6156SOL     OW19366   4.349   4.687   2.057
 6156SOL    HW119367   4.377   4.599   2.096
 6156SOL    HW219368   4.388   4.762   2.112
 6157SOL     OW19369   6.984   2.003   4.551
 6157SOL    HW119370   6.946   2.003   4.643
 6157SOL    HW219371   6.929   2.061   4.492
 6158SOL     OW19372   3.503   2.063   6.562
 6158SOL    HW119373   3.533   2.045   6.468
 6158SOL    HW219374   3.445   1.987   6.593
 6159SOL     OW19375   4.506   2.006   1.501
 6159SOL    HW119376   4.523   1.912   1.532
 6159SOL    HW219377   4.434   2.047   1.557
 6160SOL     OW19378   5.281   1.047   6.776
 6160SOL    HW119379   5.206   1.105   6.808
 6160SOL    HW219380   5.361   1.061   6.834
 6161SOL     OW19381   5.712   1.727   5.839
 6161SOL    HW119382   5.703   1.685   5.749
 6161SOL    HW219383   5.622   1.758   5.871
 6162SOL     OW19384   6.711   6.189   3.694
 6162SOL    HW119385   6.716   6.191   3.594
 6162SOL    HW219386   6.710   6.282   3.730
 6163SOL     OW19387   6.061   6.457   1.466
 6163SOL    HW119388   6.038   6.510   1.384
 6163SOL    HW219389   6.135   6.503   1.516
 6164SOL     OW19390   3.359   3.769   3.641
 6164SOL    HW119391   3.454   3.775   3.669
 6164SOL    HW219392   3.303   3.832   3.695
 6165SOL     OW19393   4.626   1.573   6.773
 6165SOL    HW119394   4.721   1.598   6.789
 6165SOL    HW219395   4.622   1.491   6.715
 6166SOL     OW19396   5.837   1.825   6.388
 6166SOL    HW119397   5.900   1.794   6.460
 6166SOL    HW219398   5.836   1.758   6.314
 6167SOL     OW19399   1.148   5.116   3.084
 6167SOL    HW119400   1.091   5.042   3.048
 6167SOL    HW219401   1.244   5.098   3.062
 6168SOL     OW19402   1.702   3.356   2.535
 6168SOL    HW119403   1.726   3.333   2.440
 6168SOL    HW219404   1.632   3.292   2.568
 6169SOL     OW19405   1.129   2.121   0.026
 6169SOL    HW119406   1.220   2.154   0.001
 6169SOL    HW219407   1.118   2.027   7.019
 6170SOL     OW19408   2.370   4.198   5.364
 6170SOL    HW119409   2.391   4.126   5.298
 6170SOL    HW219410   2.354   4.158   5.454
 6171SOL     OW19411   1.849   3.678   1.148
 6171SOL    HW119412   1.847   3.580   1.130
 6171SOL    HW219413   1.924   3.698   1.212
 6172SOL     OW19414   1.787   1.565   3.412
 6172SOL    HW119415   1.769   1.467   3.411
 6172SOL    HW219416   1.886   1.580   3.423
 6173SOL     OW19417   6.098   5.527   2.063
 6173SOL    HW119418   6.194   5.554   2.062
 6173SOL    HW219419   6.040   5.607   2.044
 6174SOL     OW19420   5.232   5.156   3.683
 6174SOL    HW119421   5.179   5.170   3.599
 6174SOL    HW219422   5.195   5.214   3.756
 6175SOL     OW19423   4.640   0.579   3.585
 6175SOL    HW119424   4.654   0.490   3.627
 6175SOL    HW219425   4.546   0.586   3.551
 6176SOL     OW19426   5.595   3.194   6.475
 6176SOL    HW119427   5.663   3.251   6.521
 6176SOL    HW219428   5.513   3.248   6.458
 6177SOL     OW19429   5.690   0.874   0.846
 6177SOL    HW119430   5.734   0.931   0.777
 6177SOL    HW219431   5.686   0.780   0.814
 6178SOL     OW19432   4.676   4.631   3.064
 6178SOL    HW119433   4.666   4.565   2.990
 6178SOL    HW219434   4.772   4.654   3.076
 6179SOL     OW19435   6.832   4.817   4.208
 6179SOL    HW119436   6.862   4.825   4.303
 6179SOL    HW219437   6.809   4.908   4.173
 6180SOL     OW19438   4.057   4.855   0.092
 6180SOL    HW119439   4.051   4.767   0.045
 6180SOL    HW219440   4.152   4.886   0.093
 6181SOL     OW19441   3.602   6.684   0.716
 6181SOL    HW119442   3.511   6.725   0.706
 6181SOL    HW219443   3.596   6.607   0.780
 6182SOL     OW19444   5.455   3.390   5.626
 6182SOL    HW119445   5.371   3.402   5.573
 6182SOL    HW219446   5.496   3.302   5.603
 6183SOL     OW19447   2.280   1.359   3.231
 6183SOL    HW119448   2.345   1.432   3.250
 6183SOL    HW219449   2.215   1.351   3.306
 6184SOL     OW19450   2.161   6.820   5.977
 6184SOL    HW119451   2.254   6.853   5.991
 6184SOL    HW219452   2.140   6.749   6.045
 6185SOL     OW19453   7.001   4.308   6.568
 6185SOL    HW119454   6.988   4.294   6.470
 6185SOL    HW219455   0.075   4.316   6.589
 6186SOL     OW19456   6.748   6.642   5.750
 6186SOL    HW119457   6.672   6.618   5.690
 6186SOL    HW219458   6.736   6.736   5.783
 6187SOL     OW19459   4.489   5.097   3.136
 6187SOL    HW119460   4.489   5.153   3.053
 6187SOL    HW219461   4.421   5.132   3.200
 6188SOL     OW19462   2.273   0.117   0.816
 6188SOL    HW119463   2.362   0.137   0.858
 6188SOL    HW219464   2.282   0.120   0.717
 6189SOL     OW19465   5.000   4.224   3.850
 6189SOL    HW119466   5.070   4.226   3.779
 6189SOL    HW219467   4.938   4.302   3.837
 6190SOL     OW19468   0.259   3.787   5.457
 6190SOL    HW119469   0.336   3.728   5.481
 6190SOL    HW219470   0.208   3.747   5.380
 6191SOL     OW19471   3.921   2.093   6.959
 6191SOL    HW119472   3.847   2.160   6.969
 6191SOL    HW219473   3.887   2.002   6.984
 6192SOL     OW19474   3.821   2.475   6.773
 6192SOL    HW119475   3.886   2.471   6.849
 6192SOL    HW219476   3.865   2.446   6.689
 6193SOL     OW19477   4.894   1.353   2.303
 6193SOL    HW119478   4.890   1.283   2.374
 6193SOL    HW219479   4.876   1.312   2.214
 6194SOL     OW19480   1.388   0.250   0.829
 6194SOL    HW119481   1.361   0.161   0.792
 6194SOL    HW219482   1.392   0.317   0.755
 6195SOL     OW19483   4.762   6.618   5.489
 6195SOL    HW119484   4.832   6.679   5.451
 6195SOL    HW219485   4.766   6.530   5.442
 6196SOL     OW19486   5.984   2.535   1.699
 6196SOL    HW119487   6.039   2.512   1.619
 6196SOL    HW219488   5.920   2.460   1.717
 6197SOL     OW19489   4.432   4.512   0.798
 6197SOL    HW119490   4.518   4.462   0.808
 6197SOL    HW219491   4.385   4.482   0.715
 6198SOL     OW19492   3.961   6.248   2.325
 6198SOL    HW119493   4.027   6.184   2.286
 6198SOL    HW219494   3.960   6.238   2.425
 6199SOL     OW19495   0.930   0.742   1.114
 6199SOL    HW119496   1.013   0.737   1.170
 6199SOL    HW219497   0.878   0.823   1.140
 6200SOL     OW19498   1.438   1.049   5.551
 6200SOL    HW119499   1.399   1.079   5.638
 6200SOL    HW219500   1.510   1.112   5.523
 6201SOL     OW19501   0.768   3.212   5.593
 6201SOL    HW119502   0.685   3.231   5.542
 6201SOL    HW219503   0.752   3.232   5.690
 6202SOL     OW19504   3.858   1.766   2.361
 6202SOL    HW119505   3.923   1.825   2.409
 6202SOL    HW219506   3.767   1.777   2.402
 6203SOL     OW19507   6.863   6.642   2.906
 6203SOL    HW119508   6.833   6.712   2.840
 6203SOL    HW219509   6.848   6.676   2.999
 6204SOL     OW19510   0.773   5.556   4.988
 6204SOL    HW119511   0.859   5.567   4.939
 6204SOL    HW219512   0.717   5.638   4.976
 6205SOL     OW19513   6.062   6.268   0.838
 6205SOL    HW119514   6.148   6.281   0.887
 6205SOL    HW219515   5.998   6.218   0.896
 6206SOL     OW19516   0.176   1.262   3.295
 6206SOL    HW119517   0.261   1.266   3.347
 6206SOL    HW219518   0.102   1.229   3.354
 6207SOL     OW19519   1.366   5.030   4.925
 6207SOL    HW119520   1.416   4.946   4.905
 6207SOL    HW219521   1.318   5.061   4.843
 6208SOL     OW19522   5.919   1.644   6.198
 6208SOL    HW119523   5.929   1.577   6.273
 6208SOL    HW219524   5.977   1.616   6.121
 6209SOL     OW19525   4.637   5.901   0.153
 6209SOL    HW119526   4.635   5.961   0.073
 6209SOL    HW219527   4.616   5.954   0.235
 6210SOL     OW19528   5.129   3.455   3.247
 6210SOL    HW119529   5.153   3.359   3.233
 6210SOL    HW219530   5.042   3.460   3.296
 6211SOL     OW19531   3.174   6.095   5.376
 6211SOL    HW119532   3.212   6.181   5.411
 6211SOL    HW219533   3.084   6.113   5.334
 6212SOL     OW19534   1.614   5.377   3.698
 6212SOL    HW119535   1.629   5.462   3.749
 6212SOL    HW219536   1.518   5.349   3.709
 6213SOL     OW19537   5.788   0.324   0.230
 6213SOL    HW119538   5.771   0.275   0.316
 6213SOL    HW219539   5.883   0.310   0.202
 6214SOL     OW19540   5.060   4.695   4.545
 6214SOL    HW119541   5.049   4.641   4.628
 6214SOL    HW219542   4.975   4.695   4.493
 6215SOL     OW19543   4.279   1.377   0.560
 6215SOL    HW119544   4.277   1.290   0.511
 6215SOL    HW219545   4.280   1.361   0.658
 6216SOL     OW19546   5.822   1.452   2.063
 6216SOL    HW119547   5.803   1.449   2.161
 6216SOL    HW219548   5.920   1.445   2.048
 6217SOL     OW19549   0.088   3.556   2.769
 6217SOL    HW119550   0.024   3.558   2.692
 6217SOL    HW219551   0.084   3.466   2.812
 6218SOL     OW19552   3.923   5.763   6.279
 6218SOL    HW119553   4.000   5.777   6.341
 6218SOL    HW219554   3.897   5.666   6.279
 6219SOL     OW19555   0.677   2.778   4.221
 6219SOL    HW119556   0.749   2.709   4.233
 6219SOL    HW219557   0.608   2.765   4.292
 6220SOL     OW19558   1.925   2.113   5.304
 6220SOL    HW119559   1.852   2.167   5.346
 6220SOL    HW219560   1.897   2.085   5.212
 6221SOL     OW19561   5.843   5.411   6.882
 6221SOL    HW119562   5.837   5.415   6.982
 6221SOL    HW219563   5.859   5.317   6.853
 6222SOL     OW19564   0.719   6.801   1.779
 6222SOL    HW119565   0.806   6.841   1.808
 6222SOL    HW219566   0.726   6.772   1.684
 6223SOL     OW19567   0.520   4.953   4.310
 6223SOL    HW119568   0.535   4.854   4.305
 6223SOL    HW219569   0.431   4.975   4.271
 6224SOL     OW19570   2.555   1.990   6.037
 6224SOL    HW119571   2.597   2.080   6.024
 6224SOL    HW219572   2.624   1.924   6.064
 6225SOL     OW19573   3.546   3.933   6.510
 6225SOL    HW119574   3.564   4.031   6.518
 6225SOL    HW219575   3.549   3.906   6.414
 6226SOL     OW19576   6.642   1.670   5.211
 6226SOL    HW119577   6.544   1.662   5.226
 6226SOL    HW219578   6.685   1.713   5.290
 6227SOL     OW19579   3.790   6.024   5.247
 6227SOL    HW119580   3.798   5.978   5.336
 6227SOL    HW219581   3.734   5.968   5.186
 6228SOL     OW19582   1.380   2.502   3.020
 6228SOL    HW119583   1.403   2.465   2.930
 6228SOL    HW219584   1.366   2.427   3.085
 6229SOL     OW19585   0.334   2.140   3.128
 6229SOL    HW119586   0.404   2.070   3.119
 6229SOL    HW219587   0.247   2.098   3.150
 6230SOL     OW19588   1.206   1.665   3.793
 6230SOL    HW119589   1.155   1.724   3.730
 6230SOL    HW219590   1.183   1.569   3.775
 6231SOL     OW19591   6.228   6.078   1.355
 6231SOL    HW119592   6.279   6.162   1.374
 6231SOL    HW219593   6.164   6.061   1.430
 6232SOL     OW19594   6.811   0.277   1.084
 6232SOL    HW119595   6.882   0.296   1.016
 6232SOL    HW219596   6.744   0.352   1.084
 6233SOL     OW19597   6.755   0.718   0.991
 6233SOL    HW119598   6.806   0.740   1.074
 6233SOL    HW219599   6.715   0.627   1.000
 6234SOL     OW19600   6.171   1.035   5.792
 6234SOL    HW119601   6.137   1.127   5.769
 6234SOL    HW219602   6.256   1.043   5.844
 6235SOL     OW19603   1.161   6.552   1.346
 6235SOL    HW119604   1.126   6.516   1.433
 6235SOL    HW219605   1.105   6.518   1.271
 6236SOL     OW19606   0.668   3.594   0.712
 6236SOL    HW119607   0.643   3.676   0.661
 6236SOL    HW219608   0.680   3.517   0.649
 6237SOL     OW19609   3.474   0.065   6.415
 6237SOL    HW119610   3.470   0.109   6.505
 6237SOL    HW219611   3.392   0.010   6.400
 6238SOL     OW19612   3.747   4.875   2.642
 6238SOL    HW119613   3.690   4.957   2.651
 6238SOL    HW219614   3.820   4.878   2.710
 6239SOL     OW19615   2.198   0.488   1.829
 6239SOL    HW119616   2.101   0.498   1.803
 6239SOL    HW219617   2.207   0.498   1.928
 6240SOL     OW19618   1.919   2.877   5.467
 6240SOL    HW119619   1.904   2.780   5.486
 6240SOL    HW219620   1.922   2.928   5.553
 6241SOL     OW19621   3.660   6.841   1.754
 6241SOL    HW119622   3.586   6.898   1.790
 6241SOL    HW219623   3.748   6.882   1.777
 6242SOL     OW19624   4.810   0.265   4.025
 6242SOL    HW119625   4.826   0.322   3.944
 6242SOL    HW219626   4.712   0.261   4.044
 6243SOL     OW19627   6.352   6.351   4.235
 6243SOL    HW119628   6.310   6.435   4.269
 6243SOL    HW219629   6.348   6.350   4.136
 6244SOL     OW19630   0.122   2.618   1.481
 6244SOL    HW119631   0.191   2.569   1.535
 6244SOL    HW219632   0.166   2.689   1.427
 6245SOL     OW19633   1.610   4.239   0.358
 6245SOL    HW119634   1.666   4.321   0.362
 6245SOL    HW219635   1.668   4.159   0.342
 6246SOL     OW19636   2.344   2.223   5.816
 6246SOL    HW119637   2.432   2.224   5.768
 6246SOL    HW219638   2.275   2.180   5.757
 6247SOL     OW19639   0.759   6.329   4.651
 6247SOL    HW119640   0.771   6.337   4.552
 6247SOL    HW219641   0.661   6.323   4.672
 6248SOL     OW19642   4.060   2.975   0.545
 6248SOL    HW119643   3.981   3.023   0.507
 6248SOL    HW219644   4.029   2.909   0.614
 6249SOL     OW19645   0.976   4.072   0.950
 6249SOL    HW119646   0.876   4.074   0.957
 6249SOL    HW219647   1.005   3.981   0.920
 6250SOL     OW19648   6.826   6.577   0.109
 6250SOL    HW119649   6.827   6.480   0.135
 6250SOL    HW219650   6.896   6.626   0.161
 6251SOL     OW19651   4.224   5.575   6.390
 6251SOL    HW119652   4.310   5.532   6.418
 6251SOL    HW219653   4.189   5.529   6.309
 6252SOL     OW19654   1.897   6.153   5.441
 6252SOL    HW119655   1.842   6.237   5.438
 6252SOL    HW219656   1.852   6.082   5.387
 6253SOL     OW19657   2.383   4.315   3.375
 6253SOL    HW119658   2.313   4.356   3.316
 6253SOL    HW219659   2.391   4.218   3.355
 6254SOL     OW19660   5.304   1.684   1.450
 6254SOL    HW119661   5.213   1.642   1.442
 6254SOL    HW219662   5.352   1.674   1.363
 6255SOL     OW19663   3.248   0.358   1.132
 6255SOL    HW119664   3.264   0.452   1.102
 6255SOL    HW219665   3.194   0.310   1.063
 6256SOL     OW19666   3.330   5.250   1.880
 6256SOL    HW119667   3.251   5.311   1.873
 6256SOL    HW219668   3.381   5.253   1.794
 6257SOL     OW19669   4.849   2.040   0.957
 6257SOL    HW119670   4.846   2.134   0.993
 6257SOL    HW219671   4.938   1.999   0.980
 6258SOL     OW19672   3.854   0.102   4.049
 6258SOL    HW119673   3.882   0.189   4.090
 6258SOL    HW219674   3.756   0.088   4.064
 6259SOL     OW19675   2.302   2.533   0.128
 6259SOL    HW119676   2.280   2.574   0.040
 6259SOL    HW219677   2.248   2.578   0.200
 6260SOL     OW19678   3.150   5.411   7.020
 6260SOL    HW119679   3.248   5.418   0.015
 6260SOL    HW219680   3.103   5.372   0.076
 6261SOL     OW19681   3.444   1.180   6.766
 6261SOL    HW119682   3.369   1.214   6.709
 6261SOL    HW219683   3.438   1.222   6.857
 6262SOL     OW19684   2.660   6.347   1.221
 6262SOL    HW119685   2.645   6.258   1.176
 6262SOL    HW219686   2.669   6.333   1.319
 6263SOL     OW19687   6.558   0.800   5.407
 6263SOL    HW119688   6.546   0.885   5.357
 6263SOL    HW219689   6.652   0.769   5.398
 6264SOL     OW19690   1.420   6.938   2.354
 6264SOL    HW119691   1.449   6.873   2.424
 6264SOL    HW219692   1.500   6.983   2.314
 6265SOL     OW19693   3.768   3.729   0.278
 6265SOL    HW119694   3.827   3.810   0.282
 6265SOL    HW219695   3.673   3.758   0.269
 6266SOL     OW19696   4.031   1.101   4.795
 6266SOL    HW119697   4.039   1.104   4.894
 6266SOL    HW219698   3.954   1.157   4.765
 6267SOL     OW19699   2.392   0.170   6.206
 6267SOL    HW119700   2.346   0.090   6.245
 6267SOL    HW219701   2.488   0.148   6.189
 6268SOL     OW19702   2.499   0.249   3.351
 6268SOL    HW119703   2.515   0.317   3.279
 6268SOL    HW219704   2.436   0.179   3.317
 6269SOL     OW19705   6.864   6.429   1.972
 6269SOL    HW119706   6.959   6.410   1.948
 6269SOL    HW219707   6.808   6.426   1.889
 6270SOL     OW19708   1.741   0.009   5.400
 6270SOL    HW119709   1.817   7.013   5.338
 6270SOL    HW219710   1.704   0.100   5.380
 6271SOL     OW19711   6.670   2.334   6.622
 6271SOL    HW119712   6.580   2.350   6.662
 6271SOL    HW219713   6.728   2.288   6.690
 6272SOL     OW19714   0.456   2.821   0.130
 6272SOL    HW119715   0.437   2.804   0.033
 6272SOL    HW219716   0.401   2.758   0.186
 6273SOL     OW19717   1.170   6.494   2.554
 6273SOL    HW119718   1.226   6.502   2.472
 6273SOL    HW219719   1.124   6.406   2.555
 6274SOL     OW19720   3.159   5.549   5.826
 6274SOL    HW119721   3.218   5.500   5.891
 6274SOL    HW219722   3.096   5.484   5.783
 6275SOL     OW19723   2.413   6.133   6.317
 6275SOL    HW119724   2.492   6.134   6.377
 6275SOL    HW219725   2.372   6.041   6.317
 6276SOL     OW19726   1.583   4.277   3.190
 6276SOL    HW119727   1.501   4.242   3.144
 6276SOL    HW219728   1.579   4.254   3.287
 6277SOL     OW19729   5.230   3.864   2.083
 6277SOL    HW119730   5.329   3.877   2.070
 6277SOL    HW219731   5.192   3.944   2.130
 6278SOL     OW19732   5.022   6.112   4.810
 6278SOL    HW119733   5.090   6.056   4.858
 6278SOL    HW219734   4.983   6.179   4.873
 6279SOL     OW19735   3.886   0.039   6.631
 6279SOL    HW119736   3.872   7.001   6.709
 6279SOL    HW219737   3.959   0.004   6.573
 6280SOL     OW19738   1.060   2.071   5.225
 6280SOL    HW119739   1.105   2.151   5.265
 6280SOL    HW219740   1.085   2.063   5.128
 6281SOL     OW19741   0.834   5.255   4.004
 6281SOL    HW119742   0.824   5.167   4.051
 6281SOL    HW219743   0.804   5.329   4.064
 6282SOL     OW19744   0.738   6.378   5.239
 6282SOL    HW119745   0.794   6.326   5.174
 6282SOL    HW219746   0.772   6.472   5.244
 6283SOL     OW19747   6.078   3.376   5.129
 6283SOL    HW119748   6.145   3.311   5.164
 6283SOL    HW219749   6.113   3.469   5.140
 6284SOL     OW19750   1.036   5.544   4.917
 6284SOL    HW119751   1.094   5.537   4.998
 6284SOL    HW219752   1.056   5.468   4.856
 6285SOL     OW19753   0.462   3.558   4.854
 6285SOL    HW119754   0.463   3.584   4.951
 6285SOL    HW219755   0.416   3.469   4.844
 6286SOL     OW19756   5.921   1.518   3.514
 6286SOL    HW119757   5.992   1.447   3.505
 6286SOL    HW219758   5.894   1.526   3.610
 6287SOL     OW19759   3.676   4.897   4.205
 6287SOL    HW119760   3.754   4.893   4.143
 6287SOL    HW219761   3.595   4.930   4.156
 6288SOL     OW19762   4.914   4.408   2.946
 6288SOL    HW119763   4.971   4.329   2.967
 6288SOL    HW219764   4.926   4.477   3.018
 6289SOL     OW19765   2.255   4.711   0.983
 6289SOL    HW119766   2.184   4.753   1.040
 6289SOL    HW219767   2.342   4.760   0.997
 6290SOL     OW19768   6.857   4.912   5.411
 6290SOL    HW119769   6.760   4.902   5.391
 6290SOL    HW219770   6.872   4.909   5.510
 6291SOL     OW19771   3.945   3.557   4.633
 6291SOL    HW119772   4.021   3.532   4.694
 6291SOL    HW219773   3.907   3.474   4.592
 6292SOL     OW19774   1.527   2.056   4.374
 6292SOL    HW119775   1.474   2.070   4.290
 6292SOL    HW219776   1.622   2.036   4.350
 6293SOL     OW19777   3.350   0.930   0.325
 6293SOL    HW119778   3.312   0.865   0.390
 6293SOL    HW219779   3.450   0.928   0.329
 6294SOL     OW19780   4.232   5.800   4.101
 6294SOL    HW119781   4.169   5.816   4.025
 6294SOL    HW219782   4.195   5.728   4.160
 6295SOL     OW19783   5.225   4.687   6.287
 6295SOL    HW119784   5.251   4.668   6.382
 6295SOL    HW219785   5.258   4.778   6.261
 6296SOL     OW19786   0.845   6.596   5.810
 6296SOL    HW119787   0.938   6.628   5.792
 6296SOL    HW219788   0.779   6.667   5.783
 6297SOL     OW19789   4.786   6.975   3.952
 6297SOL    HW119790   4.883   6.988   3.930
 6297SOL    HW219791   4.775   6.969   4.051
 6298SOL     OW19792   1.588   2.362   6.555
 6298SOL    HW119793   1.503   2.385   6.601
 6298SOL    HW219794   1.577   2.276   6.505
 6299SOL     OW19795   5.616   2.280   0.431
 6299SOL    HW119796   5.656   2.372   0.440
 6299SOL    HW219797   5.541   2.270   0.495
 6300SOL     OW19798   6.291   0.636   0.423
 6300SOL    HW119799   6.284   0.539   0.446
 6300SOL    HW219800   6.208   0.683   0.453
 6301SOL     OW19801   3.921   6.911   6.960
 6301SOL    HW119802   3.884   6.998   6.993
 6301SOL    HW219803   4.020   6.909   6.976
 6302SOL     OW19804   1.721   0.902   3.143
 6302SOL    HW119805   1.784   0.973   3.114
 6302SOL    HW219806   1.681   0.858   3.063
 6303SOL     OW19807   2.241   1.364   4.080
 6303SOL    HW119808   2.224   1.447   4.132
 6303SOL    HW219809   2.157   1.336   4.033
 6304SOL     OW19810   2.295   0.611   1.430
 6304SOL    HW119811   2.274   0.516   1.452
 6304SOL    HW219812   2.358   0.648   1.499
 6305SOL     OW19813   6.556   6.811   1.266
 6305SOL    HW119814   6.618   6.831   1.189
 6305SOL    HW219815   6.462   6.807   1.232
 6306SOL     OW19816   0.756   4.254   3.906
 6306SOL    HW119817   0.700   4.251   3.989
 6306SOL    HW219818   0.847   4.289   3.928
 6307SOL     OW19819   3.642   4.448   5.262
 6307SOL    HW119820   3.680   4.397   5.339
 6307SOL    HW219821   3.554   4.487   5.288
 6308SOL     OW19822   2.050   2.259   4.527
 6308SOL    HW119823   2.098   2.339   4.491
 6308SOL    HW219824   2.051   2.262   4.627
 6309SOL     OW19825   5.601   4.743   5.206
 6309SOL    HW119826   5.539   4.664   5.204
 6309SOL    HW219827   5.599   4.784   5.297
 6310SOL     OW19828   1.796   6.057   2.521
 6310SOL    HW119829   1.714   6.111   2.540
 6310SOL    HW219830   1.786   6.009   2.434
 6311SOL     OW19831   4.707   1.035   6.172
 6311SOL    HW119832   4.689   1.134   6.177
 6311SOL    HW219833   4.686   1.002   6.080
 6312SOL     OW19834   6.155   6.255   5.353
 6312SOL    HW119835   6.212   6.309   5.414
 6312SOL    HW219836   6.166   6.287   5.259
 6313SOL     OW19837   0.476   6.349   4.680
 6313SOL    HW119838   0.415   6.348   4.760
 6313SOL    HW219839   0.422   6.334   4.597
 6314SOL     OW19840   3.773   6.608   1.918
 6314SOL    HW119841   3.677   6.618   1.942
 6314SOL    HW219842   3.807   6.694   1.880
 6315SOL     OW19843   1.955   2.428   5.331
 6315SOL    HW119844   1.916   2.464   5.247
 6315SOL    HW219845   2.021   2.356   5.309
 6316SOL     OW19846   5.011   1.723   6.977
 6316SOL    HW119847   4.966   1.648   6.928
 6316SOL    HW219848   5.036   1.794   6.912
 6317SOL     OW19849   4.486   5.398   1.703
 6317SOL    HW119850   4.440   5.406   1.614
 6317SOL    HW219851   4.550   5.321   1.701
 6318SOL     OW19852   3.804   1.089   5.476
 6318SOL    HW119853   3.830   1.166   5.535
 6318SOL    HW219854   3.735   1.034   5.523
 6319SOL     OW19855   6.170   1.329   4.841
 6319SOL    HW119856   6.189   1.399   4.773
 6319SOL    HW219857   6.084   1.349   4.887
 6320SOL     OW19858   5.740   6.389   5.184
 6320SOL    HW119859   5.747   6.332   5.102
 6320SOL    HW219860   5.647   6.425   5.191
 6321SOL     OW19861   3.284   3.256   1.304
 6321SOL    HW119862   3.255   3.172   1.350
 6321SOL    HW219863   3.327   3.317   1.371
 6322SOL     OW19864   1.653   2.312   0.684
 6322SOL    HW119865   1.627   2.224   0.644
 6322SOL    HW219866   1.708   2.363   0.618
 6323SOL     OW19867   3.068   2.743   1.750
 6323SOL    HW119868   3.060   2.679   1.674
 6323SOL    HW219869   3.047   2.696   1.836
 6324SOL     OW19870   5.213   0.303   6.674
 6324SOL    HW119871   5.302   0.300   6.629
 6324SOL    HW219872   5.164   0.217   6.658
 6325SOL     OW19873   1.987   2.002   2.428
 6325SOL    HW119874   1.995   2.051   2.515
 6325SOL    HW219875   1.894   1.969   2.417
 6326SOL     OW19876   4.689   5.206   1.692
 6326SOL    HW119877   4.756   5.179   1.624
 6326SOL    HW219878   4.674   5.130   1.756
 6327SOL     OW19879   6.537   0.592   4.708
 6327SOL    HW119880   6.609   0.566   4.644
 6327SOL    HW219881   6.450   0.601   4.659
 6328SOL     OW19882   3.387   3.411   0.655
 6328SOL    HW119883   3.288   3.424   0.653
 6328SOL    HW219884   3.410   3.341   0.723
 6329SOL     OW19885   2.204   2.406   3.693
 6329SOL    HW119886   2.144   2.478   3.657
 6329SOL    HW219887   2.229   2.428   3.787
 6330SOL     OW19888   5.227   0.789   1.153
 6330SOL    HW119889   5.243   0.873   1.100
 6330SOL    HW219890   5.235   0.810   1.251
 6331SOL     OW19891   6.695   2.664   5.264
 6331SOL    HW119892   6.695   2.735   5.334
 6331SOL    HW219893   6.723   2.703   5.176
 6332SOL     OW19894   7.011   3.688   1.251
 6332SOL    HW119895   6.972   3.776   1.278
 6332SOL    HW219896   0.008   3.634   1.332
 6333SOL     OW19897   4.447   6.019   4.901
 6333SOL    HW119898   4.524   6.065   4.944
 6333SOL    HW219899   4.445   5.923   4.930
 6334SOL     OW19900   3.124   0.516   2.098
 6334SOL    HW119901   3.136   0.554   2.189
 6334SOL    HW219902   3.062   0.573   2.045
 6335SOL     OW19903   3.626   0.611   0.433
 6335SOL    HW119904   3.605   0.680   0.502
 6335SOL    HW219905   3.550   0.604   0.368
 6336SOL     OW19906   0.816   2.000   5.853
 6336SOL    HW119907   0.785   2.051   5.933
 6336SOL    HW219908   0.876   2.058   5.797
 6337SOL     OW19909   5.098   4.846   5.921
 6337SOL    HW119910   5.112   4.942   5.898
 6337SOL    HW219911   5.180   4.810   5.966
 6338SOL     OW19912   3.354   1.795   4.609
 6338SOL    HW119913   3.296   1.775   4.689
 6338SOL    HW219914   3.422   1.723   4.599
 6339SOL     OW19915   1.191   3.559   3.211
 6339SOL    HW119916   1.110   3.618   3.209
 6339SOL    HW219917   1.253   3.590   3.283
 6340SOL     OW19918   1.548   5.161   2.634
 6340SOL    HW119919   1.568   5.069   2.668
 6340SOL    HW219920   1.528   5.157   2.536
 6341SOL     OW19921   0.937   4.330   4.403
 6341SOL    HW119922   0.906   4.364   4.492
 6341SOL    HW219923   1.032   4.300   4.411
 6342SOL     OW19924   1.822   1.491   1.780
 6342SOL    HW119925   1.913   1.469   1.814
 6342SOL    HW219926   1.824   1.501   1.680
 6343SOL     OW19927   5.074   2.358   6.983
 6343SOL    HW119928   4.998   2.407   6.940
 6343SOL    HW219929   5.138   2.424   0.000
 6344SOL     OW19930   5.925   3.423   4.513
 6344SOL    HW119931   5.929   3.506   4.457
 6344SOL    HW219932   6.003   3.365   4.491
 6345SOL     OW19933   5.927   2.736   2.293
 6345SOL    HW119934   5.879   2.819   2.264
 6345SOL    HW219935   5.943   2.678   2.214
 6346SOL     OW19936   6.494   5.297   3.812
 6346SOL    HW119937   6.489   5.199   3.795
 6346SOL    HW219938   6.479   5.315   3.909
 6347SOL     OW19939   2.102   0.158   0.311
 6347SOL    HW119940   2.131   0.104   0.232
 6347SOL    HW219941   2.039   0.230   0.280
 6348SOL     OW19942   0.670   3.823   5.534
 6348SOL    HW119943   0.743   3.823   5.466
 6348SOL    HW219944   0.694   3.883   5.610
 6349SOL     OW19945   2.099   0.360   1.476
 6349SOL    HW119946   2.160   0.299   1.526
 6349SOL    HW219947   2.026   0.392   1.537
 6350SOL     OW19948   1.144   5.605   3.989
 6350SOL    HW119949   1.214   5.571   4.052
 6350SOL    HW219950   1.154   5.559   3.901
 6351SOL     OW19951   6.540   4.080   3.585
 6351SOL    HW119952   6.627   4.125   3.569
 6351SOL    HW219953   6.550   3.982   3.571
 6352SOL     OW19954   3.914   6.140   4.780
 6352SOL    HW119955   3.935   6.084   4.860
 6352SOL    HW219956   3.986   6.129   4.712
 6353SOL     OW19957   0.580   6.912   6.154
 6353SOL    HW119958   0.599   6.985   6.089
 6353SOL    HW219959   0.654   6.909   6.222
 6354SOL     OW19960   2.107   5.835   2.653
 6354SOL    HW119961   2.181   5.823   2.719
 6354SOL    HW219962   2.063   5.924   2.667
 6355SOL     OW19963   0.839   5.361   6.890
 6355SOL    HW119964   0.764   5.403   6.941
 6355SOL    HW219965   0.803   5.289   6.831
 6356SOL     OW19966   4.459   5.754   2.052
 6356SOL    HW119967   4.525   5.798   1.991
 6356SOL    HW219968   4.387   5.711   1.998
 6357SOL     OW19969   5.983   3.441   2.917
 6357SOL    HW119970   5.941   3.504   2.851
 6357SOL    HW219971   6.078   3.424   2.891
 6358SOL     OW19972   0.653   2.125   6.330
 6358SOL    HW119973   0.586   2.070   6.380
 6358SOL    HW219974   0.739   2.075   6.322
 6359SOL     OW19975   5.578   6.742   6.792
 6359SOL    HW119976   5.651   6.685   6.755
 6359SOL    HW219977   5.612   6.836   6.803
 6360SOL     OW19978   1.304   4.313   3.716
 6360SOL    HW119979   1.231   4.308   3.784
 6360SOL    HW219980   1.392   4.317   3.762
 6361SOL     OW19981   0.602   0.117   1.753
 6361SOL    HW119982   0.584   0.072   1.665
 6361SOL    HW219983   0.634   0.211   1.737
 6362SOL     OW19984   6.511   6.036   0.140
 6362SOL    HW119985   6.566   6.117   0.123
 6362SOL    HW219986   6.502   5.983   0.055
 6363SOL     OW19987   1.666   4.875   3.267
 6363SOL    HW119988   1.642   4.840   3.357
 6363SOL    HW219989   1.692   4.799   3.207
 6364SOL     OW19990   2.853   1.514   6.125
 6364SOL    HW119991   2.785   1.468   6.182
 6364SOL    HW219992   2.901   1.583   6.180
 6365SOL     OW19993   5.631   0.157   4.260
 6365SOL    HW119994   5.636   0.253   4.232
 6365SOL    HW219995   5.535   0.132   4.275
 6366SOL     OW19996   0.815   6.207   6.192
 6366SOL    HW119997   0.896   6.232   6.244
 6366SOL    HW219998   0.786   6.286   6.137
 6367SOL     OW19999   4.498   1.434   5.539
 6367SOL    HW120000   4.468   1.530   5.537
 6367SOL    HW220001   4.418   1.375   5.552
 6368SOL     OW20002   3.740   4.878   3.430
 6368SOL    HW120003   3.760   4.973   3.453
 6368SOL    HW220004   3.698   4.873   3.339
 6369SOL     OW20005   2.380   5.515   3.303
 6369SOL    HW120006   2.426   5.552   3.222
 6369SOL    HW220007   2.448   5.495   3.373
 6370SOL     OW20008   0.571   3.243   3.420
 6370SOL    HW120009   0.501   3.172   3.429
 6370SOL    HW220010   0.633   3.237   3.499
 6371SOL     OW20011   5.020   4.505   3.838
 6371SOL    HW120012   5.106   4.466   3.806
 6371SOL    HW220013   4.975   4.553   3.763
 6372SOL     OW20014   1.883   0.637   1.985
 6372SOL    HW120015   1.969   0.589   1.967
 6372SOL    HW220016   1.855   0.688   1.904
 6373SOL     OW20017   4.899   3.610   2.659
 6373SOL    HW120018   4.866   3.522   2.626
 6373SOL    HW220019   4.877   3.619   2.756
 6374SOL     OW20020   3.057   3.925   3.626
 6374SOL    HW120021   3.062   3.826   3.635
 6374SOL    HW220022   3.013   3.948   3.539
 6375SOL     OW20023   0.013   2.279   3.794
 6375SOL    HW120024   6.957   2.231   3.755
 6375SOL    HW220025   0.010   2.271   3.893
 6376SOL     OW20026   6.035   2.411   4.676
 6376SOL    HW120027   6.126   2.402   4.716
 6376SOL    HW220028   5.983   2.328   4.691
 6377SOL     OW20029   6.084   1.882   5.424
 6377SOL    HW120030   6.102   1.965   5.372
 6377SOL    HW220031   6.165   1.859   5.479
 6378SOL     OW20032   4.255   5.270   4.005
 6378SOL    HW120033   4.344   5.254   4.047
 6378SOL    HW220034   4.267   5.306   3.912
 6379SOL     OW20035   1.644   3.823   4.247
 6379SOL    HW120036   1.642   3.887   4.324
 6379SOL    HW220037   1.589   3.742   4.269
 6380SOL     OW20038   0.456   1.772   5.518
 6380SOL    HW120039   0.513   1.694   5.491
 6380SOL    HW220040   0.360   1.751   5.498
 6381SOL     OW20041   4.026   3.336   1.655
 6381SOL    HW120042   4.037   3.250   1.706
 6381SOL    HW220043   4.010   3.316   1.558
 6382SOL     OW20044   1.243   1.958   0.947
 6382SOL    HW120045   1.341   1.943   0.953
 6382SOL    HW220046   1.199   1.930   1.033
 6383SOL     OW20047   1.574   1.884   2.646
 6383SOL    HW120048   1.574   1.804   2.705
 6383SOL    HW220049   1.532   1.961   2.694
 6384SOL     OW20050   6.055   4.029   1.851
 6384SOL    HW120051   6.117   3.956   1.821
 6384SOL    HW220052   6.033   4.015   1.947
 6385SOL     OW20053   0.192   4.370   3.981
 6385SOL    HW120054   0.121   4.307   3.949
 6385SOL    HW220055   0.261   4.382   3.910
 6386SOL     OW20056   2.189   4.554   5.884
 6386SOL    HW120057   2.257   4.512   5.823
 6386SOL    HW220058   2.104   4.501   5.881
 6387SOL     OW20059   0.299   1.789   6.403
 6387SOL    HW120060   0.199   1.786   6.402
 6387SOL    HW220061   0.334   1.787   6.309
 6388SOL     OW20062   3.566   4.897   1.521
 6388SOL    HW120063   3.640   4.830   1.528
 6388SOL    HW220064   3.478   4.850   1.519
 6389SOL     OW20065   0.644   5.758   2.027
 6389SOL    HW120066   0.705   5.825   2.069
 6389SOL    HW220067   0.591   5.711   2.099
 6390SOL     OW20068   1.142   1.001   6.002
 6390SOL    HW120069   1.145   1.094   6.039
 6390SOL    HW220070   1.170   0.936   6.073
 6391SOL     OW20071   2.427   6.974   5.839
 6391SOL    HW120072   2.417   6.926   5.926
 6391SOL    HW220073   2.429   0.049   5.855
 6392SOL     OW20074   2.501   5.670   2.607
 6392SOL    HW120075   2.481   5.746   2.545
 6392SOL    HW220076   2.495   5.701   2.701
 6393SOL     OW20077   6.678   0.031   2.494
 6393SOL    HW120078   6.778   0.030   2.492
 6393SOL    HW220079   6.643   6.964   2.472
 6394SOL     OW20080   2.157   5.220   0.677
 6394SOL    HW120081   2.097   5.227   0.756
 6394SOL    HW220082   2.220   5.298   0.676
 6395SOL     OW20083   6.951   2.268   0.868
 6395SOL    HW120084   6.922   2.201   0.800
 6395SOL    HW220085   6.910   2.357   0.847
 6396SOL     OW20086   4.396   3.210   6.046
 6396SOL    HW120087   4.319   3.155   6.015
 6396SOL    HW220088   4.415   3.282   5.979
 6397SOL     OW20089   5.568   2.278   7.011
 6397SOL    HW120090   5.522   2.235   0.065
 6397SOL    HW220091   5.592   2.372   0.011
 6398SOL     OW20092   2.391   6.760   1.599
 6398SOL    HW120093   2.360   6.767   1.504
 6398SOL    HW220094   2.464   6.691   1.605
 6399SOL     OW20095   1.551   6.388   6.739
 6399SOL    HW120096   1.591   6.307   6.697
 6399SOL    HW220097   1.507   6.444   6.669
 6400SOL     OW20098   2.377   6.490   2.133
 6400SOL    HW120099   2.336   6.448   2.214
 6400SOL    HW220100   2.359   6.433   2.053
 6401SOL     OW20101   5.671   4.903   3.541
 6401SOL    HW120102   5.643   4.926   3.634
 6401SOL    HW220103   5.603   4.842   3.500
 6402SOL     OW20104   3.438   1.864   3.072
 6402SOL    HW120105   3.455   1.951   3.118
 6402SOL    HW220106   3.342   1.858   3.047
 6403SOL     OW20107   6.655   6.395   6.929
 6403SOL    HW120108   6.743   6.405   6.884
 6403SOL    HW220109   6.591   6.464   6.895
 6404SOL     OW20110   4.097   1.655   2.093
 6404SOL    HW120111   4.069   1.703   2.011
 6404SOL    HW220112   4.158   1.713   2.148
 6405SOL     OW20113   2.970   0.393   3.966
 6405SOL    HW120114   2.873   0.389   3.946
 6405SOL    HW220115   2.993   0.322   4.033
 6406SOL     OW20116   1.009   2.588   2.737
 6406SOL    HW120117   0.932   2.575   2.800
 6406SOL    HW220118   1.069   2.508   2.740
 6407SOL     OW20119   2.641   5.909   4.307
 6407SOL    HW120120   2.690   5.870   4.228
 6407SOL    HW220121   2.572   5.844   4.337
 6408SOL     OW20122   5.870   2.087   6.875
 6408SOL    HW120123   5.797   2.127   6.819
 6408SOL    HW220124   5.954   2.081   6.821
 6409SOL     OW20125   0.103   4.628   3.647
 6409SOL    HW120126   0.188   4.640   3.597
 6409SOL    HW220127   0.046   4.710   3.637
 6410SOL     OW20128   1.447   1.771   0.440
 6410SOL    HW120129   1.522   1.797   0.501
 6410SOL    HW220130   1.476   1.695   0.383
 6411SOL     OW20131   0.978   2.575   3.211
 6411SOL    HW120132   1.036   2.618   3.143
 6411SOL    HW220133   1.033   2.551   3.292
 6412SOL     OW20134   0.902   2.336   5.491
 6412SOL    HW120135   0.866   2.407   5.551
 6412SOL    HW220136   0.992   2.306   5.524
 6413SOL     OW20137   4.274   4.736   3.901
 6413SOL    HW120138   4.266   4.739   4.001
 6413SOL    HW220139   4.185   4.753   3.860
 6414SOL     OW20140   5.814   0.968   0.619
 6414SOL    HW120141   5.755   0.933   0.547
 6414SOL    HW220142   5.892   1.016   0.578
 6415SOL     OW20143   2.045   2.755   3.117
 6415SOL    HW120144   2.126   2.810   3.140
 6415SOL    HW220145   2.047   2.733   3.019
 6416SOL     OW20146   1.068   1.258   6.716
 6416SOL    HW120147   1.032   1.348   6.696
 6416SOL    HW220148   1.126   1.227   6.640
 6417SOL     OW20149   6.718   5.060   1.315
 6417SOL    HW120150   6.789   5.113   1.361
 6417SOL    HW220151   6.721   5.078   1.217
 6418SOL     OW20152   4.698   4.051   1.799
 6418SOL    HW120153   4.787   4.075   1.838
 6418SOL    HW220154   4.636   4.128   1.811
 6419SOL     OW20155   2.229   4.465   3.200
 6419SOL    HW120156   2.302   4.521   3.161
 6419SOL    HW220157   2.177   4.519   3.266
 6420SOL     OW20158   3.269   5.146   4.804
 6420SOL    HW120159   3.283   5.112   4.711
 6420SOL    HW220160   3.303   5.240   4.810
 6421SOL     OW20161   4.783   0.408   2.887
 6421SOL    HW120162   4.817   0.393   2.980
 6421SOL    HW220163   4.797   0.503   2.862
 6422SOL     OW20164   0.104   1.029   4.370
 6422SOL    HW120165   0.060   1.118   4.358
 6422SOL    HW220166   0.054   0.976   4.438
 6423SOL     OW20167   4.469   5.565   2.983
 6423SOL    HW120168   4.421   5.628   3.045
 6423SOL    HW220169   4.504   5.615   2.905
 6424SOL     OW20170   6.861   6.175   6.223
 6424SOL    HW120171   6.861   6.139   6.129
 6424SOL    HW220172   6.947   6.150   6.267
 6425SOL     OW20173   6.484   6.339   2.838
 6425SOL    HW120174   6.575   6.366   2.808
 6425SOL    HW220175   6.416   6.401   2.800
 6426SOL     OW20176   1.186   5.184   2.730
 6426SOL    HW120177   1.159   5.113   2.794
 6426SOL    HW220178   1.260   5.150   2.672
 6427SOL     OW20179   3.634   3.261   4.757
 6427SOL    HW120180   3.597   3.224   4.842
 6427SOL    HW220181   3.640   3.361   4.763
 6428SOL     OW20182   5.746   3.606   6.357
 6428SOL    HW120183   5.741   3.706   6.366
 6428SOL    HW220184   5.769   3.582   6.262
 6429SOL     OW20185   1.885   1.685   6.335
 6429SOL    HW120186   1.940   1.728   6.407
 6429SOL    HW220187   1.813   1.630   6.376
 6430SOL     OW20188   6.001   1.151   2.185
 6430SOL    HW120189   5.972   1.073   2.130
 6430SOL    HW220190   5.923   1.187   2.235
 6431SOL     OW20191   5.074   6.988   3.860
 6431SOL    HW120192   5.068   6.922   3.935
 6431SOL    HW220193   5.105   0.053   3.896
 6432SOL     OW20194   3.975   3.872   6.740
 6432SOL    HW120195   4.040   3.835   6.673
 6432SOL    HW220196   3.919   3.797   6.776
 6433SOL     OW20197   2.519   4.628   6.686
 6433SOL    HW120198   2.486   4.540   6.654
 6433SOL    HW220199   2.486   4.700   6.625
 6434SOL     OW20200   2.266   4.583   0.231
 6434SOL    HW120201   2.323   4.511   0.191
 6434SOL    HW220202   2.318   4.629   0.304
 6435SOL     OW20203   4.808   6.643   0.337
 6435SOL    HW120204   4.841   6.549   0.329
 6435SOL    HW220205   4.813   6.672   0.432
 6436SOL     OW20206   2.183   3.129   3.515
 6436SOL    HW120207   2.229   3.048   3.479
 6436SOL    HW220208   2.197   3.133   3.615
 6437SOL     OW20209   2.327   1.769   1.045
 6437SOL    HW120210   2.368   1.774   0.954
 6437SOL    HW220211   2.273   1.852   1.061
 6438SOL     OW20212   6.693   4.742   6.309
 6438SOL    HW120213   6.750   4.696   6.377
 6438SOL    HW220214   6.636   4.675   6.262
 6439SOL     OW20215   5.664   1.089   1.554
 6439SOL    HW120216   5.638   1.185   1.563
 6439SOL    HW220217   5.615   1.035   1.622
 6440SOL     OW20218   2.415   1.505   6.427
 6440SOL    HW120219   2.434   1.591   6.473
 6440SOL    HW220220   2.357   1.522   6.347
 6441SOL     OW20221   0.117   6.448   1.969
 6441SOL    HW120222   0.140   6.423   2.063
 6441SOL    HW220223   0.119   6.548   1.960
 6442SOL     OW20224   2.079   0.697   4.587
 6442SOL    HW120225   1.994   0.644   4.589
 6442SOL    HW220226   2.147   0.649   4.532
 6443SOL     OW20227   4.008   2.401   5.367
 6443SOL    HW120228   4.043   2.463   5.297
 6443SOL    HW220229   3.950   2.332   5.324
 6444SOL     OW20230   6.449   3.104   4.069
 6444SOL    HW120231   6.489   3.013   4.076
 6444SOL    HW220232   6.413   3.133   4.157
 6445SOL     OW20233   4.151   3.415   5.430
 6445SOL    HW120234   4.185   3.389   5.521
 6445SOL    HW220235   4.209   3.488   5.393
 6446SOL     OW20236   1.845   1.257   6.651
 6446SOL    HW120237   1.912   1.229   6.720
 6446SOL    HW220238   1.753   1.232   6.682
 6447SOL     OW20239   5.359   5.055   3.247
 6447SOL    HW120240   5.358   5.154   3.236
 6447SOL    HW220241   5.282   5.015   3.196
 6448SOL     OW20242   4.159   5.675   2.102
 6448SOL    HW120243   4.190   5.585   2.069
 6448SOL    HW220244   4.079   5.662   2.161
 6449SOL     OW20245   3.294   4.884   0.511
 6449SOL    HW120246   3.392   4.879   0.495
 6449SOL    HW220247   3.273   4.847   0.602
 6450SOL     OW20248   1.301   3.905   0.970
 6450SOL    HW120249   1.358   3.957   0.907
 6450SOL    HW220250   1.209   3.895   0.932
 6451SOL     OW20251   2.689   0.530   4.835
 6451SOL    HW120252   2.720   0.507   4.927
 6451SOL    HW220253   2.766   0.562   4.780
 6452SOL     OW20254   3.926   6.541   4.409
 6452SOL    HW120255   3.995   6.476   4.441
 6452SOL    HW220256   3.924   6.620   4.470
 6453SOL     OW20257   2.557   6.157   1.042
 6453SOL    HW120258   2.608   6.101   0.977
 6453SOL    HW220259   2.515   6.097   1.111
 6454SOL     OW20260   2.004   1.739   3.600
 6454SOL    HW120261   2.042   1.649   3.578
 6454SOL    HW220262   1.937   1.731   3.674
 6455SOL     OW20263   0.431   2.777   3.882
 6455SOL    HW120264   0.456   2.688   3.845
 6455SOL    HW220265   0.397   2.836   3.808
 6456SOL     OW20266   1.557   0.964   3.561
 6456SOL    HW120267   1.648   0.936   3.530
 6456SOL    HW220268   1.537   0.920   3.648
 6457SOL     OW20269   5.464   1.573   0.831
 6457SOL    HW120270   5.372   1.603   0.858
 6457SOL    HW220271   5.533   1.626   0.880
 6458SOL     OW20272   0.576   6.832   3.772
 6458SOL    HW120273   0.578   6.903   3.842
 6458SOL    HW220274   0.522   6.754   3.806
 6459SOL     OW20275   6.195   3.853   0.248
 6459SOL    HW120276   6.246   3.856   0.334
 6459SOL    HW220277   6.177   3.946   0.217
 6460SOL     OW20278   5.293   6.352   5.844
 6460SOL    HW120279   5.340   6.270   5.876
 6460SOL    HW220280   5.276   6.414   5.921
 6461SOL     OW20281   2.336   4.839   5.774
 6461SOL    HW120282   2.304   4.914   5.717
 6461SOL    HW220283   2.275   4.760   5.763
 6462SOL     OW20284   2.539   2.526   4.659
 6462SOL    HW120285   2.491   2.438   4.652
 6462SOL    HW220286   2.580   2.548   4.571
 6463SOL     OW20287   6.469   3.672   6.505
 6463SOL    HW120288   6.452   3.762   6.543
 6463SOL    HW220289   6.399   3.650   6.438
 6464SOL     OW20290   1.269   6.091   4.523
 6464SOL    HW120291   1.340   6.129   4.463
 6464SOL    HW220292   1.247   5.999   4.493
 6465SOL     OW20293   6.605   2.890   3.041
 6465SOL    HW120294   6.662   2.815   3.075
 6465SOL    HW220295   6.664   2.958   2.997
 6466SOL     OW20296   1.399   1.585   6.317
 6466SOL    HW120297   1.411   1.677   6.353
 6466SOL    HW220298   1.489   1.544   6.301
 6467SOL     OW20299   2.902   1.533   0.058
 6467SOL    HW120300   2.926   1.443   0.023
 6467SOL    HW220301   2.912   1.534   0.158
 6468SOL     OW20302   3.515   5.945   0.427
 6468SOL    HW120303   3.527   6.008   0.350
 6468SOL    HW220304   3.569   5.976   0.504
 6469SOL     OW20305   5.024   1.092   4.696
 6469SOL    HW120306   5.000   1.052   4.785
 6469SOL    HW220307   5.056   1.185   4.709
 6470SOL     OW20308   6.080   4.245   0.599
 6470SOL    HW120309   6.099   4.325   0.656
 6470SOL    HW220310   6.167   4.201   0.574
 6471SOL     OW20311   6.382   6.817   5.636
 6471SOL    HW120312   6.437   6.773   5.708
 6471SOL    HW220313   6.297   6.765   5.623
 6472SOL     OW20314   0.652   6.016   1.184
 6472SOL    HW120315   0.732   5.957   1.179
 6472SOL    HW220316   0.586   5.977   1.248
 6473SOL     OW20317   3.504   1.043   4.570
 6473SOL    HW120318   3.408   1.069   4.563
 6473SOL    HW220319   3.548   1.096   4.643
 6474SOL     OW20320   1.972   4.398   5.900
 6474SOL    HW120321   1.965   4.391   5.999
 6474SOL    HW220322   1.988   4.308   5.860
 6475SOL     OW20323   6.087   5.049   3.991
 6475SOL    HW120324   6.090   5.023   4.088
 6475SOL    HW220325   6.152   4.993   3.939
 6476SOL     OW20326   4.490   3.494   1.057
 6476SOL    HW120327   4.415   3.555   1.080
 6476SOL    HW220328   4.577   3.539   1.077
 6477SOL     OW20329   6.164   4.924   1.305
 6477SOL    HW120330   6.247   4.970   1.336
 6477SOL    HW220331   6.136   4.855   1.372
 6478SOL     OW20332   3.393   0.109   2.233
 6478SOL    HW120333   3.491   0.091   2.245
 6478SOL    HW220334   3.344   0.022   2.224
 6479SOL     OW20335   4.154   5.522   4.161
 6479SOL    HW120336   4.203   5.436   4.144
 6479SOL    HW220337   4.070   5.524   4.107
 6480SOL     OW20338   2.649   2.521   5.816
 6480SOL    HW120339   2.562   2.493   5.775
 6480SOL    HW220340   2.697   2.582   5.753
 6481SOL     OW20341   3.875   1.856   1.834
 6481SOL    HW120342   3.875   1.849   1.934
 6481SOL    HW220343   3.902   1.948   1.807
 6482SOL     OW20344   0.358   0.811   6.200
 6482SOL    HW120345   0.266   0.838   6.172
 6482SOL    HW220346   0.354   0.726   6.252
 6483SOL     OW20347   0.819   6.231   1.455
 6483SOL    HW120348   0.794   6.295   1.382
 6483SOL    HW220349   0.800   6.272   1.544
 6484SOL     OW20350   3.160   6.958   1.601
 6484SOL    HW120351   3.245   7.008   1.584
 6484SOL    HW220352   3.090   7.021   1.633
 6485SOL     OW20353   2.186   4.984   3.653
 6485SOL    HW120354   2.235   5.019   3.573
 6485SOL    HW220355   2.245   4.920   3.703
 6486SOL     OW20356   2.554   4.820   3.605
 6486SOL    HW120357   2.521   4.743   3.660
 6486SOL    HW220358   2.534   4.906   3.653
 6487SOL     OW20359   6.887   6.661   4.951
 6487SOL    HW120360   6.958   6.732   4.953
 6487SOL    HW220361   6.866   6.638   4.856
 6488SOL     OW20362   3.674   6.392   4.338
 6488SOL    HW120363   3.676   6.374   4.239
 6488SOL    HW220364   3.746   6.458   4.360
 6489SOL     OW20365   2.981   2.459   6.904
 6489SOL    HW120366   2.886   2.463   6.873
 6489SOL    HW220367   2.996   2.528   6.975
 6490SOL     OW20368   4.087   1.204   6.367
 6490SOL    HW120369   4.186   1.191   6.367
 6490SOL    HW220370   4.059   1.248   6.453
 6491SOL     OW20371   3.569   0.767   0.682
 6491SOL    HW120372   3.576   0.698   0.755
 6491SOL    HW220373   3.647   0.829   0.689
 6492SOL     OW20374   4.817   4.995   0.544
 6492SOL    HW120375   4.773   4.912   0.511
 6492SOL    HW220376   4.877   5.031   0.473
 6493SOL     OW20377   1.015   5.270   4.782
 6493SOL    HW120378   1.055   5.233   4.699
 6493SOL    HW220379   0.918   5.244   4.787
 6494SOL     OW20380   0.305   0.958   3.340
 6494SOL    HW120381   0.265   0.923   3.425
 6494SOL    HW220382   0.291   1.056   3.334
 6495SOL     OW20383   5.449   6.739   4.518
 6495SOL    HW120384   5.436   6.682   4.599
 6495SOL    HW220385   5.457   6.680   4.437
 6496SOL     OW20386   6.767   0.736   3.090
 6496SOL    HW120387   6.738   0.713   3.183
 6496SOL    HW220388   6.720   0.678   3.024
 6497SOL     OW20389   2.616   2.672   1.263
 6497SOL    HW120390   2.583   2.761   1.296
 6497SOL    HW220391   2.590   2.601   1.328
 6498SOL     OW20392   2.264   4.163   3.593
 6498SOL    HW120393   2.244   4.111   3.510
 6498SOL    HW220394   2.324   4.240   3.571
 6499SOL     OW20395   5.048   2.738   5.077
 6499SOL    HW120396   5.072   2.762   5.171
 6499SOL    HW220397   5.031   2.821   5.024
 6500SOL     OW20398   0.074   3.990   4.084
 6500SOL    HW120399   0.107   4.054   4.154
 6500SOL    HW220400   6.998   3.997   4.075
 6501SOL     OW20401   6.756   2.114   7.007
 6501SOL    HW120402   6.838   2.146   6.959
 6501SOL    HW220403   6.710   2.191   0.028
 6502SOL     OW20404   6.194   2.783   1.566
 6502SOL    HW120405   6.228   2.877   1.572
 6502SOL    HW220406   6.271   2.719   1.579
 6503SOL     OW20407   4.721   1.352   2.963
 6503SOL    HW120408   4.747   1.300   3.045
 6503SOL    HW220409   4.623   1.346   2.949
 6504SOL     OW20410   4.813   5.958   5.549
 6504SOL    HW120411   4.745   5.938   5.479
 6504SOL    HW220412   4.783   6.038   5.602
 6505SOL     OW20413   5.648   6.120   1.520
 6505SOL    HW120414   5.586   6.171   1.460
 6505SOL    HW220415   5.595   6.067   1.586
 6506SOL     OW20416   6.441   2.549   2.025
 6506SOL    HW120417   6.456   2.565   2.123
 6506SOL    HW220418   6.356   2.593   1.997
 6507SOL     OW20419   2.119   4.980   5.340
 6507SOL    HW120420   2.202   4.926   5.344
 6507SOL    HW220421   2.044   4.925   5.303
 6508SOL     OW20422   1.605   1.147   2.636
 6508SOL    HW120423   1.632   1.108   2.724
 6508SOL    HW220424   1.507   1.134   2.623
 6509SOL     OW20425   3.158   2.110   4.713
 6509SOL    HW120426   3.139   2.135   4.618
 6509SOL    HW220427   3.257   2.108   4.728
 6510SOL     OW20428   6.959   4.772   6.949
 6510SOL    HW120429   6.964   4.673   6.957
 6510SOL    HW220430   6.927   4.811   0.012
 6511SOL     OW20431   4.361   1.431   4.474
 6511SOL    HW120432   4.392   1.503   4.412
 6511SOL    HW220433   4.438   1.374   4.500
 6512SOL     OW20434   4.749   6.667   1.728
 6512SOL    HW120435   4.670   6.637   1.783
 6512SOL    HW220436   4.824   6.692   1.789
 6513SOL     OW20437   3.203   5.446   3.269
 6513SOL    HW120438   3.157   5.406   3.190
 6513SOL    HW220439   3.302   5.449   3.251
 6514SOL     OW20440   5.427   1.066   4.015
 6514SOL    HW120441   5.429   0.966   4.006
 6514SOL    HW220442   5.439   1.107   3.925
 6515SOL     OW20443   0.253   5.247   4.711
 6515SOL    HW120444   0.261   5.341   4.744
 6515SOL    HW220445   0.340   5.199   4.725
 6516SOL     OW20446   0.184   3.228   1.680
 6516SOL    HW120447   0.224   3.272   1.599
 6516SOL    HW220448   0.093   3.266   1.697
 6517SOL     OW20449   6.267   0.395   0.550
 6517SOL    HW120450   6.253   0.297   0.563
 6517SOL    HW220451   6.218   0.446   0.621
 6518SOL     OW20452   6.766   6.732   6.664
 6518SOL    HW120453   6.750   6.668   6.589
 6518SOL    HW220454   6.864   6.739   6.681
 6519SOL     OW20455   2.172   1.301   3.612
 6519SOL    HW120456   2.223   1.353   3.680
 6519SOL    HW220457   2.233   1.237   3.566
 6520SOL     OW20458   5.329   5.460   2.546
 6520SOL    HW120459   5.394   5.491   2.615
 6520SOL    HW220460   5.362   5.485   2.455
 6521SOL     OW20461   2.116   3.121   4.540
 6521SOL    HW120462   2.153   3.092   4.628
 6521SOL    HW220463   2.146   3.058   4.469
 6522SOL     OW20464   3.921   4.477   0.211
 6522SOL    HW120465   3.917   4.464   0.112
 6522SOL    HW220466   4.016   4.497   0.238
 6523SOL     OW20467   4.080   1.335   6.617
 6523SOL    HW120468   4.089   1.366   6.712
 6523SOL    HW220469   4.170   1.307   6.582
 6524SOL     OW20470   2.767   4.200   1.652
 6524SOL    HW120471   2.760   4.229   1.556
 6524SOL    HW220472   2.725   4.270   1.710
 6525SOL     OW20473   1.864   4.801   2.366
 6525SOL    HW120474   1.887   4.827   2.272
 6525SOL    HW220475   1.871   4.882   2.425
 6526SOL     OW20476   2.114   6.599   6.514
 6526SOL    HW120477   2.188   6.582   6.448
 6526SOL    HW220478   2.152   6.632   6.600
 6527SOL     OW20479   0.661   2.626   4.635
 6527SOL    HW120480   0.680   2.528   4.634
 6527SOL    HW220481   0.629   2.652   4.727
 6528SOL     OW20482   6.939   0.897   4.684
 6528SOL    HW120483   6.880   0.972   4.657
 6528SOL    HW220484   6.952   0.834   4.606
 6529SOL     OW20485   0.946   1.617   2.534
 6529SOL    HW120486   0.972   1.599   2.439
 6529SOL    HW220487   1.015   1.675   2.577
 6530SOL     OW20488   7.022   3.559   0.532
 6530SOL    HW120489   6.994   3.597   0.620
 6530SOL    HW220490   6.940   3.536   0.478
 6531SOL     OW20491   5.534   3.246   4.803
 6531SOL    HW120492   5.502   3.166   4.753
 6531SOL    HW220493   5.622   3.276   4.766
 6532SOL     OW20494   6.320   0.711   0.134
 6532SOL    HW120495   6.236   0.766   0.133
 6532SOL    HW220496   6.341   0.684   0.228
 6533SOL     OW20497   4.606   6.927   1.317
 6533SOL    HW120498   4.654   6.843   1.344
 6533SOL    HW220499   4.626   6.999   1.384
 6534SOL     OW20500   3.269   4.256   1.295
 6534SOL    HW120501   3.292   4.172   1.343
 6534SOL    HW220502   3.236   4.234   1.203
 6535SOL     OW20503   6.316   4.167   4.489
 6535SOL    HW120504   6.256   4.219   4.427
 6535SOL    HW220505   6.410   4.170   4.455
 6536SOL     OW20506   1.074   1.243   5.604
 6536SOL    HW120507   0.980   1.253   5.571
 6536SOL    HW220508   1.122   1.330   5.595
 6537SOL     OW20509   6.522   5.076   0.276
 6537SOL    HW120510   6.458   5.096   0.201
 6537SOL    HW220511   6.608   5.124   0.260
 6538SOL     OW20512   2.673   3.297   6.513
 6538SOL    HW120513   2.723   3.312   6.598
 6538SOL    HW220514   2.630   3.383   6.484
 6539SOL     OW20515   3.241   0.723   6.380
 6539SOL    HW120516   3.204   0.655   6.317
 6539SOL    HW220517   3.172   0.745   6.449
 6540SOL     OW20518   4.799   1.629   5.210
 6540SOL    HW120519   4.803   1.592   5.117
 6540SOL    HW220520   4.757   1.562   5.271
 6541SOL     OW20521   4.796   1.680   5.553
 6541SOL    HW120522   4.807   1.779   5.555
 6541SOL    HW220523   4.699   1.658   5.544
 6542SOL     OW20524   6.365   4.437   4.264
 6542SOL    HW120525   6.440   4.460   4.202
 6542SOL    HW220526   6.298   4.380   4.216
 6543SOL     OW20527   5.758   3.181   5.790
 6543SOL    HW120528   5.663   3.201   5.810
 6543SOL    HW220529   5.774   3.188   5.692
 6544SOL     OW20530   0.484   5.989   2.687
 6544SOL    HW120531   0.581   5.965   2.693
 6544SOL    HW220532   0.468   6.046   2.606
 6545SOL     OW20533   4.932   1.923   0.383
 6545SOL    HW120534   5.029   1.934   0.361
 6545SOL    HW220535   4.889   1.867   0.313
 6546SOL     OW20536   3.733   4.495   6.782
 6546SOL    HW120537   3.739   4.593   6.798
 6546SOL    HW220538   3.644   4.461   6.814
 6547SOL     OW20539   4.930   1.465   5.874
 6547SOL    HW120540   4.840   1.480   5.834
 6547SOL    HW220541   4.941   1.522   5.955
 6548SOL     OW20542   1.020   4.410   6.792
 6548SOL    HW120543   1.035   4.311   6.802
 6548SOL    HW220544   0.936   4.426   6.740
 6549SOL     OW20545   4.662   0.713   1.325
 6549SOL    HW120546   4.617   0.659   1.397
 6549SOL    HW220547   4.720   0.782   1.367
 6550SOL     OW20548   0.680   6.808   4.299
 6550SOL    HW120549   0.616   6.794   4.223
 6550SOL    HW220550   0.705   6.720   4.339
 6551SOL     OW20551   1.146   4.796   2.831
 6551SOL    HW120552   1.073   4.741   2.871
 6551SOL    HW220553   1.235   4.754   2.854
 6552SOL     OW20554   2.001   6.817   5.474
 6552SOL    HW120555   1.944   6.885   5.519
 6552SOL    HW220556   1.991   6.729   5.521
 6553SOL     OW20557   0.287   1.764   3.165
 6553SOL    HW120558   0.296   1.750   3.066
 6553SOL    HW220559   0.378   1.757   3.207
 6554SOL     OW20560   6.104   1.011   5.158
 6554SOL    HW120561   6.107   0.958   5.243
 6554SOL    HW220562   6.062   1.100   5.176
 6555SOL     OW20563   0.212   2.074   2.295
 6555SOL    HW120564   0.129   2.057   2.348
 6555SOL    HW220565   0.291   2.080   2.357
 6556SOL     OW20566   5.103   4.229   4.869
 6556SOL    HW120567   5.055   4.145   4.845
 6556SOL    HW220568   5.044   4.286   4.926
 6557SOL     OW20569   3.399   5.919   1.271
 6557SOL    HW120570   3.421   6.015   1.287
 6557SOL    HW220571   3.310   5.912   1.228
 6558SOL     OW20572   6.212   4.642   0.241
 6558SOL    HW120573   6.186   4.548   0.265
 6558SOL    HW220574   6.148   4.706   0.285
 6559SOL     OW20575   0.746   4.182   6.162
 6559SOL    HW120576   0.813   4.205   6.093
 6559SOL    HW220577   0.768   4.228   6.248
 6560SOL     OW20578   4.311   4.898   0.953
 6560SOL    HW120579   4.310   4.914   1.052
 6560SOL    HW220580   4.220   4.867   0.923
 6561SOL     OW20581   3.762   3.934   2.202
 6561SOL    HW120582   3.706   3.892   2.131
 6561SOL    HW220583   3.704   3.985   2.266
 6562SOL     OW20584   5.585   3.981   0.945
 6562SOL    HW120585   5.656   4.051   0.959
 6562SOL    HW220586   5.616   3.915   0.876
 6563SOL     OW20587   6.233   6.794   0.693
 6563SOL    HW120588   6.172   6.715   0.684
 6563SOL    HW220589   6.211   6.861   0.621
 6564SOL     OW20590   6.859   4.240   3.026
 6564SOL    HW120591   6.853   4.256   2.927
 6564SOL    HW220592   6.953   4.258   3.056
 6565SOL     OW20593   6.904   2.699   4.087
 6565SOL    HW120594   6.884   2.616   4.034
 6565SOL    HW220595   6.895   2.679   4.185
 6566SOL     OW20596   3.386   6.325   2.799
 6566SOL    HW120597   3.301   6.295   2.757
 6566SOL    HW220598   3.453   6.250   2.794
 6567SOL     OW20599   3.940   1.317   1.490
 6567SOL    HW120600   3.989   1.372   1.558
 6567SOL    HW220601   3.979   1.225   1.488
 6568SOL     OW20602   4.352   0.705   3.640
 6568SOL    HW120603   4.334   0.791   3.687
 6568SOL    HW220604   4.368   0.723   3.543
 6569SOL     OW20605   3.025   3.476   6.600
 6569SOL    HW120606   2.981   3.449   6.515
 6569SOL    HW220607   2.963   3.459   6.677
 6570SOL     OW20608   3.925   0.074   2.443
 6570SOL    HW120609   3.977   0.041   2.365
 6570SOL    HW220610   3.916   0.174   2.438
 6571SOL     OW20611   2.539   5.624   2.167
 6571SOL    HW120612   2.570   5.556   2.102
 6571SOL    HW220613   2.618   5.672   2.206
 6572SOL     OW20614   6.757   5.042   5.642
 6572SOL    HW120615   6.775   5.135   5.609
 6572SOL    HW220616   6.658   5.026   5.642
 6573SOL     OW20617   2.663   1.428   2.127
 6573SOL    HW120618   2.718   1.507   2.153
 6573SOL    HW220619   2.580   1.424   2.183
 6574SOL     OW20620   3.359   6.027   2.783
 6574SOL    HW120621   3.416   5.976   2.847
 6574SOL    HW220622   3.389   6.009   2.689
 6575SOL     OW20623   1.190   0.389   2.120
 6575SOL    HW120624   1.105   0.439   2.138
 6575SOL    HW220625   1.258   0.414   2.189
 6576SOL     OW20626   2.356   5.872   6.537
 6576SOL    HW120627   2.307   5.948   6.579
 6576SOL    HW220628   2.338   5.871   6.438
 6577SOL     OW20629   0.920   1.173   4.090
 6577SOL    HW120630   0.898   1.090   4.038
 6577SOL    HW220631   0.971   1.236   4.032
 6578SOL     OW20632   0.893   4.231   3.043
 6578SOL    HW120633   0.958   4.165   3.005
 6578SOL    HW220634   0.940   4.293   3.105
 6579SOL     OW20635   0.251   3.341   4.887
 6579SOL    HW120636   0.172   3.288   4.920
 6579SOL    HW220637   0.242   3.356   4.789
 6580SOL     OW20638   6.461   2.233   0.953
 6580SOL    HW120639   6.463   2.149   0.900
 6580SOL    HW220640   6.449   2.311   0.891
 6581SOL     OW20641   2.554   1.598   0.417
 6581SOL    HW120642   2.641   1.646   0.432
 6581SOL    HW220643   2.570   1.499   0.423
 6582SOL     OW20644   1.341   1.490   1.766
 6582SOL    HW120645   1.377   1.397   1.763
 6582SOL    HW220646   1.247   1.490   1.732
 6583SOL     OW20647   3.629   6.861   4.617
 6583SOL    HW120648   3.679   6.834   4.700
 6583SOL    HW220649   3.537   6.822   4.620
 6584SOL     OW20650   4.377   2.159   0.121
 6584SOL    HW120651   4.415   2.071   0.091
 6584SOL    HW220652   4.277   2.153   0.124
 6585SOL     OW20653   6.563   6.476   0.281
 6585SOL    HW120654   6.497   6.471   0.355
 6585SOL    HW220655   6.546   6.557   0.226
 6586SOL     OW20656   6.474   1.783   5.776
 6586SOL    HW120657   6.480   1.706   5.839
 6586SOL    HW220658   6.537   1.856   5.805
 6587SOL     OW20659   2.790   5.995   5.033
 6587SOL    HW120660   2.743   6.076   4.999
 6587SOL    HW220661   2.790   5.924   4.963
 6588SOL     OW20662   1.324   3.957   1.898
 6588SOL    HW120663   1.336   3.868   1.853
 6588SOL    HW220664   1.250   3.950   1.965
 6589SOL     OW20665   5.073   0.277   0.510
 6589SOL    HW120666   5.119   0.314   0.591
 6589SOL    HW220667   4.978   0.310   0.509
 6590SOL     OW20668   0.992   1.131   5.257
 6590SOL    HW120669   0.952   1.218   5.228
 6590SOL    HW220670   1.092   1.141   5.263
 6591SOL     OW20671   5.503   5.938   1.693
 6591SOL    HW120672   5.482   6.015   1.753
 6591SOL    HW220673   5.596   5.906   1.712
 6592SOL     OW20674   6.108   6.907   4.159
 6592SOL    HW120675   6.169   6.985   4.167
 6592SOL    HW220676   6.070   6.886   4.249
 6593SOL     OW20677   2.665   1.887   3.040
 6593SOL    HW120678   2.680   1.828   3.120
 6593SOL    HW220679   2.749   1.938   3.021
 6594SOL     OW20680   3.801   1.851   0.008
 6594SOL    HW120681   3.806   1.778   0.076
 6594SOL    HW220682   3.708   1.860   6.998
 6595SOL     OW20683   0.876   3.292   0.230
 6595SOL    HW120684   0.926   3.344   0.299
 6595SOL    HW220685   0.922   3.302   0.142
 6596SOL     OW20686   3.228   6.526   4.279
 6596SOL    HW120687   3.179   6.612   4.296
 6596SOL    HW220688   3.318   6.529   4.323
 6597SOL     OW20689   2.964   6.193   2.105
 6597SOL    HW120690   3.046   6.168   2.054
 6597SOL    HW220691   2.985   6.267   2.168
 6598SOL     OW20692   1.130   6.787   4.114
 6598SOL    HW120693   1.131   6.687   4.121
 6598SOL    HW220694   1.218   6.823   4.147
 6599SOL     OW20695   5.039   6.697   5.416
 6599SOL    HW120696   5.051   6.631   5.490
 6599SOL    HW220697   5.099   6.775   5.432
 6600SOL     OW20698   5.223   5.138   5.994
 6600SOL    HW120699   5.124   5.145   5.979
 6600SOL    HW220700   5.258   5.225   6.027
 6601SOL     OW20701   1.043   2.054   5.493
 6601SOL    HW120702   0.972   1.986   5.479
 6601SOL    HW220703   1.090   2.072   5.407
 6602SOL     OW20704   0.641   1.631   1.578
 6602SOL    HW120705   0.726   1.617   1.528
 6602SOL    HW220706   0.618   1.547   1.628
 6603SOL     OW20707   0.625   2.970   3.999
 6603SOL    HW120708   0.626   2.903   4.073
 6603SOL    HW220709   0.568   2.937   3.924
 6604SOL     OW20710   2.110   6.869   1.085
 6604SOL    HW120711   2.145   6.778   1.059
 6604SOL    HW220712   2.065   6.910   1.006
 6605SOL     OW20713   5.846   4.127   1.678
 6605SOL    HW120714   5.920   4.074   1.720
 6605SOL    HW220715   5.778   4.149   1.747
 6606SOL     OW20716   6.922   6.428   2.587
 6606SOL    HW120717   7.003   6.374   2.611
 6606SOL    HW220718   6.851   6.413   2.656
 6607SOL     OW20719   1.565   2.855   2.323
 6607SOL    HW120720   1.630   2.922   2.356
 6607SOL    HW220721   1.567   2.774   2.382
 6608SOL     OW20722   6.201   6.540   1.911
 6608SOL    HW120723   6.258   6.590   1.976
 6608SOL    HW220724   6.207   6.442   1.930
 6609SOL     OW20725   4.959   1.194   5.919
 6609SOL    HW120726   4.868   1.151   5.924
 6609SOL    HW220727   4.948   1.293   5.908
 6610SOL     OW20728   2.317   0.725   6.617
 6610SOL    HW120729   2.283   0.633   6.597
 6610SOL    HW220730   2.289   0.752   6.709
 6611SOL     OW20731   6.272   3.225   3.891
 6611SOL    HW120732   6.319   3.223   3.802
 6611SOL    HW220733   6.326   3.173   3.958
 6612SOL     OW20734   6.139   1.901   6.696
 6612SOL    HW120735   6.182   1.957   6.625
 6612SOL    HW220736   6.165   1.934   6.786
 6613SOL     OW20737   6.472   6.597   5.262
 6613SOL    HW120738   6.453   6.694   5.273
 6613SOL    HW220739   6.562   6.585   5.221
 6614SOL     OW20740   5.568   5.912   0.724
 6614SOL    HW120741   5.573   5.831   0.784
 6614SOL    HW220742   5.658   5.956   0.721
 6615SOL     OW20743   1.159   4.824   2.556
 6615SOL    HW120744   1.150   4.796   2.652
 6615SOL    HW220745   1.108   4.909   2.541
 6616SOL     OW20746   3.811   1.399   6.028
 6616SOL    HW120747   3.885   1.338   5.998
 6616SOL    HW220748   3.821   1.417   6.126
 6617SOL     OW20749   3.402   5.383   2.644
 6617SOL    HW120750   3.407   5.289   2.609
 6617SOL    HW220751   3.338   5.436   2.588
 6618SOL     OW20752   1.132   2.849   2.775
 6618SOL    HW120753   1.153   2.888   2.685
 6618SOL    HW220754   1.064   2.776   2.765
 6619SOL     OW20755   6.183   0.161   4.283
 6619SOL    HW120756   6.088   0.161   4.312
 6619SOL    HW220757   6.240   0.199   4.356
 6620SOL     OW20758   1.540   2.861   5.333
 6620SOL    HW120759   1.446   2.886   5.310
 6620SOL    HW220760   1.585   2.939   5.377
 6621SOL     OW20761   2.100   3.298   6.037
 6621SOL    HW120762   2.146   3.253   5.960
 6621SOL    HW220763   2.148   3.275   6.122
 6622SOL     OW20764   5.984   0.129   1.680
 6622SOL    HW120765   5.991   0.228   1.669
 6622SOL    HW220766   6.062   0.085   1.636
 6623SOL     OW20767   2.186   3.180   6.270
 6623SOL    HW120768   2.253   3.108   6.284
 6623SOL    HW220769   2.213   3.262   6.320
 6624SOL     OW20770   0.798   6.130   4.404
 6624SOL    HW120771   0.860   6.074   4.349
 6624SOL    HW220772   0.815   6.114   4.501
 6625SOL     OW20773   5.110   1.903   5.536
 6625SOL    HW120774   5.087   1.976   5.599
 6625SOL    HW220775   5.036   1.890   5.470
 6626SOL     OW20776   4.692   5.199   5.572
 6626SOL    HW120777   4.627   5.263   5.613
 6626SOL    HW220778   4.703   5.219   5.475
 6627SOL     OW20779   2.569   0.351   5.416
 6627SOL    HW120780   2.591   0.328   5.321
 6627SOL    HW220781   2.470   0.345   5.430
 6628SOL     OW20782   4.521   4.520   4.572
 6628SOL    HW120783   4.528   4.428   4.532
 6628SOL    HW220784   4.589   4.530   4.645
 6629SOL     OW20785   4.317   6.229   0.221
 6629SOL    HW120786   4.359   6.149   0.264
 6629SOL    HW220787   4.356   6.312   0.261
 6630SOL     OW20788   4.099   1.108   1.651
 6630SOL    HW120789   4.003   1.081   1.657
 6630SOL    HW220790   4.135   1.123   1.743
 6631SOL     OW20791   2.617   6.039   2.615
 6631SOL    HW120792   2.574   6.126   2.590
 6631SOL    HW220793   2.700   6.026   2.560
 6632SOL     OW20794   0.672   5.751   1.421
 6632SOL    HW120795   0.727   5.722   1.500
 6632SOL    HW220796   0.603   5.816   1.451
 6633SOL     OW20797   0.692   4.247   6.569
 6633SOL    HW120798   0.732   4.306   6.500
 6633SOL    HW220799   0.596   4.228   6.546
 6634SOL     OW20800   6.068   2.307   3.979
 6634SOL    HW120801   6.031   2.288   3.888
 6634SOL    HW220802   6.087   2.221   4.026
 6635SOL     OW20803   3.865   4.840   3.044
 6635SOL    HW120804   3.821   4.930   3.050
 6635SOL    HW220805   3.894   4.823   2.950
 6636SOL     OW20806   5.085   2.413   5.526
 6636SOL    HW120807   5.042   2.396   5.615
 6636SOL    HW220808   5.117   2.508   5.521
 6637SOL     OW20809   1.297   0.163   6.327
 6637SOL    HW120810   1.276   0.096   6.256
 6637SOL    HW220811   1.372   0.222   6.295
 6638SOL     OW20812   3.179   3.892   4.066
 6638SOL    HW120813   3.166   3.799   4.102
 6638SOL    HW220814   3.232   3.945   4.131
 6639SOL     OW20815   5.848   4.924   6.593
 6639SOL    HW120816   5.897   4.959   6.513
 6639SOL    HW220817   5.899   4.848   6.633
 6640SOL     OW20818   1.189   1.784   5.190
 6640SOL    HW120819   1.261   1.717   5.209
 6640SOL    HW220820   1.231   1.871   5.166
 6641SOL     OW20821   2.245   2.261   0.217
 6641SOL    HW120822   2.248   2.346   0.165
 6641SOL    HW220823   2.297   2.272   0.302
 6642SOL     OW20824   3.141   4.876   6.203
 6642SOL    HW120825   3.177   4.785   6.226
 6642SOL    HW220826   3.127   4.928   6.287
 6643SOL     OW20827   6.456   5.416   0.246
 6643SOL    HW120828   6.414   5.343   0.301
 6643SOL    HW220829   6.457   5.388   0.150
 6644SOL     OW20830   2.661   4.651   2.210
 6644SOL    HW120831   2.713   4.642   2.125
 6644SOL    HW220832   2.567   4.622   2.196
 6645SOL     OW20833   6.439   5.025   0.535
 6645SOL    HW120834   6.500   4.960   0.580
 6645SOL    HW220835   6.451   5.020   0.436
 6646SOL     OW20836   3.947   6.930   5.240
 6646SOL    HW120837   4.026   6.944   5.179
 6646SOL    HW220838   3.863   6.944   5.188
 6647SOL     OW20839   4.376   0.871   2.231
 6647SOL    HW120840   4.465   0.894   2.270
 6647SOL    HW220841   4.323   0.955   2.218
 6648SOL     OW20842   4.007   6.743   2.796
 6648SOL    HW120843   4.018   6.834   2.755
 6648SOL    HW220844   3.978   6.752   2.891
 6649SOL     OW20845   5.786   0.746   6.610
 6649SOL    HW120846   5.855   0.708   6.549
 6649SOL    HW220847   5.725   0.673   6.642
 6650SOL     OW20848   3.113   1.730   5.099
 6650SOL    HW120849   3.198   1.777   5.080
 6650SOL    HW220850   3.036   1.783   5.062
 6651SOL     OW20851   2.025   1.580   6.133
 6651SOL    HW120852   2.117   1.598   6.168
 6651SOL    HW220853   1.958   1.618   6.197
 6652SOL     OW20854   0.044   4.032   0.621
 6652SOL    HW120855   0.087   4.017   0.710
 6652SOL    HW220856   6.968   4.037   0.633
 6653SOL     OW20857   3.259   2.946   2.314
 6653SOL    HW120858   3.289   3.029   2.267
 6653SOL    HW220859   3.273   2.867   2.255
 6654SOL     OW20860   1.777   3.467   1.563
 6654SOL    HW120861   1.709   3.466   1.490
 6654SOL    HW220862   1.816   3.559   1.572
 6655SOL     OW20863   1.740   6.920   2.365
 6655SOL    HW120864   1.784   6.953   2.282
 6655SOL    HW220865   1.686   6.994   2.406
 6656SOL     OW20866   5.834   1.866   2.444
 6656SOL    HW120867   5.738   1.878   2.470
 6656SOL    HW220868   5.876   1.795   2.500
 6657SOL     OW20869   5.819   6.063   6.697
 6657SOL    HW120870   5.895   6.111   6.742
 6657SOL    HW220871   5.832   5.964   6.706
 6658SOL     OW20872   6.028   1.273   5.212
 6658SOL    HW120873   6.110   1.330   5.199
 6658SOL    HW220874   5.955   1.329   5.250
 6659SOL     OW20875   2.208   2.791   0.659
 6659SOL    HW120876   2.160   2.876   0.637
 6659SOL    HW220877   2.155   2.713   0.623
 6660SOL     OW20878   1.014   5.470   0.520
 6660SOL    HW120879   1.053   5.562   0.533
 6660SOL    HW220880   0.917   5.472   0.543
 6661SOL     OW20881   0.895   6.533   4.948
 6661SOL    HW120882   0.804   6.572   4.956
 6661SOL    HW220883   0.932   6.553   4.857
 6662SOL     OW20884   0.934   1.307   0.341
 6662SOL    HW120885   0.885   1.291   0.427
 6662SOL    HW220886   0.905   1.394   0.301
 6663SOL     OW20887   0.328   5.332   4.086
 6663SOL    HW120888   0.230   5.337   4.107
 6663SOL    HW220889   0.349   5.396   4.012
 6664SOL     OW20890   2.751   6.210   0.035
 6664SOL    HW120891   2.684   6.137   0.033
 6664SOL    HW220892   2.767   6.243   6.965
 6665SOL     OW20893   1.491   6.758   3.683
 6665SOL    HW120894   1.419   6.807   3.732
 6665SOL    HW220895   1.568   6.819   3.666
 6666SOL     OW20896   5.448   6.786   5.928
 6666SOL    HW120897   5.380   6.847   5.968
 6666SOL    HW220898   5.495   6.737   6.001
 6667SOL     OW20899   6.248   5.722   6.608
 6667SOL    HW120900   6.186   5.718   6.686
 6667SOL    HW220901   6.223   5.652   6.541
 6668SOL     OW20902   0.014   5.570   1.591
 6668SOL    HW120903   6.956   5.523   1.626
 6668SOL    HW220904   0.096   5.522   1.622
 6669SOL     OW20905   1.819   2.491   3.793
 6669SOL    HW120906   1.738   2.549   3.808
 6669SOL    HW220907   1.885   2.541   3.737
 6670SOL     OW20908   4.127   2.455   5.620
 6670SOL    HW120909   4.163   2.362   5.634
 6670SOL    HW220910   4.075   2.458   5.535
 6671SOL     OW20911   5.748   5.661   1.308
 6671SOL    HW120912   5.775   5.740   1.365
 6671SOL    HW220913   5.652   5.638   1.327
 6672SOL     OW20914   6.756   1.730   6.182
 6672SOL    HW120915   6.705   1.645   6.171
 6672SOL    HW220916   6.843   1.723   6.134
 6673SOL     OW20917   5.099   5.752   3.651
 6673SOL    HW120918   5.018   5.804   3.678
 6673SOL    HW220919   5.176   5.814   3.638
 6674SOL     OW20920   0.900   4.949   5.513
 6674SOL    HW120921   0.879   4.855   5.540
 6674SOL    HW220922   0.824   4.986   5.460
 6675SOL     OW20923   4.896   3.531   1.877
 6675SOL    HW120924   4.932   3.603   1.937
 6675SOL    HW220925   4.812   3.563   1.832
 6676SOL     OW20926   6.740   4.600   5.519
 6676SOL    HW120927   6.670   4.595   5.591
 6676SOL    HW220928   6.754   4.695   5.493
 6677SOL     OW20929   0.956   1.846   6.054
 6677SOL    HW120930   0.916   1.872   5.967
 6677SOL    HW220931   1.010   1.762   6.043
 6678SOL     OW20932   2.863   3.071   6.622
 6678SOL    HW120933   2.801   3.077   6.544
 6678SOL    HW220934   2.816   3.024   6.697
 6679SOL     OW20935   2.301   1.748   3.747
 6679SOL    HW120936   2.351   1.753   3.661
 6679SOL    HW220937   2.249   1.833   3.760
 6680SOL     OW20938   4.661   0.437   6.484
 6680SOL    HW120939   4.575   0.455   6.531
 6680SOL    HW220940   4.686   0.516   6.428
 6681SOL     OW20941   4.367   5.565   0.716
 6681SOL    HW120942   4.328   5.515   0.639
 6681SOL    HW220943   4.426   5.503   0.769
 6682SOL     OW20944   1.464   4.462   3.368
 6682SOL    HW120945   1.470   4.538   3.433
 6682SOL    HW220946   1.555   4.426   3.349
 6683SOL     OW20947   5.999   3.045   5.131
 6683SOL    HW120948   6.004   3.069   5.034
 6683SOL    HW220949   5.903   3.043   5.160
 6684SOL     OW20950   2.467   6.465   1.601
 6684SOL    HW120951   2.443   6.377   1.558
 6684SOL    HW220952   2.562   6.488   1.578
 6685SOL     OW20953   5.935   3.148   6.236
 6685SOL    HW120954   5.860   3.207   6.207
 6685SOL    HW220955   5.961   3.087   6.162
 6686SOL     OW20956   5.445   5.858   4.952
 6686SOL    HW120957   5.522   5.904   4.908
 6686SOL    HW220958   5.473   5.766   4.979
 6687SOL     OW20959   0.952   2.815   0.236
 6687SOL    HW120960   0.915   2.907   0.223
 6687SOL    HW220961   0.905   2.770   0.312
 6688SOL     OW20962   6.958   4.478   1.554
 6688SOL    HW120963   0.022   4.522   1.535
 6688SOL    HW220964   6.942   4.405   1.487
 6689SOL     OW20965   4.771   3.218   6.966
 6689SOL    HW120966   4.688   3.174   6.998
 6689SOL    HW220967   4.787   3.302   7.019
 6690SOL     OW20968   2.556   0.588   1.236
 6690SOL    HW120969   2.647   0.618   1.207
 6690SOL    HW220970   2.510   0.543   1.160
 6691SOL     OW20971   2.846   6.494   1.103
 6691SOL    HW120972   2.776   6.452   1.161
 6691SOL    HW220973   2.872   6.582   1.142
 6692SOL     OW20974   4.005   3.794   5.529
 6692SOL    HW120975   4.043   3.862   5.592
 6692SOL    HW220976   4.033   3.816   5.436
 6693SOL     OW20977   4.354   4.052   5.652
 6693SOL    HW120978   4.375   4.010   5.563
 6693SOL    HW220979   4.401   4.002   5.724
 6694SOL     OW20980   4.934   4.964   0.795
 6694SOL    HW120981   4.864   4.945   0.725
 6694SOL    HW220982   4.976   4.877   0.824
 6695SOL     OW20983   2.506   1.297   6.711
 6695SOL    HW120984   2.463   1.245   6.638
 6695SOL    HW220985   2.589   1.341   6.677
 6696SOL     OW20986   1.097   2.855   5.962
 6696SOL    HW120987   1.013   2.816   5.926
 6696SOL    HW220988   1.106   2.950   5.932
 6697SOL     OW20989   4.391   2.371   2.469
 6697SOL    HW120990   4.461   2.441   2.454
 6697SOL    HW220991   4.314   2.387   2.407
 6698SOL     OW20992   2.905   2.559   1.226
 6698SOL    HW120993   2.860   2.511   1.301
 6698SOL    HW220994   2.865   2.651   1.217
 6699SOL     OW20995   3.204   5.228   6.058
 6699SOL    HW120996   3.120   5.184   6.027
 6699SOL    HW220997   3.220   5.205   6.154
 6700SOL     OW20998   6.849   6.843   0.458
 6700SOL    HW120999   6.937   6.801   0.480
 6700SOL    HW221000   6.846   6.937   0.494
 6701SOL     OW21001   5.498   2.728   1.519
 6701SOL    HW121002   5.543   2.814   1.541
 6701SOL    HW221003   5.458   2.689   1.602
 6702SOL     OW21004   2.527   2.221   1.670
 6702SOL    HW121005   2.517   2.172   1.583
 6702SOL    HW221006   2.603   2.286   1.662
 6703SOL     OW21007   6.484   2.084   6.770
 6703SOL    HW121008   6.496   2.109   6.866
 6703SOL    HW221009   6.426   2.153   6.725
 6704SOL     OW21010   3.280   2.109   2.820
 6704SOL    HW121011   3.245   2.131   2.728
 6704SOL    HW221012   3.228   2.160   2.888
 6705SOL     OW21013   6.590   2.072   1.311
 6705SOL    HW121014   6.510   2.125   1.340
 6705SOL    HW221015   6.662   2.080   1.379
 6706SOL     OW21016   1.116   3.624   2.091
 6706SOL    HW121017   1.050   3.638   2.018
 6706SOL    HW221018   1.073   3.574   2.166
 6707SOL     OW21019   0.227   6.086   3.812
 6707SOL    HW121020   0.149   6.113   3.755
 6707SOL    HW221021   0.216   6.125   3.903
 6708SOL     OW21022   0.093   5.334   2.256
 6708SOL    HW121023   0.071   5.432   2.252
 6708SOL    HW221024   0.167   5.314   2.192
 6709SOL     OW21025   2.786   6.998   2.141
 6709SOL    HW121026   2.877   0.010   2.163
 6709SOL    HW221027   2.720   0.010   2.207
 6710SOL     OW21028   3.030   0.998   5.794
 6710SOL    HW121029   2.954   1.063   5.800
 6710SOL    HW221030   2.994   0.906   5.779
 6711SOL     OW21031   4.980   5.196   0.353
 6711SOL    HW121032   4.940   5.217   0.263
 6711SOL    HW221033   5.068   5.243   0.361
 6712SOL     OW21034   4.627   5.088   0.128
 6712SOL    HW121035   4.720   5.058   0.152
 6712SOL    HW221036   4.632   5.149   0.048
 6713SOL     OW21037   2.615   1.019   2.172
 6713SOL    HW121038   2.707   1.060   2.177
 6713SOL    HW221039   2.619   0.924   2.203
 6714SOL     OW21040   6.261   1.198   6.858
 6714SOL    HW121041   6.316   1.281   6.851
 6714SOL    HW221042   6.280   1.153   6.945
 6715SOL     OW21043   6.926   0.018   6.177
 6715SOL    HW121044   6.927   6.964   6.239
 6715SOL    HW221045   6.997   0.083   6.203
 6716SOL     OW21046   0.646   5.455   1.415
 6716SOL    HW121047   0.697   5.539   1.394
 6716SOL    HW221048   0.641   5.443   1.514
 6717SOL     OW21049   4.401   2.542   0.313
 6717SOL    HW121050   4.373   2.631   0.278
 6717SOL    HW221051   4.379   2.536   0.411
 6718SOL     OW21052   4.965   0.014   6.056
 6718SOL    HW121053   5.022   0.085   6.014
 6718SOL    HW221054   4.898   7.006   5.990
 6719SOL     OW21055   1.702   6.889   6.333
 6719SOL    HW121056   1.656   6.958   6.276
 6719SOL    HW221057   1.766   6.935   6.394
 6720SOL     OW21058   0.532   5.673   3.723
 6720SOL    HW121059   0.467   5.741   3.757
 6720SOL    HW221060   0.621   5.690   3.765
 6721SOL     OW21061   6.172   0.566   5.728
 6721SOL    HW121062   6.133   0.658   5.723
 6721SOL    HW221063   6.203   0.549   5.821
 6722SOL     OW21064   0.003   3.525   1.490
 6722SOL    HW121065   6.963   3.500   1.563
 6722SOL    HW221066   0.045   3.442   1.452
 6723SOL     OW21067   1.882   6.728   3.114
 6723SOL    HW121068   1.915   6.817   3.084
 6723SOL    HW221069   1.959   6.663   3.118
 6724SOL     OW21070   0.988   3.949   5.406
 6724SOL    HW121071   0.966   3.861   5.448
 6724SOL    HW221072   1.082   3.947   5.373
 6725SOL     OW21073   1.399   3.933   1.208
 6725SOL    HW121074   1.354   3.934   1.119
 6725SOL    HW221075   1.498   3.929   1.195
 6726SOL     OW21076   0.582   2.438   4.873
 6726SOL    HW121077   0.510   2.369   4.881
 6726SOL    HW221078   0.625   2.431   4.782
 6727SOL     OW21079   6.303   3.755   5.607
 6727SOL    HW121080   6.360   3.679   5.640
 6727SOL    HW221081   6.207   3.731   5.617
 6728SOL     OW21082   4.316   1.459   3.817
 6728SOL    HW121083   4.385   1.479   3.887
 6728SOL    HW221084   4.353   1.480   3.727
 6729SOL     OW21085   0.018   1.543   2.409
 6729SOL    HW121086   0.061   1.453   2.417
 6729SOL    HW221087   0.048   1.601   2.485
 6730SOL     OW21088   2.747   6.164   6.768
 6730SOL    HW121089   2.844   6.191   6.769
 6730SOL    HW221090   2.694   6.235   6.722
 6731SOL     OW21091   1.132   5.040   1.253
 6731SOL    HW121092   1.074   5.111   1.291
 6731SOL    HW221093   1.202   5.014   1.320
 6732SOL     OW21094   4.523   5.188   5.891
 6732SOL    HW121095   4.456   5.259   5.868
 6732SOL    HW221096   4.612   5.231   5.907
 6733SOL     OW21097   4.014   4.977   0.529
 6733SOL    HW121098   3.966   4.897   0.491
 6733SOL    HW221099   4.108   4.979   0.495
 6734SOL     OW21100   6.551   2.352   4.770
 6734SOL    HW121101   6.482   2.280   4.781
 6734SOL    HW221102   6.563   2.370   4.672
 6735SOL     OW21103   6.927   4.827   4.479
 6735SOL    HW121104   7.008   4.874   4.514
 6735SOL    HW221105   6.896   4.759   4.545
 6736SOL     OW21106   3.501   3.839   0.250
 6736SOL    HW121107   3.457   3.757   0.286
 6736SOL    HW221108   3.544   3.890   0.324
 6737SOL     OW21109   2.402   2.852   0.850
 6737SOL    HW121110   2.482   2.794   0.834
 6737SOL    HW221111   2.345   2.853   0.767
 6738SOL     OW21112   1.953   4.073   2.839
 6738SOL    HW121113   1.968   3.984   2.882
 6738SOL    HW221114   2.020   4.138   2.875
 6739SOL     OW21115   3.619   4.682   5.489
 6739SOL    HW121116   3.666   4.721   5.410
 6739SOL    HW221117   3.535   4.732   5.506
 6740SOL     OW21118   1.793   1.426   4.654
 6740SOL    HW121119   1.722   1.484   4.614
 6740SOL    HW221120   1.857   1.482   4.706
 6741SOL     OW21121   4.656   1.287   5.843
 6741SOL    HW121122   4.688   1.272   5.750
 6741SOL    HW221123   4.590   1.362   5.844
 6742SOL     OW21124   6.604   5.633   2.739
 6742SOL    HW121125   6.595   5.567   2.813
 6742SOL    HW221126   6.557   5.598   2.658
 6743SOL     OW21127   4.264   4.408   0.563
 6743SOL    HW121128   4.213   4.456   0.491
 6743SOL    HW221129   4.329   4.345   0.522
 6744SOL     OW21130   5.176   6.018   6.066
 6744SOL    HW121131   5.267   6.058   6.073
 6744SOL    HW221132   5.128   6.054   5.986
 6745SOL     OW21133   0.662   6.529   2.111
 6745SOL    HW121134   0.684   6.621   2.143
 6745SOL    HW221135   0.663   6.465   2.188
 6746SOL     OW21136   0.704   1.130   3.207
 6746SOL    HW121137   0.752   1.189   3.142
 6746SOL    HW221138   0.614   1.106   3.171
 6747SOL     OW21139   5.417   0.359   4.991
 6747SOL    HW121140   5.345   0.399   5.048
 6747SOL    HW221141   5.389   0.362   4.895
 6748SOL     OW21142   1.196   0.100   3.416
 6748SOL    HW121143   1.198   0.199   3.427
 6748SOL    HW221144   1.121   0.075   3.354
 6749SOL     OW21145   2.800   5.629   0.391
 6749SOL    HW121146   2.825   5.532   0.387
 6749SOL    HW221147   2.868   5.679   0.445
 6750SOL     OW21148   4.394   1.200   5.250
 6750SOL    HW121149   4.436   1.142   5.181
 6750SOL    HW221150   4.440   1.187   5.338
 6751SOL     OW21151   3.592   1.333   3.455
 6751SOL    HW121152   3.650   1.260   3.491
 6751SOL    HW221153   3.539   1.373   3.530
 6752SOL     OW21154   6.814   3.113   2.989
 6752SOL    HW121155   6.792   3.199   2.944
 6752SOL    HW221156   6.894   3.071   2.946
 6753SOL     OW21157   4.364   1.096   6.240
 6753SOL    HW121158   4.396   1.052   6.157
 6753SOL    HW221159   4.343   1.192   6.222
 6754SOL     OW21160   6.928   1.205   6.714
 6754SOL    HW121161   6.930   1.299   6.748
 6754SOL    HW221162   6.845   1.190   6.661
 6755SOL     OW21163   4.662   1.654   3.326
 6755SOL    HW121164   4.601   1.724   3.364
 6755SOL    HW221165   4.611   1.596   3.262
 6756SOL     OW21166   4.494   4.591   4.253
 6756SOL    HW121167   4.460   4.557   4.341
 6756SOL    HW221168   4.583   4.635   4.266
 6757SOL     OW21169   4.273   6.955   1.495
 6757SOL    HW121170   4.271   6.861   1.528
 6757SOL    HW221171   4.315   6.958   1.405
 6758SOL     OW21172   6.798   3.572   0.713
 6758SOL    HW121173   6.765   3.484   0.746
 6758SOL    HW221174   6.814   3.633   0.790
 6759SOL     OW21175   0.870   3.751   4.712
 6759SOL    HW121176   0.935   3.825   4.724
 6759SOL    HW221177   0.896   3.695   4.633
 6760SOL     OW21178   6.698   5.034   4.108
 6760SOL    HW121179   6.736   5.099   4.174
 6760SOL    HW221180   6.598   5.041   4.108
 6761SOL     OW21181   6.236   2.504   6.251
 6761SOL    HW121182   6.276   2.516   6.160
 6761SOL    HW221183   6.304   2.526   6.320
 6762SOL     OW21184   6.842   5.431   3.236
 6762SOL    HW121185   6.919   5.376   3.205
 6762SOL    HW221186   6.873   5.525   3.253
 6763SOL     OW21187   6.683   5.705   3.861
 6763SOL    HW121188   6.688   5.786   3.803
 6763SOL    HW221189   6.642   5.630   3.809
 6764SOL     OW21190   3.347   4.967   6.420
 6764SOL    HW121191   3.292   4.931   6.496
 6764SOL    HW221192   3.416   4.900   6.394
 6765SOL     OW21193   4.929   4.880   3.778
 6765SOL    HW121194   5.016   4.845   3.814
 6765SOL    HW221195   4.875   4.804   3.742
 6766SOL     OW21196   4.431   0.076   6.679
 6766SOL    HW121197   4.487   7.017   6.689
 6766SOL    HW221198   4.345   0.064   6.727
 6767SOL     OW21199   0.898   2.449   0.691
 6767SOL    HW121200   0.813   2.446   0.743
 6767SOL    HW221201   0.933   2.356   0.678
 6768SOL     OW21202   0.466   6.593   3.873
 6768SOL    HW121203   0.423   6.546   3.796
 6768SOL    HW221204   0.535   6.534   3.915
 6769SOL     OW21205   2.968   0.816   5.367
 6769SOL    HW121206   2.939   0.822   5.271
 6769SOL    HW221207   3.057   0.859   5.378
 6770SOL     OW21208   6.684   2.234   3.392
 6770SOL    HW121209   6.589   2.206   3.377
 6770SOL    HW221210   6.736   2.222   3.307
 6771SOL     OW21211   3.437   1.495   2.785
 6771SOL    HW121212   3.443   1.595   2.776
 6771SOL    HW221213   3.343   1.466   2.770
 6772SOL     OW21214   5.451   2.154   2.756
 6772SOL    HW121215   5.380   2.130   2.822
 6772SOL    HW221216   5.420   2.131   2.663
 6773SOL     OW21217   6.901   6.727   1.592
 6773SOL    HW121218   6.840   6.648   1.584
 6773SOL    HW221219   6.930   6.756   1.501
 6774SOL     OW21220   1.707   2.353   4.581
 6774SOL    HW121221   1.706   2.405   4.495
 6774SOL    HW221222   1.701   2.416   4.658
 6775SOL     OW21223   0.258   2.171   3.485
 6775SOL    HW121224   0.313   2.212   3.413
 6775SOL    HW221225   0.290   2.204   3.574
 6776SOL     OW21226   4.077   3.251   1.389
 6776SOL    HW121227   3.985   3.217   1.371
 6776SOL    HW221228   4.134   3.178   1.425
 6777SOL     OW21229   4.283   5.511   1.091
 6777SOL    HW121230   4.334   5.461   1.021
 6777SOL    HW221231   4.314   5.606   1.094
 6778SOL     OW21232   5.956   3.304   2.372
 6778SOL    HW121233   5.930   3.250   2.452
 6778SOL    HW221234   5.880   3.363   2.345
 6779SOL     OW21235   5.151   4.866   6.874
 6779SOL    HW121236   5.069   4.916   6.901
 6779SOL    HW221237   5.222   4.930   6.848
 6780SOL     OW21238   2.113   3.609   2.714
 6780SOL    HW121239   2.066   3.541   2.659
 6780SOL    HW221240   2.113   3.580   2.810
 6781SOL     OW21241   6.723   1.191   3.372
 6781SOL    HW121242   6.668   1.117   3.409
 6781SOL    HW221243   6.722   1.268   3.436
 6782SOL     OW21244   0.844   0.848   3.461
 6782SOL    HW121245   0.837   0.853   3.560
 6782SOL    HW221246   0.881   0.935   3.426
 6783SOL     OW21247   0.645   3.926   4.946
 6783SOL    HW121248   0.655   4.016   4.904
 6783SOL    HW221249   0.730   3.902   4.993
 6784SOL     OW21250   2.180   4.293   1.913
 6784SOL    HW121251   2.228   4.217   1.870
 6784SOL    HW221252   2.082   4.285   1.895
 6785SOL     OW21253   5.672   5.286   5.649
 6785SOL    HW121254   5.640   5.262   5.740
 6785SOL    HW221255   5.616   5.359   5.611
 6786SOL     OW21256   6.816   3.076   6.544
 6786SOL    HW121257   6.769   3.102   6.628
 6786SOL    HW221258   6.854   3.158   6.501
 6787SOL     OW21259   2.794   2.226   1.309
 6787SOL    HW121260   2.721   2.158   1.296
 6787SOL    HW221261   2.873   2.201   1.253
 6788SOL     OW21262   0.301   4.156   2.813
 6788SOL    HW121263   0.226   4.164   2.747
 6788SOL    HW221264   0.278   4.086   2.881
 6789SOL     OW21265   0.197   4.735   4.293
 6789SOL    HW121266   0.251   4.743   4.377
 6789SOL    HW221267   0.101   4.755   4.313
 6790SOL     OW21268   0.291   4.338   6.679
 6790SOL    HW121269   0.283   4.362   6.776
 6790SOL    HW221270   0.351   4.404   6.633
 6791SOL     OW21271   3.941   1.878   3.176
 6791SOL    HW121272   3.853   1.880   3.128
 6791SOL    HW221273   3.972   1.972   3.192
 6792SOL     OW21274   4.377   0.143   5.576
 6792SOL    HW121275   4.441   0.145   5.654
 6792SOL    HW221276   4.287   0.115   5.608
 6793SOL     OW21277   3.284   2.039   6.934
 6793SOL    HW121278   3.229   1.958   6.913
 6793SOL    HW221279   3.225   2.111   6.969
 6794SOL     OW21280   4.763   1.257   5.603
 6794SOL    HW121281   4.819   1.339   5.586
 6794SOL    HW221282   4.743   1.212   5.517
 6795SOL     OW21283   0.898   6.873   0.081
 6795SOL    HW121284   0.950   6.841   0.160
 6795SOL    HW221285   0.813   6.820   0.073
 6796SOL     OW21286   5.584   0.562   2.683
 6796SOL    HW121287   5.533   0.488   2.637
 6796SOL    HW221288   5.564   0.649   2.638
 6797SOL     OW21289   6.744   1.803   0.617
 6797SOL    HW121290   6.682   1.737   0.661
 6797SOL    HW221291   6.833   1.760   0.602
 6798SOL     OW21292   6.224   0.140   1.557
 6798SOL    HW121293   6.205   0.233   1.526
 6798SOL    HW221294   6.316   0.113   1.527
 6799SOL     OW21295   5.162   0.403   2.626
 6799SOL    HW121296   5.236   0.357   2.676
 6799SOL    HW221297   5.169   0.502   2.641
 6800SOL     OW21298   2.005   2.580   1.509
 6800SOL    HW121299   1.926   2.601   1.452
 6800SOL    HW221300   2.088   2.581   1.454
 6801SOL     OW21301   0.511   0.135   3.506
 6801SOL    HW121302   0.600   0.095   3.487
 6801SOL    HW221303   0.451   0.066   3.547
 6802SOL     OW21304   3.585   5.705   0.448
 6802SOL    HW121305   3.551   5.799   0.453
 6802SOL    HW221306   3.650   5.689   0.523
 6803SOL     OW21307   4.863   3.689   0.194
 6803SOL    HW121308   4.905   3.639   0.269
 6803SOL    HW221309   4.772   3.720   0.220
 6804SOL     OW21310   3.227   4.876   2.666
 6804SOL    HW121311   3.168   4.882   2.586
 6804SOL    HW221312   3.316   4.840   2.639
 6805SOL     OW21313   0.897   5.123   0.060
 6805SOL    HW121314   0.894   5.199   7.018
 6805SOL    HW221315   0.977   5.066   0.040
 6806SOL     OW21316   6.731   0.720   4.050
 6806SOL    HW121317   6.815   0.772   4.068
 6806SOL    HW221318   6.751   0.649   3.983
 6807SOL     OW21319   3.573   3.584   3.205
 6807SOL    HW121320   3.564   3.605   3.108
 6807SOL    HW221321   3.635   3.506   3.216
 6808SOL     OW21322   5.600   0.924   5.145
 6808SOL    HW121323   5.676   0.861   5.134
 6808SOL    HW221324   5.620   0.989   5.219
 6809SOL     OW21325   6.065   3.931   0.968
 6809SOL    HW121326   5.991   3.886   1.019
 6809SOL    HW221327   6.120   3.862   0.922
 6810SOL     OW21328   3.534   1.015   3.326
 6810SOL    HW121329   3.462   1.068   3.283
 6810SOL    HW221330   3.555   0.934   3.270
 6811SOL     OW21331   6.819   3.139   2.213
 6811SOL    HW121332   6.779   3.048   2.224
 6811SOL    HW221333   6.808   3.191   2.298
 6812SOL     OW21334   3.644   3.517   4.832
 6812SOL    HW121335   3.686   3.583   4.769
 6812SOL    HW221336   3.549   3.544   4.849
 6813SOL     OW21337   5.623   3.490   2.704
 6813SOL    HW121338   5.539   3.477   2.651
 6813SOL    HW221339   5.618   3.435   2.788
 6814SOL     OW21340   4.917   1.544   6.787
 6814SOL    HW121341   4.964   1.456   6.776
 6814SOL    HW221342   4.922   1.596   6.702
 6815SOL     OW21343   1.601   5.617   6.759
 6815SOL    HW121344   1.578   5.519   6.753
 6815SOL    HW221345   1.680   5.636   6.701
 6816SOL     OW21346   6.892   1.481   4.203
 6816SOL    HW121347   6.823   1.507   4.135
 6816SOL    HW221348   6.945   1.562   4.229
 6817SOL     OW21349   2.740   2.341   4.162
 6817SOL    HW121350   2.706   2.260   4.210
 6817SOL    HW221351   2.742   2.418   4.226
 6818SOL     OW21352   1.934   6.333   0.016
 6818SOL    HW121353   1.894   6.251   0.057
 6818SOL    HW221354   1.882   6.413   0.046
 6819SOL     OW21355   4.291   0.182   2.269
 6819SOL    HW121356   4.367   0.242   2.294
 6819SOL    HW221357   4.217   0.236   2.229
 6820SOL     OW21358   1.417   5.801   1.622
 6820SOL    HW121359   1.359   5.882   1.629
 6820SOL    HW221360   1.474   5.793   1.704
 6821SOL     OW21361   4.694   2.976   5.919
 6821SOL    HW121362   4.763   3.031   5.967
 6821SOL    HW221363   4.614   2.963   5.977
 6822SOL     OW21364   6.782   2.821   6.654
 6822SOL    HW121365   6.804   2.912   6.619
 6822SOL    HW221366   6.856   2.758   6.631
 6823SOL     OW21367   4.850   4.328   6.264
 6823SOL    HW121368   4.947   4.336   6.285
 6823SOL    HW221369   4.807   4.418   6.271
 6824SOL     OW21370   1.831   1.354   0.236
 6824SOL    HW121371   1.794   1.266   0.266
 6824SOL    HW221372   1.761   1.405   0.187
 6825SOL     OW21373   6.550   5.934   0.755
 6825SOL    HW121374   6.644   5.906   0.776
 6825SOL    HW221375   6.515   5.880   0.679
 6826SOL     OW21376   0.797   3.700   3.472
 6826SOL    HW121377   0.878   3.690   3.530
 6826SOL    HW221378   0.748   3.613   3.468
 6827SOL     OW21379   4.951   5.192   5.681
 6827SOL    HW121380   4.864   5.198   5.632
 6827SOL    HW221381   5.019   5.147   5.622
 6828SOL     OW21382   3.629   1.620   2.554
 6828SOL    HW121383   3.727   1.621   2.573
 6828SOL    HW221384   3.581   1.674   2.623
 6829SOL     OW21385   5.174   0.149   5.218
 6829SOL    HW121386   5.124   0.128   5.133
 6829SOL    HW221387   5.253   0.088   5.225
 6830SOL     OW21388   6.121   1.338   3.575
 6830SOL    HW121389   6.178   1.418   3.557
 6830SOL    HW221390   6.164   1.282   3.646
 6831SOL     OW21391   1.411   1.048   6.195
 6831SOL    HW121392   1.345   0.974   6.199
 6831SOL    HW221393   1.364   1.135   6.212
 6832SOL     OW21394   2.367   3.412   0.284
 6832SOL    HW121395   2.360   3.506   0.250
 6832SOL    HW221396   2.461   3.380   0.276
 6833SOL     OW21397   3.426   5.207   5.889
 6833SOL    HW121398   3.512   5.211   5.941
 6833SOL    HW221399   3.350   5.228   5.950
 6834SOL     OW21400   5.451   0.027   0.921
 6834SOL    HW121401   5.480   0.098   0.856
 6834SOL    HW221402   5.377   6.997   0.881
 6835SOL     OW21403   4.124   1.695   4.827
 6835SOL    HW121404   4.183   1.771   4.854
 6835SOL    HW221405   4.091   1.710   4.734
 6836SOL     OW21406   1.948   4.333   6.182
 6836SOL    HW121407   1.953   4.376   6.272
 6836SOL    HW221408   1.956   4.234   6.192
 6837SOL     OW21409   0.538   0.902   2.859
 6837SOL    HW121410   0.488   0.940   2.937
 6837SOL    HW221411   0.609   0.966   2.830
 6838SOL     OW21412   2.422   4.458   5.265
 6838SOL    HW121413   2.374   4.513   5.334
 6838SOL    HW221414   2.401   4.362   5.279
 6839SOL     OW21415   5.748   2.138   3.648
 6839SOL    HW121416   5.655   2.146   3.612
 6839SOL    HW221417   5.786   2.049   3.623
 6840SOL     OW21418   2.757   6.172   5.419
 6840SOL    HW121419   2.723   6.125   5.501
 6840SOL    HW221420   2.696   6.248   5.396
 6841SOL     OW21421   3.739   4.831   1.216
 6841SOL    HW121422   3.783   4.861   1.301
 6841SOL    HW221423   3.672   4.899   1.187
 6842SOL     OW21424   1.786   2.567   6.597
 6842SOL    HW121425   1.738   2.483   6.573
 6842SOL    HW221426   1.879   2.546   6.629
 6843SOL     OW21427   5.180   0.854   1.701
 6843SOL    HW121428   5.094   0.859   1.752
 6843SOL    HW221429   5.256   0.882   1.761
 6844SOL     OW21430   5.307   5.908   4.075
 6844SOL    HW121431   5.320   5.864   4.163
 6844SOL    HW221432   5.351   5.853   4.003
 6845SOL     OW21433   5.100   4.106   2.238
 6845SOL    HW121434   5.079   4.142   2.147
 6845SOL    HW221435   5.125   4.182   2.298
 6846SOL     OW21436   4.253   3.002   1.446
 6846SOL    HW121437   4.341   3.023   1.490
 6846SOL    HW221438   4.185   2.979   1.516
 6847SOL     OW21439   5.716   3.907   2.207
 6847SOL    HW121440   5.677   3.883   2.296
 6847SOL    HW221441   5.804   3.862   2.195
 6848SOL     OW21442   2.118   6.081   3.253
 6848SOL    HW121443   2.022   6.051   3.257
 6848SOL    HW221444   2.120   6.178   3.226
 6849SOL     OW21445   3.189   5.535   4.264
 6849SOL    HW121446   3.143   5.503   4.182
 6849SOL    HW221447   3.284   5.557   4.243
 6850SOL     OW21448   5.495   2.816   2.911
 6850SOL    HW121449   5.493   2.911   2.942
 6850SOL    HW221450   5.513   2.814   2.813
 6851SOL     OW21451   1.500   3.653   4.635
 6851SOL    HW121452   1.591   3.640   4.594
 6851SOL    HW221453   1.436   3.588   4.595
 6852SOL     OW21454   1.363   4.896   0.858
 6852SOL    HW121455   1.306   4.928   0.782
 6852SOL    HW221456   1.426   4.826   0.825
 6853SOL     OW21457   6.608   3.641   0.017
 6853SOL    HW121458   6.626   3.715   6.975
 6853SOL    HW221459   6.674   3.568   0.003
 6854SOL     OW21460   5.832   0.897   5.872
 6854SOL    HW121461   5.783   0.818   5.835
 6854SOL    HW221462   5.829   0.894   5.972
 6855SOL     OW21463   3.723   6.312   2.630
 6855SOL    HW121464   3.662   6.307   2.551
 6855SOL    HW221465   3.807   6.261   2.611
 6856SOL     OW21466   4.516   4.376   5.437
 6856SOL    HW121467   4.555   4.289   5.406
 6856SOL    HW221468   4.421   4.363   5.464
 6857SOL     OW21469   3.361   1.480   6.680
 6857SOL    HW121470   3.455   1.456   6.656
 6857SOL    HW221471   3.361   1.525   6.769
 6858SOL     OW21472   4.153   3.415   4.813
 6858SOL    HW121473   4.252   3.417   4.796
 6858SOL    HW221474   4.134   3.448   4.905
 6859SOL     OW21475   1.474   6.712   0.972
 6859SOL    HW121476   1.491   6.780   0.900
 6859SOL    HW221477   1.486   6.756   1.061
 6860SOL     OW21478   5.645   5.362   2.016
 6860SOL    HW121479   5.552   5.331   2.034
 6860SOL    HW221480   5.682   5.311   1.938
 6861SOL     OW21481   5.655   4.150   1.863
 6861SOL    HW121482   5.734   4.168   1.921
 6861SOL    HW221483   5.597   4.232   1.860
 6862SOL     OW21484   2.309   4.270   4.675
 6862SOL    HW121485   2.344   4.353   4.631
 6862SOL    HW221486   2.292   4.289   4.772
 6863SOL     OW21487   5.554   1.607   4.106
 6863SOL    HW121488   5.624   1.661   4.059
 6863SOL    HW221489   5.599   1.543   4.169
 6864SOL     OW21490   3.331   5.854   3.817
 6864SOL    HW121491   3.264   5.786   3.787
 6864SOL    HW221492   3.315   5.878   3.913
 6865SOL     OW21493   6.404   5.490   3.053
 6865SOL    HW121494   6.447   5.514   3.140
 6865SOL    HW221495   6.334   5.559   3.031
 6866SOL     OW21496   6.260   4.047   2.454
 6866SOL    HW121497   6.348   4.081   2.421
 6866SOL    HW221498   6.186   4.097   2.409
 6867SOL     OW21499   1.197   4.929   1.536
 6867SOL    HW121500   1.101   4.952   1.552
 6867SOL    HW221501   1.203   4.836   1.500
 6868SOL     OW21502   1.672   5.332   5.043
 6868SOL    HW121503   1.687   5.367   4.950
 6868SOL    HW221504   1.720   5.389   5.108
 6869SOL     OW21505   6.100   2.672   5.247
 6869SOL    HW121506   6.078   2.624   5.163
 6869SOL    HW221507   6.172   2.739   5.230
 6870SOL     OW21508   6.668   3.356   2.415
 6870SOL    HW121509   6.645   3.418   2.340
 6870SOL    HW221510   6.590   3.349   2.477
 6871SOL     OW21511   6.235   4.939   2.399
 6871SOL    HW121512   6.220   4.856   2.346
 6871SOL    HW221513   6.260   4.916   2.493
 6872SOL     OW21514   1.749   3.567   0.647
 6872SOL    HW121515   1.726   3.480   0.691
 6872SOL    HW221516   1.782   3.550   0.554
 6873SOL     OW21517   5.831   3.764   4.840
 6873SOL    HW121518   5.837   3.751   4.939
 6873SOL    HW221519   5.825   3.862   4.820
 6874SOL     OW21520   0.407   4.534   3.180
 6874SOL    HW121521   0.313   4.545   3.210
 6874SOL    HW221522   0.413   4.457   3.115
 6875SOL     OW21523   1.746   2.446   3.400
 6875SOL    HW121524   1.808   2.368   3.399
 6875SOL    HW221525   1.778   2.514   3.334
 6876SOL     OW21526   4.187   5.225   5.836
 6876SOL    HW121527   4.097   5.263   5.857
 6876SOL    HW221528   4.251   5.300   5.817
 6877SOL     OW21529   2.443   4.341   6.360
 6877SOL    HW121530   2.410   4.247   6.354
 6877SOL    HW221531   2.365   4.404   6.356
 6878SOL     OW21532   2.169   2.222   5.092
 6878SOL    HW121533   2.240   2.285   5.060
 6878SOL    HW221534   2.174   2.213   5.191
 6879SOL     OW21535   1.109   1.679   0.310
 6879SOL    HW121536   1.175   1.702   0.239
 6879SOL    HW221537   1.155   1.680   0.399
 6880SOL     OW21538   2.049   3.225   5.018
 6880SOL    HW121539   2.082   3.131   5.010
 6880SOL    HW221540   1.981   3.243   4.946
 6881SOL     OW21541   6.824   3.751   2.682
 6881SOL    HW121542   6.861   3.691   2.612
 6881SOL    HW221543   6.746   3.708   2.727
 6882SOL     OW21544   2.794   0.112   5.770
 6882SOL    HW121545   2.750   0.024   5.792
 6882SOL    HW221546   2.855   0.138   5.845
 6883SOL     OW21547   3.687   1.289   1.579
 6883SOL    HW121548   3.783   1.303   1.555
 6883SOL    HW221549   3.633   1.279   1.495
 6884SOL     OW21550   1.656   3.368   4.366
 6884SOL    HW121551   1.745   3.324   4.381
 6884SOL    HW221552   1.640   3.378   4.268
 6885SOL     OW21553   3.721   5.611   4.740
 6885SOL    HW121554   3.662   5.538   4.707
 6885SOL    HW221555   3.817   5.584   4.729
 6886SOL     OW21556   6.971   0.873   2.936
 6886SOL    HW121557   6.884   0.838   2.972
 6886SOL    HW221558   0.004   0.796   2.905
 6887SOL     OW21559   4.669   6.932   5.526
 6887SOL    HW121560   4.621   6.889   5.450
 6887SOL    HW221561   4.768   6.916   5.516
 6888SOL     OW21562   5.676   6.421   6.567
 6888SOL    HW121563   5.716   6.423   6.475
 6888SOL    HW221564   5.653   6.514   6.595
 6889SOL     OW21565   1.001   2.371   6.187
 6889SOL    HW121566   0.906   2.346   6.167
 6889SOL    HW221567   1.003   2.443   6.257
 6890SOL     OW21568   2.996   6.253   1.073
 6890SOL    HW121569   2.935   6.332   1.079
 6890SOL    HW221570   2.968   6.184   1.141
 6891SOL     OW21571   2.139   3.670   4.535
 6891SOL    HW121572   2.150   3.589   4.592
 6891SOL    HW221573   2.076   3.734   4.579
 6892SOL     OW21574   3.335   0.626   3.665
 6892SOL    HW121575   3.297   0.716   3.684
 6892SOL    HW221576   3.415   0.635   3.605
 6893SOL     OW21577   5.506   5.808   1.111
 6893SOL    HW121578   5.589   5.815   1.056
 6893SOL    HW221579   5.524   5.843   1.203
 6894SOL     OW21580   6.272   5.471   6.839
 6894SOL    HW121581   6.360   5.440   6.803
 6894SOL    HW221582   6.284   5.558   6.886
 6895SOL     OW21583   3.005   5.273   6.641
 6895SOL    HW121584   2.998   5.187   6.692
 6895SOL    HW221585   2.930   5.333   6.667
 6896SOL     OW21586   2.805   6.749   4.168
 6896SOL    HW121587   2.904   6.757   4.159
 6896SOL    HW221588   2.778   6.654   4.152
 6897SOL     OW21589   2.284   3.637   0.181
 6897SOL    HW121590   2.331   3.697   0.116
 6897SOL    HW221591   2.209   3.590   0.135
 6898SOL     OW21592   3.359   1.554   2.207
 6898SOL    HW121593   3.343   1.626   2.274
 6898SOL    HW221594   3.311   1.577   2.122
 6899SOL     OW21595   4.984   0.071   0.740
 6899SOL    HW121596   4.989   0.044   0.643
 6899SOL    HW221597   4.921   0.148   0.750
 6900SOL     OW21598   5.912   0.574   6.254
 6900SOL    HW121599   5.827   0.523   6.269
 6900SOL    HW221600   5.940   0.565   6.159
 6901SOL     OW21601   0.719   0.261   6.086
 6901SOL    HW121602   0.675   0.318   6.156
 6901SOL    HW221603   0.776   0.319   6.028
 6902SOL     OW21604   6.945   6.198   0.630
 6902SOL    HW121605   6.973   6.180   0.724
 6902SOL    HW221606   6.848   6.224   0.628
 6903SOL     OW21607   4.100   4.823   5.550
 6903SOL    HW121608   4.186   4.773   5.561
 6903SOL    HW221609   4.029   4.777   5.603
 6904SOL     OW21610   6.163   1.561   3.968
 6904SOL    HW121611   6.146   1.467   3.938
 6904SOL    HW221612   6.078   1.601   4.001
 6905SOL     OW21613   6.204   6.580   0.234
 6905SOL    HW121614   6.285   6.623   0.272
 6905SOL    HW221615   6.228   6.490   0.195
 6906SOL     OW21616   4.132   0.978   3.974
 6906SOL    HW121617   4.207   0.914   3.990
 6906SOL    HW221618   4.056   0.931   3.930
 6907SOL     OW21619   4.944   0.983   1.260
 6907SOL    HW121620   5.018   0.999   1.194
 6907SOL    HW221621   4.934   0.885   1.276
 6908SOL     OW21622   1.211   6.617   5.631
 6908SOL    HW121623   1.180   6.673   5.707
 6908SOL    HW221624   1.255   6.676   5.562
 6909SOL     OW21625   5.473   4.859   1.266
 6909SOL    HW121626   5.502   4.904   1.181
 6909SOL    HW221627   5.422   4.776   1.243
 6910SOL     OW21628   6.671   2.644   3.159
 6910SOL    HW121629   6.685   2.574   3.089
 6910SOL    HW221630   6.738   2.631   3.232
 6911SOL     OW21631   3.996   6.907   3.261
 6911SOL    HW121632   3.899   6.924   3.282
 6911SOL    HW221633   4.047   6.992   3.271
 6912SOL     OW21634   4.767   4.593   1.604
 6912SOL    HW121635   4.692   4.528   1.619
 6912SOL    HW221636   4.763   4.627   1.510
 6913SOL     OW21637   4.688   4.900   5.968
 6913SOL    HW121638   4.687   4.895   5.868
 6913SOL    HW221639   4.597   4.927   6.001
 6914SOL     OW21640   6.212   4.651   6.900
 6914SOL    HW121641   6.187   4.747   6.888
 6914SOL    HW221642   6.140   4.603   6.949
 6915SOL     OW21643   6.679   4.451   1.798
 6915SOL    HW121644   6.773   4.417   1.805
 6915SOL    HW221645   6.630   4.430   1.882
 6916SOL     OW21646   6.009   4.135   0.218
 6916SOL    HW121647   5.926   4.182   0.248
 6916SOL    HW221648   6.030   4.163   0.124
 6917SOL     OW21649   3.247   5.204   0.533
 6917SOL    HW121650   3.331   5.243   0.495
 6917SOL    HW221651   3.270   5.124   0.589
 6918SOL     OW21652   1.279   3.879   4.782
 6918SOL    HW121653   1.350   3.930   4.830
 6918SOL    HW221654   1.311   3.856   4.690
 6919SOL     OW21655   0.593   5.833   3.470
 6919SOL    HW121656   0.515   5.818   3.531
 6919SOL    HW221657   0.575   5.911   3.410
 6920SOL     OW21658   3.953   6.146   5.897
 6920SOL    HW121659   3.901   6.172   5.978
 6920SOL    HW221660   4.006   6.225   5.865
 6921SOL     OW21661   4.678   5.569   3.124
 6921SOL    HW121662   4.652   5.530   3.212
 6921SOL    HW221663   4.600   5.566   3.062
 6922SOL     OW21664   1.734   5.740   6.989
 6922SOL    HW121665   1.688   5.828   7.003
 6922SOL    HW221666   1.714   5.706   6.897
 6923SOL     OW21667   5.673   6.481   3.492
 6923SOL    HW121668   5.598   6.548   3.500
 6923SOL    HW221669   5.687   6.437   3.580
 6924SOL     OW21670   0.374   3.979   6.760
 6924SOL    HW121671   0.473   3.982   6.750
 6924SOL    HW221672   0.333   4.053   6.706
 6925SOL     OW21673   3.558   6.138   4.422
 6925SOL    HW121674   3.567   6.235   4.401
 6925SOL    HW221675   3.613   6.116   4.503
 6926SOL     OW21676   2.862   3.403   2.203
 6926SOL    HW121677   2.764   3.386   2.204
 6926SOL    HW221678   2.901   3.383   2.293
 6927SOL     OW21679   5.451   4.152   5.757
 6927SOL    HW121680   5.540   4.183   5.723
 6927SOL    HW221681   5.454   4.147   5.857
 6928SOL     OW21682   6.401   6.426   0.533
 6928SOL    HW121683   6.404   6.328   0.550
 6928SOL    HW221684   6.317   6.463   0.573
 6929SOL     OW21685   4.887   5.681   1.115
 6929SOL    HW121686   4.863   5.626   1.195
 6929SOL    HW221687   4.851   5.774   1.126
 6930SOL     OW21688   6.946   6.913   1.780
 6930SOL    HW121689   0.007   6.950   1.818
 6930SOL    HW221690   6.966   6.831   1.727
 6931SOL     OW21691   1.162   0.728   2.512
 6931SOL    HW121692   1.117   0.660   2.569
 6931SOL    HW221693   1.257   0.700   2.495
 6932SOL     OW21694   3.884   0.628   0.795
 6932SOL    HW121695   3.962   0.633   0.858
 6932SOL    HW221696   3.904   0.561   0.723
 6933SOL     OW21697   4.145   6.097   4.587
 6933SOL    HW121698   4.085   6.127   4.513
 6933SOL    HW221699   4.184   6.177   4.632
 6934SOL     OW21700   4.881   4.276   5.785
 6934SOL    HW121701   4.830   4.209   5.730
 6934SOL    HW221702   4.979   4.261   5.775
 6935SOL     OW21703   4.514   6.135   3.276
 6935SOL    HW121704   4.536   6.038   3.293
 6935SOL    HW221705   4.479   6.176   3.360
 6936SOL     OW21706   6.733   2.822   2.457
 6936SOL    HW121707   6.809   2.878   2.489
 6936SOL    HW221708   6.754   2.725   2.472
 6937SOL     OW21709   6.259   5.970   0.337
 6937SOL    HW121710   6.293   5.927   0.421
 6937SOL    HW221711   6.322   5.952   0.262
 6938SOL     OW21712   4.980   3.725   5.206
 6938SOL    HW121713   4.935   3.718   5.295
 6938SOL    HW221714   4.919   3.691   5.135
 6939SOL     OW21715   6.913   4.392   1.094
 6939SOL    HW121716   6.967   4.458   1.042
 6939SOL    HW221717   6.884   4.434   1.180
 6940SOL     OW21718   5.150   1.335   0.615
 6940SOL    HW121719   5.134   1.281   0.533
 6940SOL    HW221720   5.066   1.341   0.669
 6941SOL     OW21721   3.511   3.201   2.853
 6941SOL    HW121722   3.541   3.177   2.761
 6941SOL    HW221723   3.464   3.123   2.895
 6942SOL     OW21724   6.804   2.673   0.570
 6942SOL    HW121725   6.791   2.763   0.612
 6942SOL    HW221726   6.758   2.671   0.481
 6943SOL     OW21727   4.546   6.573   0.103
 6943SOL    HW121728   4.580   6.644   0.164
 6943SOL    HW221729   4.618   6.505   0.088
 6944SOL     OW21730   1.261   4.538   5.837
 6944SOL    HW121731   1.352   4.519   5.800
 6944SOL    HW221732   1.263   4.534   5.936
 6945SOL     OW21733   6.239   2.928   6.089
 6945SOL    HW121734   6.286   2.842   6.070
 6945SOL    HW221735   6.260   2.995   6.018
 6946SOL     OW21736   6.219   6.438   2.451
 6946SOL    HW121737   6.238   6.471   2.358
 6946SOL    HW221738   6.262   6.349   2.464
 6947SOL     OW21739   3.041   6.575   5.353
 6947SOL    HW121740   3.134   6.610   5.365
 6947SOL    HW221741   3.044   6.493   5.296
 6948SOL     OW21742   6.538   0.849   0.056
 6948SOL    HW121743   6.462   0.784   0.071
 6948SOL    HW221744   6.581   0.869   0.144
 6949SOL     OW21745   5.220   0.173   3.990
 6949SOL    HW121746   5.279   0.121   3.929
 6949SOL    HW221747   5.271   0.250   4.028
 6950SOL     OW21748   2.290   0.335   3.638
 6950SOL    HW121749   2.222   0.331   3.565
 6950SOL    HW221750   2.280   0.421   3.689
 6951SOL     OW21751   5.981   6.248   5.959
 6951SOL    HW121752   5.951   6.158   5.930
 6951SOL    HW221753   5.983   6.252   6.059
 6952SOL     OW21754   0.060   5.696   3.646
 6952SOL    HW121755   0.090   5.608   3.685
 6952SOL    HW221756   6.988   5.689   3.617
 6953SOL     OW21757   4.861   0.291   6.843
 6953SOL    HW121758   4.870   0.206   6.791
 6953SOL    HW221759   4.765   0.304   6.869
 6954SOL     OW21760   0.841   3.676   4.429
 6954SOL    HW121761   0.745   3.701   4.412
 6954SOL    HW221762   0.857   3.583   4.396
 6955SOL     OW21763   7.004   0.344   3.000
 6955SOL    HW121764   6.914   0.360   2.959
 6955SOL    HW221765   0.046   0.410   2.963
 6956SOL     OW21766   4.833   6.600   2.063
 6956SOL    HW121767   4.757   6.625   2.123
 6956SOL    HW221768   4.850   6.502   2.070
 6957SOL     OW21769   5.560   5.010   1.473
 6957SOL    HW121770   5.531   4.977   1.563
 6957SOL    HW221771   5.529   4.945   1.402
 6958SOL     OW21772   3.196   4.090   5.178
 6958SOL    HW121773   3.097   4.075   5.175
 6958SOL    HW221774   3.233   4.048   5.261
 6959SOL     OW21775   2.793   0.967   4.739
 6959SOL    HW121776   2.852   1.045   4.718
 6959SOL    HW221777   2.758   0.976   4.832
 6960SOL     OW21778   1.313   5.343   1.444
 6960SOL    HW121779   1.265   5.322   1.359
 6960SOL    HW221780   1.303   5.441   1.465
 6961SOL     OW21781   6.599   2.885   4.261
 6961SOL    HW121782   6.654   2.830   4.199
 6961SOL    HW221783   6.652   2.965   4.291
 6962SOL     OW21784   4.878   5.484   2.467
 6962SOL    HW121785   4.894   5.582   2.457
 6962SOL    HW221786   4.910   5.436   2.386
 6963SOL     OW21787   6.839   5.475   0.941
 6963SOL    HW121788   6.787   5.521   0.869
 6963SOL    HW221789   6.823   5.522   1.028
 6964SOL     OW21790   4.385   5.096   4.332
 6964SOL    HW121791   4.416   5.155   4.258
 6964SOL    HW221792   4.289   5.072   4.317
 6965SOL     OW21793   0.806   3.776   6.095
 6965SOL    HW121794   0.731   3.711   6.100
 6965SOL    HW221795   0.837   3.798   6.188
 6966SOL     OW21796   6.592   2.190   2.987
 6966SOL    HW121797   6.587   2.169   2.890
 6966SOL    HW221798   6.500   2.213   3.021
 6967SOL     OW21799   1.874   0.325   5.624
 6967SOL    HW121800   1.869   0.284   5.716
 6967SOL    HW221801   1.787   0.368   5.602
 6968SOL     OW21802   3.604   6.798   2.268
 6968SOL    HW121803   3.698   6.775   2.296
 6968SOL    HW221804   3.551   6.824   2.348
 6969SOL     OW21805   3.438   1.980   1.519
 6969SOL    HW121806   3.427   2.042   1.598
 6969SOL    HW221807   3.420   1.886   1.549
 6970SOL     OW21808   4.337   3.792   0.346
 6970SOL    HW121809   4.269   3.842   0.401
 6970SOL    HW221810   4.306   3.789   0.251
 6971SOL     OW21811   6.868   4.076   1.844
 6971SOL    HW121812   6.873   4.174   1.826
 6971SOL    HW221813   6.848   4.027   1.759
 6972SOL     OW21814   5.206   5.228   4.136
 6972SOL    HW121815   5.185   5.276   4.051
 6972SOL    HW221816   5.306   5.226   4.150
 6973SOL     OW21817   0.782   3.780   5.285
 6973SOL    HW121818   0.753   3.720   5.210
 6973SOL    HW221819   0.830   3.859   5.249
 6974SOL     OW21820   3.506   2.864   3.260
 6974SOL    HW121821   3.592   2.912   3.243
 6974SOL    HW221822   3.525   2.768   3.281
 6975SOL     OW21823   2.407   6.254   5.919
 6975SOL    HW121824   2.496   6.284   5.953
 6975SOL    HW221825   2.336   6.318   5.948
 6976SOL     OW21826   4.161   5.217   5.314
 6976SOL    HW121827   4.074   5.225   5.264
 6976SOL    HW221828   4.142   5.189   5.408
 6977SOL     OW21829   4.374   2.413   1.875
 6977SOL    HW121830   4.368   2.388   1.972
 6977SOL    HW221831   4.287   2.451   1.845
 6978SOL     OW21832   6.223   2.323   1.749
 6978SOL    HW121833   6.322   2.339   1.754
 6978SOL    HW221834   6.205   2.249   1.684
 6979SOL     OW21835   1.456   5.282   0.500
 6979SOL    HW121836   1.490   5.340   0.426
 6979SOL    HW221837   1.416   5.198   0.461
 6980SOL     OW21838   1.820   0.894   3.559
 6980SOL    HW121839   1.843   0.830   3.633
 6980SOL    HW221840   1.885   0.970   3.560
 6981SOL     OW21841   2.774   2.688   6.421
 6981SOL    HW121842   2.812   2.678   6.329
 6981SOL    HW221843   2.848   2.687   6.489
 6982SOL     OW21844   1.141   1.118   3.786
 6982SOL    HW121845   1.048   1.098   3.756
 6982SOL    HW221846   1.174   1.044   3.845
 6983SOL     OW21847   5.129   2.004   3.178
 6983SOL    HW121848   5.102   1.907   3.177
 6983SOL    HW221849   5.199   2.018   3.248
 6984SOL     OW21850   2.656   2.126   4.275
 6984SOL    HW121851   2.651   2.066   4.195
 6984SOL    HW221852   2.689   2.074   4.354
 6985SOL     OW21853   3.839   5.530   1.381
 6985SOL    HW121854   3.782   5.501   1.458
 6985SOL    HW221855   3.788   5.596   1.325
 6986SOL     OW21856   1.934   6.346   6.547
 6986SOL    HW121857   1.977   6.278   6.487
 6986SOL    HW221858   1.985   6.432   6.542
 6987SOL     OW21859   0.081   1.910   5.928
 6987SOL    HW121860   0.043   1.999   5.954
 6987SOL    HW221861   0.143   1.922   5.850
 6988SOL     OW21862   6.745   1.047   5.828
 6988SOL    HW121863   6.756   1.025   5.925
 6988SOL    HW221864   6.664   1.000   5.792
 6989SOL     OW21865   0.421   3.637   3.315
 6989SOL    HW121866   0.456   3.696   3.242
 6989SOL    HW221867   0.451   3.543   3.299
 6990SOL     OW21868   5.181   2.253   1.253
 6990SOL    HW121869   5.221   2.201   1.177
 6990SOL    HW221870   5.106   2.201   1.294
 6991SOL     OW21871   2.870   4.779   4.055
 6991SOL    HW121872   2.963   4.815   4.054
 6991SOL    HW221873   2.868   4.689   4.012
 6992SOL     OW21874   5.218   6.486   5.062
 6992SOL    HW121875   5.145   6.455   5.122
 6992SOL    HW221876   5.206   6.584   5.042
 6993SOL     OW21877   6.784   0.941   2.717
 6993SOL    HW121878   6.735   1.000   2.781
 6993SOL    HW221879   6.881   0.936   2.743
 6994SOL     OW21880   0.966   3.367   5.173
 6994SOL    HW121881   0.947   3.356   5.270
 6994SOL    HW221882   0.948   3.462   5.146
 6995SOL     OW21883   6.588   5.311   6.268
 6995SOL    HW121884   6.682   5.311   6.234
 6995SOL    HW221885   6.524   5.312   6.192
 6996SOL     OW21886   2.585   0.530   6.253
 6996SOL    HW121887   2.647   0.498   6.181
 6996SOL    HW221888   2.576   0.629   6.248
 6997SOL     OW21889   5.904   6.279   5.391
 6997SOL    HW121890   6.003   6.271   5.376
 6997SOL    HW221891   5.864   6.335   5.319
 6998SOL     OW21892   2.514   2.567   1.522
 6998SOL    HW121893   2.501   2.601   1.615
 6998SOL    HW221894   2.427   2.532   1.487
 6999SOL     OW21895   2.141   2.516   6.317
 6999SOL    HW121896   2.105   2.589   6.260
 6999SOL    HW221897   2.233   2.541   6.349
 7000SOL     OW21898   6.159   5.916   1.760
 7000SOL    HW121899   6.219   5.867   1.697
 7000SOL    HW221900   6.214   5.956   1.834
 7001SOL     OW21901   2.674   3.182   5.322
 7001SOL    HW121902   2.604   3.151   5.258
 7001SOL    HW221903   2.738   3.107   5.340
 7002SOL     OW21904   1.864   5.220   2.741
 7002SOL    HW121905   1.792   5.286   2.761
 7002SOL    HW221906   1.867   5.151   2.813
 7003SOL     OW21907   4.011   5.335   6.979
 7003SOL    HW121908   3.984   5.431   6.973
 7003SOL    HW221909   4.009   5.306   0.051
 7004SOL     OW21910   1.782   4.771   1.655
 7004SOL    HW121911   1.686   4.769   1.627
 7004SOL    HW221912   1.801   4.856   1.703
 7005SOL     OW21913   1.606   6.802   6.658
 7005SOL    HW121914   1.608   6.901   6.672
 7005SOL    HW221915   1.688   6.774   6.608
 7006SOL     OW21916   5.024   4.578   4.795
 7006SOL    HW121917   4.957   4.580   4.869
 7006SOL    HW221918   5.106   4.530   4.826
 7007SOL     OW21919   4.881   6.917   3.538
 7007SOL    HW121920   4.945   6.987   3.506
 7007SOL    HW221921   4.830   6.953   3.616
 7008SOL     OW21922   1.590   5.069   5.108
 7008SOL    HW121923   1.620   5.156   5.147
 7008SOL    HW221924   1.506   5.083   5.056
 7009SOL     OW21925   5.977   5.558   2.474
 7009SOL    HW121926   5.968   5.532   2.571
 7009SOL    HW221927   5.992   5.476   2.419
 7010SOL     OW21928   4.309   4.406   6.166
 7010SOL    HW121929   4.272   4.499   6.172
 7010SOL    HW221930   4.234   4.340   6.162
 7011SOL     OW21931   2.298   0.701   6.278
 7011SOL    HW121932   2.350   0.771   6.328
 7011SOL    HW221933   2.324   0.610   6.311
 7012SOL     OW21934   1.707   1.309   2.462
 7012SOL    HW121935   1.673   1.234   2.518
 7012SOL    HW221936   1.687   1.396   2.507
 7013SOL     OW21937   0.345   0.095   0.373
 7013SOL    HW121938   0.362   0.104   0.275
 7013SOL    HW221939   0.317   0.183   0.411
 7014SOL     OW21940   5.005   3.131   1.622
 7014SOL    HW121941   4.966   3.065   1.687
 7014SOL    HW221942   5.095   3.099   1.592
 7015SOL     OW21943   5.600   4.814   2.612
 7015SOL    HW121944   5.537   4.807   2.690
 7015SOL    HW221945   5.693   4.794   2.642
 7016SOL     OW21946   3.746   4.726   1.626
 7016SOL    HW121947   3.759   4.651   1.561
 7016SOL    HW221948   3.692   4.694   1.704
 7017SOL     OW21949   2.203   6.692   2.323
 7017SOL    HW121950   2.268   6.768   2.323
 7017SOL    HW221951   2.252   6.607   2.301
 7018SOL     OW21952   5.893   4.378   4.988
 7018SOL    HW121953   5.935   4.360   4.899
 7018SOL    HW221954   5.837   4.299   5.015
 7019SOL     OW21955   2.340   3.491   6.416
 7019SOL    HW121956   2.422   3.472   6.363
 7019SOL    HW221957   2.320   3.589   6.413
 7020SOL     OW21958   6.256   0.085   6.888
 7020SOL    HW121959   6.288   0.180   6.891
 7020SOL    HW221960   6.157   0.083   6.907
 7021SOL     OW21961   2.169   1.217   5.746
 7021SOL    HW121962   2.263   1.182   5.747
 7021SOL    HW221963   2.115   1.166   5.679
 7022SOL     OW21964   4.510   5.755   0.841
 7022SOL    HW121965   4.441   5.690   0.809
 7022SOL    HW221966   4.599   5.710   0.847
 7023SOL     OW21967   0.561   2.018   3.333
 7023SOL    HW121968   0.465   2.005   3.359
 7023SOL    HW221969   0.588   2.112   3.354
 7024SOL     OW21970   1.253   4.844   5.571
 7024SOL    HW121971   1.255   4.896   5.656
 7024SOL    HW221972   1.158   4.821   5.548
 7025SOL     OW21973   2.521   1.236   0.023
 7025SOL    HW121974   2.427   1.269   0.032
 7025SOL    HW221975   2.542   1.224   6.949
 7026SOL     OW21976   2.863   1.742   2.188
 7026SOL    HW121977   2.879   1.717   2.093
 7026SOL    HW221978   2.775   1.788   2.196
 7027SOL     OW21979   2.847   4.772   3.716
 7027SOL    HW121980   2.811   4.813   3.632
 7027SOL    HW221981   2.788   4.696   3.744
 7028SOL     OW21982   5.416   6.518   4.338
 7028SOL    HW121983   5.407   6.590   4.269
 7028SOL    HW221984   5.326   6.478   4.356
 7029SOL     OW21985   4.135   6.169   6.140
 7029SOL    HW121986   4.140   6.267   6.158
 7029SOL    HW221987   4.184   6.148   6.056
 7030SOL     OW21988   6.946   2.314   5.137
 7030SOL    HW121989   6.923   2.286   5.044
 7030SOL    HW221990   7.011   2.390   5.133
 7031SOL     OW21991   2.117   6.500   4.901
 7031SOL    HW121992   2.137   6.404   4.921
 7031SOL    HW221993   2.098   6.510   4.803
 7032SOL     OW21994   3.593   6.817   3.674
 7032SOL    HW121995   3.591   6.765   3.589
 7032SOL    HW221996   3.504   6.859   3.690
 7033SOL     OW21997   0.541   1.870   3.772
 7033SOL    HW121998   0.603   1.797   3.800
 7033SOL    HW221999   0.568   1.956   3.814
 7034SOL     OW22000   5.730   0.119   3.168
 7034SOL    HW122001   5.741   0.139   3.071
 7034SOL    HW222002   5.633   0.121   3.192
 7035SOL     OW22003   1.379   6.549   1.805
 7035SOL    HW122004   1.459   6.552   1.745
 7035SOL    HW222005   1.328   6.465   1.789
 7036SOL     OW22006   0.182   0.912   2.077
 7036SOL    HW122007   0.261   0.853   2.093
 7036SOL    HW222008   0.194   0.998   2.126
 7037SOL     OW22009   1.481   0.621   6.318
 7037SOL    HW122010   1.561   0.676   6.295
 7037SOL    HW222011   1.414   0.679   6.365
 7038SOL     OW22012   1.622   2.960   4.309
 7038SOL    HW122013   1.616   2.903   4.390
 7038SOL    HW222014   1.544   2.942   4.249
 7039SOL     OW22015   2.845   5.293   1.463
 7039SOL    HW122016   2.759   5.295   1.514
 7039SOL    HW222017   2.846   5.212   1.403
 7040SOL     OW22018   5.927   2.148   4.722
 7040SOL    HW122019   5.955   2.087   4.647
 7040SOL    HW222020   5.827   2.148   4.728
 7041SOL     OW22021   0.837   2.342   2.009
 7041SOL    HW122022   0.813   2.307   1.918
 7041SOL    HW222023   0.755   2.345   2.066
 7042SOL     OW22024   5.376   5.464   6.753
 7042SOL    HW122025   5.318   5.403   6.698
 7042SOL    HW222026   5.470   5.459   6.721
 7043SOL     OW22027   2.273   2.885   3.202
 7043SOL    HW122028   2.332   2.825   3.149
 7043SOL    HW222029   2.297   2.878   3.299
 7044SOL     OW22030   4.585   5.117   2.409
 7044SOL    HW122031   4.582   5.207   2.453
 7044SOL    HW222032   4.673   5.105   2.363
 7045SOL     OW22033   4.699   5.750   2.490
 7045SOL    HW122034   4.680   5.847   2.506
 7045SOL    HW222035   4.735   5.709   2.573
 7046SOL     OW22036   3.698   1.844   3.076
 7046SOL    HW122037   3.599   1.849   3.067
 7046SOL    HW222038   3.726   1.748   3.083
 7047SOL     OW22039   0.945   2.851   2.342
 7047SOL    HW122040   1.025   2.817   2.391
 7047SOL    HW222041   0.905   2.776   2.288
 7048SOL     OW22042   0.152   5.853   2.081
 7048SOL    HW122043   0.146   5.949   2.106
 7048SOL    HW222044   0.095   5.799   2.142
 7049SOL     OW22045   2.486   1.692   1.241
 7049SOL    HW122046   2.543   1.615   1.211
 7049SOL    HW222047   2.440   1.732   1.162
 7050SOL     OW22048   3.982   3.477   2.459
 7050SOL    HW122049   4.045   3.416   2.411
 7050SOL    HW222050   4.014   3.571   2.451
 7051SOL     OW22051   0.086   0.278   1.326
 7051SOL    HW122052   0.080   0.340   1.248
 7051SOL    HW222053   0.020   0.203   1.315
 7052SOL     OW22054   6.202   2.753   3.528
 7052SOL    HW122055   6.152   2.820   3.474
 7052SOL    HW222056   6.263   2.800   3.592
 7053SOL     OW22057   0.707   3.532   4.722
 7053SOL    HW122058   0.767   3.611   4.723
 7053SOL    HW222059   0.620   3.555   4.767
 7054SOL     OW22060   0.594   6.482   0.754
 7054SOL    HW122061   0.527   6.547   0.789
 7054SOL    HW222062   0.686   6.514   0.777
 7055SOL     OW22063   4.055   6.103   5.236
 7055SOL    HW122064   4.112   6.042   5.291
 7055SOL    HW222065   3.959   6.091   5.260
 7056SOL     OW22066   5.286   5.838   2.428
 7056SOL    HW122067   5.333   5.799   2.348
 7056SOL    HW222068   5.353   5.856   2.500
 7057SOL     OW22069   1.106   6.184   3.493
 7057SOL    HW122070   1.187   6.241   3.476
 7057SOL    HW222071   1.118   6.096   3.447
 7058SOL     OW22072   6.588   5.738   6.350
 7058SOL    HW122073   6.530   5.770   6.426
 7058SOL    HW222074   6.647   5.664   6.383
 7059SOL     OW22075   6.962   0.886   3.289
 7059SOL    HW122076   6.915   0.859   3.206
 7059SOL    HW222077   6.924   0.837   3.367
 7060SOL     OW22078   4.147   0.225   1.773
 7060SOL    HW122079   4.059   0.239   1.728
 7060SOL    HW222080   4.213   0.292   1.741
 7061SOL     OW22081   0.429   3.233   4.293
 7061SOL    HW122082   0.425   3.205   4.389
 7061SOL    HW222083   0.523   3.257   4.269
 7062SOL     OW22084   5.436   1.731   5.442
 7062SOL    HW122085   5.447   1.639   5.481
 7062SOL    HW222086   5.362   1.729   5.375
 7063SOL     OW22087   0.500   0.515   1.531
 7063SOL    HW122088   0.461   0.438   1.482
 7063SOL    HW222089   0.428   0.563   1.581
 7064SOL     OW22090   4.188   1.912   2.243
 7064SOL    HW122091   4.284   1.886   2.238
 7064SOL    HW222092   4.151   1.922   2.151
 7065SOL     OW22093   3.856   3.053   6.137
 7065SOL    HW122094   3.913   3.036   6.217
 7065SOL    HW222095   3.839   3.151   6.129
 7066SOL     OW22096   4.221   0.594   0.572
 7066SOL    HW122097   4.159   0.516   0.583
 7066SOL    HW222098   4.187   0.653   0.498
 7067SOL     OW22099   1.696   1.600   5.747
 7067SOL    HW122100   1.695   1.578   5.845
 7067SOL    HW222101   1.723   1.696   5.735
 7068SOL     OW22102   0.714   4.180   4.410
 7068SOL    HW122103   0.734   4.121   4.489
 7068SOL    HW222104   0.792   4.241   4.393
 7069SOL     OW22105   6.194   2.099   3.607
 7069SOL    HW122106   6.196   2.197   3.591
 7069SOL    HW222107   6.257   2.053   3.543
 7070SOL     OW22108   6.869   6.313   4.371
 7070SOL    HW122109   6.852   6.285   4.276
 7070SOL    HW222110   6.782   6.325   4.418
 7071SOL     OW22111   1.773   6.362   5.986
 7071SOL    HW122112   1.690   6.418   5.994
 7071SOL    HW222113   1.827   6.394   5.908
 7072SOL     OW22114   0.797   6.520   6.332
 7072SOL    HW122115   0.752   6.520   6.242
 7072SOL    HW222116   0.880   6.465   6.328
 7073SOL     OW22117   5.490   6.923   4.847
 7073SOL    HW122118   5.536   6.843   4.885
 7073SOL    HW222119   5.520   6.937   4.753
 7074SOL     OW22120   4.289   2.068   1.703
 7074SOL    HW122121   4.260   1.973   1.715
 7074SOL    HW222122   4.215   2.129   1.730
 7075SOL     OW22123   1.412   5.423   5.436
 7075SOL    HW122124   1.351   5.499   5.457
 7075SOL    HW222125   1.358   5.341   5.417
 7076SOL     OW22126   5.506   2.204   6.347
 7076SOL    HW122127   5.467   2.266   6.279
 7076SOL    HW222128   5.586   2.158   6.309
 7077SOL     OW22129   2.282   4.172   4.282
 7077SOL    HW122130   2.316   4.116   4.358
 7077SOL    HW222131   2.261   4.112   4.204
 7078SOL     OW22132   6.417   0.609   1.539
 7078SOL    HW122133   6.376   0.569   1.621
 7078SOL    HW222134   6.517   0.607   1.548
 7079SOL     OW22135   6.431   6.377   5.113
 7079SOL    HW122136   6.447   6.290   5.160
 7079SOL    HW222137   6.459   6.452   5.173
 7080SOL     OW22138   3.106   2.162   4.408
 7080SOL    HW122139   3.105   2.173   4.308
 7080SOL    HW222140   3.015   2.183   4.444
 7081SOL     OW22141   2.512   1.875   6.919
 7081SOL    HW122142   2.557   1.964   6.928
 7081SOL    HW222143   2.568   1.805   6.963
 7082SOL     OW22144   6.347   4.342   6.710
 7082SOL    HW122145   6.366   4.397   6.791
 7082SOL    HW222146   6.256   4.364   6.674
 7083SOL     OW22147   3.012   0.379   0.260
 7083SOL    HW122148   2.992   0.352   0.166
 7083SOL    HW222149   3.107   0.358   0.282
 7084SOL     OW22150   0.369   6.212   5.354
 7084SOL    HW122151   0.390   6.121   5.389
 7084SOL    HW222152   0.386   6.280   5.426
 7085SOL     OW22153   1.448   2.300   1.763
 7085SOL    HW122154   1.501   2.216   1.755
 7085SOL    HW222155   1.508   2.379   1.747
 7086SOL     OW22156   5.264   1.333   5.223
 7086SOL    HW122157   5.347   1.305   5.270
 7086SOL    HW222158   5.260   1.433   5.221
 7087SOL     OW22159   6.054   4.495   3.754
 7087SOL    HW122160   6.050   4.425   3.682
 7087SOL    HW222161   6.015   4.580   3.719
 7088SOL     OW22162   5.696   2.499   3.613
 7088SOL    HW122163   5.775   2.522   3.556
 7088SOL    HW222164   5.620   2.470   3.555
 7089SOL     OW22165   3.355   2.092   4.995
 7089SOL    HW122166   3.263   2.128   5.012
 7089SOL    HW222167   3.404   2.155   4.935
 7090SOL     OW22168   2.226   0.736   6.902
 7090SOL    HW122169   2.149   0.776   6.853
 7090SOL    HW222170   2.193   0.674   6.972
 7091SOL     OW22171   0.299   1.655   6.642
 7091SOL    HW122172   0.201   1.637   6.653
 7091SOL    HW222173   0.315   1.698   6.553
 7092SOL     OW22174   4.515   2.650   6.307
 7092SOL    HW122175   4.502   2.701   6.222
 7092SOL    HW222176   4.513   2.713   6.385
 7093SOL     OW22177   3.008   3.324   3.334
 7093SOL    HW122178   3.007   3.421   3.357
 7093SOL    HW222179   2.997   3.270   3.418
 7094SOL     OW22180   1.023   5.942   5.694
 7094SOL    HW122181   1.075   5.927   5.779
 7094SOL    HW222182   1.001   5.853   5.653
 7095SOL     OW22183   2.885   4.016   5.816
 7095SOL    HW122184   2.819   3.942   5.814
 7095SOL    HW222185   2.976   3.982   5.791
 7096SOL     OW22186   6.294   0.959   3.750
 7096SOL    HW122187   6.213   0.970   3.692
 7096SOL    HW222188   6.267   0.921   3.838
 7097SOL     OW22189   6.105   1.643   1.177
 7097SOL    HW122190   6.053   1.699   1.112
 7097SOL    HW222191   6.043   1.579   1.223
 7098SOL     OW22192   0.569   0.836   4.751
 7098SOL    HW122193   0.601   0.930   4.756
 7098SOL    HW222194   0.587   0.800   4.659
 7099SOL     OW22195   2.729   1.033   5.003
 7099SOL    HW122196   2.777   1.119   4.988
 7099SOL    HW222197   2.636   1.051   5.035
 7100SOL     OW22198   5.740   2.903   0.996
 7100SOL    HW122199   5.783   2.915   1.086
 7100SOL    HW222200   5.652   2.858   1.007
 7101SOL     OW22201   2.250   0.938   4.800
 7101SOL    HW122202   2.261   0.961   4.897
 7101SOL    HW222203   2.321   0.985   4.747
 7102SOL     OW22204   4.665   0.532   1.121
 7102SOL    HW122205   4.620   0.581   1.046
 7102SOL    HW222206   4.678   0.594   1.198
 7103SOL     OW22207   4.438   4.906   1.702
 7103SOL    HW122208   4.380   4.985   1.684
 7103SOL    HW222209   4.504   4.929   1.773
 7104SOL     OW22210   0.927   3.227   4.455
 7104SOL    HW122211   0.865   3.154   4.425
 7104SOL    HW222212   0.925   3.234   4.554
 7105SOL     OW22213   2.936   2.688   5.366
 7105SOL    HW122214   2.969   2.599   5.333
 7105SOL    HW222215   3.010   2.755   5.358
 7106SOL     OW22216   2.967   3.371   3.043
 7106SOL    HW122217   2.870   3.370   3.020
 7106SOL    HW222218   2.979   3.335   3.136
 7107SOL     OW22219   2.649   1.993   0.528
 7107SOL    HW122220   2.562   1.971   0.485
 7107SOL    HW222221   2.642   2.080   0.576
 7108SOL     OW22222   3.804   6.523   2.878
 7108SOL    HW122223   3.846   6.525   2.969
 7108SOL    HW222224   3.863   6.572   2.813
 7109SOL     OW22225   3.049   0.497   6.425
 7109SOL    HW122226   3.094   0.443   6.497
 7109SOL    HW222227   3.018   0.436   6.353
 7110SOL     OW22228   3.507   5.761   4.406
 7110SOL    HW122229   3.505   5.677   4.352
 7110SOL    HW222230   3.418   5.808   4.399
 7111SOL     OW22231   2.186   1.946   4.193
 7111SOL    HW122232   2.150   1.874   4.252
 7111SOL    HW222233   2.248   1.906   4.125
 7112SOL     OW22234   1.427   5.897   4.022
 7112SOL    HW122235   1.479   5.952   3.957
 7112SOL    HW222236   1.488   5.832   4.067
 7113SOL     OW22237   3.618   4.229   5.039
 7113SOL    HW122238   3.608   4.325   5.065
 7113SOL    HW222239   3.715   4.206   5.031
 7114SOL     OW22240   3.988   6.345   1.465
 7114SOL    HW122241   3.968   6.255   1.427
 7114SOL    HW222242   3.905   6.385   1.502
 7115SOL     OW22243   5.433   3.426   2.352
 7115SOL    HW122244   5.365   3.469   2.293
 7115SOL    HW222245   5.475   3.349   2.304
 7116SOL     OW22246   5.690   3.912   3.241
 7116SOL    HW122247   5.729   3.990   3.289
 7116SOL    HW222248   5.762   3.864   3.191
 7117SOL     OW22249   6.699   6.351   4.855
 7117SOL    HW122250   6.664   6.436   4.895
 7117SOL    HW222251   6.797   6.362   4.835
 7118SOL     OW22252   2.834   3.672   1.171
 7118SOL    HW122253   2.813   3.721   1.255
 7118SOL    HW222254   2.933   3.668   1.159
 7119SOL     OW22255   4.880   1.546   2.813
 7119SOL    HW122256   4.815   1.483   2.855
 7119SOL    HW222257   4.844   1.578   2.725
 7120SOL     OW22258   3.880   2.103   2.582
 7120SOL    HW122259   3.850   2.140   2.669
 7120SOL    HW222260   3.801   2.089   2.522
 7121SOL     OW22261   1.808   6.734   2.550
 7121SOL    HW122262   1.903   6.723   2.579
 7121SOL    HW222263   1.802   6.809   2.485
 7122SOL     OW22264   1.102   0.366   5.888
 7122SOL    HW122265   1.158   0.423   5.828
 7122SOL    HW222266   1.144   0.362   5.979
 7123SOL     OW22267   2.382   4.787   2.885
 7123SOL    HW122268   2.320   4.861   2.861
 7123SOL    HW222269   2.373   4.764   2.982
 7124SOL     OW22270   0.043   2.498   0.562
 7124SOL    HW122271   0.052   2.482   0.463
 7124SOL    HW222272   6.987   2.555   0.580
 7125SOL     OW22273   6.385   6.684   0.892
 7125SOL    HW122274   6.460   6.633   0.850
 7125SOL    HW222275   6.327   6.723   0.821
 7126SOL     OW22276   3.419   4.328   0.122
 7126SOL    HW122277   3.436   4.349   0.026
 7126SOL    HW222278   3.333   4.277   0.131
 7127SOL     OW22279   1.691   5.942   4.672
 7127SOL    HW122280   1.714   5.947   4.575
 7127SOL    HW222281   1.677   6.035   4.708
 7128SOL     OW22282   3.087   4.806   0.030
 7128SOL    HW122283   3.174   4.762   0.007
 7128SOL    HW222284   3.095   4.905   0.018
 7129SOL     OW22285   2.117   1.540   0.096
 7129SOL    HW122286   2.159   1.630   0.104
 7129SOL    HW222287   2.170   1.472   0.147
 7130SOL     OW22288   3.970   5.384   5.449
 7130SOL    HW122289   4.023   5.439   5.385
 7130SOL    HW222290   3.994   5.410   5.543
 7131SOL     OW22291   2.411   1.236   0.700
 7131SOL    HW122292   2.393   1.152   0.649
 7131SOL    HW222293   2.470   1.216   0.779
 7132SOL     OW22294   3.812   3.399   6.702
 7132SOL    HW122295   3.811   3.352   6.790
 7132SOL    HW222296   3.720   3.430   6.679
 7133SOL     OW22297   5.285   5.530   5.069
 7133SOL    HW122298   5.357   5.561   5.006
 7133SOL    HW222299   5.304   5.436   5.097
 7134SOL     OW22300   5.662   6.817   2.144
 7134SOL    HW122301   5.661   6.718   2.153
 7134SOL    HW222302   5.570   6.853   2.154
 7135SOL     OW22303   0.988   3.203   3.004
 7135SOL    HW122304   0.946   3.196   3.095
 7135SOL    HW222305   1.040   3.288   2.998
 7136SOL     OW22306   2.027   2.825   1.079
 7136SOL    HW122307   2.058   2.884   1.004
 7136SOL    HW222308   1.984   2.881   1.150
 7137SOL     OW22309   4.084   0.252   6.723
 7137SOL    HW122310   4.065   0.334   6.669
 7137SOL    HW222311   4.013   0.183   6.706
 7138SOL     OW22312   1.731   3.134   6.980
 7138SOL    HW122313   1.723   3.231   7.004
 7138SOL    HW222314   1.646   3.104   6.935
 7139SOL     OW22315   5.334   3.727   2.359
 7139SOL    HW122316   5.264   3.771   2.302
 7139SOL    HW222317   5.292   3.692   2.443
 7140SOL     OW22318   5.519   4.595   4.632
 7140SOL    HW122319   5.532   4.651   4.713
 7140SOL    HW222320   5.553   4.502   4.649
 7141SOL     OW22321   3.422   6.207   1.279
 7141SOL    HW122322   3.403   6.246   1.189
 7141SOL    HW222323   3.519   6.216   1.300
 7142SOL     OW22324   4.056   6.755   3.675
 7142SOL    HW122325   4.155   6.766   3.678
 7142SOL    HW222326   4.013   6.816   3.742
 7143SOL     OW22327   1.300   2.752   6.274
 7143SOL    HW122328   1.241   2.697   6.214
 7143SOL    HW222329   1.321   2.839   6.229
 7144SOL     OW22330   1.883   1.736   3.037
 7144SOL    HW122331   1.967   1.708   2.992
 7144SOL    HW222332   1.839   1.656   3.079
 7145SOL     OW22333   4.236   6.994   0.257
 7145SOL    HW122334   4.254   7.019   0.352
 7145SOL    HW222335   4.142   6.962   0.248
 7146SOL     OW22336   2.577   0.409   0.331
 7146SOL    HW122337   2.520   0.329   0.310
 7146SOL    HW222338   2.564   0.478   0.259
 7147SOL     OW22339   0.089   6.522   3.186
 7147SOL    HW122340   0.157   6.510   3.114
 7147SOL    HW222341   0.105   6.609   3.234
 7148SOL     OW22342   0.970   6.694   6.889
 7148SOL    HW122343   0.975   6.765   6.960
 7148SOL    HW222344   0.987   6.735   6.800
 7149SOL     OW22345   5.819   6.737   2.841
 7149SOL    HW122346   5.753   6.766   2.771
 7149SOL    HW222347   5.777   6.741   2.931
 7150SOL     OW22348   3.246   1.395   2.467
 7150SOL    HW122349   3.223   1.342   2.386
 7150SOL    HW222350   3.322   1.456   2.446
 7151SOL     OW22351   1.883   6.403   0.419
 7151SOL    HW122352   1.869   6.347   0.500
 7151SOL    HW222353   1.946   6.357   0.356
 7152SOL     OW22354   1.217   1.416   4.786
 7152SOL    HW122355   1.207   1.436   4.883
 7152SOL    HW222356   1.136   1.366   4.753
 7153SOL     OW22357   3.274   5.556   1.927
 7153SOL    HW122358   3.267   5.553   2.027
 7153SOL    HW222359   3.188   5.525   1.886
 7154SOL     OW22360   3.429   0.331   4.050
 7154SOL    HW122361   3.455   0.340   4.146
 7154SOL    HW222362   3.353   0.393   4.030
 7155SOL     OW22363   2.046   3.654   1.878
 7155SOL    HW122364   2.052   3.730   1.943
 7155SOL    HW222365   2.114   3.584   1.902
 7156SOL     OW22366   0.358   4.104   4.616
 7156SOL    HW122367   0.303   4.165   4.559
 7156SOL    HW222368   0.431   4.063   4.561
 7157SOL     OW22369   6.062   3.991   2.136
 7157SOL    HW122370   6.141   4.032   2.182
 7157SOL    HW222371   5.985   3.989   2.200
 7158SOL     OW22372   1.399   6.977   2.701
 7158SOL    HW122373   1.322   7.018   2.653
 7158SOL    HW222374   1.435   6.900   2.648
 7159SOL     OW22375   0.513   4.379   2.484
 7159SOL    HW122376   0.581   4.312   2.514
 7159SOL    HW222377   0.558   4.460   2.448
 7160SOL     OW22378   5.059   0.567   2.949
 7160SOL    HW122379   5.061   0.485   3.005
 7160SOL    HW222380   5.152   0.590   2.921
 7161SOL     OW22381   2.869   3.435   5.217
 7161SOL    HW122382   2.797   3.366   5.217
 7161SOL    HW222383   2.941   3.408   5.280
 7162SOL     OW22384   1.959   5.560   5.722
 7162SOL    HW122385   2.018   5.576   5.802
 7162SOL    HW222386   2.014   5.524   5.647
 7163SOL     OW22387   2.682   6.611   2.985
 7163SOL    HW122388   2.609   6.622   2.918
 7163SOL    HW222389   2.644   6.573   3.069
 7164SOL     OW22390   1.920   0.940   4.451
 7164SOL    HW122391   1.892   1.028   4.491
 7164SOL    HW222392   1.954   0.954   4.359
 7165SOL     OW22393   6.888   1.617   1.872
 7165SOL    HW122394   6.929   1.554   1.807
 7165SOL    HW222395   6.936   1.610   1.960
 7166SOL     OW22396   5.736   3.241   0.462
 7166SOL    HW122397   5.669   3.196   0.404
 7166SOL    HW222398   5.816   3.182   0.473
 7167SOL     OW22399   4.891   3.422   3.950
 7167SOL    HW122400   4.962   3.370   3.904
 7167SOL    HW222401   4.907   3.419   4.049
 7168SOL     OW22402   1.853   2.055   3.586
 7168SOL    HW122403   1.819   1.985   3.648
 7168SOL    HW222404   1.780   2.122   3.569
 7169SOL     OW22405   6.677   3.409   5.184
 7169SOL    HW122406   6.720   3.388   5.097
 7169SOL    HW222407   6.593   3.356   5.194
 7170SOL     OW22408   5.071   5.735   3.133
 7170SOL    HW122409   5.141   5.775   3.074
 7170SOL    HW222410   4.985   5.784   3.120
 7171SOL     OW22411   4.728   4.112   6.705
 7171SOL    HW122412   4.750   4.197   6.752
 7171SOL    HW222413   4.668   4.132   6.627
 7172SOL     OW22414   1.459   0.838   5.385
 7172SOL    HW122415   1.452   0.915   5.449
 7172SOL    HW222416   1.519   0.863   5.309
 7173SOL     OW22417   0.120   4.209   5.816
 7173SOL    HW122418   0.025   4.239   5.827
 7173SOL    HW222419   0.122   4.114   5.787
 7174SOL     OW22420   0.505   4.230   0.767
 7174SOL    HW122421   0.565   4.301   0.805
 7174SOL    HW222422   0.417   4.233   0.814
 7175SOL     OW22423   4.829   2.790   6.694
 7175SOL    HW122424   4.814   2.884   6.664
 7175SOL    HW222425   4.772   2.729   6.639
 7176SOL     OW22426   1.165   5.921   2.846
 7176SOL    HW122427   1.164   5.857   2.769
 7176SOL    HW222428   1.257   5.928   2.884
 7177SOL     OW22429   1.777   6.087   4.424
 7177SOL    HW122430   1.834   6.033   4.362
 7177SOL    HW222431   1.835   6.148   4.479
 7178SOL     OW22432   1.866   2.623   5.527
 7178SOL    HW122433   1.882   2.561   5.451
 7178SOL    HW222434   1.891   2.578   5.613
 7179SOL     OW22435   1.907   3.679   4.253
 7179SOL    HW122436   1.980   3.740   4.224
 7179SOL    HW222437   1.824   3.732   4.273
 7180SOL     OW22438   2.040   4.712   7.020
 7180SOL    HW122439   2.128   4.665   7.014
 7180SOL    HW222440   2.045   4.782   0.067
 7181SOL     OW22441   2.111   6.254   0.322
 7181SOL    HW122442   2.101   6.259   0.223
 7181SOL    HW222443   2.136   6.161   0.349
 7182SOL     OW22444   1.502   2.595   5.184
 7182SOL    HW122445   1.553   2.510   5.198
 7182SOL    HW222446   1.548   2.670   5.232
 7183SOL     OW22447   2.530   6.063   0.115
 7183SOL    HW122448   2.524   5.980   0.171
 7183SOL    HW222449   2.483   6.138   0.161
 7184SOL     OW22450   0.228   1.192   3.038
 7184SOL    HW122451   0.209   1.211   3.134
 7184SOL    HW222452   0.143   1.193   2.986
 7185SOL     OW22453   5.479   0.414   5.363
 7185SOL    HW122454   5.534   0.497   5.357
 7185SOL    HW222455   5.403   0.419   5.298
 7186SOL     OW22456   6.291   0.407   0.087
 7186SOL    HW122457   6.326   0.333   0.145
 7186SOL    HW222458   6.360   0.478   0.079
 7187SOL     OW22459   3.683   3.757   6.762
 7187SOL    HW122460   3.664   3.815   6.683
 7187SOL    HW222461   3.668   3.810   6.846
 7188SOL     OW22462   6.203   0.326   0.925
 7188SOL    HW122463   6.159   0.257   0.867
 7188SOL    HW222464   6.138   0.355   0.996
 7189SOL     OW22465   0.508   1.034   6.100
 7189SOL    HW122466   0.452   1.117   6.099
 7189SOL    HW222467   0.455   0.958   6.136
 7190SOL     OW22468   7.000   3.575   3.314
 7190SOL    HW122469   0.011   3.618   3.230
 7190SOL    HW222470   0.017   3.485   3.324
 7191SOL     OW22471   0.132   4.305   3.038
 7191SOL    HW122472   0.226   4.300   3.070
 7191SOL    HW222473   0.131   4.315   2.938
 7192SOL     OW22474   3.319   4.556   5.632
 7192SOL    HW122475   3.398   4.507   5.596
 7192SOL    HW222476   3.303   4.529   5.727
 7193SOL     OW22477   1.898   2.676   2.432
 7193SOL    HW122478   1.925   2.588   2.393
 7193SOL    HW222479   1.868   2.737   2.358
 7194SOL     OW22480   3.129   2.253   0.979
 7194SOL    HW122481   3.041   2.295   0.956
 7194SOL    HW222482   3.180   2.313   1.041
 7195SOL     OW22483   6.816   4.437   6.727
 7195SOL    HW122484   6.733   4.444   6.672
 7195SOL    HW222485   6.890   4.398   6.672
 7196SOL     OW22486   3.235   4.151   1.048
 7196SOL    HW122487   3.175   4.185   0.977
 7196SOL    HW222488   3.205   4.060   1.077
 7197SOL     OW22489   6.984   2.376   5.842
 7197SOL    HW122490   6.910   2.394   5.778
 7197SOL    HW222491   6.971   2.432   5.924
 7198SOL     OW22492   0.807   0.903   6.584
 7198SOL    HW122493   0.744   0.937   6.654
 7198SOL    HW222494   0.757   0.845   6.520
 7199SOL     OW22495   2.102   0.751   2.369
 7199SOL    HW122496   2.028   0.805   2.409
 7199SOL    HW222497   2.128   0.790   2.281
 7200SOL     OW22498   2.989   2.082   0.697
 7200SOL    HW122499   3.040   2.096   0.612
 7200SOL    HW222500   3.019   2.149   0.765
 7201SOL     OW22501   0.994   5.926   4.420
 7201SOL    HW122502   1.075   5.882   4.384
 7201SOL    HW222503   1.004   5.942   4.518
 7202SOL     OW22504   4.275   0.632   6.148
 7202SOL    HW122505   4.349   0.692   6.182
 7202SOL    HW222506   4.237   0.671   6.065
 7203SOL     OW22507   0.215   1.851   0.763
 7203SOL    HW122508   0.234   1.878   0.669
 7203SOL    HW222509   0.221   1.930   0.823
 7204SOL     OW22510   0.391   6.809   5.592
 7204SOL    HW122511   0.369   6.871   5.516
 7204SOL    HW222512   0.309   6.791   5.645
 7205SOL     OW22513   1.035   5.390   3.226
 7205SOL    HW122514   0.947   5.386   3.180
 7205SOL    HW222515   1.069   5.298   3.240
 7206SOL     OW22516   2.229   0.386   0.873
 7206SOL    HW122517   2.213   0.290   0.892
 7206SOL    HW222518   2.308   0.418   0.926
 7207SOL     OW22519   3.725   0.160   2.136
 7207SOL    HW122520   3.815   0.157   2.093
 7207SOL    HW222521   3.714   0.246   2.186
 7208SOL     OW22522   4.150   6.314   3.277
 7208SOL    HW122523   4.169   6.220   3.248
 7208SOL    HW222524   4.178   6.378   3.205
 7209SOL     OW22525   2.981   3.789   2.585
 7209SOL    HW122526   3.031   3.872   2.611
 7209SOL    HW222527   2.986   3.777   2.486
 7210SOL     OW22528   4.653   0.723   3.897
 7210SOL    HW122529   4.699   0.684   3.818
 7210SOL    HW222530   4.721   0.760   3.961
 7211SOL     OW22531   2.337   5.687   3.994
 7211SOL    HW122532   2.243   5.715   3.974
 7211SOL    HW222533   2.400   5.760   3.966
 7212SOL     OW22534   0.325   6.878   4.533
 7212SOL    HW122535   0.371   6.817   4.599
 7212SOL    HW222536   0.305   6.827   4.450
 7213SOL     OW22537   5.428   0.401   6.488
 7213SOL    HW122538   5.520   0.382   6.520
 7213SOL    HW222539   5.394   0.485   6.531
 7214SOL     OW22540   0.635   5.244   5.175
 7214SOL    HW122541   0.541   5.232   5.207
 7214SOL    HW222542   0.677   5.321   5.224
 7215SOL     OW22543   0.397   3.240   5.250
 7215SOL    HW122544   0.456   3.213   5.174
 7215SOL    HW222545   0.331   3.307   5.218
 7216SOL     OW22546   2.955   5.895   0.084
 7216SOL    HW122547   3.007   5.957   0.026
 7216SOL    HW222548   2.962   5.925   0.180
 7217SOL     OW22549   2.189   4.211   2.839
 7217SOL    HW122550   2.287   4.210   2.818
 7217SOL    HW222551   2.143   4.275   2.778
 7218SOL     OW22552   5.101   2.395   5.232
 7218SOL    HW122553   5.082   2.378   5.329
 7218SOL    HW222554   5.156   2.478   5.224
 7219SOL     OW22555   4.629   6.544   4.699
 7219SOL    HW122556   4.550   6.569   4.756
 7219SOL    HW222557   4.667   6.457   4.731
 7220SOL     OW22558   0.581   5.915   4.684
 7220SOL    HW122559   0.675   5.945   4.698
 7220SOL    HW222560   0.578   5.845   4.613
 7221SOL     OW22561   4.224   5.253   4.532
 7221SOL    HW122562   4.192   5.192   4.459
 7221SOL    HW222563   4.192   5.346   4.514
 7222SOL     OW22564   6.114   0.530   2.918
 7222SOL    HW122565   6.023   0.507   2.885
 7222SOL    HW222566   6.151   0.607   2.865
 7223SOL     OW22567   2.526   2.074   1.415
 7223SOL    HW122568   2.462   2.102   1.344
 7223SOL    HW222569   2.590   2.007   1.377
 7224SOL     OW22570   5.905   2.190   4.355
 7224SOL    HW122571   5.874   2.255   4.425
 7224SOL    HW222572   5.996   2.216   4.323
 7225SOL     OW22573   0.977   6.170   6.541
 7225SOL    HW122574   1.036   6.115   6.599
 7225SOL    HW222575   0.939   6.246   6.593
 7226SOL     OW22576   6.938   1.107   0.714
 7226SOL    HW122577   6.879   1.044   0.764
 7226SOL    HW222578   6.982   1.058   0.639
 7227SOL     OW22579   0.460   2.319   1.061
 7227SOL    HW122580   0.388   2.331   1.130
 7227SOL    HW222581   0.484   2.409   1.023
 7228SOL     OW22582   0.902   1.099   2.302
 7228SOL    HW122583   0.908   1.132   2.396
 7228SOL    HW222584   0.808   1.105   2.269
 7229SOL     OW22585   1.333   0.029   4.869
 7229SOL    HW122586   1.283   6.975   4.831
 7229SOL    HW222587   1.306   0.041   4.965
 7230SOL     OW22588   4.962   5.121   4.268
 7230SOL    HW122589   5.039   5.176   4.235
 7230SOL    HW222590   4.877   5.172   4.255
 7231SOL     OW22591   4.888   0.202   0.258
 7231SOL    HW122592   4.895   0.150   0.343
 7231SOL    HW222593   4.897   0.141   0.180
 7232SOL     OW22594   4.934   5.341   3.098
 7232SOL    HW122595   4.881   5.425   3.106
 7232SOL    HW222596   5.028   5.358   3.127
 7233SOL     OW22597   0.461   2.531   4.209
 7233SOL    HW122598   0.398   2.575   4.145
 7233SOL    HW222599   0.486   2.596   4.281
 7234SOL     OW22600   5.322   3.132   3.729
 7234SOL    HW122601   5.408   3.154   3.775
 7234SOL    HW222602   5.341   3.080   3.646
 7235SOL     OW22603   6.848   4.025   2.187
 7235SOL    HW122604   6.871   4.024   2.285
 7235SOL    HW222605   6.892   3.947   2.142
 7236SOL     OW22606   2.605   1.476   2.483
 7236SOL    HW122607   2.519   1.495   2.435
 7236SOL    HW222608   2.618   1.378   2.492
 7237SOL     OW22609   6.295   7.004   5.047
 7237SOL    HW122610   6.197   6.992   5.065
 7237SOL    HW222611   6.328   6.930   4.989
 7238SOL     OW22612   2.969   1.850   1.234
 7238SOL    HW122613   3.012   1.937   1.209
 7238SOL    HW222614   3.023   1.806   1.306
 7239SOL     OW22615   2.175   1.818   2.678
 7239SOL    HW122616   2.242   1.889   2.699
 7239SOL    HW222617   2.169   1.807   2.578
 7240SOL     OW22618   2.136   4.865   5.987
 7240SOL    HW122619   2.164   4.932   5.918
 7240SOL    HW222620   2.218   4.823   6.027
 7241SOL     OW22621   2.994   0.600   0.430
 7241SOL    HW122622   2.981   0.554   0.518
 7241SOL    HW222623   2.985   0.534   0.356
 7242SOL     OW22624   6.439   5.822   0.545
 7242SOL    HW122625   6.512   5.810   0.478
 7242SOL    HW222626   6.406   5.733   0.576
 7243SOL     OW22627   0.009   4.672   6.033
 7243SOL    HW122628   0.007   4.719   6.121
 7243SOL    HW222629   6.966   4.715   5.971
 7244SOL     OW22630   5.960   0.407   1.055
 7244SOL    HW122631   5.916   0.449   1.134
 7244SOL    HW222632   5.908   0.326   1.027
 7245SOL     OW22633   0.611   2.260   5.166
 7245SOL    HW122634   0.675   2.213   5.228
 7245SOL    HW222635   0.599   2.205   5.083
 7246SOL     OW22636   6.040   0.333   4.749
 7246SOL    HW122637   5.978   0.290   4.814
 7246SOL    HW222638   6.110   0.385   4.798
 7247SOL     OW22639   3.174   6.702   3.844
 7247SOL    HW122640   3.210   6.613   3.816
 7247SOL    HW222641   3.214   6.774   3.787
 7248SOL     OW22642   3.619   0.773   3.212
 7248SOL    HW122643   3.605   0.726   3.125
 7248SOL    HW222644   3.711   0.752   3.246
 7249SOL     OW22645   5.358   4.726   1.782
 7249SOL    HW122646   5.387   4.670   1.859
 7249SOL    HW222647   5.300   4.801   1.815
 7250SOL     OW22648   3.821   6.230   6.121
 7250SOL    HW122649   3.910   6.221   6.166
 7250SOL    HW222650   3.810   6.324   6.088
 7251SOL     OW22651   0.371   6.671   5.346
 7251SOL    HW122652   0.440   6.728   5.301
 7251SOL    HW222653   0.360   6.701   5.441
 7252SOL     OW22654   3.941   3.122   3.674
 7252SOL    HW122655   3.924   3.051   3.742
 7252SOL    HW222656   3.930   3.084   3.582
 7253SOL     OW22657   1.707   6.084   6.901
 7253SOL    HW122658   1.759   6.112   6.982
 7253SOL    HW222659   1.725   6.148   6.826
 7254SOL     OW22660   4.545   5.635   4.814
 7254SOL    HW122661   4.605   5.620   4.892
 7254SOL    HW222662   4.462   5.582   4.825
 7255SOL     OW22663   3.766   3.460   1.162
 7255SOL    HW122664   3.781   3.366   1.133
 7255SOL    HW222665   3.807   3.474   1.253
 7256SOL     OW22666   4.746   4.620   4.353
 7256SOL    HW122667   4.719   4.716   4.355
 7256SOL    HW222668   4.839   4.612   4.316
 7257SOL     OW22669   4.695   2.802   3.815
 7257SOL    HW122670   4.672   2.808   3.912
 7257SOL    HW222671   4.781   2.751   3.805
 7258SOL     OW22672   3.852   1.182   3.235
 7258SOL    HW122673   3.835   1.281   3.226
 7258SOL    HW222674   3.817   1.150   3.322
 7259SOL     OW22675   3.528   3.317   1.851
 7259SOL    HW122676   3.433   3.287   1.865
 7259SOL    HW222677   3.559   3.369   1.931
 7260SOL     OW22678   2.721   2.355   2.830
 7260SOL    HW122679   2.652   2.423   2.853
 7260SOL    HW222680   2.803   2.371   2.885
 7261SOL     OW22681   2.277   3.033   1.001
 7261SOL    HW122682   2.260   3.123   0.960
 7261SOL    HW222683   2.317   2.973   0.931
 7262SOL     OW22684   5.633   2.142   4.060
 7262SOL    HW122685   5.602   2.225   4.015
 7262SOL    HW222686   5.703   2.166   4.128
 7263SOL     OW22687   0.113   6.287   2.688
 7263SOL    HW122688   0.127   6.335   2.775
 7263SOL    HW222689   0.120   6.189   2.703
 7264SOL     OW22690   6.319   1.509   6.615
 7264SOL    HW122691   6.349   1.603   6.596
 7264SOL    HW222692   6.373   1.472   6.690
 7265SOL     OW22693   5.302   5.870   5.760
 7265SOL    HW122694   5.359   5.887   5.841
 7265SOL    HW222695   5.210   5.906   5.777
 7266SOL     OW22696   4.285   7.021   1.133
 7266SOL    HW122697   4.191   0.023   1.110
 7266SOL    HW222698   4.336   0.079   1.162
 7267SOL     OW22699   6.962   5.505   5.832
 7267SOL    HW122700   6.927   5.439   5.765
 7267SOL    HW222701   6.887   5.563   5.864
 7268SOL     OW22702   4.425   4.912   2.771
 7268SOL    HW122703   4.398   4.817   2.786
 7268SOL    HW222704   4.386   4.970   2.842
 7269SOL     OW22705   6.837   5.997   1.091
 7269SOL    HW122706   6.754   5.971   1.140
 7269SOL    HW222707   6.836   6.096   1.075
 7270SOL     OW22708   1.253   2.705   4.380
 7270SOL    HW122709   1.330   2.662   4.428
 7270SOL    HW222710   1.205   2.766   4.442
 7271SOL     OW22711   0.583   4.720   3.988
 7271SOL    HW122712   0.520   4.658   3.940
 7271SOL    HW222713   0.649   4.667   4.041
 7272SOL     OW22714   5.707   4.694   1.972
 7272SOL    HW122715   5.735   4.634   2.047
 7272SOL    HW222716   5.669   4.778   2.010
 7273SOL     OW22717   5.347   4.841   2.500
 7273SOL    HW122718   5.337   4.743   2.513
 7273SOL    HW222719   5.442   4.867   2.517
 7274SOL     OW22720   1.316   6.303   6.042
 7274SOL    HW122721   1.319   6.217   6.093
 7274SOL    HW222722   1.276   6.374   6.099
 7275SOL     OW22723   6.734   1.254   2.521
 7275SOL    HW122724   6.642   1.222   2.542
 7275SOL    HW222725   6.762   1.220   2.431
 7276SOL     OW22726   3.504   1.300   3.731
 7276SOL    HW122727   3.560   1.312   3.813
 7276SOL    HW222728   3.420   1.355   3.740
 7277SOL     OW22729   5.449   1.277   4.436
 7277SOL    HW122730   5.432   1.375   4.435
 7277SOL    HW222731   5.476   1.247   4.344
 7278SOL     OW22732   2.888   1.980   2.332
 7278SOL    HW122733   2.889   1.899   2.274
 7278SOL    HW222734   2.801   1.985   2.381
 7279SOL     OW22735   4.005   2.987   6.374
 7279SOL    HW122736   3.988   2.948   6.465
 7279SOL    HW222737   4.069   3.063   6.383
 7280SOL     OW22738   6.642   2.263   4.426
 7280SOL    HW122739   6.681   2.260   4.334
 7280SOL    HW222740   6.581   2.342   4.434
 7281SOL     OW22741   2.448   0.191   0.204
 7281SOL    HW122742   2.381   0.242   0.150
 7281SOL    HW222743   2.412   0.101   0.227
 7282SOL     OW22744   6.554   6.608   0.684
 7282SOL    HW122745   6.552   6.689   0.625
 7282SOL    HW222746   6.529   6.527   0.630
 7283SOL     OW22747   2.337   6.715   1.995
 7283SOL    HW122748   2.338   6.649   2.070
 7283SOL    HW222749   2.419   6.773   2.000
 7284SOL     OW22750   0.479   3.094   4.519
 7284SOL    HW122751   0.393   3.043   4.518
 7284SOL    HW222752   0.521   3.085   4.610
 7285SOL     OW22753   5.652   3.691   1.675
 7285SOL    HW122754   5.628   3.671   1.770
 7285SOL    HW222755   5.601   3.771   1.643
 7286SOL     OW22756   1.017   0.588   0.636
 7286SOL    HW122757   0.954   0.586   0.713
 7286SOL    HW222758   1.098   0.534   0.658
 7287SOL     OW22759   0.201   3.375   4.611
 7287SOL    HW122760   0.134   3.448   4.628
 7287SOL    HW222761   0.262   3.403   4.537
 7288SOL     OW22762   1.218   2.756   2.104
 7288SOL    HW122763   1.209   2.665   2.143
 7288SOL    HW222764   1.145   2.770   2.036
 7289SOL     OW22765   6.584   2.576   2.737
 7289SOL    HW122766   6.589   2.565   2.638
 7289SOL    HW222767   6.508   2.521   2.772
 7290SOL     OW22768   3.185   0.975   5.478
 7290SOL    HW122769   3.270   0.954   5.430
 7290SOL    HW222770   3.201   0.973   5.577
 7291SOL     OW22771   3.362   7.005   0.685
 7291SOL    HW122772   3.292   7.021   0.615
 7291SOL    HW222773   3.324   6.946   0.756
 7292SOL     OW22774   2.320   6.922   2.941
 7292SOL    HW122775   2.405   6.948   2.986
 7292SOL    HW222776   2.246   6.918   3.008
 7293SOL     OW22777   1.819   1.068   5.901
 7293SOL    HW122778   1.780   1.150   5.861
 7293SOL    HW222779   1.747   1.013   5.943
 7294SOL     OW22780   2.906   4.489   0.319
 7294SOL    HW122781   2.907   4.467   0.222
 7294SOL    HW222782   2.974   4.434   0.367
 7295SOL     OW22783   6.916   4.270   1.375
 7295SOL    HW122784   7.006   4.247   1.338
 7295SOL    HW222785   6.846   4.218   1.326
 7296SOL     OW22786   4.440   4.899   2.500
 7296SOL    HW122787   4.437   4.904   2.600
 7296SOL    HW222788   4.503   4.969   2.466
 7297SOL     OW22789   2.542   6.626   2.720
 7297SOL    HW122790   2.534   6.725   2.714
 7297SOL    HW222791   2.630   6.597   2.681
 7298SOL     OW22792   5.231   5.298   0.368
 7298SOL    HW122793   5.274   5.262   0.451
 7298SOL    HW222794   5.301   5.328   0.304
 7299SOL     OW22795   0.808   1.822   0.602
 7299SOL    HW122796   0.841   1.733   0.634
 7299SOL    HW222797   0.711   1.814   0.577
 7300SOL     OW22798   0.736   5.445   2.019
 7300SOL    HW122799   0.701   5.527   1.974
 7300SOL    HW222800   0.835   5.453   2.032
 7301SOL     OW22801   6.796   1.644   5.808
 7301SOL    HW122802   6.759   1.556   5.778
 7301SOL    HW222803   6.849   1.631   5.891
 7302SOL     OW22804   0.455   2.043   5.447
 7302SOL    HW122805   0.475   1.955   5.489
 7302SOL    HW222806   0.533   2.073   5.392
 7303SOL     OW22807   3.219   1.013   6.650
 7303SOL    HW122808   3.318   0.996   6.645
 7303SOL    HW222809   3.191   1.015   6.746
 7304SOL     OW22810   2.123   5.787   1.568
 7304SOL    HW122811   2.036   5.825   1.601
 7304SOL    HW222812   2.115   5.763   1.471
 7305SOL     OW22813   5.986   2.302   1.133
 7305SOL    HW122814   5.986   2.401   1.121
 7305SOL    HW222815   5.956   2.279   1.226
 7306SOL     OW22816   3.585   1.526   1.690
 7306SOL    HW122817   3.589   1.458   1.617
 7306SOL    HW222818   3.517   1.596   1.667
 7307SOL     OW22819   4.240   6.958   2.225
 7307SOL    HW122820   4.276   0.028   2.227
 7307SOL    HW222821   4.142   6.960   2.242
 7308SOL     OW22822   0.231   1.659   3.489
 7308SOL    HW122823   0.322   1.623   3.469
 7308SOL    HW222824   0.174   1.654   3.407
 7309SOL     OW22825   2.238   6.247   1.885
 7309SOL    HW122826   2.325   6.198   1.892
 7309SOL    HW222827   2.255   6.339   1.852
 7310SOL     OW22828   1.709   3.324   6.124
 7310SOL    HW122829   1.799   3.329   6.080
 7310SOL    HW222830   1.660   3.243   6.090
 7311SOL     OW22831   0.811   0.000   0.630
 7311SOL    HW122832   0.719   0.037   0.641
 7311SOL    HW222833   0.866   0.064   0.575
 7312SOL     OW22834   0.798   2.014   5.087
 7312SOL    HW122835   0.817   2.051   4.996
 7312SOL    HW222836   0.873   2.038   5.149
 7313SOL     OW22837   2.775   1.746   0.549
 7313SOL    HW122838   2.866   1.756   0.508
 7313SOL    HW222839   2.723   1.831   0.537
 7314SOL     OW22840   6.771   3.956   6.103
 7314SOL    HW122841   6.835   3.997   6.168
 7314SOL    HW222842   6.772   3.857   6.112
 7315SOL     OW22843   5.797   5.260   2.420
 7315SOL    HW122844   5.797   5.177   2.365
 7315SOL    HW222845   5.870   5.254   2.489
 7316SOL     OW22846   3.374   2.181   6.278
 7316SOL    HW122847   3.307   2.171   6.204
 7316SOL    HW222848   3.356   2.266   6.328
 7317SOL     OW22849   3.636   1.069   2.130
 7317SOL    HW122850   3.694   1.076   2.048
 7317SOL    HW222851   3.605   1.160   2.156
 7318SOL     OW22852   3.242   6.490   2.520
 7318SOL    HW122853   3.335   6.519   2.542
 7318SOL    HW222854   3.179   6.566   2.537
 7319SOL     OW22855   6.024   3.799   6.079
 7319SOL    HW122856   5.979   3.729   6.024
 7319SOL    HW222857   6.122   3.802   6.056
 7320SOL     OW22858   0.544   3.276   7.022
 7320SOL    HW122859   0.467   3.335   6.998
 7320SOL    HW222860   0.557   3.276   0.098
 7321SOL     OW22861   2.080   6.658   6.204
 7321SOL    HW122862   1.988   6.682   6.172
 7321SOL    HW222863   2.100   6.708   6.288
 7322SOL     OW22864   0.002   2.954   2.871
 7322SOL    HW122865   6.958   2.954   2.798
 7322SOL    HW222866   0.088   2.914   2.838
 7323SOL     OW22867   2.556   2.078   0.970
 7323SOL    HW122868   2.648   2.037   0.967
 7323SOL    HW222869   2.519   2.069   1.062
 7324SOL     OW22870   5.968   4.483   2.704
 7324SOL    HW122871   6.054   4.435   2.687
 7324SOL    HW222872   5.958   4.499   2.802
 7325SOL     OW22873   2.778   0.070   5.271
 7325SOL    HW122874   2.751   0.107   5.360
 7325SOL    HW222875   2.877   0.051   5.272
 7326SOL     OW22876   3.832   0.638   6.482
 7326SOL    HW122877   3.784   0.618   6.397
 7326SOL    HW222878   3.902   0.708   6.465
 7327SOL     OW22879   5.602   3.773   3.734
 7327SOL    HW122880   5.688   3.800   3.691
 7327SOL    HW222881   5.620   3.742   3.827
 7328SOL     OW22882   4.700   6.466   6.182
 7328SOL    HW122883   4.798   6.447   6.190
 7328SOL    HW222884   4.675   6.472   6.086
 7329SOL     OW22885   1.047   2.698   6.985
 7329SOL    HW122886   1.033   2.599   6.978
 7329SOL    HW222887   1.041   2.726   0.057
 7330SOL     OW22888   2.732   2.811   1.532
 7330SOL    HW122889   2.782   2.746   1.475
 7330SOL    HW222890   2.669   2.864   1.475
 7331SOL     OW22891   4.888   6.338   2.017
 7331SOL    HW122892   4.966   6.375   1.966
 7331SOL    HW222893   4.889   6.238   2.011
 7332SOL     OW22894   3.946   4.120   6.867
 7332SOL    HW122895   3.855   4.111   6.907
 7332SOL    HW222896   3.971   4.035   6.822
 7333SOL     OW22897   6.109   3.262   3.220
 7333SOL    HW122898   6.141   3.340   3.166
 7333SOL    HW222899   6.087   3.186   3.158
 7334SOL     OW22900   3.039   5.290   5.762
 7334SOL    HW122901   3.023   5.269   5.859
 7334SOL    HW222902   3.064   5.206   5.714
 7335SOL     OW22903   0.225   2.587   3.010
 7335SOL    HW122904   0.264   2.679   3.002
 7335SOL    HW222905   0.300   2.520   3.014
 7336SOL     OW22906   2.232   6.168   1.078
 7336SOL    HW122907   2.290   6.248   1.064
 7336SOL    HW222908   2.165   6.163   1.004
 7337SOL     OW22909   2.572   3.173   1.478
 7337SOL    HW122910   2.651   3.225   1.512
 7337SOL    HW222911   2.503   3.236   1.443
 7338SOL     OW22912   6.312   2.092   1.561
 7338SOL    HW122913   6.346   2.176   1.520
 7338SOL    HW222914   6.333   2.014   1.502
 7339SOL     OW22915   7.004   6.581   5.714
 7339SOL    HW122916   6.917   6.611   5.753
 7339SOL    HW222917   0.044   6.659   5.713
 7340SOL     OW22918   4.278   1.797   0.011
 7340SOL    HW122919   4.260   1.894   7.018
 7340SOL    HW222920   4.375   1.783   0.029
 7341SOL     OW22921   1.120   5.158   5.027
 7341SOL    HW122922   1.218   5.142   5.022
 7341SOL    HW222923   1.091   5.212   4.948
 7342SOL     OW22924   6.164   6.910   0.457
 7342SOL    HW122925   6.246   6.879   0.409
 7342SOL    HW222926   6.097   6.942   0.390
 7343SOL     OW22927   5.542   2.911   2.182
 7343SOL    HW122928   5.497   2.839   2.236
 7343SOL    HW222929   5.630   2.933   2.222
 7344SOL     OW22930   1.775   0.033   6.630
 7344SOL    HW122931   1.788   0.123   6.669
 7344SOL    HW222932   1.830   6.989   6.680
 7345SOL     OW22933   4.722   5.561   5.487
 7345SOL    HW122934   4.771   5.577   5.573
 7345SOL    HW222935   4.627   5.539   5.506
 7346SOL     OW22936   3.888   3.657   1.005
 7346SOL    HW122937   3.828   3.595   1.055
 7346SOL    HW222938   3.959   3.605   0.959
 7347SOL     OW22939   6.923   2.436   1.492
 7347SOL    HW122940   7.010   2.483   1.508
 7347SOL    HW222941   6.867   2.490   1.429
 7348SOL     OW22942   1.519   3.245   3.733
 7348SOL    HW122943   1.471   3.329   3.708
 7348SOL    HW222944   1.479   3.207   3.816
 7349SOL     OW22945   3.562   1.805   1.283
 7349SOL    HW122946   3.489   1.811   1.351
 7349SOL    HW222947   3.523   1.787   1.193
 7350SOL     OW22948   1.303   3.030   3.865
 7350SOL    HW122949   1.215   3.015   3.820
 7350SOL    HW222950   1.377   2.998   3.806
 7351SOL     OW22951   4.314   5.188   6.218
 7351SOL    HW122952   4.405   5.153   6.240
 7351SOL    HW222953   4.256   5.182   6.299
 7352SOL     OW22954   2.036   2.582   3.608
 7352SOL    HW122955   2.037   2.668   3.659
 7352SOL    HW222956   2.055   2.600   3.511
 7353SOL     OW22957   0.606   0.626   5.562
 7353SOL    HW122958   0.586   0.646   5.466
 7353SOL    HW222959   0.551   0.548   5.592
 7354SOL     OW22960   0.347   1.255   6.102
 7354SOL    HW122961   0.398   1.289   6.180
 7354SOL    HW222962   0.380   1.300   6.019
 7355SOL     OW22963   1.521   6.587   0.186
 7355SOL    HW122964   1.525   6.599   0.086
 7355SOL    HW222965   1.426   6.581   0.215
 7356SOL     OW22966   5.226   2.863   6.214
 7356SOL    HW122967   5.318   2.823   6.212
 7356SOL    HW222968   5.174   2.824   6.290
 7357SOL     OW22969   4.685   1.459   1.167
 7357SOL    HW122970   4.646   1.510   1.244
 7357SOL    HW222971   4.726   1.375   1.201
 7358SOL     OW22972   1.913   2.453   2.280
 7358SOL    HW122973   1.822   2.422   2.251
 7358SOL    HW222974   1.970   2.374   2.301
 7359SOL     OW22975   3.503   2.212   1.117
 7359SOL    HW122976   3.472   2.305   1.097
 7359SOL    HW222977   3.446   2.173   1.189
 7360SOL     OW22978   3.194   2.147   6.086
 7360SOL    HW122979   3.113   2.195   6.052
 7360SOL    HW222980   3.224   2.079   6.019
 7361SOL     OW22981   4.161   6.611   1.838
 7361SOL    HW122982   4.139   6.584   1.744
 7361SOL    HW222983   4.213   6.696   1.838
 7362SOL     OW22984   0.598   0.210   4.988
 7362SOL    HW122985   0.508   0.181   5.020
 7362SOL    HW222986   0.603   0.201   4.889
 7363SOL     OW22987   3.945   1.596   1.314
 7363SOL    HW122988   3.939   1.501   1.343
 7363SOL    HW222989   3.864   1.620   1.261
 7364SOL     OW22990   4.005   6.752   1.461
 7364SOL    HW122991   4.023   6.716   1.369
 7364SOL    HW222992   4.054   6.697   1.528
 7365SOL     OW22993   1.424   5.903   2.089
 7365SOL    HW122994   1.407   5.979   2.026
 7365SOL    HW222995   1.514   5.913   2.130
 7366SOL     OW22996   1.649   5.611   0.398
 7366SOL    HW122997   1.638   5.584   0.494
 7366SOL    HW222998   1.628   5.708   0.388
 7367SOL     OW22999   4.312   3.858   1.319
 7367SOL    HW123000   4.272   3.941   1.281
 7367SOL    HW223001   4.407   3.850   1.289
 7368SOL     OW23002   3.653   2.899   4.261
 7368SOL    HW123003   3.623   2.912   4.355
 7368SOL    HW223004   3.577   2.865   4.206
 7369SOL     OW23005   5.186   3.216   0.894
 7369SOL    HW123006   5.152   3.287   0.956
 7369SOL    HW223007   5.281   3.237   0.869
 7370SOL     OW23008   2.128   0.647   5.479
 7370SOL    HW123009   2.162   0.740   5.497
 7370SOL    HW223010   2.206   0.587   5.461
 7371SOL     OW23011   2.288   5.436   3.705
 7371SOL    HW123012   2.215   5.497   3.735
 7371SOL    HW223013   2.253   5.377   3.632
 7372SOL     OW23014   3.143   0.642   5.652
 7372SOL    HW123015   3.100   0.565   5.604
 7372SOL    HW223016   3.072   0.700   5.692
 7373SOL     OW23017   5.195   1.366   3.377
 7373SOL    HW123018   5.171   1.303   3.451
 7373SOL    HW223019   5.205   1.458   3.414
 7374SOL     OW23020   3.005   2.426   5.332
 7374SOL    HW123021   3.095   2.426   5.289
 7374SOL    HW223022   2.990   2.338   5.377
 7375SOL     OW23023   2.079   2.181   3.555
 7375SOL    HW123024   1.991   2.148   3.589
 7375SOL    HW223025   2.108   2.261   3.609
 7376SOL     OW23026   3.882   1.442   0.413
 7376SOL    HW123027   3.852   1.522   0.361
 7376SOL    HW223028   3.974   1.459   0.450
 7377SOL     OW23029   4.972   6.085   1.931
 7377SOL    HW123030   4.939   6.081   1.837
 7377SOL    HW223031   4.923   6.017   1.986
 7378SOL     OW23032   0.340   2.306   4.864
 7378SOL    HW123033   0.310   2.240   4.932
 7378SOL    HW223034   0.266   2.325   4.800
 7379SOL     OW23035   3.961   2.197   2.915
 7379SOL    HW123036   3.979   2.103   2.943
 7379SOL    HW223037   4.046   2.250   2.919
 7380SOL     OW23038   6.510   3.606   5.091
 7380SOL    HW123039   6.556   3.622   5.004
 7380SOL    HW223040   6.567   3.547   5.149
 7381SOL     OW23041   4.849   3.864   2.510
 7381SOL    HW123042   4.861   3.770   2.540
 7381SOL    HW223043   4.849   3.867   2.410
 7382SOL     OW23044   0.236   5.800   6.037
 7382SOL    HW123045   0.283   5.870   6.090
 7382SOL    HW223046   0.302   5.753   5.979
 7383SOL     OW23047   0.367   6.856   2.091
 7383SOL    HW123048   0.455   6.817   2.119
 7383SOL    HW223049   0.370   6.878   1.993
 7384SOL     OW23050   4.876   0.766   2.111
 7384SOL    HW123051   4.902   0.818   2.192
 7384SOL    HW223052   4.786   0.726   2.125
 7385SOL     OW23053   4.138   6.425   2.038
 7385SOL    HW123054   4.072   6.355   2.009
 7385SOL    HW223055   4.142   6.498   1.970
 7386SOL     OW23056   0.253   2.438   5.346
 7386SOL    HW123057   0.238   2.386   5.262
 7386SOL    HW223058   0.327   2.503   5.332
 7387SOL     OW23059   4.155   0.059   4.650
 7387SOL    HW123060   4.100   0.058   4.734
 7387SOL    HW223061   4.237   0.004   4.665
 7388SOL     OW23062   6.575   5.539   3.674
 7388SOL    HW123063   6.522   5.506   3.595
 7388SOL    HW223064   6.572   5.470   3.746
 7389SOL     OW23065   1.136   4.935   0.109
 7389SOL    HW123066   1.220   4.941   0.055
 7389SOL    HW223067   1.150   4.982   0.197
 7390SOL     OW23068   1.586   1.421   0.116
 7390SOL    HW123069   1.509   1.395   0.173
 7390SOL    HW223070   1.579   1.519   0.093
 7391SOL     OW23071   4.730   4.426   4.731
 7391SOL    HW123072   4.828   4.438   4.719
 7391SOL    HW223073   4.713   4.356   4.801
 7392SOL     OW23074   3.243   5.728   6.268
 7392SOL    HW123075   3.322   5.738   6.329
 7392SOL    HW223076   3.203   5.818   6.251
 7393SOL     OW23077   6.132   5.561   1.357
 7393SOL    HW123078   6.202   5.588   1.291
 7393SOL    HW223079   6.071   5.493   1.315
 7394SOL     OW23080   3.273   2.724   6.555
 7394SOL    HW123081   3.220   2.789   6.611
 7394SOL    HW223082   3.272   2.753   6.460
 7395SOL     OW23083   1.930   0.781   0.135
 7395SOL    HW123084   1.899   0.873   0.113
 7395SOL    HW223085   1.859   0.714   0.111
 7396SOL     OW23086   1.024   0.210   0.559
 7396SOL    HW123087   0.935   0.213   0.513
 7396SOL    HW223088   1.097   0.214   0.491
 7397SOL     OW23089   5.094   5.356   4.615
 7397SOL    HW123090   5.041   5.276   4.643
 7397SOL    HW223091   5.071   5.433   4.676
 7398SOL     OW23092   3.275   5.131   3.858
 7398SOL    HW123093   3.203   5.084   3.807
 7398SOL    HW223094   3.237   5.214   3.899
 7399SOL     OW23095   0.084   3.327   5.416
 7399SOL    HW123096   0.059   3.417   5.451
 7399SOL    HW223097   0.133   3.338   5.329
 7400SOL     OW23098   2.799   3.390   6.726
 7400SOL    HW123099   2.784   3.319   6.794
 7400SOL    HW223100   2.741   3.469   6.747
 7401SOL     OW23101   0.792   0.944   4.027
 7401SOL    HW123102   0.738   0.973   3.948
 7401SOL    HW223103   0.755   0.858   4.063
 7402SOL     OW23104   1.701   5.455   4.791
 7402SOL    HW123105   1.671   5.544   4.756
 7402SOL    HW223106   1.796   5.440   4.765
 7403SOL     OW23107   1.909   3.652   3.224
 7403SOL    HW123108   1.880   3.612   3.137
 7403SOL    HW223109   1.999   3.618   3.249
 7404SOL     OW23110   2.580   6.100   1.643
 7404SOL    HW123111   2.636   6.024   1.609
 7404SOL    HW223112   2.517   6.129   1.571
 7405SOL     OW23113   2.016   4.899   4.610
 7405SOL    HW123114   2.029   4.808   4.568
 7405SOL    HW223115   2.100   4.951   4.602
 7406SOL     OW23116   1.348   3.677   3.420
 7406SOL    HW123117   1.277   3.728   3.469
 7406SOL    HW223118   1.435   3.689   3.466
 7407SOL     OW23119   6.887   6.103   4.940
 7407SOL    HW123120   6.819   6.174   4.920
 7407SOL    HW223121   6.979   6.143   4.934
 7408SOL     OW23122   0.953   3.673   5.456
 7408SOL    HW123123   0.902   3.696   5.373
 7408SOL    HW223124   0.910   3.594   5.501
 7409SOL     OW23125   0.135   1.316   5.032
 7409SOL    HW123126   0.081   1.279   4.957
 7409SOL    HW223127   0.163   1.410   5.009
 7410SOL     OW23128   0.001   4.528   0.857
 7410SOL    HW123129   6.939   4.577   0.840
 7410SOL    HW223130   0.077   4.594   0.860
 7411SOL     OW23131   3.180   6.269   4.350
 7411SOL    HW123132   3.208   6.365   4.341
 7411SOL    HW223133   3.107   6.249   4.284
 7412SOL     OW23134   4.212   0.629   2.290
 7412SOL    HW123135   4.282   0.700   2.281
 7412SOL    HW223136   4.174   0.608   2.199
 7413SOL     OW23137   6.035   5.382   4.683
 7413SOL    HW123138   6.092   5.447   4.734
 7413SOL    HW223139   6.064   5.379   4.588
 7414SOL     OW23140   0.360   6.935   3.559
 7414SOL    HW123141   0.429   6.870   3.526
 7414SOL    HW223142   0.301   6.963   3.483
 7415SOL     OW23143   1.032   4.043   2.905
 7415SOL    HW123144   1.023   4.090   2.817
 7415SOL    HW223145   0.944   4.002   2.930
 7416SOL     OW23146   3.118   0.184   4.138
 7416SOL    HW123147   3.143   0.107   4.197
 7416SOL    HW223148   3.119   0.268   4.192
 7417SOL     OW23149   2.354   0.402   6.304
 7417SOL    HW123150   2.448   0.431   6.286
 7417SOL    HW223151   2.341   0.310   6.269
 7418SOL     OW23152   3.980   5.359   1.046
 7418SOL    HW123153   4.033   5.380   1.128
 7418SOL    HW223154   4.036   5.309   0.981
 7419SOL     OW23155   6.612   2.694   4.530
 7419SOL    HW123156   6.561   2.771   4.492
 7419SOL    HW223157   6.550   2.619   4.550
 7420SOL     OW23158   6.567   6.479   2.236
 7420SOL    HW123159   6.538   6.384   2.233
 7420SOL    HW223160   6.665   6.485   2.215
 7421SOL     OW23161   3.283   3.706   1.788
 7421SOL    HW123162   3.347   3.716   1.712
 7421SOL    HW223163   3.333   3.690   1.873
 7422SOL     OW23164   0.309   3.863   1.844
 7422SOL    HW123165   0.214   3.884   1.865
 7422SOL    HW223166   0.334   3.775   1.886
 7423SOL     OW23167   6.539   4.285   5.969
 7423SOL    HW123168   6.452   4.251   6.005
 7423SOL    HW223169   6.582   4.214   5.914
 7424SOL     OW23170   6.399   0.832   4.518
 7424SOL    HW123171   6.471   0.765   4.500
 7424SOL    HW223172   6.316   0.806   4.469
 7425SOL     OW23173   4.295   5.931   6.612
 7425SOL    HW123174   4.275   5.950   6.708
 7425SOL    HW223175   4.287   6.016   6.559
 7426SOL     OW23176   1.180   2.034   6.012
 7426SOL    HW123177   1.121   1.957   6.039
 7426SOL    HW223178   1.123   2.109   5.981
 7427SOL     OW23179   3.690   6.063   4.664
 7427SOL    HW123180   3.713   5.968   4.643
 7427SOL    HW223181   3.760   6.102   4.723
 7428SOL     OW23182   3.908   1.719   5.223
 7428SOL    HW123183   3.881   1.758   5.311
 7428SOL    HW223184   4.005   1.737   5.208
 7429SOL     OW23185   5.220   0.531   3.227
 7429SOL    HW123186   5.298   0.577   3.270
 7429SOL    HW223187   5.250   0.443   3.190
 7430SOL     OW23188   0.387   3.704   6.728
 7430SOL    HW123189   0.376   3.803   6.738
 7430SOL    HW223190   0.463   3.685   6.666
 7431SOL     OW23191   0.317   3.607   2.073
 7431SOL    HW123192   0.251   3.535   2.050
 7431SOL    HW223193   0.297   3.643   2.164
 7432SOL     OW23194   0.364   6.951   3.264
 7432SOL    HW123195   0.455   6.958   3.223
 7432SOL    HW223196   0.311   0.008   3.240
 7433SOL     OW23197   6.306   5.020   0.942
 7433SOL    HW123198   6.366   5.095   0.968
 7433SOL    HW223199   6.224   5.021   0.999
 7434SOL     OW23200   4.268   0.914   6.442
 7434SOL    HW123201   4.287   0.993   6.383
 7434SOL    HW223202   4.352   0.860   6.452
 7435SOL     OW23203   3.497   5.772   6.790
 7435SOL    HW123204   3.519   5.747   6.885
 7435SOL    HW223205   3.407   5.736   6.766
 7436SOL     OW23206   5.990   3.541   6.196
 7436SOL    HW123207   6.086   3.564   6.183
 7436SOL    HW223208   5.964   3.470   6.131
 7437SOL     OW23209   0.086   5.820   0.108
 7437SOL    HW123210   0.122   5.913   0.116
 7437SOL    HW223211   7.018   5.823   0.066
 7438SOL     OW23212   0.959   5.425   0.957
 7438SOL    HW123213   1.038   5.366   0.944
 7438SOL    HW223214   0.886   5.397   0.894
 7439SOL     OW23215   1.354   6.465   4.664
 7439SOL    HW123216   1.405   6.380   4.669
 7439SOL    HW223217   1.256   6.445   4.654
 7440SOL     OW23218   0.931   3.164   4.157
 7440SOL    HW123219   0.973   3.172   4.248
 7440SOL    HW223220   0.834   3.142   4.167
 7441SOL     OW23221   5.153   6.266   4.631
 7441SOL    HW123222   5.118   6.211   4.707
 7441SOL    HW223223   5.219   6.332   4.665
 7442SOL     OW23224   1.369   1.409   6.533
 7442SOL    HW123225   1.363   1.479   6.461
 7442SOL    HW223226   1.323   1.325   6.502
 7443SOL     OW23227   0.167   0.893   1.191
 7443SOL    HW123228   0.089   0.914   1.251
 7443SOL    HW223229   0.244   0.863   1.247
 7444SOL     OW23230   6.827   3.896   4.878
 7444SOL    HW123231   6.856   3.884   4.783
 7444SOL    HW223232   6.802   3.992   4.893
 7445SOL     OW23233   3.739   0.274   1.232
 7445SOL    HW123234   3.800   0.323   1.295
 7445SOL    HW223235   3.768   0.292   1.138
 7446SOL     OW23236   5.730   4.546   0.676
 7446SOL    HW123237   5.756   4.450   0.678
 7446SOL    HW223238   5.713   4.577   0.770
 7447SOL     OW23239   1.615   3.150   5.407
 7447SOL    HW123240   1.627   3.153   5.308
 7447SOL    HW223241   1.593   3.241   5.441
 7448SOL     OW23242   5.624   6.796   5.178
 7448SOL    HW123243   5.563   6.730   5.133
 7448SOL    HW223244   5.713   6.796   5.133
 7449SOL     OW23245   6.555   2.293   2.055
 7449SOL    HW123246   6.484   2.235   2.096
 7449SOL    HW223247   6.523   2.388   2.052
 7450SOL     OW23248   5.130   2.133   4.208
 7450SOL    HW123249   5.087   2.138   4.298
 7450SOL    HW223250   5.185   2.215   4.193
 7451SOL     OW23251   1.478   0.239   2.656
 7451SOL    HW123252   1.535   0.218   2.735
 7451SOL    HW223253   1.384   0.257   2.686
 7452SOL     OW23254   0.378   6.661   4.691
 7452SOL    HW123255   0.289   6.615   4.686
 7452SOL    HW223256   0.451   6.592   4.697
 7453SOL     OW23257   4.776   5.812   6.210
 7453SOL    HW123258   4.875   5.820   6.225
 7453SOL    HW223259   4.739   5.741   6.270
 7454SOL     OW23260   1.028   2.816   1.898
 7454SOL    HW123261   0.932   2.809   1.872
 7454SOL    HW223262   1.080   2.858   1.823
 7455SOL     OW23263   0.203   1.503   1.894
 7455SOL    HW123264   0.275   1.569   1.871
 7455SOL    HW223265   0.147   1.540   1.968
 7456SOL     OW23266   0.594   2.304   4.174
 7456SOL    HW123267   0.560   2.398   4.172
 7456SOL    HW223268   0.636   2.282   4.086
 7457SOL     OW23269   3.571   0.718   5.526
 7457SOL    HW123270   3.666   0.714   5.495
 7457SOL    HW223271   3.567   0.699   5.624
 7458SOL     OW23272   2.385   0.217   5.889
 7458SOL    HW123273   2.421   0.307   5.862
 7458SOL    HW223274   2.353   0.222   5.984
 7459SOL     OW23275   4.864   0.614   0.659
 7459SOL    HW123276   4.950   0.567   0.679
 7459SOL    HW223277   4.881   0.712   0.653
 7460SOL     OW23278   1.780   4.601   1.126
 7460SOL    HW123279   1.818   4.512   1.101
 7460SOL    HW223280   1.773   4.608   1.226
 7461SOL     OW23281   6.203   1.335   6.395
 7461SOL    HW123282   6.260   1.366   6.471
 7461SOL    HW223283   6.112   1.313   6.428
 7462SOL     OW23284   1.991   3.198   2.757
 7462SOL    HW123285   1.997   3.266   2.684
 7462SOL    HW223286   2.024   3.238   2.843
 7463SOL     OW23287   3.262   4.877   1.440
 7463SOL    HW123288   3.218   4.833   1.362
 7463SOL    HW223289   3.285   4.808   1.509
 7464SOL     OW23290   3.267   6.896   6.360
 7464SOL    HW123291   3.200   6.912   6.432
 7464SOL    HW223292   3.312   6.807   6.374
 7465SOL     OW23293   1.236   6.917   0.169
 7465SOL    HW123294   1.157   6.978   0.170
 7465SOL    HW223295   1.301   6.945   0.240
 7466SOL     OW23296   0.384   0.122   6.516
 7466SOL    HW123297   0.460   0.077   6.562
 7466SOL    HW223298   0.348   0.062   6.445
 7467SOL     OW23299   6.704   1.315   0.807
 7467SOL    HW123300   6.720   1.403   0.762
 7467SOL    HW223301   6.750   1.242   0.757
 7468SOL     OW23302   6.099   2.910   2.527
 7468SOL    HW123303   6.076   2.953   2.440
 7468SOL    HW223304   6.029   2.933   2.595
 7469SOL     OW23305   6.696   6.941   0.199
 7469SOL    HW123306   6.739   6.898   0.279
 7469SOL    HW223307   6.674   6.870   0.131
 7470SOL     OW23308   0.741   3.049   4.363
 7470SOL    HW123309   0.667   3.048   4.430
 7470SOL    HW223310   0.747   2.960   4.318
 7471SOL     OW23311   5.687   6.013   5.789
 7471SOL    HW123312   5.660   6.068   5.710
 7471SOL    HW223313   5.787   6.009   5.795
 7472SOL     OW23314   5.659   6.470   4.425
 7472SOL    HW123315   5.564   6.470   4.395
 7472SOL    HW223316   5.704   6.555   4.396
 7473SOL     OW23317   0.244   4.301   2.455
 7473SOL    HW123318   0.337   4.329   2.481
 7473SOL    HW223319   0.244   4.203   2.436
 7474SOL     OW23320   2.311   1.528   5.515
 7474SOL    HW123321   2.381   1.569   5.455
 7474SOL    HW223322   2.296   1.433   5.487
 7475SOL     OW23323   3.525   1.346   2.192
 7475SOL    HW123324   3.465   1.426   2.197
 7475SOL    HW223325   3.614   1.368   2.231
 7476SOL     OW23326   3.531   5.512   4.316
 7476SOL    HW123327   3.535   5.500   4.415
 7476SOL    HW223328   3.474   5.439   4.277
 7477SOL     OW23329   6.191   1.495   4.636
 7477SOL    HW123330   6.275   1.493   4.581
 7477SOL    HW223331   6.130   1.566   4.601
 7478SOL     OW23332   4.532   4.872   6.891
 7478SOL    HW123333   4.493   4.949   6.841
 7478SOL    HW223334   4.497   4.786   6.853
 7479SOL     OW23335   3.950   2.566   1.117
 7479SOL    HW123336   3.873   2.507   1.139
 7479SOL    HW223337   3.989   2.604   1.201
 7480SOL     OW23338   6.670   4.322   1.560
 7480SOL    HW123339   6.763   4.287   1.555
 7480SOL    HW223340   6.658   4.376   1.642
 7481SOL     OW23341   6.205   5.237   2.496
 7481SOL    HW123342   6.231   5.147   2.462
 7481SOL    HW223343   6.150   5.284   2.427
 7482SOL     OW23344   5.449   1.943   3.172
 7482SOL    HW123345   5.448   1.891   3.258
 7482SOL    HW223346   5.462   1.881   3.096
 7483SOL     OW23347   4.589   2.431   5.211
 7483SOL    HW123348   4.657   2.407   5.141
 7483SOL    HW223349   4.591   2.363   5.284
 7484SOL     OW23350   0.598   6.916   3.134
 7484SOL    HW123351   0.614   6.887   3.040
 7484SOL    HW223352   0.685   6.914   3.185
 7485SOL     OW23353   2.978   6.657   4.821
 7485SOL    HW123354   2.907   6.592   4.850
 7485SOL    HW223355   2.936   6.744   4.798
 7486SOL     OW23356   3.090   0.606   6.125
 7486SOL    HW123357   3.004   0.638   6.164
 7486SOL    HW223358   3.072   0.533   6.059
 7487SOL     OW23359   2.567   6.424   2.375
 7487SOL    HW123360   2.623   6.457   2.451
 7487SOL    HW223361   2.560   6.496   2.305
 7488SOL     OW23362   1.880   0.023   4.757
 7488SOL    HW123363   1.789   7.015   4.784
 7488SOL    HW223364   1.873   0.074   4.671
 7489SOL     OW23365   5.351   2.517   4.619
 7489SOL    HW123366   5.416   2.470   4.560
 7489SOL    HW223367   5.352   2.476   4.710
 7490SOL     OW23368   0.907   2.037   0.866
 7490SOL    HW123369   0.891   1.946   0.828
 7490SOL    HW223370   0.819   2.079   0.889
 7491SOL     OW23371   6.766   3.479   6.862
 7491SOL    HW123372   6.672   3.466   6.830
 7491SOL    HW223373   6.830   3.455   6.789
 7492SOL     OW23374   2.893   1.137   4.387
 7492SOL    HW123375   2.921   1.179   4.473
 7492SOL    HW223376   2.972   1.130   4.327
 7493SOL     OW23377   6.931   4.094   6.763
 7493SOL    HW123378   6.869   4.154   6.814
 7493SOL    HW223379   6.997   4.149   6.712
 7494SOL     OW23380   5.930   0.820   2.407
 7494SOL    HW123381   5.905   0.742   2.464
 7494SOL    HW223382   5.846   0.867   2.377
 7495SOL     OW23383   2.374   0.954   0.610
 7495SOL    HW123384   2.381   0.862   0.650
 7495SOL    HW223385   2.418   0.954   0.520
 7496SOL     OW23386   0.182   3.601   6.851
 7496SOL    HW123387   0.265   3.639   6.811
 7496SOL    HW223388   0.135   3.672   6.903
 7497SOL     OW23389   2.932   4.234   0.099
 7497SOL    HW123390   2.885   4.198   0.180
 7497SOL    HW223391   2.962   4.158   0.042
 7498SOL     OW23392   2.346   1.278   5.409
 7498SOL    HW123393   2.286   1.295   5.331
 7498SOL    HW223394   2.409   1.204   5.387
 7499SOL     OW23395   4.971   0.982   3.353
 7499SOL    HW123396   4.888   1.028   3.322
 7499SOL    HW223397   4.993   0.906   3.292
 7500SOL     OW23398   3.718   5.761   4.191
 7500SOL    HW123399   3.733   5.860   4.194
 7500SOL    HW223400   3.690   5.729   4.282
 7501SOL     OW23401   6.676   4.575   4.253
 7501SOL    HW123402   6.615   4.547   4.178
 7501SOL    HW223403   6.733   4.651   4.222
 7502SOL     OW23404   1.243   0.581   4.738
 7502SOL    HW123405   1.329   0.624   4.711
 7502SOL    HW223406   1.209   0.523   4.664
 7503SOL     OW23407   2.146   1.312   0.657
 7503SOL    HW123408   2.243   1.310   0.681
 7503SOL    HW223409   2.093   1.349   0.733
 7504SOL     OW23410   2.313   0.105   3.204
 7504SOL    HW123411   2.242   0.173   3.220
 7504SOL    HW223412   2.294   0.023   3.258
 7505SOL     OW23413   2.437   1.851   5.615
 7505SOL    HW123414   2.368   1.922   5.628
 7505SOL    HW223415   2.415   1.798   5.533
 7506SOL     OW23416   4.838   6.382   2.714
 7506SOL    HW123417   4.813   6.462   2.769
 7506SOL    HW223418   4.755   6.338   2.679
 7507SOL     OW23419   0.662   0.721   1.827
 7507SOL    HW123420   0.716   0.716   1.743
 7507SOL    HW223421   0.632   0.629   1.853
 7508SOL     OW23422   6.801   6.650   2.139
 7508SOL    HW123423   6.852   6.732   2.113
 7508SOL    HW223424   6.836   6.572   2.088
 7509SOL     OW23425   5.826   4.386   1.539
 7509SOL    HW123426   5.758   4.443   1.586
 7509SOL    HW223427   5.829   4.295   1.581
 7510SOL     OW23428   2.700   4.872   5.097
 7510SOL    HW123429   2.750   4.787   5.075
 7510SOL    HW223430   2.605   4.850   5.116
 7511SOL     OW23431   1.878   6.804   3.445
 7511SOL    HW123432   1.811   6.878   3.435
 7511SOL    HW223433   1.881   6.751   3.361
 7512SOL     OW23434   3.420   4.760   6.606
 7512SOL    HW123435   3.322   4.739   6.604
 7512SOL    HW223436   3.461   4.738   6.518
 7513SOL     OW23437   2.113   1.954   1.701
 7513SOL    HW123438   2.165   1.953   1.786
 7513SOL    HW223439   2.175   1.936   1.624
 7514SOL     OW23440   2.158   5.114   1.865
 7514SOL    HW123441   2.128   5.203   1.832
 7514SOL    HW223442   2.096   5.083   1.937
 7515SOL     OW23443   0.320   5.624   2.027
 7515SOL    HW123444   0.276   5.712   2.044
 7515SOL    HW223445   0.384   5.633   1.951
 7516SOL     OW23446   6.360   6.054   4.197
 7516SOL    HW123447   6.375   6.124   4.268
 7516SOL    HW223448   6.305   5.980   4.235
 7517SOL     OW23449   7.021   3.246   1.386
 7517SOL    HW123450   0.008   3.165   1.329
 7517SOL    HW223451   6.925   3.259   1.409
 7518SOL     OW23452   4.060   5.300   3.256
 7518SOL    HW123453   4.159   5.295   3.269
 7518SOL    HW223454   4.018   5.336   3.340
 7519SOL     OW23455   0.484   6.777   4.103
 7519SOL    HW123456   0.477   6.722   4.020
 7519SOL    HW223457   0.496   6.873   4.079
 7520SOL     OW23458   3.000   6.929   1.860
 7520SOL    HW123459   2.930   6.991   1.824
 7520SOL    HW223460   3.060   6.980   1.922
 7521SOL     OW23461   4.413   4.501   6.406
 7521SOL    HW123462   4.361   4.448   6.339
 7521SOL    HW223463   4.509   4.474   6.403
 7522SOL     OW23464   2.734   6.554   6.301
 7522SOL    HW123465   2.754   6.652   6.304
 7522SOL    HW223466   2.655   6.534   6.359
 7523SOL     OW23467   5.652   0.495   6.290
 7523SOL    HW123468   5.672   0.398   6.298
 7523SOL    HW223469   5.583   0.521   6.358
 7524SOL     OW23470   2.030   2.417   6.691
 7524SOL    HW123471   2.095   2.480   6.649
 7524SOL    HW223472   2.080   2.347   6.742
 7525SOL     OW23473   2.815   0.359   6.656
 7525SOL    HW123474   2.732   0.409   6.680
 7525SOL    HW223475   2.895   0.416   6.675
 7526SOL     OW23476   3.184   3.376   2.397
 7526SOL    HW123477   3.159   3.292   2.444
 7526SOL    HW223478   3.105   3.439   2.397
 7527SOL     OW23479   4.031   5.780   3.075
 7527SOL    HW123480   3.955   5.843   3.057
 7527SOL    HW223481   4.064   5.742   2.989
 7528SOL     OW23482   4.499   1.819   6.821
 7528SOL    HW123483   4.544   1.747   6.769
 7528SOL    HW223484   4.413   1.844   6.775
 7529SOL     OW23485   5.980   0.620   4.810
 7529SOL    HW123486   5.932   0.579   4.888
 7529SOL    HW223487   5.955   0.569   4.727
 7530SOL     OW23488   0.078   3.945   1.929
 7530SOL    HW123489   0.004   4.005   1.899
 7530SOL    HW223490   0.042   3.876   1.992
 7531SOL     OW23491   4.878   2.232   4.013
 7531SOL    HW123492   4.897   2.277   4.100
 7531SOL    HW223493   4.954   2.245   3.950
 7532SOL     OW23494   5.612   5.265   1.462
 7532SOL    HW123495   5.589   5.168   1.468
 7532SOL    HW223496   5.559   5.316   1.530
 7533SOL     OW23497   2.587   1.634   2.701
 7533SOL    HW123498   2.675   1.624   2.749
 7533SOL    HW223499   2.579   1.563   2.631
 7534SOL     OW23500   4.287   6.714   6.203
 7534SOL    HW123501   4.287   6.620   6.237
 7534SOL    HW223502   4.323   6.716   6.110
 7535SOL     OW23503   3.356   0.558   5.805
 7535SOL    HW123504   3.344   0.614   5.888
 7535SOL    HW223505   3.299   0.595   5.732
 7536SOL     OW23506   5.307   5.280   5.160
 7536SOL    HW123507   5.376   5.238   5.218
 7536SOL    HW223508   5.242   5.211   5.129
 7537SOL     OW23509   2.569   5.467   3.513
 7537SOL    HW123510   2.610   5.558   3.521
 7537SOL    HW223511   2.638   5.401   3.482
 7538SOL     OW23512   3.603   3.434   2.096
 7538SOL    HW123513   3.543   3.414   2.173
 7538SOL    HW223514   3.698   3.433   2.127
 7539SOL     OW23515   2.338   2.656   3.869
 7539SOL    HW123516   2.310   2.590   3.938
 7539SOL    HW223517   2.260   2.677   3.810
 7540SOL     OW23518   2.985   6.740   5.762
 7540SOL    HW123519   2.898   6.721   5.716
 7540SOL    HW223520   3.041   6.657   5.765
 7541SOL     OW23521   0.010   4.196   4.305
 7541SOL    HW123522   0.049   4.287   4.293
 7541SOL    HW223523   6.937   4.198   4.282
 7542SOL     OW23524   0.631   5.457   0.018
 7542SOL    HW123525   0.632   5.557   0.020
 7542SOL    HW223526   0.565   5.426   6.972
 7543SOL     OW23527   4.014   1.911   1.135
 7543SOL    HW123528   3.918   1.905   1.161
 7543SOL    HW223529   4.070   1.854   1.195
 7544SOL     OW23530   0.400   2.722   3.331
 7544SOL    HW123531   0.435   2.781   3.258
 7544SOL    HW223532   0.319   2.673   3.299
 7545SOL     OW23533   5.975   6.263   2.552
 7545SOL    HW123534   5.918   6.298   2.627
 7545SOL    HW223535   6.008   6.341   2.498
 7546SOL     OW23536   3.464   0.510   2.089
 7546SOL    HW123537   3.423   0.500   2.179
 7546SOL    HW223538   3.447   0.427   2.036
 7547SOL     OW23539   4.437   0.356   0.401
 7547SOL    HW123540   4.375   0.397   0.333
 7547SOL    HW223541   4.532   0.372   0.373
 7548SOL     OW23542   3.749   2.113   0.250
 7548SOL    HW123543   3.810   2.186   0.282
 7548SOL    HW223544   3.801   2.029   0.238
 7549SOL     OW23545   5.598   1.905   0.770
 7549SOL    HW123546   5.600   1.896   0.870
 7549SOL    HW223547   5.518   1.858   0.734
 7550SOL     OW23548   2.395   4.536   2.189
 7550SOL    HW123549   2.426   4.446   2.218
 7550SOL    HW223550   2.296   4.532   2.171
 7551SOL     OW23551   4.979   3.655   6.326
 7551SOL    HW123552   4.990   3.557   6.314
 7551SOL    HW223553   4.905   3.673   6.391
 7552SOL     OW23554   1.690   5.963   3.150
 7552SOL    HW123555   1.659   5.968   3.245
 7552SOL    HW223556   1.784   5.997   3.144
 7553SOL     OW23557   4.371   4.959   5.434
 7553SOL    HW123558   4.424   4.876   5.418
 7553SOL    HW223559   4.383   5.021   5.356
 7554SOL     OW23560   4.476   0.876   1.640
 7554SOL    HW123561   4.480   0.794   1.584
 7554SOL    HW223562   4.436   0.951   1.587
 7555SOL     OW23563   1.674   4.849   5.281
 7555SOL    HW123564   1.667   4.928   5.221
 7555SOL    HW223565   1.676   4.765   5.225
 7556SOL     OW23566   0.848   2.955   5.650
 7556SOL    HW123567   0.820   3.051   5.642
 7556SOL    HW223568   0.777   2.904   5.699
 7557SOL     OW23569   5.061   2.511   6.034
 7557SOL    HW123570   5.089   2.591   5.982
 7557SOL    HW223571   5.111   2.508   6.120
 7558SOL     OW23572   2.280   2.959   3.945
 7558SOL    HW123573   2.246   2.925   4.032
 7558SOL    HW223574   2.345   2.893   3.906
 7559SOL     OW23575   6.392   4.874   7.000
 7559SOL    HW123576   6.338   4.793   7.022
 7559SOL    HW223577   6.423   4.868   6.905
 7560SOL     OW23578   5.478   6.503   0.759
 7560SOL    HW123579   5.462   6.452   0.675
 7560SOL    HW223580   5.464   6.601   0.742
 7561SOL     OW23581   1.025   3.156   6.756
 7561SOL    HW123582   1.049   3.059   6.761
 7561SOL    HW223583   0.928   3.167   6.780
 7562SOL     OW23584   5.836   5.967   5.094
 7562SOL    HW123585   5.850   6.000   5.187
 7562SOL    HW223586   5.904   5.897   5.073
 7563SOL     OW23587   2.733   6.015   0.816
 7563SOL    HW123588   2.775   5.924   0.810
 7563SOL    HW223589   2.641   6.011   0.777
 7564SOL     OW23590   5.101   1.456   2.897
 7564SOL    HW123591   5.078   1.421   2.988
 7564SOL    HW223592   5.019   1.491   2.853
 7565SOL     OW23593   5.251   4.181   0.150
 7565SOL    HW123594   5.176   4.124   0.185
 7565SOL    HW223595   5.291   4.234   0.225
 7566SOL     OW23596   6.907   5.271   3.782
 7566SOL    HW123597   6.867   5.185   3.814
 7566SOL    HW223598   6.900   5.340   3.855
 7567SOL     OW23599   1.825   2.054   5.049
 7567SOL    HW123600   1.750   2.056   4.983
 7567SOL    HW223601   1.900   1.998   5.011
 7568SOL     OW23602   5.492   5.861   3.273
 7568SOL    HW123603   5.505   5.823   3.365
 7568SOL    HW223604   5.519   5.957   3.273
 7569SOL     OW23605   4.184   5.092   6.491
 7569SOL    HW123606   4.113   5.117   6.426
 7569SOL    HW223607   4.146   5.033   6.562
 7570SOL     OW23608   5.581   5.065   5.254
 7570SOL    HW123609   5.490   5.035   5.281
 7570SOL    HW223610   5.608   5.018   5.170
 7571SOL     OW23611   4.553   5.866   3.339
 7571SOL    HW123612   4.473   5.808   3.330
 7571SOL    HW223613   4.597   5.850   3.427
 7572SOL     OW23614   4.471   1.303   2.942
 7572SOL    HW123615   4.410   1.360   2.886
 7572SOL    HW223616   4.439   1.208   2.939
 7573SOL     OW23617   6.612   6.739   4.908
 7573SOL    HW123618   6.646   6.675   4.976
 7573SOL    HW223619   6.665   6.730   4.823
 7574SOL     OW23620   6.325   1.054   4.642
 7574SOL    HW123621   6.367   0.969   4.611
 7574SOL    HW223622   6.285   1.041   4.733
 7575SOL     OW23623   4.130   0.672   5.910
 7575SOL    HW123624   4.041   0.628   5.901
 7575SOL    HW223625   4.166   0.692   5.819
 7576SOL     OW23626   6.019   5.065   0.402
 7576SOL    HW123627   6.090   5.054   0.471
 7576SOL    HW223628   5.932   5.033   0.439
 7577SOL     OW23629   0.141   6.427   5.928
 7577SOL    HW123630   0.067   6.488   5.902
 7577SOL    HW223631   0.228   6.463   5.892
 7578SOL     OW23632   2.868   6.006   2.466
 7578SOL    HW123633   2.902   5.994   2.373
 7578SOL    HW223634   2.943   5.993   2.531
 7579SOL     OW23635   5.541   2.412   1.999
 7579SOL    HW123636   5.621   2.370   1.955
 7579SOL    HW223637   5.552   2.511   2.001
 7580SOL     OW23638   1.568   4.333   4.070
 7580SOL    HW123639   1.664   4.355   4.089
 7580SOL    HW223640   1.564   4.249   4.017
 7581SOL     OW23641   6.501   6.981   1.467
 7581SOL    HW123642   6.492   6.909   1.398
 7581SOL    HW223643   6.598   6.993   1.490
 7582SOL     OW23644   2.559   0.596   0.109
 7582SOL    HW123645   2.574   0.693   0.126
 7582SOL    HW223646   2.512   0.583   0.022
 7583SOL     OW23647   6.267   3.041   0.676
 7583SOL    HW123648   6.352   3.040   0.729
 7583SOL    HW223649   6.189   3.030   0.738
 7584SOL     OW23650   2.204   6.652   0.972
 7584SOL    HW123651   2.174   6.678   0.880
 7584SOL    HW223652   2.259   6.569   0.968
 7585SOL     OW23653   1.975   2.868   5.947
 7585SOL    HW123654   2.058   2.850   5.894
 7585SOL    HW223655   1.894   2.847   5.891
 7586SOL     OW23656   3.637   0.906   3.656
 7586SOL    HW123657   3.663   0.900   3.752
 7586SOL    HW223658   3.607   0.816   3.624
 7587SOL     OW23659   2.963   2.032   6.420
 7587SOL    HW123660   2.873   1.993   6.437
 7587SOL    HW223661   2.956   2.131   6.412
 7588SOL     OW23662   1.377   3.429   2.798
 7588SOL    HW123663   1.445   3.356   2.785
 7588SOL    HW223664   1.335   3.419   2.889
 7589SOL     OW23665   6.897   0.126   2.167
 7589SOL    HW123666   6.951   0.178   2.101
 7589SOL    HW223667   6.805   0.111   2.130
 7590SOL     OW23668   4.330   1.877   6.622
 7590SOL    HW123669   4.270   1.930   6.681
 7590SOL    HW223670   4.312   1.900   6.526
 7591SOL     OW23671   6.943   4.328   0.333
 7591SOL    HW123672   6.989   4.412   0.306
 7591SOL    HW223673   6.863   4.314   0.275
 7592SOL     OW23674   6.223   4.088   6.699
 7592SOL    HW123675   6.278   4.004   6.701
 7592SOL    HW223676   6.282   4.167   6.682
 7593SOL     OW23677   5.637   2.568   1.116
 7593SOL    HW123678   5.652   2.560   1.215
 7593SOL    HW223679   5.549   2.528   1.092
 7594SOL     OW23680   0.257   4.870   1.866
 7594SOL    HW123681   0.339   4.814   1.871
 7594SOL    HW223682   0.242   4.915   1.955
 7595SOL     OW23683   6.954   3.010   6.023
 7595SOL    HW123684   0.026   3.028   6.050
 7595SOL    HW223685   6.946   3.012   5.924
 7596SOL     OW23686   4.931   6.097   3.537
 7596SOL    HW123687   4.935   6.186   3.582
 7596SOL    HW223688   4.903   6.027   3.602
 7597SOL     OW23689   3.190   6.223   2.582
 7597SOL    HW123690   3.208   6.318   2.556
 7597SOL    HW223691   3.218   6.162   2.507
 7598SOL     OW23692   0.085   1.432   3.626
 7598SOL    HW123693   0.139   1.358   3.665
 7598SOL    HW223694   0.144   1.495   3.576
 7599SOL     OW23695   5.476   1.785   2.932
 7599SOL    HW123696   5.388   1.746   2.906
 7599SOL    HW223697   5.544   1.764   2.861
 7600SOL     OW23698   1.497   1.473   2.531
 7600SOL    HW123699   1.532   1.550   2.584
 7600SOL    HW223700   1.503   1.494   2.433
 7601SOL     OW23701   1.974   5.485   2.381
 7601SOL    HW123702   2.017   5.403   2.418
 7601SOL    HW223703   1.933   5.537   2.456
 7602SOL     OW23704   0.843   4.313   7.021
 7602SOL    HW123705   0.902   4.315   6.940
 7602SOL    HW223706   0.816   4.218   0.016
 7603SOL     OW23707   1.801   5.111   5.578
 7603SOL    HW123708   1.860   5.172   5.631
 7603SOL    HW223709   1.798   5.021   5.622
 7604SOL     OW23710   1.683   4.882   4.413
 7604SOL    HW123711   1.768   4.865   4.364
 7604SOL    HW223712   1.609   4.898   4.346
 7605SOL     OW23713   0.413   6.972   0.784
 7605SOL    HW123714   0.464   0.030   0.758
 7605SOL    HW223715   0.319   6.981   0.752
 7606SOL     OW23716   6.718   3.349   3.727
 7606SOL    HW123717   6.757   3.421   3.784
 7606SOL    HW223718   6.643   3.387   3.673
 7607SOL     OW23719   4.576   5.124   0.594
 7607SOL    HW123720   4.666   5.081   0.587
 7607SOL    HW223721   4.544   5.149   0.503
 7608SOL     OW23722   3.363   3.797   3.346
 7608SOL    HW123723   3.461   3.809   3.358
 7608SOL    HW223724   3.322   3.765   3.431
 7609SOL     OW23725   0.571   3.815   3.941
 7609SOL    HW123726   0.483   3.853   3.971
 7609SOL    HW223727   0.636   3.889   3.926
 7610SOL     OW23728   5.778   6.211   0.370
 7610SOL    HW123729   5.850   6.154   0.407
 7610SOL    HW223730   5.811   6.305   0.361
 7611SOL     OW23731   0.486   1.616   6.827
 7611SOL    HW123732   0.423   1.610   6.750
 7611SOL    HW223733   0.441   1.662   6.904
 7612SOL     OW23734   5.126   3.327   5.330
 7612SOL    HW123735   5.035   3.293   5.309
 7612SOL    HW223736   5.128   3.363   5.423
 7613SOL     OW23737   6.164   3.311   0.990
 7613SOL    HW123738   6.132   3.229   0.943
 7613SOL    HW223739   6.261   3.301   1.013
 7614SOL     OW23740   5.317   4.070   0.859
 7614SOL    HW123741   5.302   4.166   0.836
 7614SOL    HW223742   5.413   4.056   0.884
 7615SOL     OW23743   4.359   3.628   5.984
 7615SOL    HW123744   4.434   3.653   6.046
 7615SOL    HW223745   4.271   3.643   6.030
 7616SOL     OW23746   6.582   4.900   5.373
 7616SOL    HW123747   6.506   4.836   5.360
 7616SOL    HW223748   6.576   4.973   5.305
 7617SOL     OW23749   3.435   5.665   2.728
 7617SOL    HW123750   3.362   5.597   2.731
 7617SOL    HW223751   3.523   5.620   2.716
 7618SOL     OW23752   0.655   1.493   6.159
 7618SOL    HW123753   0.612   1.532   6.078
 7618SOL    HW223754   0.752   1.476   6.140
 7619SOL     OW23755   5.861   3.283   5.317
 7619SOL    HW123756   5.937   3.330   5.270
 7619SOL    HW223757   5.806   3.234   5.249
 7620SOL     OW23758   4.010   5.236   0.582
 7620SOL    HW123759   3.936   5.293   0.547
 7620SOL    HW223760   3.994   5.141   0.554
 7621SOL     OW23761   6.954   1.657   0.514
 7621SOL    HW123762   0.027   1.632   0.503
 7621SOL    HW223763   6.900   1.575   0.532
 7622SOL     OW23764   5.451   5.380   1.659
 7622SOL    HW123765   5.385   5.401   1.587
 7622SOL    HW223766   5.426   5.295   1.704
 7623SOL     OW23767   4.633   3.540   6.649
 7623SOL    HW123768   4.582   3.465   6.607
 7623SOL    HW223769   4.646   3.520   6.747
 7624SOL     OW23770   0.128   2.885   4.844
 7624SOL    HW123771   0.036   2.925   4.848
 7624SOL    HW223772   0.196   2.958   4.835
 7625SOL     OW23773   4.954   0.729   1.420
 7625SOL    HW123774   4.928   0.634   1.404
 7625SOL    HW223775   5.048   0.743   1.390
 7626SOL     OW23776   6.021   6.866   4.421
 7626SOL    HW123777   6.061   6.916   4.499
 7626SOL    HW223778   5.984   6.779   4.453
 7627SOL     OW23779   5.605   2.770   6.819
 7627SOL    HW123780   5.631   2.830   6.743
 7627SOL    HW223781   5.680   2.706   6.838
 7628SOL     OW23782   4.084   7.001   2.685
 7628SOL    HW123783   4.181   7.009   2.662
 7628SOL    HW223784   4.030   7.012   2.602
 7629SOL     OW23785   6.721   0.125   3.002
 7629SOL    HW123786   6.733   0.215   2.959
 7629SOL    HW223787   6.800   0.068   2.981
 7630SOL     OW23788   6.289   0.351   1.998
 7630SOL    HW123789   6.223   0.279   2.023
 7630SOL    HW223790   6.381   0.313   1.999
 7631SOL     OW23791   0.845   0.685   6.050
 7631SOL    HW123792   0.793   0.706   6.133
 7631SOL    HW223793   0.810   0.740   5.974
 7632SOL     OW23794   3.669   2.528   1.720
 7632SOL    HW123795   3.632   2.602   1.777
 7632SOL    HW223796   3.655   2.440   1.765
 7633SOL     OW23797   5.060   1.390   1.073
 7633SOL    HW123798   4.980   1.330   1.073
 7633SOL    HW223799   5.107   1.383   1.160
 7634SOL     OW23800   0.481   1.768   2.680
 7634SOL    HW123801   0.432   1.826   2.745
 7634SOL    HW223802   0.576   1.799   2.672
 7635SOL     OW23803   3.230   5.578   5.207
 7635SOL    HW123804   3.323   5.608   5.228
 7635SOL    HW223805   3.201   5.512   5.276
 7636SOL     OW23806   1.243   2.714   4.109
 7636SOL    HW123807   1.258   2.684   4.203
 7636SOL    HW223808   1.173   2.785   4.108
 7637SOL     OW23809   2.653   5.192   1.893
 7637SOL    HW123810   2.711   5.210   1.972
 7637SOL    HW223811   2.580   5.128   1.918
 7638SOL     OW23812   4.013   6.578   0.871
 7638SOL    HW123813   3.946   6.586   0.797
 7638SOL    HW223814   4.076   6.503   0.850
 7639SOL     OW23815   1.311   1.999   0.336
 7639SOL    HW123816   1.211   2.000   0.333
 7639SOL    HW223817   1.342   1.924   0.396
 7640SOL     OW23818   3.327   1.874   6.609
 7640SOL    HW123819   3.319   1.871   6.510
 7640SOL    HW223820   3.257   1.817   6.651
 7641SOL     OW23821   1.346   4.396   1.433
 7641SOL    HW123822   1.313   4.302   1.423
 7641SOL    HW223823   1.428   4.408   1.377
 7642SOL     OW23824   4.166   0.449   2.949
 7642SOL    HW123825   4.080   0.398   2.942
 7642SOL    HW223826   4.228   0.419   2.876
 7643SOL     OW23827   4.916   3.105   4.481
 7643SOL    HW123828   4.874   3.115   4.391
 7643SOL    HW223829   4.976   3.024   4.481
 7644SOL     OW23830   5.726   2.410   2.286
 7644SOL    HW123831   5.776   2.359   2.355
 7644SOL    HW223832   5.642   2.447   2.326
 7645SOL     OW23833   3.969   4.240   5.615
 7645SOL    HW123834   3.900   4.281   5.674
 7645SOL    HW223835   4.006   4.158   5.659
 7646SOL     OW23836   1.655   3.058   2.831
 7646SOL    HW123837   1.641   2.965   2.797
 7646SOL    HW223838   1.725   3.057   2.902
 7647SOL     OW23839   6.604   3.702   2.239
 7647SOL    HW123840   6.693   3.660   2.225
 7647SOL    HW223841   6.615   3.801   2.248
 7648SOL     OW23842   3.354   1.653   3.602
 7648SOL    HW123843   3.303   1.587   3.656
 7648SOL    HW223844   3.432   1.687   3.655
 7649SOL     OW23845   0.711   0.633   3.213
 7649SOL    HW123846   0.627   0.685   3.228
 7649SOL    HW223847   0.714   0.555   3.276
 7650SOL     OW23848   4.730   2.827   1.364
 7650SOL    HW123849   4.680   2.867   1.441
 7650SOL    HW223850   4.672   2.827   1.283
 7651SOL     OW23851   2.650   0.497   4.438
 7651SOL    HW123852   2.565   0.512   4.388
 7651SOL    HW223853   2.649   0.551   4.522
 7652SOL     OW23854   6.564   3.740   4.396
 7652SOL    HW123855   6.506   3.753   4.316
 7652SOL    HW223856   6.552   3.648   4.432
 7653SOL     OW23857   2.543   2.065   0.203
 7653SOL    HW123858   2.474   1.994   0.214
 7653SOL    HW223859   2.554   2.087   0.106
 7654SOL     OW23860   4.822   3.016   3.725
 7654SOL    HW123861   4.745   2.954   3.742
 7654SOL    HW223862   4.905   2.978   3.767
 7655SOL     OW23863   3.830   0.374   3.718
 7655SOL    HW123864   3.744   0.356   3.765
 7655SOL    HW223865   3.867   0.289   3.682
 7656SOL     OW23866   2.109   5.357   6.012
 7656SOL    HW123867   2.161   5.443   6.005
 7656SOL    HW223868   2.037   5.357   5.943
 7657SOL     OW23869   2.552   2.546   3.725
 7657SOL    HW123870   2.610   2.477   3.768
 7657SOL    HW223871   2.492   2.587   3.794
 7658SOL     OW23872   3.208   0.307   5.844
 7658SOL    HW123873   3.287   0.345   5.892
 7658SOL    HW223874   3.215   0.327   5.746
 7659SOL     OW23875   5.944   5.104   0.127
 7659SOL    HW123876   5.972   5.095   0.222
 7659SOL    HW223877   5.888   5.187   0.116
 7660SOL     OW23878   0.537   6.251   3.601
 7660SOL    HW123879   0.615   6.216   3.549
 7660SOL    HW223880   0.546   6.223   3.697
 7661SOL     OW23881   6.080   2.456   4.208
 7661SOL    HW123882   6.059   2.410   4.122
 7661SOL    HW223883   6.076   2.555   4.196
 7662SOL     OW23884   0.724   3.045   2.935
 7662SOL    HW123885   0.823   3.038   2.920
 7662SOL    HW223886   0.703   3.019   3.030
 7663SOL     OW23887   1.608   6.260   5.573
 7663SOL    HW123888   1.527   6.303   5.612
 7663SOL    HW223889   1.660   6.328   5.521
 7664SOL     OW23890   3.558   0.034   1.911
 7664SOL    HW123891   3.601   0.110   1.960
 7664SOL    HW223892   3.458   0.043   1.917
 7665SOL     OW23893   4.264   0.340   5.064
 7665SOL    HW123894   4.344   0.305   5.016
 7665SOL    HW223895   4.290   0.374   5.154
 7666SOL     OW23896   0.727   6.560   1.490
 7666SOL    HW123897   0.798   6.625   1.517
 7666SOL    HW223898   0.743   6.530   1.396
 7667SOL     OW23899   4.741   5.207   2.007
 7667SOL    HW123900   4.800   5.280   1.972
 7667SOL    HW223901   4.657   5.246   2.043
 7668SOL     OW23902   3.233   4.526   1.039
 7668SOL    HW123903   3.296   4.495   0.968
 7668SOL    HW223904   3.142   4.536   1.000
 7669SOL     OW23905   5.692   1.896   5.488
 7669SOL    HW123906   5.597   1.876   5.510
 7669SOL    HW223907   5.720   1.982   5.531
 7670SOL     OW23908   0.725   5.151   6.719
 7670SOL    HW123909   0.626   5.156   6.734
 7670SOL    HW223910   0.759   5.063   6.750
 7671SOL     OW23911   4.383   1.175   3.340
 7671SOL    HW123912   4.410   1.174   3.436
 7671SOL    HW223913   4.446   1.117   3.288
 7672SOL     OW23914   6.232   6.586   3.019
 7672SOL    HW123915   6.216   6.589   2.920
 7672SOL    HW223916   6.325   6.617   3.039
 7673SOL     OW23917   1.542   5.404   0.265
 7673SOL    HW123918   1.568   5.380   0.171
 7673SOL    HW223919   1.600   5.479   0.297
 7674SOL     OW23920   5.776   1.585   3.765
 7674SOL    HW123921   5.721   1.668   3.763
 7674SOL    HW223922   5.837   1.586   3.844
 7675SOL     OW23923   5.998   6.999   2.482
 7675SOL    HW123924   6.025   6.903   2.487
 7675SOL    HW223925   6.054   0.029   2.545
 7676SOL     OW23926   2.069   2.563   0.583
 7676SOL    HW123927   2.127   2.522   0.654
 7676SOL    HW223928   2.012   2.493   0.542
 7677SOL     OW23929   0.506   4.714   1.894
 7677SOL    HW123930   0.589   4.756   1.932
 7677SOL    HW223931   0.525   4.685   1.800
 7678SOL     OW23932   2.317   1.662   5.014
 7678SOL    HW123933   2.245   1.662   5.084
 7678SOL    HW223934   2.395   1.716   5.046
 7679SOL     OW23935   3.091   5.566   6.438
 7679SOL    HW123936   3.142   5.486   6.470
 7679SOL    HW223937   3.156   5.635   6.405
 7680SOL     OW23938   1.857   2.021   0.796
 7680SOL    HW123939   1.835   1.979   0.884
 7680SOL    HW223940   1.934   2.084   0.808
 7681SOL     OW23941   2.630   6.752   0.503
 7681SOL    HW123942   2.719   6.792   0.527
 7681SOL    HW223943   2.637   6.708   0.413
 7682SOL     OW23944   3.047   0.279   2.350
 7682SOL    HW123945   3.123   0.340   2.327
 7682SOL    HW223946   3.024   0.290   2.446
 7683SOL     OW23947   6.596   1.567   3.477
 7683SOL    HW123948   6.679   1.513   3.491
 7683SOL    HW223949   6.613   1.662   3.504
 7684SOL     OW23950   4.162   2.179   2.183
 7684SOL    HW123951   4.206   2.096   2.217
 7684SOL    HW223952   4.063   2.164   2.177
 7685SOL     OW23953   3.389   2.351   0.132
 7685SOL    HW123954   3.469   2.408   0.112
 7685SOL    HW223955   3.345   2.325   0.046
 7686SOL     OW23956   6.282   0.069   3.011
 7686SOL    HW123957   6.376   0.037   3.024
 7686SOL    HW223958   6.220   7.014   3.014
 7687SOL     OW23959   5.714   4.735   4.432
 7687SOL    HW123960   5.683   4.686   4.513
 7687SOL    HW223961   5.814   4.737   4.430
 7688SOL     OW23962   0.452   6.019   5.575
 7688SOL    HW123963   0.468   5.949   5.644
 7688SOL    HW223964   0.471   6.109   5.613
 7689SOL     OW23965   5.412   6.254   2.994
 7689SOL    HW123966   5.326   6.205   2.978
 7689SOL    HW223967   5.488   6.190   2.990
 7690SOL     OW23968   6.211   5.078   0.698
 7690SOL    HW123969   6.243   5.065   0.792
 7690SOL    HW223970   6.281   5.046   0.634
 7691SOL     OW23971   5.073   2.600   4.626
 7691SOL    HW123972   5.171   2.613   4.610
 7691SOL    HW223973   5.033   2.687   4.655
 7692SOL     OW23974   0.656   6.278   2.244
 7692SOL    HW123975   0.575   6.275   2.185
 7692SOL    HW223976   0.717   6.203   2.220
 7693SOL     OW23977   3.792   0.295   0.965
 7693SOL    HW123978   3.818   0.215   0.911
 7693SOL    HW223979   3.698   0.321   0.941
 7694SOL     OW23980   0.145   4.783   4.776
 7694SOL    HW123981   0.093   4.699   4.764
 7694SOL    HW223982   0.128   4.819   4.868
 7695SOL     OW23983   4.317   6.075   0.893
 7695SOL    HW123984   4.268   5.997   0.853
 7695SOL    HW223985   4.250   6.143   0.924
 7696SOL     OW23986   6.777   1.513   4.682
 7696SOL    HW123987   6.765   1.596   4.627
 7696SOL    HW223988   6.800   1.538   4.776
 7697SOL     OW23989   3.168   6.484   2.034
 7697SOL    HW123990   3.193   6.471   1.938
 7697SOL    HW223991   3.157   6.582   2.053
 7698SOL     OW23992   6.486   2.021   3.306
 7698SOL    HW123993   6.536   1.991   3.224
 7698SOL    HW223994   6.391   2.037   3.282
 7699SOL     OW23995   3.755   5.918   6.732
 7699SOL    HW123996   3.800   5.849   6.674
 7699SOL    HW223997   3.670   5.881   6.768
 7700SOL     OW23998   4.921   6.329   4.269
 7700SOL    HW123999   4.966   6.242   4.287
 7700SOL    HW224000   4.875   6.361   4.352
 7701SOL     OW24001   7.009   1.337   0.053
 7701SOL    HW124002   0.001   1.246   0.015
 7701SOL    HW224003   7.016   1.333   0.153
 7702SOL     OW24004   3.416   6.348   6.165
 7702SOL    HW124005   3.403   6.446   6.179
 7702SOL    HW224006   3.369   6.320   6.081
 7703SOL     OW24007   6.281   0.468   5.453
 7703SOL    HW124008   6.269   0.557   5.410
 7703SOL    HW224009   6.240   0.469   5.544
 7704SOL     OW24010   5.320   5.187   5.452
 7704SOL    HW124011   5.227   5.151   5.447
 7704SOL    HW224012   5.356   5.173   5.545
 7705SOL     OW24013   3.590   5.551   5.925
 7705SOL    HW124014   3.645   5.602   5.991
 7705SOL    HW224015   3.577   5.458   5.957
 7706SOL     OW24016   4.627   2.966   5.481
 7706SOL    HW124017   4.712   2.942   5.528
 7706SOL    HW224018   4.624   2.922   5.392
 7707SOL     OW24019   0.674   5.777   6.424
 7707SOL    HW124020   0.732   5.737   6.353
 7707SOL    HW224021   0.694   5.875   6.432
 7708SOL     OW24022   6.257   0.165   5.820
 7708SOL    HW124023   6.275   0.211   5.907
 7708SOL    HW224024   6.320   0.201   5.751
 7709SOL     OW24025   5.446   4.462   1.501
 7709SOL    HW124026   5.454   4.363   1.494
 7709SOL    HW224027   5.510   4.495   1.571
 7710SOL     OW24028   3.278   0.420   0.600
 7710SOL    HW124029   3.180   0.405   0.604
 7710SOL    HW224030   3.300   0.512   0.632
 7711SOL     OW24031   6.527   6.140   5.270
 7711SOL    HW124032   6.530   6.130   5.370
 7711SOL    HW224033   6.612   6.104   5.231
 7712SOL     OW24034   5.079   6.005   2.531
 7712SOL    HW124035   5.149   5.957   2.477
 7712SOL    HW224036   5.030   6.069   2.472
 7713SOL     OW24037   1.646   4.738   0.190
 7713SOL    HW124038   1.553   4.741   0.227
 7713SOL    HW224039   1.662   4.821   0.136
 7714SOL     OW24040   6.126   4.103   5.601
 7714SOL    HW124041   6.084   4.163   5.532
 7714SOL    HW224042   6.223   4.124   5.610
 7715SOL     OW24043   4.167   1.996   6.811
 7715SOL    HW124044   4.200   2.071   6.755
 7715SOL    HW224045   4.070   2.008   6.830
 7716SOL     OW24046   6.523   4.263   3.815
 7716SOL    HW124047   6.620   4.272   3.838
 7716SOL    HW224048   6.513   4.209   3.732
 7717SOL     OW24049   1.620   0.934   4.883
 7717SOL    HW124050   1.660   1.024   4.867
 7717SOL    HW224051   1.654   0.870   4.814
 7718SOL     OW24052   1.434   2.054   3.358
 7718SOL    HW124053   1.440   2.084   3.263
 7718SOL    HW224054   1.508   1.990   3.378
 7719SOL     OW24055   0.182   3.882   4.705
 7719SOL    HW124056   0.250   3.954   4.692
 7719SOL    HW224057   0.091   3.922   4.704
 7720SOL     OW24058   0.419   0.922   0.124
 7720SOL    HW124059   0.424   0.838   0.069
 7720SOL    HW224060   0.390   0.900   0.217
 7721SOL     OW24061   0.455   5.253   2.559
 7721SOL    HW124062   0.529   5.303   2.514
 7721SOL    HW224063   0.443   5.289   2.652
 7722SOL     OW24064   0.490   6.037   3.314
 7722SOL    HW124065   0.449   6.060   3.225
 7722SOL    HW224066   0.468   6.108   3.380
 7723SOL     OW24067   5.400   3.156   6.779
 7723SOL    HW124068   5.399   3.081   6.713
 7723SOL    HW224069   5.316   3.155   6.832
 7724SOL     OW24070   3.055   4.362   1.447
 7724SOL    HW124071   3.068   4.346   1.545
 7724SOL    HW224072   3.139   4.340   1.398
 7725SOL     OW24073   5.969   2.761   3.139
 7725SOL    HW124074   5.965   2.687   3.206
 7725SOL    HW224075   5.922   2.733   3.055
 7726SOL     OW24076   2.114   6.083   5.169
 7726SOL    HW124077   2.014   6.089   5.172
 7726SOL    HW224078   2.151   6.121   5.253
 7727SOL     OW24079   0.235   0.661   2.501
 7727SOL    HW124080   0.171   0.725   2.458
 7727SOL    HW224081   0.322   0.707   2.516
 7728SOL     OW24082   1.013   4.828   3.508
 7728SOL    HW124083   1.098   4.829   3.456
 7728SOL    HW224084   0.935   4.832   3.445
 7729SOL     OW24085   5.974   2.777   0.922
 7729SOL    HW124086   5.951   2.739   0.833
 7729SOL    HW224087   5.891   2.804   0.970
 7730SOL     OW24088   5.900   6.053   1.253
 7730SOL    HW124089   5.873   6.148   1.269
 7730SOL    HW224090   5.973   6.027   1.316
 7731SOL     OW24091   7.010   0.340   0.474
 7731SOL    HW124092   7.005   0.245   0.443
 7731SOL    HW224093   6.922   0.367   0.513
 7732SOL     OW24094   4.397   6.323   0.629
 7732SOL    HW124095   4.468   6.312   0.698
 7732SOL    HW224096   4.365   6.233   0.599
 7733SOL     OW24097   4.648   6.949   2.450
 7733SOL    HW124098   4.599   6.920   2.367
 7733SOL    HW224099   4.624   0.021   2.470
 7734SOL     OW24100   2.728   5.412   2.918
 7734SOL    HW124101   2.765   5.322   2.940
 7734SOL    HW224102   2.708   5.417   2.820
 7735SOL     OW24103   4.600   6.047   6.731
 7735SOL    HW124104   4.672   6.024   6.667
 7735SOL    HW224105   4.528   6.099   6.684
 7736SOL     OW24106   3.617   3.518   6.893
 7736SOL    HW124107   3.527   3.475   6.885
 7736SOL    HW224108   3.621   3.599   6.836
 7737SOL     OW24109   3.515   0.653   2.427
 7737SOL    HW124110   3.506   0.719   2.353
 7737SOL    HW224111   3.438   0.661   2.489
 7738SOL     OW24112   2.793   5.680   0.093
 7738SOL    HW124113   2.852   5.761   0.089
 7738SOL    HW224114   2.782   5.652   0.188
 7739SOL     OW24115   0.740   2.029   1.440
 7739SOL    HW124116   0.805   1.969   1.393
 7739SOL    HW224117   0.665   1.975   1.476
 7740SOL     OW24118   2.094   1.035   3.304
 7740SOL    HW124119   2.060   1.064   3.214
 7740SOL    HW224120   2.056   1.094   3.375
 7741SOL     OW24121   0.490   4.724   5.319
 7741SOL    HW124122   0.392   4.704   5.321
 7741SOL    HW224123   0.513   4.767   5.232
 7742SOL     OW24124   6.052   1.879   3.287
 7742SOL    HW124125   5.976   1.858   3.348
 7742SOL    HW224126   6.091   1.794   3.252
 7743SOL     OW24127   5.681   1.674   0.384
 7743SOL    HW124128   5.759   1.705   0.330
 7743SOL    HW224129   5.702   1.586   0.426
 7744SOL     OW24130   0.824   5.858   3.602
 7744SOL    HW124131   0.890   5.840   3.529
 7744SOL    HW224132   0.732   5.833   3.571
 7745SOL     OW24133   3.325   1.079   5.764
 7745SOL    HW124134   3.232   1.078   5.801
 7745SOL    HW224135   3.371   1.163   5.793
 7746SOL     OW24136   2.553   6.351   0.177
 7746SOL    HW124137   2.486   6.361   0.104
 7746SOL    HW224138   2.634   6.304   0.142
 7747SOL     OW24139   4.898   6.156   1.651
 7747SOL    HW124140   4.927   6.070   1.609
 7747SOL    HW224141   4.800   6.168   1.638
 7748SOL     OW24142   3.076   3.384   5.415
 7748SOL    HW124143   3.059   3.454   5.485
 7748SOL    HW224144   3.057   3.294   5.453
 7749SOL     OW24145   2.900   2.852   5.760
 7749SOL    HW124146   2.839   2.840   5.681
 7749SOL    HW224147   2.956   2.769   5.771
 7750SOL     OW24148   0.438   6.452   1.417
 7750SOL    HW124149   0.383   6.370   1.398
 7750SOL    HW224150   0.433   6.473   1.514
 7751SOL     OW24151   1.426   2.514   2.354
 7751SOL    HW124152   1.458   2.522   2.259
 7751SOL    HW224153   1.363   2.589   2.374
 7752SOL     OW24154   5.169   0.527   5.787
 7752SOL    HW124155   5.152   0.495   5.881
 7752SOL    HW224156   5.262   0.563   5.781
 7753SOL     OW24157   2.661   1.178   4.287
 7753SOL    HW124158   2.743   1.149   4.337
 7753SOL    HW224159   2.595   1.102   4.284
 7754SOL     OW24160   3.311   5.857   0.963
 7754SOL    HW124161   3.256   5.924   1.013
 7754SOL    HW224162   3.335   5.782   1.024
 7755SOL     OW24163   1.913   2.513   6.039
 7755SOL    HW124164   1.934   2.424   6.080
 7755SOL    HW224165   1.814   2.523   6.031
 7756SOL     OW24166   2.627   0.095   2.324
 7756SOL    HW124167   2.616   0.103   2.423
 7756SOL    HW224168   2.630   0.186   2.283
 7757SOL     OW24169   5.802   5.153   1.096
 7757SOL    HW124170   5.826   5.245   1.127
 7757SOL    HW224171   5.793   5.092   1.175
 7758SOL     OW24172   2.278   6.968   6.322
 7758SOL    HW124173   2.189   7.008   6.344
 7758SOL    HW224174   2.314   6.921   6.402
 7759SOL     OW24175   1.769   1.431   5.405
 7759SOL    HW124176   1.781   1.507   5.340
 7759SOL    HW224177   1.844   1.433   5.472
 7760SOL     OW24178   5.707   2.987   2.721
 7760SOL    HW124179   5.781   2.922   2.738
 7760SOL    HW224180   5.682   3.031   2.807
 7761SOL     OW24181   6.494   6.351   4.673
 7761SOL    HW124182   6.445   6.264   4.673
 7761SOL    HW224183   6.578   6.342   4.727
 7762SOL     OW24184   2.251   0.089   4.043
 7762SOL    HW124185   2.157   0.084   4.011
 7762SOL    HW224186   2.282   7.021   4.069
 7763SOL     OW24187   2.569   0.088   6.579
 7763SOL    HW124188   2.634   0.128   6.514
 7763SOL    HW224189   2.564   0.146   6.660
 7764SOL     OW24190   3.213   4.028   5.439
 7764SOL    HW124191   3.119   4.061   5.455
 7764SOL    HW224192   3.278   4.102   5.458
 7765SOL     OW24193   5.994   2.717   4.240
 7765SOL    HW124194   5.999   2.814   4.218
 7765SOL    HW224195   5.925   2.702   4.310
 7766SOL     OW24196   6.979   3.801   0.787
 7766SOL    HW124197   7.021   3.739   0.854
 7766SOL    HW224198   0.019   3.815   0.711
 7767SOL     OW24199   4.452   6.533   2.130
 7767SOL    HW124200   4.524   6.571   2.187
 7767SOL    HW224201   4.372   6.511   2.187
 7768SOL     OW24202   4.976   4.623   3.106
 7768SOL    HW124203   4.975   4.621   3.206
 7768SOL    HW224204   5.064   4.658   3.075
 7769SOL     OW24205   5.007   1.270   4.437
 7769SOL    HW124206   5.093   1.272   4.489
 7769SOL    HW224207   4.931   1.294   4.498
 7770SOL     OW24208   0.742   3.166   5.221
 7770SOL    HW124209   0.823   3.112   5.245
 7770SOL    HW224210   0.759   3.262   5.242
 7771SOL     OW24211   3.089   1.445   5.510
 7771SOL    HW124212   3.066   1.502   5.431
 7771SOL    HW224213   3.188   1.435   5.517
 7772SOL     OW24214   5.288   6.851   1.369
 7772SOL    HW124215   5.234   6.786   1.422
 7772SOL    HW224216   5.308   6.812   1.279
 7773SOL     OW24217   1.688   5.231   5.361
 7773SOL    HW124218   1.656   5.325   5.367
 7773SOL    HW224219   1.725   5.202   5.449
 7774SOL     OW24220   4.788   2.844   4.106
 7774SOL    HW124221   4.763   2.805   4.194
 7774SOL    HW224222   4.840   2.929   4.120
 7775SOL     OW24223   4.503   7.005   0.222
 7775SOL    HW124224   4.406   7.002   0.248
 7775SOL    HW224225   4.519   0.062   0.164
 7776SOL     OW24226   0.941   5.566   6.714
 7776SOL    HW124227   0.925   5.490   6.777
 7776SOL    HW224228   0.908   5.651   6.756
 7777SOL     OW24229   5.703   5.633   4.165
 7777SOL    HW124230   5.633   5.627   4.237
 7777SOL    HW224231   5.724   5.542   4.132
 7778SOL     OW24232   5.603   3.686   2.418
 7778SOL    HW124233   5.657   3.602   2.430
 7778SOL    HW224234   5.524   3.666   2.360
 7779SOL     OW24235   2.764   0.842   1.997
 7779SOL    HW124236   2.830   0.875   2.065
 7779SOL    HW224237   2.676   0.828   2.040
 7780SOL     OW24238   0.979   5.009   5.216
 7780SOL    HW124239   1.023   5.042   5.132
 7780SOL    HW224240   1.010   5.064   5.294
 7781SOL     OW24241   1.161   4.176   1.350
 7781SOL    HW124242   1.062   4.183   1.345
 7781SOL    HW224243   1.190   4.091   1.307
 7782SOL     OW24244   5.114   5.299   3.892
 7782SOL    HW124245   5.107   5.371   3.823
 7782SOL    HW224246   5.022   5.264   3.912
 7783SOL     OW24247   0.850   0.442   5.930
 7783SOL    HW124248   0.946   0.427   5.906
 7783SOL    HW224249   0.839   0.535   5.967
 7784SOL     OW24250   3.235   2.359   1.432
 7784SOL    HW124251   3.141   2.373   1.462
 7784SOL    HW224252   3.284   2.446   1.436
 7785SOL     OW24253   2.020   6.129   4.119
 7785SOL    HW124254   2.003   6.153   4.023
 7785SOL    HW224255   2.118   6.132   4.137
 7786SOL     OW24256   3.851   0.420   0.053
 7786SOL    HW124257   3.860   0.480   6.997
 7786SOL    HW224258   3.879   0.469   0.135
 7787SOL     OW24259   2.066   3.113   0.170
 7787SOL    HW124260   2.052   3.151   0.079
 7787SOL    HW224261   2.162   3.127   0.198
 7788SOL     OW24262   1.357   4.809   1.765
 7788SOL    HW124263   1.393   4.715   1.764
 7788SOL    HW224264   1.330   4.834   1.672
 7789SOL     OW24265   3.064   0.251   6.338
 7789SOL    HW124266   3.094   0.277   6.430
 7789SOL    HW224267   3.126   0.182   6.300
 7790SOL     OW24268   5.224   5.794   2.789
 7790SOL    HW124269   5.274   5.731   2.849
 7790SOL    HW224270   5.194   5.745   2.707
 7791SOL     OW24271   2.279   5.074   2.205
 7791SOL    HW124272   2.195   5.062   2.152
 7791SOL    HW224273   2.304   4.987   2.248
 7792SOL     OW24274   1.513   6.579   4.063
 7792SOL    HW124275   1.589   6.628   4.022
 7792SOL    HW224276   1.440   6.568   3.996
 7793SOL     OW24277   3.952   0.803   0.006
 7793SOL    HW124278   3.906   0.788   6.942
 7793SOL    HW224279   4.024   0.734   0.018
 7794SOL     OW24280   0.513   4.210   1.969
 7794SOL    HW124281   0.535   4.142   1.900
 7794SOL    HW224282   0.415   4.209   1.987
 7795SOL     OW24283   2.783   5.147   5.091
 7795SOL    HW124284   2.881   5.130   5.095
 7795SOL    HW224285   2.734   5.059   5.088
 7796SOL     OW24286   3.762   2.736   5.363
 7796SOL    HW124287   3.713   2.770   5.444
 7796SOL    HW224288   3.860   2.750   5.375
 7797SOL     OW24289   0.795   6.427   1.249
 7797SOL    HW124290   0.717   6.474   1.208
 7797SOL    HW224291   0.872   6.426   1.185
 7798SOL     OW24292   0.871   2.369   3.049
 7798SOL    HW124293   0.938   2.319   2.994
 7798SOL    HW224294   0.919   2.431   3.112
 7799SOL     OW24295   1.783   5.297   2.358
 7799SOL    HW124296   1.694   5.296   2.404
 7799SOL    HW224297   1.833   5.379   2.384
 7800SOL     OW24298   0.908   5.683   3.257
 7800SOL    HW124299   0.980   5.619   3.232
 7800SOL    HW224300   0.845   5.640   3.321
 7801SOL     OW24301   1.515   1.608   2.774
 7801SOL    HW124302   1.420   1.631   2.794
 7801SOL    HW224303   1.573   1.639   2.850
 7802SOL     OW24304   6.595   3.236   0.210
 7802SOL    HW124305   6.631   3.168   0.273
 7802SOL    HW224306   6.597   3.326   0.253
 7803SOL     OW24307   4.101   2.128   0.138
 7803SOL    HW124308   4.054   2.101   0.054
 7803SOL    HW224309   4.066   2.217   0.169
 7804SOL     OW24310   4.908   1.983   4.846
 7804SOL    HW124311   4.929   2.080   4.835
 7804SOL    HW224312   4.888   1.964   4.942
 7805SOL     OW24313   5.103   3.423   2.951
 7805SOL    HW124314   5.113   3.464   3.042
 7805SOL    HW224315   5.185   3.439   2.897
 7806SOL     OW24316   5.838   1.436   6.382
 7806SOL    HW124317   5.751   1.430   6.430
 7806SOL    HW224318   5.856   1.350   6.334
 7807SOL     OW24319   0.855   4.504   5.039
 7807SOL    HW124320   0.941   4.554   5.024
 7807SOL    HW224321   0.839   4.442   4.962
 7808SOL     OW24322   5.692   3.242   3.501
 7808SOL    HW124323   5.759   3.221   3.573
 7808SOL    HW224324   5.619   3.298   3.540
 7809SOL     OW24325   5.052   5.384   4.928
 7809SOL    HW124326   5.082   5.291   4.903
 7809SOL    HW224327   5.123   5.428   4.983
 7810SOL     OW24328   2.709   6.575   5.552
 7810SOL    HW124329   2.652   6.537   5.625
 7810SOL    HW224330   2.798   6.529   5.552
 7811SOL     OW24331   1.080   5.833   1.995
 7811SOL    HW124332   1.116   5.767   2.061
 7811SOL    HW224333   1.108   5.807   1.903
 7812SOL     OW24334   2.260   2.415   4.394
 7812SOL    HW124335   2.230   2.472   4.317
 7812SOL    HW224336   2.323   2.344   4.360
 7813SOL     OW24337   4.404   2.387   1.344
 7813SOL    HW124338   4.497   2.420   1.358
 7813SOL    HW224339   4.404   2.287   1.342
 7814SOL     OW24340   0.079   3.285   3.365
 7814SOL    HW124341   0.008   3.260   3.431
 7814SOL    HW224342   0.143   3.350   3.408
 7815SOL     OW24343   5.823   1.926   4.330
 7815SOL    HW124344   5.847   2.021   4.313
 7815SOL    HW224345   5.887   1.886   4.395
 7816SOL     OW24346   0.702   2.546   6.756
 7816SOL    HW124347   0.722   2.635   6.798
 7816SOL    HW224348   0.773   2.523   6.691
 7817SOL     OW24349   4.582   4.339   5.139
 7817SOL    HW124350   4.490   4.308   5.162
 7817SOL    HW224351   4.594   4.433   5.169
 7818SOL     OW24352   4.497   0.633   3.321
 7818SOL    HW124353   4.478   0.730   3.336
 7818SOL    HW224354   4.488   0.611   3.224
 7819SOL     OW24355   0.408   3.673   3.615
 7819SOL    HW124356   0.493   3.633   3.580
 7819SOL    HW224357   0.387   3.634   3.705
 7820SOL     OW24358   1.836   1.037   5.622
 7820SOL    HW124359   1.921   1.069   5.582
 7820SOL    HW224360   1.846   1.030   5.721
 7821SOL     OW24361   5.810   6.035   0.736
 7821SOL    HW124362   5.881   6.031   0.665
 7821SOL    HW224363   5.849   6.078   0.818
 7822SOL     OW24364   1.194   1.445   6.986
 7822SOL    HW124365   1.095   1.445   6.994
 7822SOL    HW224366   1.221   1.496   6.904
 7823SOL     OW24367   2.264   4.133   6.295
 7823SOL    HW124368   2.178   4.138   6.347
 7823SOL    HW224369   2.243   4.136   6.198
 7824SOL     OW24370   5.530   0.754   4.817
 7824SOL    HW124371   5.562   0.708   4.901
 7824SOL    HW224372   5.466   0.827   4.841
 7825SOL     OW24373   1.425   3.504   0.512
 7825SOL    HW124374   1.443   3.540   0.604
 7825SOL    HW224375   1.376   3.418   0.518
 7826SOL     OW24376   5.786   2.157   6.531
 7826SOL    HW124377   5.704   2.142   6.587
 7826SOL    HW224378   5.781   2.101   6.449
 7827SOL     OW24379   3.280   4.449   0.738
 7827SOL    HW124380   3.310   4.516   0.670
 7827SOL    HW224381   3.308   4.357   0.711
 7828SOL     OW24382   0.264   5.177   0.736
 7828SOL    HW124383   0.344   5.152   0.791
 7828SOL    HW224384   0.207   5.241   0.787
 7829SOL     OW24385   2.042   2.932   0.348
 7829SOL    HW124386   2.029   3.007   0.283
 7829SOL    HW224387   2.064   2.970   0.438
 7830SOL     OW24388   4.933   3.672   5.894
 7830SOL    HW124389   5.032   3.664   5.878
 7830SOL    HW224390   4.911   3.765   5.922
 7831SOL     OW24391   1.521   5.350   0.750
 7831SOL    HW124392   1.500   5.328   0.655
 7831SOL    HW224393   1.437   5.348   0.805
 7832SOL     OW24394   3.512   0.983   4.297
 7832SOL    HW124395   3.509   0.986   4.397
 7832SOL    HW224396   3.517   1.076   4.260
 7833SOL     OW24397   0.569   0.500   6.688
 7833SOL    HW124398   0.626   0.509   6.606
 7833SOL    HW224399   0.484   0.454   6.664
 7834SOL     OW24400   0.612   1.803   3.507
 7834SOL    HW124401   0.613   1.856   3.422
 7834SOL    HW224402   0.562   1.853   3.577
 7835SOL     OW24403   1.869   2.493   4.890
 7835SOL    HW124404   1.925   2.566   4.850
 7835SOL    HW224405   1.921   2.408   4.890
 7836SOL     OW24406   3.852   2.340   6.022
 7836SOL    HW124407   3.893   2.420   6.066
 7836SOL    HW224408   3.777   2.306   6.079
 7837SOL     OW24409   6.484   6.228   1.960
 7837SOL    HW124410   6.392   6.267   1.956
 7837SOL    HW224411   6.545   6.280   1.901
 7838SOL     OW24412   4.076   6.143   0.325
 7838SOL    HW124413   4.022   6.121   0.243
 7838SOL    HW224414   4.155   6.198   0.299
 7839SOL     OW24415   6.511   4.830   5.806
 7839SOL    HW124416   6.510   4.923   5.769
 7839SOL    HW224417   6.498   4.765   5.732
 7840SOL     OW24418   5.068   3.478   4.508
 7840SOL    HW124419   5.144   3.416   4.487
 7840SOL    HW224420   5.083   3.520   4.597
 7841SOL     OW24421   5.742   1.045   0.195
 7841SOL    HW124422   5.745   1.100   0.278
 7841SOL    HW224423   5.766   1.102   0.116
 7842SOL     OW24424   2.259   1.665   3.056
 7842SOL    HW124425   2.295   1.644   3.147
 7842SOL    HW224426   2.324   1.724   3.008
 7843SOL     OW24427   5.070   4.456   1.801
 7843SOL    HW124428   4.989   4.431   1.854
 7843SOL    HW224429   5.047   4.459   1.704
 7844SOL     OW24430   4.415   0.873   4.004
 7844SOL    HW124431   4.463   0.928   4.072
 7844SOL    HW224432   4.480   0.812   3.958
 7845SOL     OW24433   6.468   1.659   4.167
 7845SOL    HW124434   6.409   1.717   4.110
 7845SOL    HW224435   6.425   1.569   4.177
 7846SOL     OW24436   1.414   0.926   1.495
 7846SOL    HW124437   1.397   0.830   1.517
 7846SOL    HW224438   1.332   0.979   1.515
 7847SOL     OW24439   6.829   1.845   1.497
 7847SOL    HW124440   6.912   1.789   1.501
 7847SOL    HW224441   6.791   1.841   1.404
 7848SOL     OW24442   3.358   3.812   1.288
 7848SOL    HW124443   3.336   3.905   1.320
 7848SOL    HW224444   3.276   3.756   1.287
 7849SOL     OW24445   5.526   4.066   3.942
 7849SOL    HW124446   5.542   4.097   3.848
 7849SOL    HW224447   5.613   4.042   3.984
 7850SOL     OW24448   0.109   1.739   3.994
 7850SOL    HW124449   0.060   1.700   3.915
 7850SOL    HW224450   0.190   1.787   3.962
 7851SOL     OW24451   6.689   0.061   0.989
 7851SOL    HW124452   6.593   0.089   0.986
 7851SOL    HW224453   6.743   0.134   1.030
 7852SOL     OW24454   2.970   0.412   5.548
 7852SOL    HW124455   2.905   0.336   5.540
 7852SOL    HW224456   2.921   0.499   5.542
 7853SOL     OW24457   4.059   1.468   1.685
 7853SOL    HW124458   3.995   1.545   1.684
 7853SOL    HW224459   4.117   1.475   1.766
 7854SOL     OW24460   3.572   3.944   1.158
 7854SOL    HW124461   3.522   3.879   1.216
 7854SOL    HW224462   3.528   3.951   1.069
 7855SOL     OW24463   3.136   5.907   5.580
 7855SOL    HW124464   3.051   5.855   5.573
 7855SOL    HW224465   3.132   5.985   5.517
 7856SOL     OW24466   5.490   4.760   3.741
 7856SOL    HW124467   5.427   4.794   3.671
 7856SOL    HW224468   5.471   4.804   3.828
 7857SOL     OW24469   6.455   3.214   5.187
 7857SOL    HW124470   6.385   3.183   5.252
 7857SOL    HW224471   6.488   3.135   5.134
 7858SOL     OW24472   4.449   5.388   3.594
 7858SOL    HW124473   4.404   5.428   3.674
 7858SOL    HW224474   4.494   5.302   3.620
 7859SOL     OW24475   6.493   4.229   5.470
 7859SOL    HW124476   6.557   4.156   5.494
 7859SOL    HW224477   6.459   4.272   5.554
 7860SOL     OW24478   4.298   0.134   3.263
 7860SOL    HW124479   4.345   0.212   3.304
 7860SOL    HW224480   4.260   0.076   3.335
 7861SOL     OW24481   3.784   5.264   1.674
 7861SOL    HW124482   3.735   5.347   1.702
 7861SOL    HW224483   3.785   5.258   1.574
 7862SOL     OW24484   3.125   4.718   1.737
 7862SOL    HW124485   3.070   4.652   1.788
 7862SOL    HW224486   3.222   4.693   1.743
 7863SOL     OW24487   6.737   6.433   3.823
 7863SOL    HW124488   6.698   6.450   3.914
 7863SOL    HW224489   6.787   6.514   3.793
 7864SOL     OW24490   0.083   6.304   5.577
 7864SOL    HW124491   0.128   6.296   5.666
 7864SOL    HW224492   0.028   6.387   5.574
 7865SOL     OW24493   4.715   6.754   4.206
 7865SOL    HW124494   4.694   6.849   4.232
 7865SOL    HW224495   4.729   6.700   4.289
 7866SOL     OW24496   2.596   2.154   6.969
 7866SOL    HW124497   2.620   2.252   6.972
 7866SOL    HW224498   2.676   2.102   6.939
 7867SOL     OW24499   5.030   6.195   2.766
 7867SOL    HW124500   5.077   6.152   2.689
 7867SOL    HW224501   4.956   6.253   2.732
 7868SOL     OW24502   5.496   0.008   2.258
 7868SOL    HW124503   5.528   7.022   2.353
 7868SOL    HW224504   5.505   0.103   2.230
 7869SOL     OW24505   5.657   3.790   0.459
 7869SOL    HW124506   5.579   3.846   0.431
 7869SOL    HW224507   5.742   3.835   0.431
 7870SOL     OW24508   4.862   5.469   4.226
 7870SOL    HW124509   4.805   5.407   4.280
 7870SOL    HW224510   4.954   5.472   4.266
 7871SOL     OW24511   5.702   3.758   2.712
 7871SOL    HW124512   5.680   3.663   2.693
 7871SOL    HW224513   5.767   3.792   2.643
 7872SOL     OW24514   2.029   4.532   2.423
 7872SOL    HW124515   1.987   4.467   2.361
 7872SOL    HW224516   1.989   4.623   2.409
 7873SOL     OW24517   5.241   0.423   5.222
 7873SOL    HW124518   5.162   0.478   5.248
 7873SOL    HW224519   5.218   0.326   5.232
 7874SOL     OW24520   4.744   1.501   0.491
 7874SOL    HW124521   4.723   1.405   0.505
 7874SOL    HW224522   4.778   1.541   0.577
 7875SOL     OW24523   4.434   2.551   6.647
 7875SOL    HW124524   4.521   2.504   6.635
 7875SOL    HW224525   4.413   2.558   6.745
 7876SOL     OW24526   6.937   0.420   5.120
 7876SOL    HW124527   6.907   0.386   5.030
 7876SOL    HW224528   6.905   0.514   5.131
 7877SOL     OW24529   0.253   2.927   2.374
 7877SOL    HW124530   0.319   2.855   2.353
 7877SOL    HW224531   0.161   2.892   2.362
 7878SOL     OW24532   5.001   4.912   4.082
 7878SOL    HW124533   4.914   4.894   4.035
 7878SOL    HW224534   4.996   5.002   4.125
 7879SOL     OW24535   4.781   5.582   3.765
 7879SOL    HW124536   4.750   5.677   3.756
 7879SOL    HW224537   4.801   5.545   3.674
 7880SOL     OW24538   0.836   5.054   0.755
 7880SOL    HW124539   0.897   5.016   0.685
 7880SOL    HW224540   0.824   5.152   0.739
 7881SOL     OW24541   5.998   3.863   4.586
 7881SOL    HW124542   6.086   3.856   4.540
 7881SOL    HW224543   6.013   3.861   4.685
 7882SOL     OW24544   1.493   2.669   3.181
 7882SOL    HW124545   1.416   2.718   3.222
 7882SOL    HW224546   1.457   2.593   3.126
 7883SOL     OW24547   1.490   6.877   1.170
 7883SOL    HW124548   1.552   6.931   1.227
 7883SOL    HW224549   1.450   6.803   1.224
 7884SOL     OW24550   1.948   4.513   3.595
 7884SOL    HW124551   1.987   4.577   3.662
 7884SOL    HW224552   1.962   4.419   3.626
 7885SOL     OW24553   6.228   6.467   2.726
 7885SOL    HW124554   6.219   6.450   2.628
 7885SOL    HW224555   6.199   6.386   2.777
 7886SOL     OW24556   4.180   4.278   0.809
 7886SOL    HW124557   4.195   4.329   0.724
 7886SOL    HW224558   4.131   4.335   0.875
 7887SOL     OW24559   3.465   2.435   5.501
 7887SOL    HW124560   3.564   2.447   5.488
 7887SOL    HW224561   3.449   2.368   5.574
 7888SOL     OW24562   0.225   0.597   5.419
 7888SOL    HW124563   0.208   0.668   5.351
 7888SOL    HW224564   0.218   0.507   5.376
 7889SOL     OW24565   0.839   4.727   0.304
 7889SOL    HW124566   0.933   4.700   0.285
 7889SOL    HW224567   0.834   4.765   0.396
 7890SOL     OW24568   0.369   3.592   3.916
 7890SOL    HW124569   0.308   3.584   3.995
 7890SOL    HW224570   0.446   3.652   3.940
 7891SOL     OW24571   1.438   3.658   4.275
 7891SOL    HW124572   1.374   3.639   4.199
 7891SOL    HW224573   1.411   3.605   4.355
 7892SOL     OW24574   1.386   2.148   4.163
 7892SOL    HW124575   1.419   2.157   4.068
 7892SOL    HW224576   1.287   2.156   4.164
 7893SOL     OW24577   5.882   0.055   2.237
 7893SOL    HW124578   5.932   0.056   2.323
 7893SOL    HW224579   5.885   6.987   2.197
 7894SOL     OW24580   2.995   0.790   1.062
 7894SOL    HW124581   2.943   0.873   1.082
 7894SOL    HW224582   3.053   0.767   1.140
 7895SOL     OW24583   4.936   6.677   5.173
 7895SOL    HW124584   4.971   6.701   5.264
 7895SOL    HW224585   4.963   6.748   5.108
 7896SOL     OW24586   5.777   3.385   1.039
 7896SOL    HW124587   5.685   3.370   1.075
 7896SOL    HW224588   5.774   3.454   0.967
 7897SOL     OW24589   3.639   2.828   1.422
 7897SOL    HW124590   3.638   2.910   1.365
 7897SOL    HW224591   3.569   2.836   1.493
 7898SOL     OW24592   3.605   0.271   3.856
 7898SOL    HW124593   3.634   0.179   3.884
 7898SOL    HW224594   3.548   0.311   3.927
 7899SOL     OW24595   5.777   0.130   1.864
 7899SOL    HW124596   5.729   0.044   1.878
 7899SOL    HW224597   5.852   0.117   1.800
 7900SOL     OW24598   0.930   4.990   1.550
 7900SOL    HW124599   0.901   4.919   1.615
 7900SOL    HW224600   0.856   5.009   1.486
 7901SOL     OW24601   4.667   1.016   6.460
 7901SOL    HW124602   4.577   1.013   6.502
 7901SOL    HW224603   4.657   1.034   6.362
 7902SOL     OW24604   6.330   6.167   3.210
 7902SOL    HW124605   6.300   6.084   3.162
 7902SOL    HW224606   6.430   6.172   3.210
 7903SOL     OW24607   4.562   2.122   2.696
 7903SOL    HW124608   4.492   2.186   2.727
 7903SOL    HW224609   4.523   2.030   2.689
 7904SOL     OW24610   5.581   0.256   2.813
 7904SOL    HW124611   5.564   0.280   2.717
 7904SOL    HW224612   5.646   0.181   2.818
 7905SOL     OW24613   5.378   2.153   0.185
 7905SOL    HW124614   5.422   2.145   0.274
 7905SOL    HW224615   5.313   2.228   0.187
 7906SOL     OW24616   1.000   6.126   0.603
 7906SOL    HW124617   0.937   6.048   0.607
 7906SOL    HW224618   1.072   6.106   0.536
 7907SOL     OW24619   6.691   1.119   2.897
 7907SOL    HW124620   6.593   1.134   2.902
 7907SOL    HW224621   6.736   1.170   2.971
 7908SOL     OW24622   0.912   1.475   5.997
 7908SOL    HW124623   0.900   1.413   5.919
 7908SOL    HW224624   0.994   1.530   5.983
 7909SOL     OW24625   4.793   4.157   3.627
 7909SOL    HW124626   4.852   4.105   3.690
 7909SOL    HW224627   4.711   4.103   3.606
 7910SOL     OW24628   1.871   3.203   0.424
 7910SOL    HW124629   1.834   3.158   0.343
 7910SOL    HW224630   1.964   3.234   0.405
 7911SOL     OW24631   1.157   4.882   1.047
 7911SOL    HW124632   1.248   4.885   1.004
 7911SOL    HW224633   1.155   4.945   1.124
 7912SOL     OW24634   5.973   4.626   1.448
 7912SOL    HW124635   5.907   4.550   1.450
 7912SOL    HW224636   6.062   4.592   1.417
 7913SOL     OW24637   1.769   4.005   1.851
 7913SOL    HW124638   1.692   4.062   1.882
 7913SOL    HW224639   1.788   3.935   1.920
 7914SOL     OW24640   0.107   4.589   1.159
 7914SOL    HW124641   0.020   4.638   1.166
 7914SOL    HW224642   0.171   4.644   1.104
 7915SOL     OW24643   4.932   1.966   2.678
 7915SOL    HW124644   4.859   1.898   2.670
 7915SOL    HW224645   4.900   2.043   2.733
 7916SOL     OW24646   0.479   6.290   5.642
 7916SOL    HW124647   0.495   6.281   5.740
 7916SOL    HW224648   0.565   6.275   5.592
 7917SOL     OW24649   4.284   3.089   5.683
 7917SOL    HW124650   4.383   3.103   5.689
 7917SOL    HW224651   4.238   3.178   5.686
 7918SOL     OW24652   6.560   1.142   4.229
 7918SOL    HW124653   6.516   1.065   4.181
 7918SOL    HW224654   6.600   1.203   4.161
 7919SOL     OW24655   1.547   4.897   2.701
 7919SOL    HW124656   1.469   4.861   2.751
 7919SOL    HW224657   1.602   4.821   2.664
 7920SOL     OW24658   6.259   6.589   1.571
 7920SOL    HW124659   6.197   6.667   1.570
 7920SOL    HW224660   6.295   6.576   1.664
 7921SOL     OW24661   5.679   5.872   2.174
 7921SOL    HW124662   5.673   5.964   2.134
 7921SOL    HW224663   5.740   5.873   2.252
 7922SOL     OW24664   0.751   6.180   6.934
 7922SOL    HW124665   0.652   6.180   6.950
 7922SOL    HW224666   0.776   6.260   6.880
 7923SOL     OW24667   4.378   1.627   6.226
 7923SOL    HW124668   4.323   1.634   6.310
 7923SOL    HW224669   4.453   1.693   6.230
 7924SOL     OW24670   4.888   0.141   1.234
 7924SOL    HW124671   4.967   0.102   1.282
 7924SOL    HW224672   4.913   0.230   1.196
 7925SOL     OW24673   0.782   0.138   0.139
 7925SOL    HW124674   0.850   0.195   0.094
 7925SOL    HW224675   0.802   0.041   0.122
 7926SOL     OW24676   5.296   1.437   6.392
 7926SOL    HW124677   5.272   1.419   6.297
 7926SOL    HW224678   5.275   1.533   6.414
 7927SOL     OW24679   4.974   6.895   2.328
 7927SOL    HW124680   4.983   6.956   2.250
 7927SOL    HW224681   4.882   6.902   2.366
 7928SOL     OW24682   0.841   1.856   3.916
 7928SOL    HW124683   0.810   1.846   4.010
 7928SOL    HW224684   0.806   1.943   3.879
 7929SOL     OW24685   3.643   3.445   5.644
 7929SOL    HW124686   3.738   3.476   5.649
 7929SOL    HW224687   3.582   3.525   5.647
 7930SOL     OW24688   4.323   4.979   5.735
 7930SOL    HW124689   4.318   4.971   5.635
 7930SOL    HW224690   4.328   5.075   5.760
 7931SOL     OW24691   3.750   3.081   0.537
 7931SOL    HW124692   3.766   3.087   0.636
 7931SOL    HW224693   3.667   3.028   0.520
 7932SOL     OW24694   1.086   5.632   6.301
 7932SOL    HW124695   1.132   5.696   6.364
 7932SOL    HW224696   1.148   5.609   6.226
 7933SOL     OW24697   6.514   0.673   6.279
 7933SOL    HW124698   6.613   0.672   6.292
 7933SOL    HW224699   6.468   0.684   6.368
 7934SOL     OW24700   1.480   5.361   6.664
 7934SOL    HW124701   1.401   5.353   6.725
 7934SOL    HW224702   1.539   5.280   6.676
 7935SOL     OW24703   5.610   6.312   1.247
 7935SOL    HW124704   5.549   6.340   1.321
 7935SOL    HW224705   5.704   6.308   1.281
 7936SOL     OW24706   2.900   6.015   2.929
 7936SOL    HW124707   2.909   5.926   2.973
 7936SOL    HW224708   2.973   6.027   2.862
 7937SOL     OW24709   0.480   6.081   4.236
 7937SOL    HW124710   0.511   5.992   4.201
 7937SOL    HW224711   0.539   6.109   4.311
 7938SOL     OW24712   6.159   6.377   5.098
 7938SOL    HW124713   6.259   6.380   5.108
 7938SOL    HW224714   6.134   6.306   5.032
 7939SOL     OW24715   1.923   2.276   5.844
 7939SOL    HW124716   1.950   2.287   5.940
 7939SOL    HW224717   1.977   2.337   5.787
 7940SOL     OW24718   2.334   2.752   2.546
 7940SOL    HW124719   2.329   2.817   2.470
 7940SOL    HW224720   2.409   2.688   2.529
 7941SOL     OW24721   5.755   6.130   2.156
 7941SOL    HW124722   5.832   6.126   2.220
 7941SOL    HW224723   5.700   6.211   2.176
 7942SOL     OW24724   0.552   4.108   2.690
 7942SOL    HW124725   0.619   4.159   2.744
 7942SOL    HW224726   0.460   4.140   2.713
 7943SOL     OW24727   0.572   4.301   5.922
 7943SOL    HW124728   0.549   4.366   5.994
 7943SOL    HW224729   0.627   4.227   5.959
 7944SOL     OW24730   0.688   3.026   0.590
 7944SOL    HW124731   0.677   2.950   0.526
 7944SOL    HW224732   0.696   2.991   0.683
 7945SOL     OW24733   6.615   6.066   1.584
 7945SOL    HW124734   6.560   6.150   1.587
 7945SOL    HW224735   6.586   6.010   1.507
 7946SOL     OW24736   3.614   0.643   5.802
 7946SOL    HW124737   3.533   0.584   5.804
 7946SOL    HW224738   3.614   0.703   5.882
 7947SOL     OW24739   2.770   1.643   5.738
 7947SOL    HW124740   2.737   1.562   5.690
 7947SOL    HW224741   2.692   1.697   5.770
 7948SOL     OW24742   0.948   6.198   0.894
 7948SOL    HW124743   0.943   6.193   0.795
 7948SOL    HW224744   0.859   6.224   0.932
 7949SOL     OW24745   4.456   3.922   5.865
 7949SOL    HW124746   4.492   3.963   5.948
 7949SOL    HW224747   4.453   3.822   5.876
 7950SOL     OW24748   4.838   6.020   4.571
 7950SOL    HW124749   4.913   6.075   4.609
 7950SOL    HW224750   4.876   5.943   4.521
 7951SOL     OW24751   1.886   4.531   2.163
 7951SOL    HW124752   1.971   4.492   2.126
 7951SOL    HW224753   1.847   4.469   2.231
 7952SOL     OW24754   0.518   3.211   6.620
 7952SOL    HW124755   0.505   3.144   6.693
 7952SOL    HW224756   0.569   3.290   6.655
 7953SOL     OW24757   4.291   2.217   2.646
 7953SOL    HW124758   4.201   2.203   2.605
 7953SOL    HW224759   4.340   2.288   2.596
 7954SOL     OW24760   3.156   4.258   6.377
 7954SOL    HW124761   3.203   4.205   6.306
 7954SOL    HW224762   3.058   4.264   6.355
 7955SOL     OW24763   2.181   1.058   6.716
 7955SOL    HW124764   2.097   1.080   6.764
 7955SOL    HW224765   2.192   0.958   6.711
 7956SOL     OW24766   5.200   0.508   2.193
 7956SOL    HW124767   5.144   0.510   2.111
 7956SOL    HW224768   5.275   0.442   2.181
 7957SOL     OW24769   1.492   0.424   0.597
 7957SOL    HW124770   1.568   0.457   0.653
 7957SOL    HW224771   1.453   0.499   0.545
 7958SOL     OW24772   4.753   5.303   5.962
 7958SOL    HW124773   4.806   5.222   5.988
 7958SOL    HW224774   4.815   5.381   5.949
 7959SOL     OW24775   5.056   6.833   1.069
 7959SOL    HW124776   5.048   6.929   1.043
 7959SOL    HW224777   4.979   6.781   1.031
 7960SOL     OW24778   2.273   0.569   5.885
 7960SOL    HW124779   2.369   0.539   5.890
 7960SOL    HW224780   2.269   0.659   5.842
 7961SOL     OW24781   7.010   0.977   0.468
 7961SOL    HW124782   7.012   0.905   0.399
 7961SOL    HW224783   6.920   1.020   0.470
 7962SOL     OW24784   1.175   0.899   5.525
 7962SOL    HW124785   1.268   0.934   5.538
 7962SOL    HW224786   1.119   0.970   5.484
 7963SOL     OW24787   5.878   5.767   4.354
 7963SOL    HW124788   5.826   5.740   4.273
 7963SOL    HW224789   5.918   5.858   4.339
 7964SOL     OW24790   7.000   3.921   2.811
 7964SOL    HW124791   6.922   3.940   2.871
 7964SOL    HW224792   6.973   3.852   2.744
 7965SOL     OW24793   4.062   2.198   5.954
 7965SOL    HW124794   3.973   2.237   5.981
 7965SOL    HW224795   4.133   2.268   5.964
 7966SOL     OW24796   2.934   3.137   5.863
 7966SOL    HW124797   2.882   3.055   5.890
 7966SOL    HW224798   2.976   3.122   5.774
 7967SOL     OW24799   3.380   6.045   1.650
 7967SOL    HW124800   3.469   6.007   1.627
 7967SOL    HW224801   3.337   5.989   1.722
 7968SOL     OW24802   6.529   2.375   4.020
 7968SOL    HW124803   6.473   2.317   4.079
 7968SOL    HW224804   6.602   2.417   4.073
 7969SOL     OW24805   5.749   5.751   0.918
 7969SOL    HW124806   5.814   5.737   0.843
 7969SOL    HW224807   5.797   5.790   0.997
 7970SOL     OW24808   6.405   2.897   2.169
 7970SOL    HW124809   6.381   2.942   2.255
 7970SOL    HW224810   6.322   2.875   2.119
 7971SOL     OW24811   3.366   1.807   1.064
 7971SOL    HW124812   3.269   1.796   1.046
 7971SOL    HW224813   3.402   1.883   1.010
 7972SOL     OW24814   3.102   2.945   0.897
 7972SOL    HW124815   3.129   2.994   0.814
 7972SOL    HW224816   3.095   3.009   0.973
 7973SOL     OW24817   4.573   4.441   4.055
 7973SOL    HW124818   4.524   4.486   4.130
 7973SOL    HW224819   4.561   4.494   3.971
 7974SOL     OW24820   5.844   1.163   5.767
 7974SOL    HW124821   5.864   1.067   5.787
 7974SOL    HW224822   5.848   1.216   5.851
 7975SOL     OW24823   6.348   0.780   1.318
 7975SOL    HW124824   6.370   0.729   1.402
 7975SOL    HW224825   6.250   0.774   1.300
 7976SOL     OW24826   1.388   0.464   5.978
 7976SOL    HW124827   1.415   0.461   5.882
 7976SOL    HW224828   1.318   0.534   5.991
 7977SOL     OW24829   4.338   5.749   3.200
 7977SOL    HW124830   4.378   5.837   3.175
 7977SOL    HW224831   4.238   5.755   3.194
 7978SOL     OW24832   6.808   2.600   6.334
 7978SOL    HW124833   6.805   2.598   6.234
 7978SOL    HW224834   6.742   2.667   6.368
 7979SOL     OW24835   3.537   5.231   5.393
 7979SOL    HW124836   3.548   5.218   5.492
 7979SOL    HW224837   3.618   5.276   5.356
 7980SOL     OW24838   3.578   5.562   6.264
 7980SOL    HW124839   3.524   5.508   6.200
 7980SOL    HW224840   3.589   5.655   6.229
 7981SOL     OW24841   0.789   4.587   1.520
 7981SOL    HW124842   0.839   4.636   1.449
 7981SOL    HW224843   0.737   4.512   1.478
 7982SOL     OW24844   1.361   1.153   0.507
 7982SOL    HW124845   1.296   1.223   0.477
 7982SOL    HW224846   1.329   1.063   0.481
 7983SOL     OW24847   5.891   2.449   0.425
 7983SOL    HW124848   5.867   2.541   0.396
 7983SOL    HW224849   5.952   2.454   0.504
 7984SOL     OW24850   1.210   1.358   0.928
 7984SOL    HW124851   1.239   1.452   0.948
 7984SOL    HW224852   1.274   1.316   0.863
 7985SOL     OW24853   2.863   1.711   4.650
 7985SOL    HW124854   2.866   1.619   4.611
 7985SOL    HW224855   2.956   1.745   4.662
 7986SOL     OW24856   2.933   0.722   6.318
 7986SOL    HW124857   2.846   0.744   6.362
 7986SOL    HW224858   2.973   0.642   6.362
 7987SOL     OW24859   1.532   2.358   0.301
 7987SOL    HW124860   1.539   2.280   0.238
 7987SOL    HW224861   1.503   2.326   0.391
 7988SOL     OW24862   1.239   1.604   2.877
 7988SOL    HW124863   1.195   1.639   2.960
 7988SOL    HW224864   1.228   1.504   2.874
 7989SOL     OW24865   3.135   3.402   0.538
 7989SOL    HW124866   3.125   3.379   0.441
 7989SOL    HW224867   3.048   3.385   0.585
 7990SOL     OW24868   1.564   5.165   4.734
 7990SOL    HW124869   1.511   5.150   4.818
 7990SOL    HW224870   1.590   5.261   4.728
 7991SOL     OW24871   6.079   1.317   3.895
 7991SOL    HW124872   6.140   1.247   3.935
 7991SOL    HW224873   5.986   1.303   3.928
 7992SOL     OW24874   1.193   0.594   0.263
 7992SOL    HW124875   1.212   0.673   0.205
 7992SOL    HW224876   1.097   0.568   0.254
 7993SOL     OW24877   0.023   0.051   0.873
 7993SOL    HW124878   0.012   0.144   0.906
 7993SOL    HW224879   0.090   0.049   0.799
 7994SOL     OW24880   3.519   0.276   3.595
 7994SOL    HW124881   3.505   0.372   3.568
 7994SOL    HW224882   3.571   0.273   3.680
 7995SOL     OW24883   5.855   5.619   3.365
 7995SOL    HW124884   5.808   5.531   3.373
 7995SOL    HW224885   5.841   5.672   3.449
 7996SOL     OW24886   3.483   6.593   4.352
 7996SOL    HW124887   3.547   6.516   4.349
 7996SOL    HW224888   3.534   6.679   4.354
 7997SOL     OW24889   0.097   1.234   0.902
 7997SOL    HW124890   0.049   1.164   0.849
 7997SOL    HW224891   0.186   1.198   0.930
 7998SOL     OW24892   3.004   0.381   0.606
 7998SOL    HW124893   2.978   0.360   0.700
 7998SOL    HW224894   2.950   0.324   0.543
 7999SOL     OW24895   0.689   0.882   5.919
 7999SOL    HW124896   0.759   0.941   5.878
 7999SOL    HW224897   0.637   0.935   5.986
 8000SOL     OW24898   5.099   0.052   6.651
 8000SOL    HW124899   5.028   0.040   6.719
 8000SOL    HW224900   5.189   0.034   6.692
 8001SOL     OW24901   4.384   6.115   1.740
 8001SOL    HW124902   4.369   6.153   1.649
 8001SOL    HW224903   4.382   6.188   1.808
 8002SOL     OW24904   1.741   0.674   6.546
 8002SOL    HW124905   1.642   0.663   6.559
 8002SOL    HW224906   1.769   0.763   6.583
 8003SOL     OW24907   2.712   5.539   1.671
 8003SOL    HW124908   2.703   5.455   1.617
 8003SOL    HW224909   2.634   5.598   1.654
 8004SOL     OW24910   2.172   3.043   2.993
 8004SOL    HW124911   2.196   2.971   2.929
 8004SOL    HW224912   2.180   3.008   3.087
 8005SOL     OW24913   2.836   0.668   3.372
 8005SOL    HW124914   2.857   0.674   3.470
 8005SOL    HW224915   2.907   0.616   3.325
 8006SOL     OW24916   2.371   5.953   5.366
 8006SOL    HW124917   2.376   6.050   5.342
 8006SOL    HW224918   2.288   5.936   5.420
 8007SOL     OW24919   5.978   1.314   5.979
 8007SOL    HW124920   5.973   1.413   5.994
 8007SOL    HW224921   6.050   1.276   6.037
 8008SOL     OW24922   3.865   6.508   6.553
 8008SOL    HW124923   3.871   6.582   6.621
 8008SOL    HW224924   3.773   6.506   6.514
 8009SOL     OW24925   5.779   0.657   1.233
 8009SOL    HW124926   5.763   0.723   1.306
 8009SOL    HW224927   5.693   0.634   1.188
 8010SOL     OW24928   2.086   1.690   5.458
 8010SOL    HW124929   2.026   1.638   5.519
 8010SOL    HW224930   2.181   1.661   5.472
 8011SOL     OW24931   3.069   2.121   1.190
 8011SOL    HW124932   3.079   2.160   1.098
 8011SOL    HW224933   3.158   2.121   1.235
 8012SOL     OW24934   2.610   3.312   0.273
 8012SOL    HW124935   2.686   3.377   0.275
 8012SOL    HW224936   2.645   3.219   0.287
 8013SOL     OW24937   1.552   5.558   3.062
 8013SOL    HW124938   1.513   5.559   3.154
 8013SOL    HW224939   1.631   5.497   3.060
 8014SOL     OW24940   1.028   6.625   4.723
 8014SOL    HW124941   1.071   6.555   4.666
 8014SOL    HW224942   0.962   6.677   4.669
 8015SOL     OW24943   2.720   0.789   6.445
 8015SOL    HW124944   2.719   0.743   6.535
 8015SOL    HW224945   2.627   0.797   6.411
 8016SOL     OW24946   3.890   0.590   5.826
 8016SOL    HW124947   3.792   0.587   5.843
 8016SOL    HW224948   3.909   0.659   5.756
 8017SOL     OW24949   5.717   0.167   0.439
 8017SOL    HW124950   5.620   0.191   0.437
 8017SOL    HW224951   5.729   0.080   0.487
 8018SOL     OW24952   3.173   2.061   0.222
 8018SOL    HW124953   3.267   2.031   0.234
 8018SOL    HW224954   3.171   2.135   0.155
 8019SOL     OW24955   2.770   4.805   0.955
 8019SOL    HW124956   2.855   4.849   0.983
 8019SOL    HW224957   2.784   4.758   0.867
 8020SOL     OW24958   6.155   0.245   6.573
 8020SOL    HW124959   6.067   0.246   6.620
 8020SOL    HW224960   6.207   0.327   6.598
 8021SOL     OW24961   1.014   2.871   0.731
 8021SOL    HW124962   1.008   2.967   0.703
 8021SOL    HW224963   1.103   2.834   0.705
 8022SOL     OW24964   6.135   0.728   2.242
 8022SOL    HW124965   6.194   0.657   2.283
 8022SOL    HW224966   6.079   0.769   2.314
 8023SOL     OW24967   6.308   4.678   2.675
 8023SOL    HW124968   6.229   4.622   2.653
 8023SOL    HW224969   6.278   4.771   2.697
 8024SOL     OW24970   1.163   5.229   5.894
 8024SOL    HW124971   1.115   5.192   5.814
 8024SOL    HW224972   1.259   5.203   5.889
 8025SOL     OW24973   2.328   5.827   0.846
 8025SOL    HW124974   2.287   5.808   0.756
 8025SOL    HW224975   2.255   5.835   0.914
 8026SOL     OW24976   6.868   4.040   0.882
 8026SOL    HW124977   6.773   4.059   0.861
 8026SOL    HW224978   6.893   3.950   0.845
 8027SOL     OW24979   3.887   0.174   5.389
 8027SOL    HW124980   3.830   0.124   5.454
 8027SOL    HW224981   3.929   0.108   5.326
 8028SOL     OW24982   4.082   5.759   5.495
 8028SOL    HW124983   4.069   5.850   5.533
 8028SOL    HW224984   4.020   5.695   5.542
 8029SOL     OW24985   5.400   3.097   1.952
 8029SOL    HW124986   5.329   3.029   1.973
 8029SOL    HW224987   5.356   3.179   1.914
 8030SOL     OW24988   5.161   4.929   0.405
 8030SOL    HW124989   5.188   4.991   0.332
 8030SOL    HW224990   5.084   4.873   0.374
 8031SOL     OW24991   6.103   6.754   2.511
 8031SOL    HW124992   6.026   6.699   2.544
 8031SOL    HW224993   6.174   6.758   2.582
 8032SOL     OW24994   6.294   4.484   1.810
 8032SOL    HW124995   6.256   4.418   1.745
 8032SOL    HW224996   6.385   4.512   1.778
 8033SOL     OW24997   4.548   2.208   6.689
 8033SOL    HW124998   4.594   2.235   6.604
 8033SOL    HW224999   4.616   2.191   6.760
 8034SOL     OW25000   4.382   0.754   5.145
 8034SOL    HW125001   4.471   0.716   5.121
 8034SOL    HW225002   4.310   0.688   5.124
 8035SOL     OW25003   5.291   1.434   2.376
 8035SOL    HW125004   5.319   1.446   2.281
 8035SOL    HW225005   5.213   1.493   2.396
 8036SOL     OW25006   6.842   3.939   3.956
 8036SOL    HW125007   6.749   3.916   3.983
 8036SOL    HW225008   6.849   3.942   3.857
 8037SOL     OW25009   2.526   3.284   6.962
 8037SOL    HW125010   2.504   3.372   6.920
 8037SOL    HW225011   2.535   3.296   0.037
 8038SOL     OW25012   4.492   0.385   2.306
 8038SOL    HW125013   4.439   0.451   2.359
 8038SOL    HW225014   4.505   0.420   2.213
 8039SOL     OW25015   0.017   1.600   5.274
 8039SOL    HW125016   0.014   1.660   5.194
 8039SOL    HW225017   6.982   1.520   5.258
 8040SOL     OW25018   1.349   5.599   0.350
 8040SOL    HW125019   1.430   5.543   0.333
 8040SOL    HW225020   1.267   5.546   0.331
 8041SOL     OW25021   3.060   0.703   2.992
 8041SOL    HW125022   3.106   0.782   3.030
 8041SOL    HW225023   3.062   0.628   3.058
 8042SOL     OW25024   3.913   3.008   5.218
 8042SOL    HW125025   3.937   3.080   5.284
 8042SOL    HW225026   3.939   2.919   5.256
 8043SOL     OW25027   3.847   5.962   0.735
 8043SOL    HW125028   3.940   5.999   0.742
 8043SOL    HW225029   3.788   6.028   0.688
 8044SOL     OW25030   5.003   3.168   0.693
 8044SOL    HW125031   4.947   3.246   0.664
 8044SOL    HW225032   5.051   3.192   0.778
 8045SOL     OW25033   6.431   2.307   2.436
 8045SOL    HW125034   6.376   2.327   2.355
 8045SOL    HW225035   6.381   2.333   2.519
 8046SOL     OW25036   0.963   4.554   1.962
 8046SOL    HW125037   0.898   4.521   1.894
 8046SOL    HW225038   0.919   4.557   2.052
 8047SOL     OW25039   3.648   6.028   6.151
 8047SOL    HW125040   3.629   5.982   6.064
 8047SOL    HW225041   3.699   6.112   6.133
 8048SOL     OW25042   4.036   1.458   6.870
 8048SOL    HW125043   4.009   1.438   6.965
 8048SOL    HW225044   4.108   1.527   6.870
 8049SOL     OW25045   0.954   0.016   6.813
 8049SOL    HW125046   1.044   0.028   6.855
 8049SOL    HW225047   0.963   6.984   6.730
 8050SOL     OW25048   2.079   3.464   3.675
 8050SOL    HW125049   1.985   3.464   3.708
 8050SOL    HW225050   2.093   3.543   3.615
 8051SOL     OW25051   4.539   6.371   4.280
 8051SOL    HW125052   4.598   6.312   4.335
 8051SOL    HW225053   4.595   6.429   4.221
 8052SOL     OW25054   3.106   1.721   1.033
 8052SOL    HW125055   3.066   1.644   0.983
 8052SOL    HW225056   3.037   1.760   1.094
 8053SOL     OW25057   3.775   2.912   4.751
 8053SOL    HW125058   3.818   2.966   4.678
 8053SOL    HW225059   3.811   2.819   4.748
 8054SOL     OW25060   6.758   4.290   4.761
 8054SOL    HW125061   6.832   4.340   4.716
 8054SOL    HW225062   6.732   4.337   4.845
 8055SOL     OW25063   6.913   0.643   5.677
 8055SOL    HW125064   6.840   0.653   5.609
 8055SOL    HW225065   6.994   0.692   5.645
 8056SOL     OW25066   3.149   0.907   4.877
 8056SOL    HW125067   3.112   0.825   4.921
 8056SOL    HW225068   3.155   0.893   4.778
 8057SOL     OW25069   2.939   2.236   3.007
 8057SOL    HW125070   2.900   2.151   2.970
 8057SOL    HW225071   3.023   2.215   3.058
 8058SOL     OW25072   3.178   0.165   3.181
 8058SOL    HW125073   3.236   0.220   3.241
 8058SOL    HW225074   3.186   0.069   3.206
 8059SOL     OW25075   2.700   1.525   4.488
 8059SOL    HW125076   2.727   1.477   4.405
 8059SOL    HW225077   2.672   1.618   4.467
 8060SOL     OW25078   6.751   2.331   6.366
 8060SOL    HW125079   6.789   2.420   6.341
 8060SOL    HW225080   6.722   2.333   6.462
 8061SOL     OW25081   0.199   0.524   2.970
 8061SOL    HW125082   0.297   0.522   2.951
 8061SOL    HW225083   0.150   0.558   2.889
 8062SOL     OW25084   4.019   4.785   3.794
 8062SOL    HW125085   4.076   4.799   3.713
 8062SOL    HW225086   3.929   4.824   3.778
 8063SOL     OW25087   2.351   2.030   2.705
 8063SOL    HW125088   2.394   1.974   2.776
 8063SOL    HW225089   2.349   2.125   2.734
 8064SOL     OW25090   6.530   2.462   1.114
 8064SOL    HW125091   6.452   2.496   1.062
 8064SOL    HW225092   6.538   2.363   1.101
 8065SOL     OW25093   2.500   5.378   3.881
 8065SOL    HW125094   2.433   5.404   3.812
 8065SOL    HW225095   2.534   5.460   3.927
 8066SOL     OW25096   0.303   0.959   5.611
 8066SOL    HW125097   0.398   0.929   5.621
 8066SOL    HW225098   0.287   1.038   5.671
 8067SOL     OW25099   5.360   2.548   2.909
 8067SOL    HW125100   5.396   2.638   2.884
 8067SOL    HW225101   5.424   2.503   2.972
 8068SOL     OW25102   0.157   4.347   1.269
 8068SOL    HW125103   0.148   4.337   1.170
 8068SOL    HW225104   0.141   4.442   1.294
 8069SOL     OW25105   2.054   5.215   0.939
 8069SOL    HW125106   2.102   5.138   0.980
 8069SOL    HW225107   1.961   5.187   0.916
 8070SOL     OW25108   4.633   3.338   0.612
 8070SOL    HW125109   4.630   3.242   0.587
 8070SOL    HW225110   4.570   3.355   0.687
 8071SOL     OW25111   3.644   6.450   5.242
 8071SOL    HW125112   3.694   6.392   5.178
 8071SOL    HW225113   3.548   6.422   5.244
 8072SOL     OW25114   3.522   1.354   0.850
 8072SOL    HW125115   3.500   1.300   0.769
 8072SOL    HW225116   3.508   1.451   0.830
 8073SOL     OW25117   3.450   5.694   5.382
 8073SOL    HW125118   3.460   5.685   5.481
 8073SOL    HW225119   3.384   5.766   5.362
 8074SOL     OW25120   3.384   3.058   1.079
 8074SOL    HW125121   3.295   3.101   1.093
 8074SOL    HW225122   3.372   2.962   1.055
 8075SOL     OW25123   6.498   0.031   0.721
 8075SOL    HW125124   6.533   0.067   0.808
 8075SOL    HW225125   6.419   0.086   0.692
 8076SOL     OW25126   5.871   0.746   5.490
 8076SOL    HW125127   5.774   0.763   5.472
 8076SOL    HW225128   5.893   0.770   5.584
 8077SOL     OW25129   3.531   6.547   2.481
 8077SOL    HW125130   3.546   6.535   2.383
 8077SOL    HW225131   3.616   6.578   2.524
 8078SOL     OW25132   0.164   2.182   0.525
 8078SOL    HW125133   0.219   2.173   0.608
 8078SOL    HW225134   0.094   2.252   0.538
 8079SOL     OW25135   6.447   1.262   3.781
 8079SOL    HW125136   6.396   1.348   3.781
 8079SOL    HW225137   6.398   1.195   3.838
 8080SOL     OW25138   0.730   2.876   2.523
 8080SOL    HW125139   0.818   2.889   2.479
 8080SOL    HW225140   0.679   2.804   2.475
 8081SOL     OW25141   5.946   5.873   6.112
 8081SOL    HW125142   5.859   5.861   6.159
 8081SOL    HW225143   6.020   5.875   6.180
 8082SOL     OW25144   4.034   0.880   1.990
 8082SOL    HW125145   4.119   0.932   1.984
 8082SOL    HW225146   4.032   0.812   1.917
 8083SOL     OW25147   4.914   2.966   3.463
 8083SOL    HW125148   4.877   3.039   3.405
 8083SOL    HW225149   4.895   2.986   3.559
 8084SOL     OW25150   3.939   6.698   6.748
 8084SOL    HW125151   4.007   6.713   6.677
 8084SOL    HW225152   3.926   6.782   6.801
 8085SOL     OW25153   5.700   6.412   2.253
 8085SOL    HW125154   5.787   6.460   2.239
 8085SOL    HW225155   5.694   6.380   2.347
 8086SOL     OW25156   6.530   0.511   2.619
 8086SOL    HW125157   6.502   0.419   2.648
 8086SOL    HW225158   6.572   0.506   2.529
 8087SOL     OW25159   2.033   0.100   6.923
 8087SOL    HW125160   2.096   0.176   6.908
 8087SOL    HW225161   2.082   0.025   6.967
 8088SOL     OW25162   6.142   1.248   1.503
 8088SOL    HW125163   6.054   1.203   1.487
 8088SOL    HW225164   6.212   1.206   1.445
 8089SOL     OW25165   5.816   2.761   0.710
 8089SOL    HW125166   5.717   2.777   0.712
 8089SOL    HW225167   5.844   2.744   0.616
 8090SOL     OW25168   3.608   1.381   6.620
 8090SOL    HW125169   3.613   1.294   6.669
 8090SOL    HW225170   3.694   1.432   6.634
 8091SOL     OW25171   1.957   3.804   4.642
 8091SOL    HW125172   1.990   3.811   4.737
 8091SOL    HW225173   1.915   3.891   4.616
 8092SOL     OW25174   5.706   2.153   5.596
 8092SOL    HW125175   5.656   2.197   5.671
 8092SOL    HW225176   5.783   2.212   5.569
 8093SOL     OW25177   3.023   5.047   3.332
 8093SOL    HW125178   2.960   4.972   3.348
 8093SOL    HW225179   3.085   5.056   3.410
 8094SOL     OW25180   0.407   3.517   4.478
 8094SOL    HW125181   0.486   3.456   4.483
 8094SOL    HW225182   0.428   3.602   4.527
 8095SOL     OW25183   0.559   4.411   4.501
 8095SOL    HW125184   0.597   4.487   4.553
 8095SOL    HW225185   0.633   4.353   4.467
 8096SOL     OW25186   2.118   6.944   2.663
 8096SOL    HW125187   2.099   6.927   2.760
 8096SOL    HW225188   2.102   6.860   2.611
 8097SOL     OW25189   4.281   6.812   4.517
 8097SOL    HW125190   4.297   6.869   4.437
 8097SOL    HW225191   4.293   6.716   4.492
 8098SOL     OW25192   1.992   6.445   3.398
 8098SOL    HW125193   2.050   6.519   3.431
 8098SOL    HW225194   1.897   6.476   3.394
 8099SOL     OW25195   4.154   5.824   4.793
 8099SOL    HW125196   4.192   5.869   4.712
 8099SOL    HW225197   4.116   5.893   4.854
 8100SOL     OW25198   0.312   0.372   6.592
 8100SOL    HW125199   0.270   0.348   6.680
 8100SOL    HW225200   0.331   0.288   6.541
 8101SOL     OW25201   1.284   6.032   1.648
 8101SOL    HW125202   1.276   6.126   1.614
 8101SOL    HW225203   1.351   6.030   1.723
 8102SOL     OW25204   0.322   4.049   3.306
 8102SOL    HW125205   0.404   4.092   3.343
 8102SOL    HW225206   0.286   3.983   3.371
 8103SOL     OW25207   2.721   6.766   1.528
 8103SOL    HW125208   2.799   6.744   1.588
 8103SOL    HW225209   2.709   6.692   1.461
 8104SOL     OW25210   2.170   0.435   6.080
 8104SOL    HW125211   2.212   0.492   6.009
 8104SOL    HW225212   2.241   0.400   6.141
 8105SOL     OW25213   0.236   3.017   3.159
 8105SOL    HW125214   0.150   2.971   3.182
 8105SOL    HW225215   0.217   3.108   3.123
 8106SOL     OW25216   3.228   6.099   3.230
 8106SOL    HW125217   3.311   6.100   3.174
 8106SOL    HW225218   3.172   6.019   3.205
 8107SOL     OW25219   0.810   5.038   4.153
 8107SOL    HW125220   0.721   4.993   4.160
 8107SOL    HW225221   0.856   5.033   4.242
 8108SOL     OW25222   6.422   2.719   6.045
 8108SOL    HW125223   6.494   2.679   6.102
 8108SOL    HW225224   6.464   2.771   5.970
 8109SOL     OW25225   6.847   3.859   5.654
 8109SOL    HW125226   6.782   3.935   5.661
 8109SOL    HW225227   6.819   3.798   5.579
 8110SOL     OW25228   4.134   6.007   2.548
 8110SOL    HW125229   4.086   5.962   2.472
 8110SOL    HW225230   4.193   6.079   2.512
 8111SOL     OW25231   5.141   0.999   4.384
 8111SOL    HW125232   5.230   0.986   4.342
 8111SOL    HW225233   5.102   1.086   4.353
 8112SOL     OW25234   2.483   2.245   4.535
 8112SOL    HW125235   2.456   2.176   4.467
 8112SOL    HW225236   2.415   2.247   4.608
 8113SOL     OW25237   1.673   3.395   0.028
 8113SOL    HW125238   1.705   3.478   7.007
 8113SOL    HW225239   1.590   3.415   0.080
 8114SOL     OW25240   1.347   4.073   3.019
 8114SOL    HW125241   1.395   4.094   2.934
 8114SOL    HW225242   1.248   4.068   3.001
 8115SOL     OW25243   3.823   0.773   6.790
 8115SOL    HW125244   3.726   0.756   6.769
 8115SOL    HW225245   3.840   0.872   6.788
 8116SOL     OW25246   4.280   4.527   0.101
 8116SOL    HW125247   4.350   4.585   0.143
 8116SOL    HW225248   4.301   4.431   0.119
 8117SOL     OW25249   1.958   6.957   3.670
 8117SOL    HW125250   1.972   6.862   3.641
 8117SOL    HW225251   1.868   6.988   3.641
 8118SOL     OW25252   4.845   4.431   6.789
 8118SOL    HW125253   4.896   4.505   6.746
 8118SOL    HW225254   4.902   4.348   6.791
 8119SOL     OW25255   4.904   5.441   6.662
 8119SOL    HW125256   4.908   5.513   6.593
 8119SOL    HW225257   4.906   5.352   6.616
 8120SOL     OW25258   3.038   4.833   1.008
 8120SOL    HW125259   3.049   4.776   1.090
 8120SOL    HW225260   3.047   4.930   1.034
 8121SOL     OW25261   6.687   4.796   2.065
 8121SOL    HW125262   6.620   4.755   2.127
 8121SOL    HW225263   6.662   4.775   1.971
 8122SOL     OW25264   0.436   4.961   3.559
 8122SOL    HW125265   0.516   4.991   3.611
 8122SOL    HW225266   0.465   4.899   3.486
 8123SOL     OW25267   6.688   1.964   6.646
 8123SOL    HW125268   6.678   1.866   6.660
 8123SOL    HW225269   6.610   2.012   6.687
 8124SOL     OW25270   5.401   6.148   1.858
 8124SOL    HW125271   5.407   6.246   1.877
 8124SOL    HW225272   5.388   6.098   1.943
 8125SOL     OW25273   1.373   1.884   3.027
 8125SOL    HW125274   1.318   1.822   3.083
 8125SOL    HW225275   1.470   1.863   3.040
 8126SOL     OW25276   4.820   4.110   2.641
 8126SOL    HW125277   4.750   4.166   2.597
 8126SOL    HW225278   4.814   4.016   2.606
 8127SOL     OW25279   2.412   4.372   6.631
 8127SOL    HW125280   2.430   4.348   6.536
 8127SOL    HW225281   2.331   4.322   6.663
 8128SOL     OW25282   2.770   2.281   2.357
 8128SOL    HW125283   2.751   2.356   2.295
 8128SOL    HW225284   2.812   2.206   2.306
 8129SOL     OW25285   4.050   1.434   6.159
 8129SOL    HW125286   4.108   1.482   6.093
 8129SOL    HW225287   3.983   1.498   6.197
 8130SOL     OW25288   0.348   3.872   0.048
 8130SOL    HW125289   0.356   3.878   6.972
 8130SOL    HW225290   0.255   3.843   0.072
 8131SOL     OW25291   2.388   2.138   1.189
 8131SOL    HW125292   2.357   2.222   1.232
 8131SOL    HW225293   2.309   2.090   1.149
 8132SOL     OW25294   5.984   0.045   5.938
 8132SOL    HW125295   6.081   0.065   5.928
 8132SOL    HW225296   5.961   6.987   5.885
 8133SOL     OW25297   3.476   5.698   1.762
 8133SOL    HW125298   3.392   5.653   1.796
 8133SOL    HW225299   3.459   5.736   1.671
 8134SOL     OW25300   6.753   2.820   5.461
 8134SOL    HW125301   6.705   2.850   5.543
 8134SOL    HW225302   6.841   2.781   5.486
 8135SOL     OW25303   3.137   6.740   1.425
 8135SOL    HW125304   3.165   6.822   1.475
 8135SOL    HW225305   3.214   6.706   1.371
 8136SOL     OW25306   4.557   6.204   3.022
 8136SOL    HW125307   4.494   6.153   2.963
 8136SOL    HW225308   4.517   6.211   3.114
 8137SOL     OW25309   3.730   1.577   5.074
 8137SOL    HW125310   3.652   1.539   5.125
 8137SOL    HW225311   3.795   1.618   5.138
 8138SOL     OW25312   4.954   0.869   0.681
 8138SOL    HW125313   5.050   0.867   0.656
 8138SOL    HW225314   4.938   0.939   0.750
 8139SOL     OW25315   0.408   0.914   2.321
 8139SOL    HW125316   0.410   0.927   2.420
 8139SOL    HW225317   0.354   0.833   2.298
 8140SOL     OW25318   5.600   0.548   6.697
 8140SOL    HW125319   5.584   0.508   6.787
 8140SOL    HW225320   5.520   0.600   6.669
 8141SOL     OW25321   4.671   5.805   4.636
 8141SOL    HW125322   4.643   5.753   4.716
 8141SOL    HW225323   4.746   5.866   4.661
 8142SOL     OW25324   0.085   5.523   0.017
 8142SOL    HW125325   0.014   5.592   0.023
 8142SOL    HW225326   0.099   5.481   0.106
 8143SOL     OW25327   5.777   4.153   1.040
 8143SOL    HW125328   5.804   4.246   1.014
 8143SOL    HW225329   5.818   4.130   1.128
 8144SOL     OW25330   6.132   5.953   6.779
 8144SOL    HW125331   6.130   6.052   6.795
 8144SOL    HW225332   6.081   5.907   6.852
 8145SOL     OW25333   5.856   6.018   1.929
 8145SOL    HW125334   5.795   5.943   1.905
 8145SOL    HW225335   5.828   6.057   2.017
 8146SOL     OW25336   3.877   1.170   4.433
 8146SOL    HW125337   3.969   1.207   4.447
 8146SOL    HW225338   3.824   1.179   4.517
 8147SOL     OW25339   6.212   2.016   1.801
 8147SOL    HW125340   6.265   2.050   1.723
 8147SOL    HW225341   6.266   2.026   1.885
 8148SOL     OW25342   4.730   4.268   1.022
 8148SOL    HW125343   4.790   4.194   1.055
 8148SOL    HW225344   4.662   4.290   1.092
 8149SOL     OW25345   2.713   6.213   1.964
 8149SOL    HW125346   2.667   6.300   1.982
 8149SOL    HW225347   2.802   6.212   2.009
 8150SOL     OW25348   1.881   4.284   0.533
 8150SOL    HW125349   1.962   4.235   0.566
 8150SOL    HW225350   1.905   4.338   0.453
 8151SOL     OW25351   6.354   2.339   1.445
 8151SOL    HW125352   6.324   2.430   1.475
 8151SOL    HW225353   6.323   2.323   1.352
 8152SOL     OW25354   0.139   1.414   2.722
 8152SOL    HW125355   0.133   1.506   2.684
 8152SOL    HW225356   0.048   1.376   2.734
 8153SOL     OW25357   2.507   0.260   3.790
 8153SOL    HW125358   2.486   0.177   3.842
 8153SOL    HW225359   2.437   0.273   3.720
 8154SOL     OW25360   2.649   5.457   2.633
 8154SOL    HW125361   2.613   5.536   2.584
 8154SOL    HW225362   2.574   5.404   2.672
 8155SOL     OW25363   1.868   3.843   2.087
 8155SOL    HW125364   1.815   3.770   2.131
 8155SOL    HW225365   1.965   3.832   2.108
 8156SOL     OW25366   5.243   6.814   0.521
 8156SOL    HW125367   5.274   6.907   0.504
 8156SOL    HW225368   5.219   6.804   0.617
 8157SOL     OW25369   0.043   4.934   6.639
 8157SOL    HW125370   0.098   4.851   6.649
 8157SOL    HW225371   0.018   4.968   6.730
 8158SOL     OW25372   5.421   5.164   1.069
 8158SOL    HW125373   5.333   5.136   1.030
 8158SOL    HW225374   5.485   5.088   1.064
 8159SOL     OW25375   3.065   6.627   2.696
 8159SOL    HW125376   3.025   6.538   2.678
 8159SOL    HW225377   3.142   6.617   2.760
 8160SOL     OW25378   4.718   1.189   2.764
 8160SOL    HW125379   4.744   1.097   2.793
 8160SOL    HW225380   4.727   1.252   2.841
 8161SOL     OW25381   5.219   1.445   6.755
 8161SOL    HW125382   5.153   1.389   6.705
 8161SOL    HW225383   5.310   1.403   6.749
 8162SOL     OW25384   5.995   6.682   5.903
 8162SOL    HW125385   5.988   6.584   5.920
 8162SOL    HW225386   6.020   6.729   5.988
 8163SOL     OW25387   2.666   4.128   5.293
 8163SOL    HW125388   2.599   4.072   5.244
 8163SOL    HW225389   2.646   4.224   5.278
 8164SOL     OW25390   5.801   3.596   0.837
 8164SOL    HW125391   5.798   3.692   0.812
 8164SOL    HW225392   5.742   3.543   0.776
 8165SOL     OW25393   0.947   4.764   0.022
 8165SOL    HW125394   0.867   4.802   0.069
 8165SOL    HW225395   1.029   4.812   0.052
 8166SOL     OW25396   1.755   0.617   2.235
 8166SOL    HW125397   1.835   0.614   2.174
 8166SOL    HW225398   1.769   0.554   2.311
 8167SOL     OW25399   6.644   7.016   4.861
 8167SOL    HW125400   6.572   0.055   4.892
 8167SOL    HW225401   6.606   6.924   4.852
 8168SOL     OW25402   2.808   1.570   3.623
 8168SOL    HW125403   2.828   1.658   3.667
 8168SOL    HW225404   2.881   1.547   3.559
 8169SOL     OW25405   4.989   2.818   1.306
 8169SOL    HW125406   4.890   2.808   1.319
 8169SOL    HW225407   5.006   2.888   1.236
 8170SOL     OW25408   1.514   5.363   2.379
 8170SOL    HW125409   1.454   5.285   2.360
 8170SOL    HW225410   1.460   5.436   2.421
 8171SOL     OW25411   1.533   1.450   0.530
 8171SOL    HW125412   1.490   1.390   0.598
 8171SOL    HW225413   1.604   1.399   0.481
 8172SOL     OW25414   0.721   1.341   1.965
 8172SOL    HW125415   0.815   1.355   1.936
 8172SOL    HW225416   0.667   1.422   1.943
 8173SOL     OW25417   3.957   1.101   1.102
 8173SOL    HW125418   3.899   1.172   1.062
 8173SOL    HW225419   3.950   1.104   1.202
 8174SOL     OW25420   6.066   2.417   0.671
 8174SOL    HW125421   6.041   2.343   0.734
 8174SOL    HW225422   6.143   2.388   0.615
 8175SOL     OW25423   0.273   3.270   6.503
 8175SOL    HW125424   0.352   3.227   6.546
 8175SOL    HW225425   0.206   3.295   6.573
 8176SOL     OW25426   2.745   5.726   2.282
 8176SOL    HW125427   2.756   5.825   2.288
 8176SOL    HW225428   2.800   5.681   2.353
 8177SOL     OW25429   2.547   5.889   3.938
 8177SOL    HW125430   2.616   5.850   3.999
 8177SOL    HW225431   2.520   5.979   3.972
 8178SOL     OW25432   2.655   5.845   6.505
 8178SOL    HW125433   2.640   5.803   6.415
 8178SOL    HW225434   2.576   5.825   6.564
 8179SOL     OW25435   4.265   2.376   5.961
 8179SOL    HW125436   4.242   2.473   5.950
 8179SOL    HW225437   4.324   2.364   6.041
 8180SOL     OW25438   6.895   0.251   4.892
 8180SOL    HW125439   6.984   0.207   4.897
 8180SOL    HW225440   6.884   0.296   4.803
 8181SOL     OW25441   1.866   1.765   1.686
 8181SOL    HW125442   1.825   1.759   1.778
 8181SOL    HW225443   1.945   1.825   1.689
 8182SOL     OW25444   3.551   2.036   6.870
 8182SOL    HW125445   3.453   2.048   6.887
 8182SOL    HW225446   3.566   2.027   6.772
 8183SOL     OW25447   0.694   2.358   4.639
 8183SOL    HW125448   0.670   2.313   4.553
 8183SOL    HW225449   0.784   2.328   4.669
 8184SOL     OW25450   5.093   2.065   5.782
 8184SOL    HW125451   5.154   2.131   5.738
 8184SOL    HW225452   5.132   2.039   5.871
 8185SOL     OW25453   2.543   6.406   0.468
 8185SOL    HW125454   2.558   6.384   0.372
 8185SOL    HW225455   2.445   6.421   0.484
 8186SOL     OW25456   3.629   5.593   6.545
 8186SOL    HW125457   3.726   5.597   6.570
 8186SOL    HW225458   3.621   5.576   6.447
 8187SOL     OW25459   2.161   2.069   5.690
 8187SOL    HW125460   2.104   2.088   5.770
 8187SOL    HW225461   2.115   2.003   5.631
 8188SOL     OW25462   5.327   2.273   2.101
 8188SOL    HW125463   5.250   2.337   2.110
 8188SOL    HW225464   5.405   2.320   2.061
 8189SOL     OW25465   4.909   4.734   2.284
 8189SOL    HW125466   4.810   4.746   2.282
 8189SOL    HW225467   4.954   4.821   2.264
 8190SOL     OW25468   4.722   5.273   4.365
 8190SOL    HW125469   4.739   5.296   4.461
 8190SOL    HW225470   4.624   5.278   4.347
 8191SOL     OW25471   3.112   5.637   3.411
 8191SOL    HW125472   3.115   5.729   3.371
 8191SOL    HW225473   3.154   5.572   3.348
 8192SOL     OW25474   3.681   5.049   0.174
 8192SOL    HW125475   3.589   5.080   0.197
 8192SOL    HW225476   3.713   5.097   0.092
 8193SOL     OW25477   6.631   0.276   3.832
 8193SOL    HW125478   6.603   0.184   3.860
 8193SOL    HW225479   6.695   0.269   3.755
 8194SOL     OW25480   6.286   2.569   0.368
 8194SOL    HW125481   6.228   2.601   0.293
 8194SOL    HW225482   6.318   2.648   0.421
 8195SOL     OW25483   0.564   0.127   0.646
 8195SOL    HW125484   0.559   0.201   0.712
 8195SOL    HW225485   0.546   0.162   0.554
 8196SOL     OW25486   3.298   0.311   5.573
 8196SOL    HW125487   3.388   0.269   5.565
 8196SOL    HW225488   3.302   0.405   5.538
 8197SOL     OW25489   4.461   1.128   5.914
 8197SOL    HW125490   4.374   1.174   5.935
 8197SOL    HW225491   4.533   1.197   5.901
 8198SOL     OW25492   2.721   6.269   3.259
 8198SOL    HW125493   2.674   6.257   3.172
 8198SOL    HW225494   2.791   6.340   3.250
 8199SOL     OW25495   0.252   2.838   6.648
 8199SOL    HW125496   0.293   2.786   6.573
 8199SOL    HW225497   0.245   2.934   6.622
 8200SOL     OW25498   4.709   3.651   1.120
 8200SOL    HW125499   4.751   3.589   1.186
 8200SOL    HW225500   4.779   3.690   1.061
 8201SOL     OW25501   4.874   0.650   4.772
 8201SOL    HW125502   4.925   0.609   4.847
 8201SOL    HW225503   4.938   0.691   4.706
 8202SOL     OW25504   0.491   5.593   4.192
 8202SOL    HW125505   0.479   5.685   4.155
 8202SOL    HW225506   0.411   5.537   4.170
 8203SOL     OW25507   4.997   2.784   0.080
 8203SOL    HW125508   5.067   2.747   0.140
 8203SOL    HW225509   4.913   2.730   0.090
 8204SOL     OW25510   3.144   5.458   0.727
 8204SOL    HW125511   3.186   5.522   0.662
 8204SOL    HW225512   3.077   5.402   0.679
 8205SOL     OW25513   6.735   4.627   1.492
 8205SOL    HW125514   6.805   4.558   1.508
 8205SOL    HW225515   6.725   4.643   1.393
 8206SOL     OW25516   3.428   3.035   5.831
 8206SOL    HW125517   3.371   3.081   5.763
 8206SOL    HW225518   3.439   2.939   5.806
 8207SOL     OW25519   3.875   4.627   5.340
 8207SOL    HW125520   3.827   4.543   5.317
 8207SOL    HW225521   3.891   4.631   5.439
 8208SOL     OW25522   2.421   6.254   1.443
 8208SOL    HW125523   2.336   6.293   1.407
 8208SOL    HW225524   2.469   6.207   1.370
 8209SOL     OW25525   0.754   2.121   5.354
 8209SOL    HW125526   0.814   2.187   5.400
 8209SOL    HW225527   0.765   2.031   5.398
 8210SOL     OW25528   3.059   0.996   1.582
 8210SOL    HW125529   3.018   1.087   1.582
 8210SOL    HW225530   2.994   0.930   1.543
 8211SOL     OW25531   3.592   3.867   3.748
 8211SOL    HW125532   3.537   3.950   3.734
 8211SOL    HW225533   3.608   3.854   3.846
 8212SOL     OW25534   3.424   1.076   1.515
 8212SOL    HW125535   3.357   1.002   1.515
 8212SOL    HW225536   3.446   1.101   1.610
 8213SOL     OW25537   5.348   4.578   2.525
 8213SOL    HW125538   5.260   4.585   2.478
 8213SOL    HW225539   5.353   4.491   2.573
 8214SOL     OW25540   1.678   5.879   3.867
 8214SOL    HW125541   1.756   5.931   3.901
 8214SOL    HW225542   1.688   5.783   3.893
 8215SOL     OW25543   4.359   5.422   6.995
 8215SOL    HW125544   4.328   5.418   0.066
 8215SOL    HW225545   4.333   5.510   6.955
 8216SOL     OW25546   4.945   6.980   3.137
 8216SOL    HW125547   4.918   6.911   3.204
 8216SOL    HW225548   5.020   6.944   3.081
 8217SOL     OW25549   2.211   3.876   2.372
 8217SOL    HW125550   2.157   3.835   2.298
 8217SOL    HW225551   2.308   3.873   2.347
 8218SOL     OW25552   1.626   7.018   4.196
 8218SOL    HW125553   1.715   0.013   4.239
 8218SOL    HW225554   1.639   6.997   4.099
 8219SOL     OW25555   3.867   4.061   1.385
 8219SOL    HW125556   3.887   3.992   1.316
 8219SOL    HW225557   3.790   4.117   1.356
 8220SOL     OW25558   3.338   4.471   5.348
 8220SOL    HW125559   3.337   4.571   5.340
 8220SOL    HW225560   3.245   4.436   5.335
 8221SOL     OW25561   6.285   4.058   3.058
 8221SOL    HW125562   6.353   4.061   3.131
 8221SOL    HW225563   6.316   3.997   2.985
 8222SOL     OW25564   5.377   2.140   0.956
 8222SOL    HW125565   5.318   2.126   0.876
 8222SOL    HW225566   5.443   2.212   0.936
 8223SOL     OW25567   0.255   4.801   6.093
 8223SOL    HW125568   0.240   4.891   6.053
 8223SOL    HW225569   0.228   4.730   6.028
 8224SOL     OW25570   4.948   1.766   1.798
 8224SOL    HW125571   5.046   1.783   1.807
 8224SOL    HW225572   4.898   1.825   1.861
 8225SOL     OW25573   3.574   0.993   1.022
 8225SOL    HW125574   3.503   0.961   0.960
 8225SOL    HW225575   3.571   1.093   1.026
 8226SOL     OW25576   2.827   0.385   1.038
 8226SOL    HW125577   2.835   0.299   0.988
 8226SOL    HW225578   2.766   0.447   0.989
 8227SOL     OW25579   0.167   1.290   2.302
 8227SOL    HW125580   0.229   1.257   2.373
 8227SOL    HW225581   0.211   1.366   2.253
 8228SOL     OW25582   0.516   1.619   5.914
 8228SOL    HW125583   0.432   1.673   5.915
 8228SOL    HW225584   0.569   1.641   5.833
 8229SOL     OW25585   4.543   4.006   0.807
 8229SOL    HW125586   4.545   3.909   0.832
 8229SOL    HW225587   4.632   4.033   0.769
 8230SOL     OW25588   3.827   6.840   5.864
 8230SOL    HW125589   3.750   6.883   5.912
 8230SOL    HW225590   3.910   6.850   5.920
 8231SOL     OW25591   3.286   2.045   2.150
 8231SOL    HW125592   3.201   2.012   2.109
 8231SOL    HW225593   3.364   2.010   2.097
 8232SOL     OW25594   5.159   1.829   2.618
 8232SOL    HW125595   5.190   1.775   2.697
 8232SOL    HW225596   5.061   1.847   2.627
 8233SOL     OW25597   1.055   0.092   5.923
 8233SOL    HW125598   0.990   0.065   5.852
 8233SOL    HW225599   1.106   0.172   5.892
 8234SOL     OW25600   3.160   3.292   0.290
 8234SOL    HW125601   3.240   3.314   0.234
 8234SOL    HW225602   3.083   3.270   0.230
 8235SOL     OW25603   0.601   3.969   0.098
 8235SOL    HW125604   0.510   3.930   0.081
 8235SOL    HW225605   0.637   3.932   0.184
 8236SOL     OW25606   0.473   5.269   6.079
 8236SOL    HW125607   0.483   5.302   6.173
 8236SOL    HW225608   0.504   5.340   6.015
 8237SOL     OW25609   4.649   6.051   5.972
 8237SOL    HW125610   4.640   6.089   6.065
 8237SOL    HW225611   4.736   6.003   5.965
 8238SOL     OW25612   0.393   5.942   0.070
 8238SOL    HW125613   0.413   5.936   0.168
 8238SOL    HW225614   0.386   6.038   0.043
 8239SOL     OW25615   0.287   1.234   5.258
 8239SOL    HW125616   0.229   1.257   5.180
 8239SOL    HW225617   0.229   1.204   5.334
 8240SOL     OW25618   2.929   3.609   2.784
 8240SOL    HW125619   2.918   3.695   2.735
 8240SOL    HW225620   2.947   3.628   2.881
 8241SOL     OW25621   2.081   4.647   6.147
 8241SOL    HW125622   2.093   4.746   6.135
 8241SOL    HW225623   2.110   4.601   6.063
 8242SOL     OW25624   0.939   3.602   5.054
 8242SOL    HW125625   0.911   3.696   5.074
 8242SOL    HW225626   0.997   3.600   4.973
 8243SOL     OW25627   0.329   4.495   6.952
 8243SOL    HW125628   0.299   4.586   6.921
 8243SOL    HW225629   0.429   4.491   6.952
 8244SOL     OW25630   0.414   0.189   3.878
 8244SOL    HW125631   0.491   0.214   3.820
 8244SOL    HW225632   0.372   0.272   3.915
 8245SOL     OW25633   3.572   1.697   3.805
 8245SOL    HW125634   3.601   1.793   3.808
 8245SOL    HW225635   3.639   1.643   3.754
 8246SOL     OW25636   0.474   4.506   6.382
 8246SOL    HW125637   0.441   4.554   6.463
 8246SOL    HW225638   0.573   4.513   6.377
 8247SOL     OW25639   2.774   6.044   3.822
 8247SOL    HW125640   2.755   5.950   3.850
 8247SOL    HW225641   2.871   6.054   3.803
 8248SOL     OW25642   0.830   5.640   5.237
 8248SOL    HW125643   0.817   5.596   5.148
 8248SOL    HW225644   0.744   5.679   5.268
 8249SOL     OW25645   2.720   1.372   5.557
 8249SOL    HW125646   2.649   1.307   5.529
 8249SOL    HW225647   2.796   1.322   5.599
 8250SOL     OW25648   3.177   1.911   0.838
 8250SOL    HW125649   3.246   1.980   0.859
 8250SOL    HW225650   3.108   1.950   0.777
 8251SOL     OW25651   5.824   1.281   3.990
 8251SOL    HW125652   5.734   1.318   4.010
 8251SOL    HW225653   5.816   1.186   3.960
 8252SOL     OW25654   3.548   1.788   0.618
 8252SOL    HW125655   3.565   1.818   0.524
 8252SOL    HW225656   3.597   1.847   0.681
 8253SOL     OW25657   3.660   6.151   6.802
 8253SOL    HW125658   3.708   6.064   6.802
 8253SOL    HW225659   3.678   6.199   6.888
 8254SOL     OW25660   5.606   4.451   5.884
 8254SOL    HW125661   5.621   4.392   5.963
 8254SOL    HW225662   5.670   4.426   5.811
 8255SOL     OW25663   1.223   7.017   6.128
 8255SOL    HW125664   1.148   0.016   6.065
 8255SOL    HW225665   1.202   6.933   6.177
 8256SOL     OW25666   6.155   0.294   3.109
 8256SOL    HW125667   6.180   0.356   3.034
 8256SOL    HW225668   6.182   0.201   3.085
 8257SOL     OW25669   5.754   4.718   4.138
 8257SOL    HW125670   5.712   4.735   4.227
 8257SOL    HW225671   5.794   4.804   4.103
 8258SOL     OW25672   5.397   2.645   1.791
 8258SOL    HW125673   5.308   2.676   1.826
 8258SOL    HW225674   5.457   2.624   1.868
 8259SOL     OW25675   4.165   1.774   5.168
 8259SOL    HW125676   4.230   1.770   5.093
 8259SOL    HW225677   4.201   1.833   5.240
 8260SOL     OW25678   2.242   6.026   1.286
 8260SOL    HW125679   2.166   6.069   1.335
 8260SOL    HW225680   2.265   6.080   1.205
 8261SOL     OW25681   5.451   6.485   3.109
 8261SOL    HW125682   5.437   6.402   3.055
 8261SOL    HW225683   5.409   6.474   3.199
 8262SOL     OW25684   0.906   4.680   0.587
 8262SOL    HW125685   0.932   4.685   0.683
 8262SOL    HW225686   0.885   4.586   0.563
 8263SOL     OW25687   6.707   3.156   6.767
 8263SOL    HW125688   6.747   3.202   6.847
 8263SOL    HW225689   6.614   3.188   6.754
 8264SOL     OW25690   1.592   0.059   1.521
 8264SOL    HW125691   1.649   0.074   1.440
 8264SOL    HW225692   1.612   0.129   1.589
 8265SOL     OW25693   4.639   0.233   1.685
 8265SOL    HW125694   4.540   0.247   1.691
 8265SOL    HW225695   4.686   0.310   1.728
 8266SOL     OW25696   3.076   0.391   4.937
 8266SOL    HW125697   3.082   0.336   4.854
 8266SOL    HW225698   3.114   0.340   5.014
 8267SOL     OW25699   1.558   4.774   1.452
 8267SOL    HW125700   1.463   4.747   1.469
 8267SOL    HW225701   1.559   4.853   1.390
 8268SOL     OW25702   2.844   4.647   5.627
 8268SOL    HW125703   2.928   4.667   5.577
 8268SOL    HW225704   2.866   4.625   5.722
 8269SOL     OW25705   4.548   2.557   2.958
 8269SOL    HW125706   4.576   2.649   2.985
 8269SOL    HW225707   4.538   2.554   2.858
 8270SOL     OW25708   2.950   5.702   5.946
 8270SOL    HW125709   3.008   5.678   5.869
 8270SOL    HW225710   2.941   5.623   6.007
 8271SOL     OW25711   6.894   6.628   3.763
 8271SOL    HW125712   6.910   6.620   3.665
 8271SOL    HW225713   6.973   6.672   3.806
 8272SOL     OW25714   0.451   0.644   2.883
 8272SOL    HW125715   0.519   0.577   2.913
 8272SOL    HW225716   0.496   0.731   2.863
 8273SOL     OW25717   2.753   1.146   0.150
 8273SOL    HW125718   2.724   1.098   0.233
 8273SOL    HW225719   2.675   1.193   0.109
 8274SOL     OW25720   4.122   4.341   6.608
 8274SOL    HW125721   4.112   4.415   6.540
 8274SOL    HW225722   4.108   4.253   6.563
 8275SOL     OW25723   5.540   0.292   4.533
 8275SOL    HW125724   5.631   0.312   4.497
 8275SOL    HW225725   5.484   0.250   4.461
 8276SOL     OW25726   6.362   2.096   5.547
 8276SOL    HW125727   6.336   2.002   5.569
 8276SOL    HW225728   6.306   2.159   5.601
 8277SOL     OW25729   2.445   6.099   5.014
 8277SOL    HW125730   2.463   6.180   5.070
 8277SOL    HW225731   2.441   6.018   5.074
 8278SOL     OW25732   2.727   1.447   6.667
 8278SOL    HW125733   2.691   1.505   6.741
 8278SOL    HW225734   2.797   1.498   6.616
 8279SOL     OW25735   5.716   5.499   6.214
 8279SOL    HW125736   5.707   5.571   6.283
 8279SOL    HW225737   5.743   5.539   6.127
 8280SOL     OW25738   4.765   2.491   0.509
 8280SOL    HW125739   4.709   2.434   0.448
 8280SOL    HW225740   4.774   2.447   0.598
 8281SOL     OW25741   2.005   4.787   1.109
 8281SOL    HW125742   1.926   4.727   1.123
 8281SOL    HW225743   2.000   4.863   1.174
 8282SOL     OW25744   3.152   3.130   0.705
 8282SOL    HW125745   3.081   3.197   0.684
 8282SOL    HW225746   3.235   3.177   0.734
 8283SOL     OW25747   0.728   4.798   3.791
 8283SOL    HW125748   0.687   4.778   3.880
 8283SOL    HW225749   0.680   4.875   3.749
 8284SOL     OW25750   1.395   3.421   2.362
 8284SOL    HW125751   1.409   3.457   2.270
 8284SOL    HW225752   1.330   3.345   2.359
 8285SOL     OW25753   3.168   3.028   6.002
 8285SOL    HW125754   3.251   3.061   5.956
 8285SOL    HW225755   3.088   3.073   5.963
 8286SOL     OW25756   5.696   1.830   5.202
 8286SOL    HW125757   5.604   1.816   5.165
 8286SOL    HW225758   5.689   1.857   5.298
 8287SOL     OW25759   1.530   6.695   3.355
 8287SOL    HW125760   1.544   6.693   3.256
 8287SOL    HW225761   1.535   6.790   3.387
 8288SOL     OW25762   1.487   2.389   2.796
 8288SOL    HW125763   1.552   2.446   2.746
 8288SOL    HW225764   1.537   2.320   2.848
 8289SOL     OW25765   6.253   0.751   6.527
 8289SOL    HW125766   6.293   0.793   6.609
 8289SOL    HW225767   6.256   0.816   6.451
 8290SOL     OW25768   4.277   2.654   1.698
 8290SOL    HW125769   4.231   2.582   1.646
 8290SOL    HW225770   4.360   2.682   1.650
 8291SOL     OW25771   5.860   5.793   6.656
 8291SOL    HW125772   5.796   5.750   6.594
 8291SOL    HW225773   5.902   5.724   6.715
 8292SOL     OW25774   2.153   5.411   5.562
 8292SOL    HW125775   2.232   5.374   5.610
 8292SOL    HW225776   2.178   5.428   5.466
 8293SOL     OW25777   1.619   4.137   1.612
 8293SOL    HW125778   1.624   4.055   1.555
 8293SOL    HW225779   1.524   4.152   1.640
 8294SOL     OW25780   5.765   3.355   4.720
 8294SOL    HW125781   5.813   3.396   4.798
 8294SOL    HW225782   5.810   3.382   4.635
 8295SOL     OW25783   5.329   3.463   2.838
 8295SOL    HW125784   5.410   3.486   2.892
 8295SOL    HW225785   5.356   3.415   2.755
 8296SOL     OW25786   3.839   5.310   6.527
 8296SOL    HW125787   3.775   5.251   6.577
 8296SOL    HW225788   3.920   5.257   6.501
 8297SOL     OW25789   6.410   3.536   2.322
 8297SOL    HW125790   6.478   3.597   2.282
 8297SOL    HW225791   6.399   3.557   2.419
 8298SOL     OW25792   0.122   0.198   6.220
 8298SOL    HW125793   0.193   0.130   6.203
 8298SOL    HW225794   0.113   0.213   6.318
 8299SOL     OW25795   0.820   3.288   0.841
 8299SOL    HW125796   0.726   3.261   0.863
 8299SOL    HW225797   0.846   3.248   0.753
 8300SOL     OW25798   6.102   0.018   4.601
 8300SOL    HW125799   6.137   0.110   4.584
 8300SOL    HW225800   6.050   0.017   4.686
 8301SOL     OW25801   4.831   0.024   6.763
 8301SOL    HW125802   4.788   0.006   6.851
 8301SOL    HW225803   4.783   6.996   6.692
 8302SOL     OW25804   3.861   6.891   5.611
 8302SOL    HW125805   3.849   6.867   5.707
 8302SOL    HW225806   3.941   6.843   5.574
 8303SOL     OW25807   6.976   0.281   3.260
 8303SOL    HW125808   7.002   0.326   3.175
 8303SOL    HW225809   6.932   0.347   3.320
 8304SOL     OW25810   5.790   4.543   2.175
 8304SOL    HW125811   5.702   4.565   2.216
 8304SOL    HW225812   5.864   4.583   2.229
 8305SOL     OW25813   4.089   5.065   3.546
 8305SOL    HW125814   4.189   5.070   3.545
 8305SOL    HW225815   4.060   4.975   3.513
 8306SOL     OW25816   6.318   1.460   3.007
 8306SOL    HW125817   6.356   1.438   2.916
 8306SOL    HW225818   6.390   1.501   3.063
 8307SOL     OW25819   2.799   4.987   1.571
 8307SOL    HW125820   2.727   4.936   1.524
 8307SOL    HW225821   2.873   4.924   1.596
 8308SOL     OW25822   2.088   4.751   0.347
 8308SOL    HW125823   2.149   4.807   0.403
 8308SOL    HW225824   2.142   4.677   0.304
 8309SOL     OW25825   6.170   4.821   3.882
 8309SOL    HW125826   6.106   4.745   3.897
 8309SOL    HW225827   6.260   4.795   3.915
 8310SOL     OW25828   1.110   5.415   0.275
 8310SOL    HW125829   1.057   5.444   0.355
 8310SOL    HW225830   1.056   5.430   0.192
 8311SOL     OW25831   4.793   0.364   4.707
 8311SOL    HW125832   4.810   0.459   4.735
 8311SOL    HW225833   4.703   0.357   4.665
 8312SOL     OW25834   5.643   0.853   0.432
 8312SOL    HW125835   5.704   0.812   0.365
 8312SOL    HW225836   5.561   0.887   0.387
 8313SOL     OW25837   4.458   6.838   5.692
 8313SOL    HW125838   4.533   6.881   5.641
 8313SOL    HW225839   4.375   6.840   5.635
 8314SOL     OW25840   5.841   6.621   6.715
 8314SOL    HW125841   5.870   6.557   6.787
 8314SOL    HW225842   5.893   6.706   6.724
 8315SOL     OW25843   3.868   3.999   3.182
 8315SOL    HW125844   3.871   3.899   3.173
 8315SOL    HW225845   3.886   4.024   3.277
 8316SOL     OW25846   2.119   3.516   7.014
 8316SOL    HW125847   2.055   3.574   0.040
 8316SOL    HW225848   2.096   3.420   0.008
 8317SOL     OW25849   3.039   1.810   4.305
 8317SOL    HW125850   3.106   1.883   4.318
 8317SOL    HW225851   3.081   1.722   4.324
 8318SOL     OW25852   5.134   0.918   5.874
 8318SOL    HW125853   5.074   0.850   5.834
 8318SOL    HW225854   5.122   1.006   5.828
 8319SOL     OW25855   1.976   6.918   6.730
 8319SOL    HW125856   1.953   6.839   6.786
 8319SOL    HW225857   1.999   6.995   6.789
 8320SOL     OW25858   3.796   3.695   3.698
 8320SOL    HW125859   3.722   3.761   3.709
 8320SOL    HW225860   3.761   3.614   3.650
 8321SOL     OW25861   0.115   0.220   5.901
 8321SOL    HW125862   0.197   0.172   5.934
 8321SOL    HW225863   0.125   0.238   5.803
 8322SOL     OW25864   0.318   1.274   0.298
 8322SOL    HW125865   0.404   1.321   0.277
 8322SOL    HW225866   0.277   1.241   0.213
 8323SOL     OW25867   3.735   4.577   1.391
 8323SOL    HW125868   3.783   4.633   1.323
 8323SOL    HW225869   3.639   4.567   1.365
 8324SOL     OW25870   5.805   0.545   0.394
 8324SOL    HW125871   5.804   0.468   0.329
 8324SOL    HW225872   5.830   0.629   0.346
 8325SOL     OW25873   1.015   3.962   4.810
 8325SOL    HW125874   1.027   4.058   4.832
 8325SOL    HW225875   1.103   3.914   4.816
 8326SOL     OW25876   4.464   3.650   6.963
 8326SOL    HW125877   4.452   3.678   6.868
 8326SOL    HW225878   4.375   3.644   7.008
 8327SOL     OW25879   0.872   0.260   5.581
 8327SOL    HW125880   0.906   0.313   5.504
 8327SOL    HW225881   0.948   0.236   5.641
 8328SOL     OW25882   1.604   6.670   5.776
 8328SOL    HW125883   1.681   6.615   5.744
 8328SOL    HW225884   1.560   6.623   5.853
 8329SOL     OW25885   0.242   2.672   4.925
 8329SOL    HW125886   0.186   2.743   4.883
 8329SOL    HW225887   0.338   2.687   4.901
 8330SOL     OW25888   3.767   1.724   6.461
 8330SOL    HW125889   3.761   1.801   6.397
 8330SOL    HW225890   3.683   1.719   6.515
 8331SOL     OW25891   2.930   0.874   0.783
 8331SOL    HW125892   2.961   0.817   0.859
 8331SOL    HW225893   2.972   0.965   0.790
 8332SOL     OW25894   5.476   5.683   2.270
 8332SOL    HW125895   5.530   5.618   2.323
 8332SOL    HW225896   5.537   5.749   2.226
 8333SOL     OW25897   2.208   5.404   6.960
 8333SOL    HW125898   2.228   5.308   6.981
 8333SOL    HW225899   2.268   5.462   7.015
 8334SOL     OW25900   2.396   2.516   6.388
 8334SOL    HW125901   2.452   2.564   6.455
 8334SOL    HW225902   2.442   2.516   6.299
 8335SOL     OW25903   4.493   2.966   6.802
 8335SOL    HW125904   4.430   2.896   6.835
 8335SOL    HW225905   4.550   2.998   6.877
 8336SOL     OW25906   1.035   3.679   3.630
 8336SOL    HW125907   1.075   3.752   3.576
 8336SOL    HW225908   1.022   3.709   3.725
 8337SOL     OW25909   0.864   7.003   4.400
 8337SOL    HW125910   0.788   6.954   4.357
 8337SOL    HW225911   0.832   0.069   4.432
 8338SOL     OW25912   3.610   5.464   1.670
 8338SOL    HW125913   3.537   5.396   1.664
 8338SOL    HW225914   3.578   5.543   1.721
 8339SOL     OW25915   0.112   1.054   1.560
 8339SOL    HW125916   0.206   1.018   1.565
 8339SOL    HW225917   0.113   1.151   1.584
 8340SOL     OW25918   4.792   4.018   0.588
 8340SOL    HW125919   4.729   4.001   0.511
 8340SOL    HW225920   4.821   4.113   0.587
 8341SOL     OW25921   3.470   0.737   0.011
 8341SOL    HW125922   3.487   0.694   6.946
 8341SOL    HW225923   3.557   0.765   0.052
 8342SOL     OW25924   3.812   0.130   0.037
 8342SOL    HW125925   3.790   0.101   0.131
 8342SOL    HW225926   3.814   0.230   0.033
 8343SOL     OW25927   6.066   5.768   3.813
 8343SOL    HW125928   6.062   5.791   3.910
 8343SOL    HW225929   6.094   5.849   3.761
 8344SOL     OW25930   0.103   5.192   4.991
 8344SOL    HW125931   0.142   5.193   4.899
 8344SOL    HW225932   0.105   5.285   5.028
 8345SOL     OW25933   5.001   1.934   3.622
 8345SOL    HW125934   4.934   2.003   3.594
 8345SOL    HW225935   5.006   1.931   3.722
 8346SOL     OW25936   3.535   3.147   6.192
 8346SOL    HW125937   3.619   3.156   6.140
 8346SOL    HW225938   3.483   3.232   6.188
 8347SOL     OW25939   3.627   6.622   6.477
 8347SOL    HW125940   3.617   6.525   6.453
 8347SOL    HW225941   3.570   6.642   6.556
 8348SOL     OW25942   2.476   6.774   1.076
 8348SOL    HW125943   2.418   6.736   1.003
 8348SOL    HW225944   2.556   6.817   1.035
 8349SOL     OW25945   0.902   6.758   1.554
 8349SOL    HW125946   0.932   6.813   1.476
 8349SOL    HW225947   0.982   6.715   1.597
 8350SOL     OW25948   2.727   5.966   5.936
 8350SOL    HW125949   2.826   5.958   5.944
 8350SOL    HW225950   2.690   6.006   6.020
 8351SOL     OW25951   5.409   5.263   3.480
 8351SOL    HW125952   5.432   5.207   3.400
 8351SOL    HW225953   5.398   5.204   3.560
 8352SOL     OW25954   1.887   6.805   2.819
 8352SOL    HW125955   1.838   6.800   2.731
 8352SOL    HW225956   1.873   6.720   2.869
 8353SOL     OW25957   1.262   3.765   1.402
 8353SOL    HW125958   1.315   3.829   1.348
 8353SOL    HW225959   1.166   3.790   1.400
 8354SOL     OW25960   3.665   6.340   3.835
 8354SOL    HW125961   3.719   6.312   3.915
 8354SOL    HW225962   3.670   6.439   3.825
 8355SOL     OW25963   2.266   0.892   5.523
 8355SOL    HW125964   2.284   0.871   5.619
 8355SOL    HW225965   2.351   0.922   5.479
 8356SOL     OW25966   0.837   5.809   1.206
 8356SOL    HW125967   0.780   5.730   1.184
 8356SOL    HW225968   0.835   5.825   1.304
 8357SOL     OW25969   3.919   5.583   5.657
 8357SOL    HW125970   3.956   5.628   5.738
 8357SOL    HW225971   3.862   5.506   5.684
 8358SOL     OW25972   0.782   2.902   4.978
 8358SOL    HW125973   0.799   2.869   4.885
 8358SOL    HW225974   0.862   2.954   5.009
 8359SOL     OW25975   2.428   1.501   4.515
 8359SOL    HW125976   2.393   1.510   4.608
 8359SOL    HW225977   2.527   1.489   4.518
 8360SOL     OW25978   4.644   6.866   1.020
 8360SOL    HW125979   4.599   6.931   1.081
 8360SOL    HW225980   4.741   6.890   1.013
 8361SOL     OW25981   3.155   0.288   6.855
 8361SOL    HW125982   3.060   0.276   6.882
 8361SOL    HW225983   3.203   0.343   6.923
 8362SOL     OW25984   5.632   2.283   1.200
 8362SOL    HW125985   5.629   2.256   1.296
 8362SOL    HW225986   5.680   2.370   1.191
 8363SOL     OW25987   4.862   1.628   1.051
 8363SOL    HW125988   4.801   1.550   1.065
 8363SOL    HW225989   4.956   1.601   1.072
 8364SOL     OW25990   0.630   3.527   3.609
 8364SOL    HW125991   0.697   3.559   3.677
 8364SOL    HW225992   0.568   3.461   3.651
 8365SOL     OW25993   2.039   2.219   3.065
 8365SOL    HW125994   2.066   2.129   3.099
 8365SOL    HW225995   2.122   2.274   3.049
 8366SOL     OW25996   3.714   5.199   1.009
 8366SOL    HW125997   3.645   5.253   0.962
 8366SOL    HW225998   3.804   5.241   0.996
 8367SOL     OW25999   3.490   5.254   5.113
 8367SOL    HW126000   3.393   5.251   5.087
 8367SOL    HW226001   3.497   5.243   5.212
 8368SOL     OW26002   0.925   5.983   6.910
 8368SOL    HW126003   0.858   6.048   6.945
 8368SOL    HW226004   0.878   5.909   6.863
 8369SOL     OW26005   0.632   1.106   0.163
 8369SOL    HW126006   0.687   1.103   0.079
 8369SOL    HW226007   0.558   1.040   0.157
 8370SOL     OW26008   2.464   0.863   6.455
 8370SOL    HW126009   2.414   0.950   6.452
 8370SOL    HW226010   2.415   0.798   6.514
 8371SOL     OW26011   1.874   3.651   6.298
 8371SOL    HW126012   1.866   3.590   6.377
 8371SOL    HW226013   1.921   3.603   6.224
 8372SOL     OW26014   1.597   5.468   2.118
 8372SOL    HW126015   1.505   5.469   2.078
 8372SOL    HW226016   1.592   5.439   2.213
 8373SOL     OW26017   1.676   1.207   4.815
 8373SOL    HW126018   1.666   1.273   4.889
 8373SOL    HW226019   1.638   1.245   4.731
 8374SOL     OW26020   0.288   1.185   4.629
 8374SOL    HW126021   0.258   1.200   4.724
 8374SOL    HW226022   0.214   1.141   4.578
 8375SOL     OW26023   3.782   0.341   5.984
 8375SOL    HW126024   3.845   0.384   6.049
 8375SOL    HW226025   3.695   0.389   5.987
 8376SOL     OW26026   1.538   1.340   3.886
 8376SOL    HW126027   1.599   1.369   3.960
 8376SOL    HW226028   1.466   1.281   3.923
 8377SOL     OW26029   5.999   5.890   0.367
 8377SOL    HW126030   6.011   5.808   0.424
 8377SOL    HW226031   6.087   5.935   0.355
 8378SOL     OW26032   4.219   4.808   3.583
 8378SOL    HW126033   4.286   4.879   3.606
 8378SOL    HW226034   4.261   4.744   3.518
 8379SOL     OW26035   4.694   2.360   2.069
 8379SOL    HW126036   4.634   2.416   2.013
 8379SOL    HW226037   4.647   2.337   2.155
 8380SOL     OW26038   0.569   6.503   6.776
 8380SOL    HW126039   0.503   6.432   6.750
 8380SOL    HW226040   0.525   6.566   6.841
 8381SOL     OW26041   6.824   2.546   3.348
 8381SOL    HW126042   6.909   2.545   3.296
 8381SOL    HW226043   6.793   2.453   3.363
 8382SOL     OW26044   2.129   6.810   0.741
 8382SOL    HW126045   2.213   6.838   0.694
 8382SOL    HW226046   2.078   6.891   0.768
 8383SOL     OW26047   2.311   0.319   5.504
 8383SOL    HW126048   2.338   0.223   5.518
 8383SOL    HW226049   2.256   0.350   5.582
 8384SOL     OW26050   0.199   1.507   0.116
 8384SOL    HW126051   0.149   1.592   0.130
 8384SOL    HW226052   0.135   1.433   0.094
 8385SOL     OW26053   4.467   2.160   1.040
 8385SOL    HW126054   4.450   2.072   0.996
 8385SOL    HW226055   4.434   2.157   1.134
 8386SOL     OW26056   1.752   5.517   1.240
 8386SOL    HW126057   1.783   5.428   1.273
 8386SOL    HW226058   1.709   5.506   1.150
 8387SOL     OW26059   1.454   1.977   1.163
 8387SOL    HW126060   1.516   1.999   1.238
 8387SOL    HW226061   1.360   1.979   1.197
 8388SOL     OW26062   1.281   0.003   0.751
 8388SOL    HW126063   1.213   6.960   0.781
 8388SOL    HW226064   1.373   6.988   0.763
 8389SOL     OW26065   1.024   3.381   4.047
 8389SOL    HW126066   1.006   3.286   4.074
 8389SOL    HW226067   0.985   3.398   3.957
 8390SOL     OW26068   4.253   0.105   6.889
 8390SOL    HW126069   4.211   0.037   6.949
 8390SOL    HW226070   4.181   0.152   6.837
 8391SOL     OW26071   4.871   5.080   1.533
 8391SOL    HW126072   4.899   4.984   1.543
 8391SOL    HW226073   4.869   5.104   1.436
 8392SOL     OW26074   6.724   5.684   5.874
 8392SOL    HW126075   6.660   5.733   5.815
 8392SOL    HW226076   6.777   5.750   5.927
 8393SOL     OW26077   6.984   0.209   3.971
 8393SOL    HW126078   6.913   0.153   3.929
 8393SOL    HW226079   0.036   0.150   4.000
 8394SOL     OW26080   6.712   2.815   1.640
 8394SOL    HW126081   6.809   2.801   1.624
 8394SOL    HW226082   6.678   2.745   1.704
 8395SOL     OW26083   1.758   6.646   3.948
 8395SOL    HW126084   1.734   6.655   3.852
 8395SOL    HW226085   1.785   6.551   3.966
 8396SOL     OW26086   4.491   4.460   2.237
 8396SOL    HW126087   4.475   4.392   2.310
 8396SOL    HW226088   4.526   4.414   2.156
 8397SOL     OW26089   2.696   0.254   2.775
 8397SOL    HW126090   2.617   0.221   2.826
 8397SOL    HW226091   2.668   0.280   2.682
 8398SOL     OW26092   4.379   2.006   6.363
 8398SOL    HW126093   4.280   1.993   6.368
 8398SOL    HW226094   4.402   2.064   6.285
 8399SOL     OW26095   6.386   6.994   0.159
 8399SOL    HW126096   6.433   0.032   0.222
 8399SOL    HW226097   6.292   0.002   0.145
 8400SOL     OW26098   1.131   0.289   3.738
 8400SOL    HW126099   1.097   0.373   3.780
 8400SOL    HW226100   1.176   0.233   3.808
 8401SOL     OW26101   3.457   2.533   6.573
 8401SOL    HW126102   3.399   2.613   6.555
 8401SOL    HW226103   3.548   2.564   6.598
 8402SOL     OW26104   3.928   1.921   5.699
 8402SOL    HW126105   3.960   2.004   5.653
 8402SOL    HW226106   3.906   1.942   5.794
 8403SOL     OW26107   0.773   2.093   3.059
 8403SOL    HW126108   0.790   2.190   3.074
 8403SOL    HW226109   0.675   2.077   3.049
 8404SOL     OW26110   5.436   5.594   6.985
 8404SOL    HW126111   5.442   5.693   6.974
 8404SOL    HW226112   5.415   5.552   6.897
 8405SOL     OW26113   1.779   0.873   6.792
 8405SOL    HW126114   1.753   0.798   6.852
 8405SOL    HW226115   1.775   0.959   6.843
 8406SOL     OW26116   4.326   0.359   1.004
 8406SOL    HW126117   4.422   0.333   1.012
 8406SOL    HW226118   4.319   0.451   0.967
 8407SOL     OW26119   5.560   6.197   3.988
 8407SOL    HW126120   5.617   6.279   4.000
 8407SOL    HW226121   5.491   6.195   4.061
 8408SOL     OW26122   4.769   2.046   3.103
 8408SOL    HW126123   4.842   2.113   3.120
 8408SOL    HW226124   4.798   1.956   3.133
 8409SOL     OW26125   5.956   3.044   3.083
 8409SOL    HW126126   5.901   3.101   3.145
 8409SOL    HW226127   5.957   2.950   3.116
 8410SOL     OW26128   4.410   0.381   1.398
 8410SOL    HW126129   4.324   0.390   1.347
 8410SOL    HW226130   4.457   0.298   1.368
 8411SOL     OW26131   0.934   6.261   5.019
 8411SOL    HW126132   0.914   6.352   4.984
 8411SOL    HW226133   1.033   6.251   5.032
 8412SOL     OW26134   4.164   1.930   1.957
 8412SOL    HW126135   4.168   1.892   1.864
 8412SOL    HW226136   4.236   1.998   1.968
 8413SOL     OW26137   5.104   4.744   0.881
 8413SOL    HW126138   5.171   4.693   0.827
 8413SOL    HW226139   5.067   4.685   0.953
 8414SOL     OW26140   4.605   6.482   2.470
 8414SOL    HW126141   4.674   6.416   2.501
 8414SOL    HW226142   4.580   6.542   2.547
 8415SOL     OW26143   6.900   5.532   4.001
 8415SOL    HW126144   6.951   5.613   3.973
 8415SOL    HW226145   6.802   5.551   3.998
 8416SOL     OW26146   5.373   4.442   3.409
 8416SOL    HW126147   5.330   4.512   3.467
 8416SOL    HW226148   5.302   4.382   3.371
 8417SOL     OW26149   1.058   5.483   5.914
 8417SOL    HW126150   1.070   5.384   5.915
 8417SOL    HW226151   1.127   5.526   5.973
 8418SOL     OW26152   5.998   5.679   1.739
 8418SOL    HW126153   5.929   5.670   1.810
 8418SOL    HW226154   6.027   5.774   1.733
 8419SOL     OW26155   4.705   1.011   2.237
 8419SOL    HW126156   4.789   1.062   2.225
 8419SOL    HW226157   4.634   1.070   2.276
 8420SOL     OW26158   4.194   0.209   0.802
 8420SOL    HW126159   4.117   0.169   0.853
 8420SOL    HW226160   4.245   0.270   0.863
 8421SOL     OW26161   2.347   6.396   0.971
 8421SOL    HW126162   2.326   6.353   0.883
 8421SOL    HW226163   2.441   6.373   0.997
 8422SOL     OW26164   4.740   0.077   1.480
 8422SOL    HW126165   4.693   0.154   1.525
 8422SOL    HW226166   4.773   0.106   1.390
 8423SOL     OW26167   4.100   3.963   5.697
 8423SOL    HW126168   4.057   3.996   5.782
 8423SOL    HW226169   4.192   4.000   5.690
 8424SOL     OW26170   2.296   2.849   2.831
 8424SOL    HW126171   2.338   2.794   2.903
 8424SOL    HW226172   2.340   2.828   2.744
 8425SOL     OW26173   5.503   5.925   1.356
 8425SOL    HW126174   5.439   5.903   1.429
 8425SOL    HW226175   5.561   6.002   1.385
 8426SOL     OW26176   3.307   2.907   4.402
 8426SOL    HW126177   3.379   2.879   4.465
 8426SOL    HW226178   3.265   2.991   4.435
 8427SOL     OW26179   2.649   3.608   5.787
 8427SOL    HW126180   2.623   3.512   5.777
 8427SOL    HW226181   2.718   3.617   5.859
 8428SOL     OW26182   6.596   4.116   1.856
 8428SOL    HW126183   6.540   4.060   1.794
 8428SOL    HW226184   6.692   4.105   1.833
 8429SOL     OW26185   2.304   4.508   3.623
 8429SOL    HW126186   2.399   4.505   3.593
 8429SOL    HW226187   2.249   4.559   3.557
 8430SOL     OW26188   4.068   5.587   3.745
 8430SOL    HW126189   4.106   5.612   3.656
 8430SOL    HW226190   3.970   5.571   3.736
 8431SOL     OW26191   2.986   5.285   0.611
 8431SOL    HW126192   3.048   5.217   0.572
 8431SOL    HW226193   2.907   5.297   0.551
 8432SOL     OW26194   4.901   6.287   5.659
 8432SOL    HW126195   4.929   6.348   5.734
 8432SOL    HW226196   4.807   6.257   5.673
 8433SOL     OW26197   6.586   2.537   6.919
 8433SOL    HW126198   6.580   2.498   7.011
 8433SOL    HW226199   6.681   2.535   6.888
 8434SOL     OW26200   3.043   6.367   5.130
 8434SOL    HW126201   3.039   6.372   5.030
 8434SOL    HW226202   3.002   6.281   5.160
 8435SOL     OW26203   5.170   0.565   1.017
 8435SOL    HW126204   5.178   0.642   1.081
 8435SOL    HW226205   5.238   0.575   0.945
 8436SOL     OW26206   3.090   6.766   4.292
 8436SOL    HW126207   3.096   6.813   4.204
 8436SOL    HW226208   3.117   6.828   4.365
 8437SOL     OW26209   1.859   0.035   2.917
 8437SOL    HW126210   1.861   6.964   2.883
 8437SOL    HW226211   1.856   0.098   2.839
 8438SOL     OW26212   2.806   5.074   2.286
 8438SOL    HW126213   2.750   5.154   2.267
 8438SOL    HW226214   2.747   4.998   2.314
 8439SOL     OW26215   6.781   5.591   1.179
 8439SOL    HW126216   6.766   5.675   1.232
 8439SOL    HW226217   6.799   5.515   1.241
 8440SOL     OW26218   0.245   1.217   3.738
 8440SOL    HW126219   0.197   1.136   3.771
 8440SOL    HW226220   0.292   1.261   3.815
 8441SOL     OW26221   6.443   6.919   6.781
 8441SOL    HW126222   6.524   6.962   6.739
 8441SOL    HW226223   6.375   6.989   6.802
 8442SOL     OW26224   3.593   2.623   6.084
 8442SOL    HW126225   3.650   2.702   6.064
 8442SOL    HW226226   3.640   2.563   6.149
 8443SOL     OW26227   1.276   6.646   3.452
 8443SOL    HW126228   1.373   6.666   3.441
 8443SOL    HW226229   1.242   6.692   3.534
 8444SOL     OW26230   3.602   5.865   3.724
 8444SOL    HW126231   3.515   5.868   3.774
 8444SOL    HW226232   3.617   5.953   3.679
 8445SOL     OW26233   3.373   5.211   2.179
 8445SOL    HW126234   3.361   5.304   2.215
 8445SOL    HW226235   3.381   5.215   2.079
 8446SOL     OW26236   4.495   4.688   1.017
 8446SOL    HW126237   4.435   4.765   0.997
 8446SOL    HW226238   4.479   4.615   0.950
 8447SOL     OW26239   5.776   2.158   2.125
 8447SOL    HW126240   5.732   2.248   2.133
 8447SOL    HW226241   5.710   2.092   2.090
 8448SOL     OW26242   5.863   4.747   4.712
 8448SOL    HW126243   5.810   4.759   4.796
 8448SOL    HW226244   5.911   4.832   4.691
 8449SOL     OW26245   6.847   3.068   4.262
 8449SOL    HW126246   6.918   3.134   4.288
 8449SOL    HW226247   6.875   3.021   4.178
 8450SOL     OW26248   1.598   5.750   1.860
 8450SOL    HW126249   1.602   5.652   1.840
 8450SOL    HW226250   1.543   5.764   1.943
 8451SOL     OW26251   4.954   3.069   0.092
 8451SOL    HW126252   4.888   3.103   0.025
 8451SOL    HW226253   4.956   2.969   0.089
 8452SOL     OW26254   0.348   0.689   2.128
 8452SOL    HW126255   0.443   0.680   2.095
 8452SOL    HW226256   0.313   0.599   2.154
 8453SOL     OW26257   6.476   4.167   6.910
 8453SOL    HW126258   6.421   4.185   6.829
 8453SOL    HW226259   6.417   4.142   6.986
 8454SOL     OW26260   0.334   6.434   0.635
 8454SOL    HW126261   0.316   6.351   0.584
 8454SOL    HW226262   0.423   6.427   0.680
 8455SOL     OW26263   5.078   1.880   1.030
 8455SOL    HW126264   5.177   1.872   1.019
 8455SOL    HW226265   5.054   1.861   1.125
 8456SOL     OW26266   4.648   4.263   3.036
 8456SOL    HW126267   4.688   4.190   2.981
 8456SOL    HW226268   4.714   4.292   3.106
 8457SOL     OW26269   0.094   6.271   4.963
 8457SOL    HW126270   0.171   6.330   4.939
 8457SOL    HW226271   0.126   6.197   5.023
 8458SOL     OW26272   2.279   1.308   6.919
 8458SOL    HW126273   2.333   1.275   6.842
 8458SOL    HW226274   2.245   1.400   6.899
 8459SOL     OW26275   2.972   6.590   1.562
 8459SOL    HW126276   2.991   6.496   1.535
 8459SOL    HW226277   3.033   6.652   1.513
 8460SOL     OW26278   4.393   2.398   5.717
 8460SOL    HW126279   4.343   2.400   5.803
 8460SOL    HW226280   4.465   2.467   5.718
 8461SOL     OW26281   0.469   3.853   2.312
 8461SOL    HW126282   0.518   3.853   2.225
 8461SOL    HW226283   0.534   3.846   2.387
 8462SOL     OW26284   3.971   2.276   0.380
 8462SOL    HW126285   4.057   2.226   0.375
 8462SOL    HW226286   3.990   2.373   0.395
 8463SOL     OW26287   6.723   0.871   0.596
 8463SOL    HW126288   6.637   0.822   0.611
 8463SOL    HW226289   6.758   0.904   0.684
 8464SOL     OW26290   6.468   3.870   5.465
 8464SOL    HW126291   6.390   3.814   5.494
 8464SOL    HW226292   6.436   3.942   5.403
 8465SOL     OW26293   2.599   2.682   0.782
 8465SOL    HW126294   2.569   2.609   0.720
 8465SOL    HW226295   2.655   2.643   0.855
 8466SOL     OW26296   6.401   6.676   5.881
 8466SOL    HW126297   6.466   6.716   5.946
 8466SOL    HW226298   6.309   6.711   5.901
 8467SOL     OW26299   3.880   0.457   1.411
 8467SOL    HW126300   3.979   0.473   1.406
 8467SOL    HW226301   3.837   0.530   1.462
 8468SOL     OW26302   4.661   2.613   0.040
 8468SOL    HW126303   4.580   2.557   0.021
 8468SOL    HW226304   4.711   2.573   0.117
 8469SOL     OW26305   2.535   1.759   5.853
 8469SOL    HW126306   2.554   1.802   5.941
 8469SOL    HW226307   2.482   1.823   5.796
 8470SOL     OW26308   1.099   4.642   0.291
 8470SOL    HW126309   1.158   4.614   0.216
 8470SOL    HW226310   1.154   4.674   0.368
 8471SOL     OW26311   3.984   0.294   5.078
 8471SOL    HW126312   4.067   0.341   5.049
 8471SOL    HW226313   3.968   0.310   5.175
 8472SOL     OW26314   5.943   0.479   5.591
 8472SOL    HW126315   5.926   0.546   5.518
 8472SOL    HW226316   6.032   0.497   5.633
 8473SOL     OW26317   6.540   5.659   1.010
 8473SOL    HW126318   6.622   5.640   1.064
 8473SOL    HW226319   6.562   5.652   0.913
 8474SOL     OW26320   3.376   3.620   2.028
 8474SOL    HW126321   3.327   3.624   2.115
 8474SOL    HW226322   3.465   3.577   2.041
 8475SOL     OW26323   0.027   2.484   3.194
 8475SOL    HW126324   0.109   2.503   3.140
 8475SOL    HW226325   0.005   2.387   3.190
 8476SOL     OW26326   6.125   1.410   0.978
 8476SOL    HW126327   6.029   1.418   0.951
 8476SOL    HW226328   6.143   1.469   1.056
 8477SOL     OW26329   4.510   6.645   2.690
 8477SOL    HW126330   4.461   6.654   2.777
 8477SOL    HW226331   4.586   6.709   2.688
 8478SOL     OW26332   1.566   0.411   5.565
 8478SOL    HW126333   1.528   0.337   5.619
 8478SOL    HW226334   1.590   0.378   5.474
 8479SOL     OW26335   1.714   3.725   0.862
 8479SOL    HW126336   1.765   3.704   0.946
 8479SOL    HW226337   1.714   3.645   0.802
 8480SOL     OW26338   5.187   3.154   6.956
 8480SOL    HW126339   5.234   3.168   0.019
 8480SOL    HW226340   5.103   3.102   6.971
 8481SOL     OW26341   4.482   2.665   5.038
 8481SOL    HW126342   4.405   2.606   5.012
 8481SOL    HW226343   4.534   2.689   4.956
 8482SOL     OW26344   4.950   0.018   2.687
 8482SOL    HW126345   4.914   0.111   2.678
 8482SOL    HW226346   5.044   0.016   2.652
 8483SOL     OW26347   3.510   6.098   2.008
 8483SOL    HW126348   3.599   6.104   2.053
 8483SOL    HW226349   3.437   6.111   2.076
 8484SOL     OW26350   7.019   6.315   3.865
 8484SOL    HW126351   6.972   6.228   3.876
 8484SOL    HW226352   6.954   6.390   3.879
 8485SOL     OW26353   3.800   2.438   0.132
 8485SOL    HW126354   3.767   2.446   0.226
 8485SOL    HW226355   3.738   2.379   0.080
 8486SOL     OW26356   2.401   1.462   2.288
 8486SOL    HW126357   2.387   1.545   2.233
 8486SOL    HW226358   2.315   1.411   2.293
 8487SOL     OW26359   6.034   2.003   5.823
 8487SOL    HW126360   6.077   2.075   5.768
 8487SOL    HW226361   5.997   1.933   5.762
 8488SOL     OW26362   5.646   6.636   1.625
 8488SOL    HW126363   5.612   6.724   1.659
 8488SOL    HW226364   5.590   6.606   1.547
 8489SOL     OW26365   6.363   1.772   1.692
 8489SOL    HW126366   6.396   1.802   1.603
 8489SOL    HW226367   6.295   1.836   1.726
 8490SOL     OW26368   3.704   6.792   5.351
 8490SOL    HW126369   3.782   6.854   5.338
 8490SOL    HW226370   3.619   6.845   5.346
 8491SOL     OW26371   2.029   6.123   1.718
 8491SOL    HW126372   2.115   6.152   1.763
 8491SOL    HW226373   1.971   6.076   1.785
 8492SOL     OW26374   5.842   4.679   5.495
 8492SOL    HW126375   5.895   4.692   5.578
 8492SOL    HW226376   5.895   4.711   5.416
 8493SOL     OW26377   2.171   2.182   6.035
 8493SOL    HW126378   2.129   2.105   5.986
 8493SOL    HW226379   2.252   2.212   5.985
 8494SOL     OW26380   4.335   4.973   1.218
 8494SOL    HW126381   4.250   5.003   1.260
 8494SOL    HW226382   4.393   4.929   1.287
 8495SOL     OW26383   6.981   4.800   1.473
 8495SOL    HW126384   6.955   4.824   1.566
 8495SOL    HW226385   0.031   4.732   1.476
 8496SOL     OW26386   1.148   1.746   2.648
 8496SOL    HW126387   1.176   1.839   2.671
 8496SOL    HW226388   1.152   1.689   2.730
 8497SOL     OW26389   6.917   1.099   3.692
 8497SOL    HW126390   6.938   1.101   3.594
 8497SOL    HW226391   6.856   1.175   3.714
 8498SOL     OW26392   6.559   6.471   3.091
 8498SOL    HW126393   6.547   6.557   3.042
 8498SOL    HW226394   6.516   6.397   3.040
 8499SOL     OW26395   2.183   4.225   6.704
 8499SOL    HW126396   2.140   4.180   6.626
 8499SOL    HW226397   2.133   4.203   6.788
 8500SOL     OW26398   1.520   5.991   5.601
 8500SOL    HW126399   1.567   6.078   5.617
 8500SOL    HW226400   1.586   5.916   5.605
 8501SOL     OW26401   6.914   3.047   5.755
 8501SOL    HW126402   6.823   3.033   5.716
 8501SOL    HW226403   6.979   3.065   5.681
 8502SOL     OW26404   0.288   3.331   1.434
 8502SOL    HW126405   0.374   3.282   1.419
 8502SOL    HW226406   0.233   3.330   1.351
 8503SOL     OW26407   0.537   5.384   4.863
 8503SOL    HW126408   0.608   5.402   4.931
 8503SOL    HW226409   0.461   5.448   4.876
 8504SOL     OW26410   2.399   5.263   2.372
 8504SOL    HW126411   2.356   5.185   2.326
 8504SOL    HW226412   2.360   5.348   2.336
 8505SOL     OW26413   6.460   3.600   2.974
 8505SOL    HW126414   6.389   3.665   2.945
 8505SOL    HW226415   6.539   3.607   2.913
 8506SOL     OW26416   1.328   1.349   0.205
 8506SOL    HW126417   1.263   1.319   0.274
 8506SOL    HW226418   1.279   1.396   0.131
 8507SOL     OW26419   3.735   6.593   4.959
 8507SOL    HW126420   3.644   6.576   4.997
 8507SOL    HW226421   3.766   6.512   4.909
 8508SOL     OW26422   5.249   1.888   4.201
 8508SOL    HW126423   5.194   1.969   4.181
 8508SOL    HW226424   5.259   1.878   4.300
 8509SOL     OW26425   5.037   0.697   3.329
 8509SOL    HW126426   4.944   0.659   3.332
 8509SOL    HW226427   5.099   0.629   3.291
 8510SOL     OW26428   5.932   4.486   2.969
 8510SOL    HW126429   5.871   4.453   3.042
 8510SOL    HW226430   5.973   4.572   2.997
 8511SOL     OW26431   6.114   3.785   2.384
 8511SOL    HW126432   6.091   3.868   2.435
 8511SOL    HW226433   6.162   3.721   2.443
 8512SOL     OW26434   2.607   0.838   2.607
 8512SOL    HW126435   2.541   0.875   2.671
 8512SOL    HW226436   2.646   0.912   2.552
 8513SOL     OW26437   6.637   4.928   0.853
 8513SOL    HW126438   6.704   4.972   0.793
 8513SOL    HW226439   6.569   4.880   0.798
 8514SOL     OW26440   1.755   1.622   3.681
 8514SOL    HW126441   1.749   1.604   3.583
 8514SOL    HW226442   1.675   1.585   3.727
 8515SOL     OW26443   4.903   2.467   1.292
 8515SOL    HW126444   4.941   2.555   1.263
 8515SOL    HW226445   4.977   2.403   1.311
 8516SOL     OW26446   0.363   1.943   2.046
 8516SOL    HW126447   0.444   1.994   2.075
 8516SOL    HW226448   0.281   1.991   2.075
 8517SOL     OW26449   0.609   2.957   5.422
 8517SOL    HW126450   0.632   3.045   5.381
 8517SOL    HW226451   0.665   2.885   5.382
 8518SOL     OW26452   4.886   3.890   6.704
 8518SOL    HW126453   4.852   3.984   6.711
 8518SOL    HW226454   4.884   3.847   6.794
 8519SOL     OW26455   1.545   5.119   2.014
 8519SOL    HW126456   1.629   5.135   2.067
 8519SOL    HW226457   1.552   5.167   1.927
 8520SOL     OW26458   3.451   1.237   1.098
 8520SOL    HW126459   3.465   1.271   1.005
 8520SOL    HW226460   3.353   1.237   1.119
 8521SOL     OW26461   1.785   5.375   5.790
 8521SOL    HW126462   1.838   5.455   5.762
 8521SOL    HW226463   1.689   5.390   5.770
 8522SOL     OW26464   1.235   6.291   1.849
 8522SOL    HW126465   1.224   6.317   1.945
 8522SOL    HW226466   1.146   6.262   1.813
 8523SOL     OW26467   2.993   6.289   6.795
 8523SOL    HW126468   2.961   6.383   6.804
 8523SOL    HW226469   3.050   6.281   6.713
 8524SOL     OW26470   1.148   2.000   4.976
 8524SOL    HW126471   1.073   1.971   4.918
 8524SOL    HW226472   1.227   1.941   4.961
 8525SOL     OW26473   6.393   4.411   2.900
 8525SOL    HW126474   6.428   4.496   2.941
 8525SOL    HW226475   6.298   4.398   2.927
 8526SOL     OW26476   2.876   4.134   0.729
 8526SOL    HW126477   2.820   4.202   0.682
 8526SOL    HW226478   2.961   4.176   0.760
 8527SOL     OW26479   3.104   0.150   5.110
 8527SOL    HW126480   3.117   0.223   5.177
 8527SOL    HW226481   3.071   0.068   5.157
 8528SOL     OW26482   5.099   2.763   5.984
 8528SOL    HW126483   5.148   2.807   6.059
 8528SOL    HW226484   5.148   2.778   5.898
 8529SOL     OW26485   1.228   0.030   6.879
 8529SOL    HW126486   1.271   0.040   6.969
 8529SOL    HW226487   1.267   6.974   6.832
 8530SOL     OW26488   1.586   4.416   5.461
 8530SOL    HW126489   1.632   4.342   5.510
 8530SOL    HW226490   1.529   4.468   5.525
 8531SOL     OW26491   5.416   4.121   2.535
 8531SOL    HW126492   5.446   4.171   2.453
 8531SOL    HW226493   5.336   4.066   2.513
 8532SOL     OW26494   3.647   5.193   4.708
 8532SOL    HW126495   3.657   5.250   4.789
 8532SOL    HW226496   3.654   5.097   4.733
 8533SOL     OW26497   1.863   0.137   6.177
 8533SOL    HW126498   1.904   0.182   6.257
 8533SOL    HW226499   1.935   0.095   6.122
 8534SOL     OW26500   0.149   3.790   3.770
 8534SOL    HW126501   0.163   3.737   3.687
 8534SOL    HW226502   0.236   3.825   3.803
 8535SOL     OW26503   0.657   1.808   4.839
 8535SOL    HW126504   0.632   1.717   4.806
 8535SOL    HW226505   0.652   1.809   4.939
 8536SOL     OW26506   6.130   2.059   4.877
 8536SOL    HW126507   6.182   2.123   4.934
 8536SOL    HW226508   6.050   2.105   4.840
 8537SOL     OW26509   5.179   1.836   1.635
 8537SOL    HW126510   5.236   1.791   1.567
 8537SOL    HW226511   5.087   1.851   1.598
 8538SOL     OW26512   0.215   1.180   5.731
 8538SOL    HW126513   0.137   1.209   5.787
 8538SOL    HW226514   0.185   1.164   5.637
 8539SOL     OW26515   6.754   2.149   2.182
 8539SOL    HW126516   6.695   2.194   2.115
 8539SOL    HW226517   6.754   2.050   2.167
 8540SOL     OW26518   3.346   1.515   0.410
 8540SOL    HW126519   3.249   1.492   0.405
 8540SOL    HW226520   3.383   1.524   0.317
 8541SOL     OW26521   2.812   1.926   4.504
 8541SOL    HW126522   2.909   1.929   4.481
 8541SOL    HW226523   2.799   1.872   4.587
 8542SOL     OW26524   2.580   4.495   6.035
 8542SOL    HW126525   2.562   4.585   5.995
 8542SOL    HW226526   2.617   4.506   6.127
 8543SOL     OW26527   2.938   1.788   5.878
 8543SOL    HW126528   2.877   1.728   5.826
 8543SOL    HW226529   2.890   1.874   5.898
 8544SOL     OW26530   5.530   2.931   4.481
 8544SOL    HW126531   5.467   2.861   4.449
 8544SOL    HW226532   5.612   2.932   4.424
 8545SOL     OW26533   4.091   6.791   4.806
 8545SOL    HW126534   4.091   6.841   4.719
 8545SOL    HW226535   3.997   6.773   4.834
 8546SOL     OW26536   6.443   6.967   2.127
 8546SOL    HW126537   6.369   6.915   2.170
 8546SOL    HW226538   6.456   0.030   2.175
 8547SOL     OW26539   0.638   0.354   5.708
 8547SOL    HW126540   0.683   0.411   5.777
 8547SOL    HW226541   0.704   0.326   5.639
 8548SOL     OW26542   6.821   3.910   5.228
 8548SOL    HW126543   6.909   3.879   5.191
 8548SOL    HW226544   6.753   3.914   5.154
 8549SOL     OW26545   1.157   2.393   4.272
 8549SOL    HW126546   1.102   2.379   4.354
 8549SOL    HW226547   1.247   2.428   4.299
 8550SOL     OW26548   1.607   4.168   6.581
 8550SOL    HW126549   1.528   4.127   6.627
 8550SOL    HW226550   1.593   4.165   6.482
 8551SOL     OW26551   3.027   2.638   0.125
 8551SOL    HW126552   2.999   2.553   0.170
 8551SOL    HW226553   3.085   2.691   0.187
 8552SOL     OW26554   1.967   0.449   2.807
 8552SOL    HW126555   1.979   0.543   2.840
 8552SOL    HW226556   1.995   0.385   2.879
 8553SOL     OW26557   4.404   4.292   6.847
 8553SOL    HW126558   4.352   4.376   6.828
 8553SOL    HW226559   4.402   4.274   6.946
 8554SOL     OW26560   0.488   5.953   0.954
 8554SOL    HW126561   0.538   5.998   1.029
 8554SOL    HW226562   0.410   5.903   0.992
 8555SOL     OW26563   3.750   1.749   3.414
 8555SOL    HW126564   3.657   1.785   3.403
 8555SOL    HW226565   3.810   1.792   3.346
 8556SOL     OW26566   2.207   6.232   4.935
 8556SOL    HW126567   2.162   6.180   5.008
 8556SOL    HW226568   2.300   6.197   4.923
 8557SOL     OW26569   6.673   0.352   2.180
 8557SOL    HW126570   6.691   0.450   2.176
 8557SOL    HW226571   6.675   0.314   2.087
 8558SOL     OW26572   1.953   5.450   2.999
 8558SOL    HW126573   2.047   5.482   2.987
 8558SOL    HW226574   1.892   5.504   2.941
 8559SOL     OW26575   1.632   6.307   2.385
 8559SOL    HW126576   1.570   6.292   2.308
 8559SOL    HW226577   1.675   6.397   2.376
 8560SOL     OW26578   1.013   5.265   1.464
 8560SOL    HW126579   1.102   5.286   1.504
 8560SOL    HW226580   0.965   5.199   1.522
 8561SOL     OW26581   3.281   6.938   3.734
 8561SOL    HW126582   3.250   7.022   3.778
 8561SOL    HW226583   3.246   6.934   3.640
 8562SOL     OW26584   3.520   6.380   0.117
 8562SOL    HW126585   3.547   6.449   0.185
 8562SOL    HW226586   3.420   6.374   0.113
 8563SOL     OW26587   0.694   4.895   1.975
 8563SOL    HW126588   0.624   4.962   1.949
 8563SOL    HW226589   0.785   4.937   1.969
 8564SOL     OW26590   3.535   6.359   5.604
 8564SOL    HW126591   3.439   6.366   5.575
 8564SOL    HW226592   3.585   6.439   5.572
 8565SOL     OW26593   3.600   4.865   0.693
 8565SOL    HW126594   3.641   4.777   0.669
 8565SOL    HW226595   3.671   4.928   0.724
 8566SOL     OW26596   0.935   0.354   1.831
 8566SOL    HW126597   1.032   0.371   1.847
 8566SOL    HW226598   0.882   0.390   1.907
 8567SOL     OW26599   1.042   1.989   2.157
 8567SOL    HW126600   0.994   2.073   2.181
 8567SOL    HW226601   1.073   1.943   2.240
 8568SOL     OW26602   5.558   1.927   0.310
 8568SOL    HW126603   5.612   1.991   0.257
 8568SOL    HW226604   5.614   1.847   0.333
 8569SOL     OW26605   5.450   2.199   5.479
 8569SOL    HW126606   5.544   2.181   5.509
 8569SOL    HW226607   5.417   2.122   5.425
 8570SOL     OW26608   1.150   1.694   4.720
 8570SOL    HW126609   1.052   1.712   4.720
 8570SOL    HW226610   1.168   1.607   4.767
 8571SOL     OW26611   0.775   6.911   4.972
 8571SOL    HW126612   0.833   6.973   4.920
 8571SOL    HW226613   0.697   6.882   4.916
 8572SOL     OW26614   1.661   4.338   5.226
 8572SOL    HW126615   1.631   4.357   5.320
 8572SOL    HW226616   1.644   4.242   5.204
 8573SOL     OW26617   3.161   5.988   6.237
 8573SOL    HW126618   3.099   6.034   6.300
 8573SOL    HW226619   3.251   6.031   6.241
 8574SOL     OW26620   6.148   6.774   6.103
 8574SOL    HW126621   6.184   6.836   6.033
 8574SOL    HW226622   6.212   6.767   6.179
 8575SOL     OW26623   3.097   1.788   3.463
 8575SOL    HW126624   3.165   1.769   3.533
 8575SOL    HW226625   3.015   1.828   3.505
 8576SOL     OW26626   1.862   4.836   3.995
 8576SOL    HW126627   1.864   4.760   4.060
 8576SOL    HW226628   1.838   4.921   4.043
 8577SOL     OW26629   1.612   0.118   6.228
 8577SOL    HW126630   1.711   0.132   6.225
 8577SOL    HW226631   1.567   0.207   6.230
 8578SOL     OW26632   6.712   4.741   5.955
 8578SOL    HW126633   6.718   4.660   6.013
 8578SOL    HW226634   6.628   4.738   5.902
 8579SOL     OW26635   1.451   6.101   1.874
 8579SOL    HW126636   1.526   6.136   1.930
 8579SOL    HW226637   1.381   6.172   1.864
 8580SOL     OW26638   1.854   5.765   0.650
 8580SOL    HW126639   1.785   5.771   0.578
 8580SOL    HW226640   1.844   5.842   0.713
 8581SOL     OW26641   3.416   4.574   1.241
 8581SOL    HW126642   3.349   4.557   1.169
 8581SOL    HW226643   3.386   4.527   1.325
 8582SOL     OW26644   4.974   4.393   5.052
 8582SOL    HW126645   4.904   4.463   5.035
 8582SOL    HW226646   5.065   4.434   5.041
 8583SOL     OW26647   3.067   6.833   2.974
 8583SOL    HW126648   3.102   6.739   2.978
 8583SOL    HW226649   3.134   6.891   2.927
 8584SOL     OW26650   1.101   6.371   5.564
 8584SOL    HW126651   1.139   6.463   5.576
 8584SOL    HW226652   1.130   6.314   5.641
 8585SOL     OW26653   6.194   1.200   0.829
 8585SOL    HW126654   6.186   1.298   0.844
 8585SOL    HW226655   6.127   1.152   0.885
 8586SOL     OW26656   3.570   6.588   1.675
 8586SOL    HW126657   3.602   6.664   1.732
 8586SOL    HW226658   3.470   6.592   1.666
 8587SOL     OW26659   0.830   1.459   5.026
 8587SOL    HW126660   0.898   1.532   5.023
 8587SOL    HW226661   0.789   1.456   5.117
 8588SOL     OW26662   4.449   1.439   6.930
 8588SOL    HW126663   4.441   1.478   7.022
 8588SOL    HW226664   4.526   1.480   6.882
 8589SOL     OW26665   6.541   2.616   4.882
 8589SOL    HW126666   6.524   2.521   4.855
 8589SOL    HW226667   6.624   2.620   4.939
 8590SOL     OW26668   0.785   0.847   2.492
 8590SOL    HW126669   0.744   0.851   2.401
 8590SOL    HW226670   0.866   0.906   2.496
 8591SOL     OW26671   0.235   4.203   0.430
 8591SOL    HW126672   0.214   4.173   0.337
 8591SOL    HW226673   0.241   4.124   0.490
 8592SOL     OW26674   5.866   2.631   6.859
 8592SOL    HW126675   5.945   2.692   6.853
 8592SOL    HW226676   5.858   2.579   6.774
 8593SOL     OW26677   3.094   1.447   6.694
 8593SOL    HW126678   3.192   1.440   6.675
 8593SOL    HW226679   3.043   1.427   6.610
 8594SOL     OW26680   5.601   2.292   5.802
 8594SOL    HW126681   5.693   2.330   5.807
 8594SOL    HW226682   5.588   2.226   5.876
 8595SOL     OW26683   6.002   0.857   4.227
 8595SOL    HW126684   6.018   0.868   4.325
 8595SOL    HW226685   5.958   0.769   4.211
 8596SOL     OW26686   1.398   4.994   3.014
 8596SOL    HW126687   1.486   5.040   3.025
 8596SOL    HW226688   1.413   4.900   2.983
 8597SOL     OW26689   5.229   1.887   1.920
 8597SOL    HW126690   5.190   1.974   1.950
 8597SOL    HW226691   5.245   1.890   1.822
 8598SOL     OW26692   5.849   0.271   5.982
 8598SOL    HW126693   5.896   0.182   5.979
 8598SOL    HW226694   5.783   0.276   5.907
 8599SOL     OW26695   1.258   2.930   4.878
 8599SOL    HW126696   1.224   3.005   4.936
 8599SOL    HW226697   1.351   2.951   4.848
 8600SOL     OW26698   5.611   3.607   0.198
 8600SOL    HW126699   5.584   3.667   0.122
 8600SOL    HW226700   5.645   3.663   0.274
 8601SOL     OW26701   0.811   1.587   4.101
 8601SOL    HW126702   0.814   1.554   4.196
 8601SOL    HW226703   0.874   1.533   4.045
 8602SOL     OW26704   2.222   0.190   2.320
 8602SOL    HW126705   2.263   0.103   2.346
 8602SOL    HW226706   2.282   0.236   2.254
 8603SOL     OW26707   5.142   0.073   1.024
 8603SOL    HW126708   5.132   0.120   0.936
 8603SOL    HW226709   5.232   0.093   1.063
 8604SOL     OW26710   1.575   1.819   5.965
 8604SOL    HW126711   1.580   1.859   5.874
 8604SOL    HW226712   1.491   1.848   6.010
 8605SOL     OW26713   1.887   5.282   3.637
 8605SOL    HW126714   1.830   5.362   3.619
 8605SOL    HW226715   1.830   5.201   3.642
 8606SOL     OW26716   2.493   2.935   0.130
 8606SOL    HW126717   2.436   2.999   0.182
 8606SOL    HW226718   2.444   2.906   0.047
 8607SOL     OW26719   2.473   4.880   6.219
 8607SOL    HW126720   2.438   4.854   6.129
 8607SOL    HW226721   2.454   4.806   6.284
 8608SOL     OW26722   2.428   4.861   2.557
 8608SOL    HW126723   2.494   4.824   2.623
 8608SOL    HW226724   2.386   4.944   2.594
 8609SOL     OW26725   5.155   0.562   3.578
 8609SOL    HW126726   5.124   0.470   3.555
 8609SOL    HW226727   5.135   0.624   3.502
 8610SOL     OW26728   0.307   0.520   3.224
 8610SOL    HW126729   0.247   0.517   3.144
 8610SOL    HW226730   0.337   0.427   3.246
 8611SOL     OW26731   3.224   0.935   4.071
 8611SOL    HW126732   3.242   0.865   4.140
 8611SOL    HW226733   3.161   0.899   4.003
 8612SOL     OW26734   2.745   3.415   1.409
 8612SOL    HW126735   2.807   3.453   1.341
 8612SOL    HW226736   2.651   3.422   1.375
 8613SOL     OW26737   2.826   1.828   1.748
 8613SOL    HW126738   2.833   1.895   1.674
 8613SOL    HW226739   2.775   1.867   1.824
 8614SOL     OW26740   0.699   2.889   3.151
 8614SOL    HW126741   0.749   2.945   3.217
 8614SOL    HW226742   0.715   2.792   3.170
 8615SOL     OW26743   4.700   2.010   5.100
 8615SOL    HW126744   4.706   2.055   5.190
 8615SOL    HW226745   4.622   1.948   5.100
 8616SOL     OW26746   2.824   4.785   1.782
 8616SOL    HW126747   2.750   4.770   1.716
 8616SOL    HW226748   2.849   4.699   1.825
 8617SOL     OW26749   6.006   0.861   4.501
 8617SOL    HW126750   5.915   0.844   4.539
 8617SOL    HW226751   6.044   0.945   4.540
 8618SOL     OW26752   6.623   4.744   1.788
 8618SOL    HW126753   6.587   4.796   1.710
 8618SOL    HW226754   6.635   4.649   1.762
 8619SOL     OW26755   4.009   5.371   2.481
 8619SOL    HW126756   3.914   5.346   2.501
 8619SOL    HW226757   4.070   5.297   2.510
 8620SOL     OW26758   2.059   6.016   3.773
 8620SOL    HW126759   2.064   6.115   3.784
 8620SOL    HW226760   2.098   5.991   3.684
 8621SOL     OW26761   5.105   2.759   2.130
 8621SOL    HW126762   5.175   2.829   2.146
 8621SOL    HW226763   5.093   2.746   2.032
 8622SOL     OW26764   4.921   4.403   1.293
 8622SOL    HW126765   4.823   4.420   1.289
 8622SOL    HW226766   4.957   4.440   1.379
 8623SOL     OW26767   0.972   4.466   5.735
 8623SOL    HW126768   1.064   4.479   5.771
 8623SOL    HW226769   0.977   4.454   5.635
 8624SOL     OW26770   2.200   3.902   5.524
 8624SOL    HW126771   2.107   3.866   5.538
 8624SOL    HW226772   2.246   3.849   5.453
 8625SOL     OW26773   5.009   0.999   5.344
 8625SOL    HW126774   5.058   0.946   5.413
 8625SOL    HW226775   4.988   1.090   5.380
 8626SOL     OW26776   4.260   2.221   6.657
 8626SOL    HW126777   4.360   2.217   6.665
 8626SOL    HW226778   4.227   2.307   6.697
 8627SOL     OW26779   2.013   1.613   1.999
 8627SOL    HW126780   2.001   1.620   2.098
 8627SOL    HW226781   1.972   1.692   1.954
 8628SOL     OW26782   5.952   6.639   0.582
 8628SOL    HW126783   5.919   6.668   0.672
 8628SOL    HW226784   5.889   6.572   0.543
 8629SOL     OW26785   1.902   6.521   5.287
 8629SOL    HW126786   1.870   6.509   5.193
 8629SOL    HW226787   1.966   6.598   5.291
 8630SOL     OW26788   5.081   3.247   3.760
 8630SOL    HW126789   5.026   3.222   3.680
 8630SOL    HW226790   5.177   3.222   3.743
 8631SOL     OW26791   1.378   5.831   6.166
 8631SOL    HW126792   1.455   5.781   6.205
 8631SOL    HW226793   1.373   5.922   6.205
 8632SOL     OW26794   4.271   5.024   4.929
 8632SOL    HW126795   4.274   5.069   4.840
 8632SOL    HW226796   4.177   5.019   4.962
 8633SOL     OW26797   5.991   2.731   6.071
 8633SOL    HW126798   5.965   2.810   6.016
 8633SOL    HW226799   5.910   2.692   6.115
 8634SOL     OW26800   4.621   3.917   6.352
 8634SOL    HW126801   4.685   3.850   6.388
 8634SOL    HW226802   4.643   4.008   6.388
 8635SOL     OW26803   5.363   2.728   6.475
 8635SOL    HW126804   5.400   2.796   6.411
 8635SOL    HW226805   5.354   2.770   6.566
 8636SOL     OW26806   5.629   6.313   0.973
 8636SOL    HW126807   5.558   6.349   0.913
 8636SOL    HW226808   5.590   6.289   1.062
 8637SOL     OW26809   1.905   1.614   6.705
 8637SOL    HW126810   1.982   1.675   6.725
 8637SOL    HW226811   1.937   1.520   6.700
 8638SOL     OW26812   4.009   1.958   4.976
 8638SOL    HW126813   4.058   1.874   4.999
 8638SOL    HW226814   3.922   1.960   5.025
 8639SOL     OW26815   5.095   2.827   6.821
 8639SOL    HW126816   5.083   2.807   6.919
 8639SOL    HW226817   5.012   2.802   6.771
 8640SOL     OW26818   3.986   3.266   0.233
 8640SOL    HW126819   3.942   3.183   0.201
 8640SOL    HW226820   3.955   3.288   0.325
 8641SOL     OW26821   4.234   4.719   4.179
 8641SOL    HW126822   4.245   4.628   4.221
 8641SOL    HW226823   4.144   4.755   4.203
 8642SOL     OW26824   1.040   6.539   3.970
 8642SOL    HW126825   0.965   6.580   3.918
 8642SOL    HW226826   1.007   6.459   4.019
 8643SOL     OW26827   1.472   0.511   0.253
 8643SOL    HW126828   1.373   0.515   0.243
 8643SOL    HW226829   1.503   0.417   0.237
 8644SOL     OW26830   5.745   2.770   5.820
 8644SOL    HW126831   5.840   2.799   5.807
 8644SOL    HW226832   5.715   2.717   5.741
 8645SOL     OW26833   4.306   4.659   1.773
 8645SOL    HW126834   4.325   4.745   1.725
 8645SOL    HW226835   4.321   4.671   1.871
 8646SOL     OW26836   0.040   1.651   6.676
 8646SOL    HW126837   0.015   1.640   6.580
 8646SOL    HW226838   0.027   1.747   6.703
 8647SOL     OW26839   2.736   4.911   0.172
 8647SOL    HW126840   2.830   4.889   0.196
 8647SOL    HW226841   2.733   4.954   0.082
 8648SOL     OW26842   6.499   0.154   2.312
 8648SOL    HW126843   6.543   0.231   2.266
 8648SOL    HW226844   6.553   0.128   2.392
 8649SOL     OW26845   5.827   5.533   0.295
 8649SOL    HW126846   5.887   5.550   0.217
 8649SOL    HW226847   5.775   5.616   0.316
 8650SOL     OW26848   1.457   6.661   4.825
 8650SOL    HW126849   1.384   6.721   4.857
 8650SOL    HW226850   1.418   6.577   4.789
 8651SOL     OW26851   3.945   0.890   0.514
 8651SOL    HW126852   3.909   0.892   0.608
 8651SOL    HW226853   3.961   0.984   0.483
 8652SOL     OW26854   0.980   4.909   3.100
 8652SOL    HW126855   1.041   4.839   3.137
 8652SOL    HW226856   0.892   4.868   3.078
 8653SOL     OW26857   6.878   1.400   6.432
 8653SOL    HW126858   6.813   1.403   6.356
 8653SOL    HW226859   6.971   1.387   6.397
 8654SOL     OW26860   0.464   4.893   1.436
 8654SOL    HW126861   0.402   4.928   1.506
 8654SOL    HW226862   0.545   4.951   1.430
 8655SOL     OW26863   5.859   0.288   4.540
 8655SOL    HW126864   5.866   0.217   4.469
 8655SOL    HW226865   5.942   0.286   4.597
 8656SOL     OW26866   6.391   0.979   2.322
 8656SOL    HW126867   6.396   0.891   2.274
 8656SOL    HW226868   6.299   1.015   2.316
 8657SOL     OW26869   5.191   5.767   0.262
 8657SOL    HW126870   5.277   5.756   0.211
 8657SOL    HW226871   5.135   5.685   0.249
 8658SOL     OW26872   6.567   5.787   0.275
 8658SOL    HW126873   6.559   5.875   0.229
 8658SOL    HW226874   6.655   5.745   0.252
 8659SOL     OW26875   5.478   2.424   2.677
 8659SOL    HW126876   5.449   2.486   2.750
 8659SOL    HW226877   5.467   2.329   2.708
 8660SOL     OW26878   6.542   3.435   1.732
 8660SOL    HW126879   6.475   3.478   1.671
 8660SOL    HW226880   6.504   3.350   1.769
 8661SOL     OW26881   6.564   3.508   1.295
 8661SOL    HW126882   6.494   3.579   1.294
 8661SOL    HW226883   6.626   3.524   1.372
 8662SOL     OW26884   4.235   5.417   2.021
 8662SOL    HW126885   4.213   5.384   2.113
 8662SOL    HW226886   4.165   5.387   1.957
 8663SOL     OW26887   2.335   5.525   2.279
 8663SOL    HW126888   2.258   5.587   2.293
 8663SOL    HW226889   2.404   5.569   2.222
 8664SOL     OW26890   2.072   4.944   1.462
 8664SOL    HW126891   2.131   4.985   1.532
 8664SOL    HW226892   2.089   4.846   1.458
 8665SOL     OW26893   5.899   5.471   4.915
 8665SOL    HW126894   5.912   5.427   4.826
 8665SOL    HW226895   5.865   5.403   4.981
 8666SOL     OW26896   5.855   0.987   4.001
 8666SOL    HW126897   5.939   0.961   4.049
 8666SOL    HW226898   5.837   0.920   3.929
 8667SOL     OW26899   5.058   2.047   3.873
 8667SOL    HW126900   5.097   2.138   3.872
 8667SOL    HW226901   5.015   2.030   3.962
 8668SOL     OW26902   5.147   3.907   3.619
 8668SOL    HW126903   5.212   3.903   3.695
 8668SOL    HW226904   5.059   3.871   3.647
 8669SOL     OW26905   0.321   6.227   6.691
 8669SOL    HW126906   0.362   6.253   6.603
 8669SOL    HW226907   0.260   6.149   6.677
 8670SOL     OW26908   3.824   5.495   6.318
 8670SOL    HW126909   3.823   5.432   6.396
 8670SOL    HW226910   3.732   5.500   6.278
 8671SOL     OW26911   0.937   1.722   3.349
 8671SOL    HW126912   0.955   1.739   3.446
 8671SOL    HW226913   0.876   1.644   3.339
 8672SOL     OW26914   0.356   6.304   3.404
 8672SOL    HW126915   0.406   6.285   3.488
 8672SOL    HW226916   0.286   6.234   3.390
 8673SOL     OW26917   6.027   2.207   0.441
 8673SOL    HW126918   6.012   2.303   0.417
 8673SOL    HW226919   5.939   2.161   0.450
 8674SOL     OW26920   5.749   5.355   2.792
 8674SOL    HW126921   5.821   5.314   2.736
 8674SOL    HW226922   5.781   5.363   2.887
 8675SOL     OW26923   4.567   1.540   4.861
 8675SOL    HW126924   4.564   1.523   4.960
 8675SOL    HW226925   4.653   1.586   4.838
 8676SOL     OW26926   5.418   6.788   3.065
 8676SOL    HW126927   5.468   6.772   3.150
 8676SOL    HW226928   5.421   6.706   3.008
 8677SOL     OW26929   2.310   5.736   5.713
 8677SOL    HW126930   2.373   5.687   5.774
 8677SOL    HW226931   2.333   5.716   5.618
 8678SOL     OW26932   0.938   6.770   0.599
 8678SOL    HW126933   0.879   6.700   0.558
 8678SOL    HW226934   0.893   6.859   0.591
 8679SOL     OW26935   1.387   1.566   3.283
 8679SOL    HW126936   1.399   1.521   3.372
 8679SOL    HW226937   1.301   1.617   3.282
 8680SOL     OW26938   5.752   3.907   0.018
 8680SOL    HW126939   5.822   3.839   0.037
 8680SOL    HW226940   5.719   3.895   6.948
 8681SOL     OW26941   4.871   5.464   1.730
 8681SOL    HW126942   4.820   5.544   1.698
 8681SOL    HW226943   4.815   5.382   1.718
 8682SOL     OW26944   6.198   0.410   2.609
 8682SOL    HW126945   6.185   0.334   2.545
 8682SOL    HW226946   6.217   0.374   2.700
 8683SOL     OW26947   1.709   2.283   5.398
 8683SOL    HW126948   1.783   2.334   5.354
 8683SOL    HW226949   1.638   2.264   5.331
 8684SOL     OW26950   6.312   3.587   4.486
 8684SOL    HW126951   6.271   3.534   4.412
 8684SOL    HW226952   6.285   3.683   4.477
 8685SOL     OW26953   6.220   3.102   6.294
 8685SOL    HW126954   6.211   3.031   6.225
 8685SOL    HW226955   6.130   3.142   6.313
 8686SOL     OW26956   6.628   0.836   1.938
 8686SOL    HW126957   6.716   0.883   1.943
 8686SOL    HW226958   6.556   0.896   1.972
 8687SOL     OW26959   5.447   4.984   2.948
 8687SOL    HW126960   5.413   4.988   3.042
 8687SOL    HW226961   5.437   4.891   2.913
 8688SOL     OW26962   1.371   5.075   6.514
 8688SOL    HW126963   1.446   5.119   6.563
 8688SOL    HW226964   1.387   4.977   6.510
 8689SOL     OW26965   4.135   2.648   0.750
 8689SOL    HW126966   4.151   2.590   0.830
 8689SOL    HW226967   4.166   2.601   0.668
 8690SOL     OW26968   1.235   3.538   3.979
 8690SOL    HW126969   1.199   3.459   4.028
 8690SOL    HW226970   1.164   3.608   3.973
 8691SOL     OW26971   4.223   2.009   6.036
 8691SOL    HW126972   4.177   1.934   6.082
 8691SOL    HW226973   4.155   2.075   6.003
 8692SOL     OW26974   3.764   0.705   4.468
 8692SOL    HW126975   3.675   0.666   4.492
 8692SOL    HW226976   3.831   0.684   4.539
 8693SOL     OW26977   6.014   0.344   0.070
 8693SOL    HW126978   6.107   0.378   0.088
 8693SOL    HW226979   5.962   0.414   0.020
 8694SOL     OW26980   5.783   1.398   5.133
 8694SOL    HW126981   5.695   1.395   5.088
 8694SOL    HW226982   5.854   1.423   5.067
 8695SOL     OW26983   3.756   2.843   6.007
 8695SOL    HW126984   3.795   2.917   6.062
 8695SOL    HW226985   3.732   2.878   5.917
 8696SOL     OW26986   2.932   5.740   5.492
 8696SOL    HW126987   2.935   5.643   5.514
 8696SOL    HW226988   2.899   5.752   5.398
 8697SOL     OW26989   0.435   4.168   6.541
 8697SOL    HW126990   0.413   4.178   6.444
 8697SOL    HW226991   0.388   4.239   6.594
 8698SOL     OW26992   4.664   6.132   5.025
 8698SOL    HW126993   4.709   6.047   5.053
 8698SOL    HW226994   4.613   6.170   5.102
 8699SOL     OW26995   1.877   3.279   5.197
 8699SOL    HW126996   1.937   3.252   5.122
 8699SOL    HW226997   1.802   3.214   5.205
 8700SOL     OW26998   0.285   0.765   4.735
 8700SOL    HW126999   0.384   0.782   4.737
 8700SOL    HW227000   0.240   0.822   4.804
 8701SOL     OW27001   1.723   1.632   0.651
 8701SOL    HW127002   1.669   1.562   0.605
 8701SOL    HW227003   1.771   1.687   0.583
 8702SOL     OW27004   5.230   5.055   1.620
 8702SOL    HW127005   5.214   4.991   1.544
 8702SOL    HW227006   5.153   5.050   1.684
 8703SOL     OW27007   2.661   4.754   6.886
 8703SOL    HW127008   2.639   4.715   6.976
 8703SOL    HW227009   2.600   4.714   6.817
 8704SOL     OW27010   0.036   4.337   3.296
 8704SOL    HW127011   0.070   4.276   3.224
 8704SOL    HW227012   6.986   4.292   3.346
 8705SOL     OW27013   4.975   1.733   6.604
 8705SOL    HW127014   4.919   1.812   6.628
 8705SOL    HW227015   5.053   1.763   6.549
 8706SOL     OW27016   4.641   2.281   0.351
 8706SOL    HW127017   4.616   2.230   0.433
 8706SOL    HW227018   4.570   2.270   0.282
 8707SOL     OW27019   1.410   2.321   4.412
 8707SOL    HW127020   1.466   2.244   4.441
 8707SOL    HW227021   1.442   2.355   4.324
 8708SOL     OW27022   4.042   1.487   3.507
 8708SOL    HW127023   3.960   1.479   3.450
 8708SOL    HW227024   4.045   1.410   3.571
 8709SOL     OW27025   6.552   6.652   6.806
 8709SOL    HW127026   6.633   6.632   6.752
 8709SOL    HW227027   6.539   6.751   6.811
 8710SOL     OW27028   2.399   2.187   3.642
 8710SOL    HW127029   2.325   2.252   3.660
 8710SOL    HW227030   2.389   2.150   3.550
 8711SOL     OW27031   2.015   6.458   2.958
 8711SOL    HW127032   2.111   6.453   2.931
 8711SOL    HW227033   1.957   6.465   2.876
 8712SOL     OW27034   3.484   1.560   4.649
 8712SOL    HW127035   3.567   1.517   4.613
 8712SOL    HW227036   3.505   1.610   4.733
 8713SOL     OW27037   6.809   3.555   2.189
 8713SOL    HW127038   6.888   3.510   2.230
 8713SOL    HW227039   6.791   3.515   2.099
 8714SOL     OW27040   1.465   0.362   6.207
 8714SOL    HW127041   1.467   0.383   6.109
 8714SOL    HW227042   1.476   0.446   6.260
 8715SOL     OW27043   3.992   1.183   0.433
 8715SOL    HW127044   3.937   1.262   0.406
 8715SOL    HW227045   4.087   1.197   0.403
 8716SOL     OW27046   0.108   6.096   0.148
 8716SOL    HW127047   0.014   6.062   0.141
 8716SOL    HW227048   0.114   6.187   0.106
 8717SOL     OW27049   2.613   3.410   5.477
 8717SOL    HW127050   2.699   3.421   5.527
 8717SOL    HW227051   2.620   3.331   5.415
 8718SOL     OW27052   1.771   2.058   5.886
 8718SOL    HW127053   1.838   2.131   5.869
 8718SOL    HW227054   1.781   2.025   5.979
 8719SOL     OW27055   3.477   0.274   0.216
 8719SOL    HW127056   3.456   0.366   0.249
 8719SOL    HW227057   3.566   0.276   0.169
 8720SOL     OW27058   1.032   6.660   6.102
 8720SOL    HW127059   0.956   6.718   6.131
 8720SOL    HW227060   1.068   6.694   6.015
 8721SOL     OW27061   6.485   1.547   0.699
 8721SOL    HW127062   6.445   1.526   0.610
 8721SOL    HW227063   6.491   1.464   0.754
 8722SOL     OW27064   3.193   0.703   1.255
 8722SOL    HW127065   3.157   0.625   1.306
 8722SOL    HW227066   3.275   0.674   1.204
 8723SOL     OW27067   5.385   0.293   2.096
 8723SOL    HW127068   5.321   0.245   2.037
 8723SOL    HW227069   5.463   0.325   2.043
 8724SOL     OW27070   5.904   0.130   4.340
 8724SOL    HW127071   5.915   0.031   4.350
 8724SOL    HW227072   5.812   0.149   4.306
 8725SOL     OW27073   1.383   5.671   5.756
 8725SOL    HW127074   1.337   5.623   5.831
 8725SOL    HW227075   1.398   5.766   5.782
 8726SOL     OW27076   6.877   0.664   1.854
 8726SOL    HW127077   6.841   0.757   1.862
 8726SOL    HW227078   6.976   0.666   1.865
 8727SOL     OW27079   6.013   0.179   0.692
 8727SOL    HW127080   5.920   0.212   0.676
 8727SOL    HW227081   6.009   0.094   0.745
 8728SOL     OW27082   5.469   1.024   2.726
 8728SOL    HW127083   5.438   1.079   2.649
 8728SOL    HW227084   5.430   1.061   2.811
 8729SOL     OW27085   3.673   5.006   5.013
 8729SOL    HW127086   3.612   5.084   5.029
 8729SOL    HW227087   3.696   4.963   5.100
 8730SOL     OW27088   5.159   4.240   2.985
 8730SOL    HW127089   5.246   4.194   2.970
 8730SOL    HW227090   5.099   4.183   3.041
 8731SOL     OW27091   1.195   3.789   2.977
 8731SOL    HW127092   1.204   3.815   3.073
 8731SOL    HW227093   1.138   3.856   2.929
 8732SOL     OW27094   5.478   4.273   2.304
 8732SOL    HW127095   5.489   4.373   2.301
 8732SOL    HW227096   5.432   4.242   2.221
 8733SOL     OW27097   1.364   5.828   0.486
 8733SOL    HW127098   1.345   5.740   0.443
 8733SOL    HW227099   1.291   5.851   0.551
 8734SOL     OW27100   0.454   3.375   3.182
 8734SOL    HW127101   0.509   3.374   3.098
 8734SOL    HW227102   0.505   3.333   3.256
 8735SOL     OW27103   1.077   2.732   5.257
 8735SOL    HW127104   1.159   2.754   5.203
 8735SOL    HW227105   1.105   2.691   5.344
 8736SOL     OW27106   6.890   5.612   2.218
 8736SOL    HW127107   6.889   5.701   2.172
 8736SOL    HW227108   6.904   5.540   2.150
 8737SOL     OW27109   2.488   6.883   0.042
 8737SOL    HW127110   2.551   6.815   0.079
 8737SOL    HW227111   2.539   6.950   7.012
 8738SOL     OW27112   2.664   5.735   3.504
 8738SOL    HW127113   2.721   5.807   3.542
 8738SOL    HW227114   2.598   5.774   3.439
 8739SOL     OW27115   5.300   5.530   5.813
 8739SOL    HW127116   5.227   5.552   5.749
 8739SOL    HW227117   5.382   5.582   5.790
 8740SOL     OW27118   4.166   1.454   3.263
 8740SOL    HW127119   4.198   1.362   3.243
 8740SOL    HW227120   4.145   1.461   3.361
 8741SOL     OW27121   2.170   0.994   2.682
 8741SOL    HW127122   2.093   0.979   2.743
 8741SOL    HW227123   2.163   1.085   2.640
 8742SOL     OW27124   4.731   0.447   1.834
 8742SOL    HW127125   4.773   0.421   1.921
 8742SOL    HW227126   4.774   0.530   1.800
 8743SOL     OW27127   1.717   0.504   0.748
 8743SOL    HW127128   1.741   0.410   0.771
 8743SOL    HW227129   1.784   0.567   0.787
 8744SOL     OW27130   4.087   2.789   1.027
 8744SOL    HW127131   4.050   2.697   1.044
 8744SOL    HW227132   4.130   2.791   0.937
 8745SOL     OW27133   6.300   2.423   5.737
 8745SOL    HW127134   6.362   2.430   5.659
 8745SOL    HW227135   6.289   2.513   5.779
 8746SOL     OW27136   4.905   5.931   3.763
 8746SOL    HW127137   4.845   5.903   3.838
 8746SOL    HW227138   4.963   6.007   3.794
 8747SOL     OW27139   0.620   1.304   2.573
 8747SOL    HW127140   0.668   1.392   2.573
 8747SOL    HW227141   0.677   1.234   2.615
 8748SOL     OW27142   0.979   2.253   4.450
 8748SOL    HW127143   0.960   2.315   4.527
 8748SOL    HW227144   1.028   2.173   4.483
 8749SOL     OW27145   1.950   0.405   5.324
 8749SOL    HW127146   2.022   0.460   5.282
 8749SOL    HW227147   1.965   0.401   5.423
 8750SOL     OW27148   3.195   3.522   5.639
 8750SOL    HW127149   3.221   3.605   5.592
 8750SOL    HW227150   3.109   3.537   5.688
 8751SOL     OW27151   6.760   1.479   2.378
 8751SOL    HW127152   6.857   1.501   2.391
 8751SOL    HW227153   6.734   1.403   2.437
 8752SOL     OW27154   4.013   2.832   6.895
 8752SOL    HW127155   3.928   2.822   6.843
 8752SOL    HW227156   4.031   2.929   6.912
 8753SOL     OW27157   2.717   2.436   6.514
 8753SOL    HW127158   2.724   2.533   6.489
 8753SOL    HW227159   2.663   2.428   6.598
 8754SOL     OW27160   2.298   4.611   5.488
 8754SOL    HW127161   2.362   4.576   5.557
 8754SOL    HW227162   2.317   4.708   5.472
 8755SOL     OW27163   2.134   0.633   1.170
 8755SOL    HW127164   2.185   0.647   1.254
 8755SOL    HW227165   2.116   0.535   1.158
 8756SOL     OW27166   1.792   3.377   3.305
 8756SOL    HW127167   1.792   3.472   3.277
 8756SOL    HW227168   1.770   3.371   3.403
 8757SOL     OW27169   4.863   5.861   0.297
 8757SOL    HW127170   4.942   5.848   0.237
 8757SOL    HW227171   4.780   5.872   0.243
 8758SOL     OW27172   4.618   6.240   2.673
 8758SOL    HW127173   4.645   6.145   2.689
 8758SOL    HW227174   4.531   6.258   2.719
 8759SOL     OW27175   5.580   3.360   6.855
 8759SOL    HW127176   5.536   3.440   6.896
 8759SOL    HW227177   5.510   3.304   6.810
 8760SOL     OW27178   3.499   0.398   4.841
 8760SOL    HW127179   3.445   0.474   4.876
 8760SOL    HW227180   3.450   0.355   4.765
 8761SOL     OW27181   5.844   2.039   1.119
 8761SOL    HW127182   5.887   2.127   1.140
 8761SOL    HW227183   5.877   1.970   1.183
 8762SOL     OW27184   0.570   5.700   4.472
 8762SOL    HW127185   0.504   5.679   4.399
 8762SOL    HW227186   0.576   5.623   4.535
 8763SOL     OW27187   6.052   0.079   5.620
 8763SOL    HW127188   6.017   7.016   5.657
 8763SOL    HW227189   6.129   0.111   5.676
 8764SOL     OW27190   4.649   6.837   6.044
 8764SOL    HW127191   4.670   6.924   6.000
 8764SOL    HW227192   4.681   6.839   6.139
 8765SOL     OW27193   4.781   0.873   4.389
 8765SOL    HW127194   4.854   0.858   4.455
 8765SOL    HW227195   4.802   0.953   4.333
 8766SOL     OW27196   4.115   4.259   5.303
 8766SOL    HW127197   4.172   4.313   5.241
 8766SOL    HW227198   4.030   4.309   5.320
 8767SOL     OW27199   5.161   6.146   3.002
 8767SOL    HW127200   5.102   6.140   2.921
 8767SOL    HW227201   5.124   6.214   3.065
 8768SOL     OW27202   0.882   2.862   0.977
 8768SOL    HW127203   0.954   2.894   0.915
 8768SOL    HW227204   0.918   2.788   1.034
 8769SOL     OW27205   6.765   1.166   2.274
 8769SOL    HW127206   6.721   1.224   2.206
 8769SOL    HW227207   6.725   1.074   2.270
 8770SOL     OW27208   4.657   4.264   2.481
 8770SOL    HW127209   4.675   4.362   2.481
 8770SOL    HW227210   4.700   4.223   2.400
 8771SOL     OW27211   0.811   2.633   6.355
 8771SOL    HW127212   0.722   2.622   6.310
 8771SOL    HW227213   0.859   2.711   6.314
 8772SOL     OW27214   4.763   0.598   6.272
 8772SOL    HW127215   4.840   0.658   6.294
 8772SOL    HW227216   4.790   0.533   6.201
 8773SOL     OW27217   5.336   2.758   3.153
 8773SOL    HW127218   5.278   2.676   3.155
 8773SOL    HW227219   5.397   2.753   3.074
 8774SOL     OW27220   0.769   0.270   0.445
 8774SOL    HW127221   0.775   0.369   0.455
 8774SOL    HW227222   0.759   0.247   0.348
 8775SOL     OW27223   5.084   1.142   5.678
 8775SOL    HW127224   5.076   1.217   5.612
 8775SOL    HW227225   5.048   1.173   5.766
 8776SOL     OW27226   4.873   3.462   1.242
 8776SOL    HW127227   4.867   3.373   1.197
 8776SOL    HW227228   4.938   3.457   1.318
 8777SOL     OW27229   6.759   4.423   3.401
 8777SOL    HW127230   6.738   4.335   3.359
 8777SOL    HW227231   6.763   4.494   3.331
 8778SOL     OW27232   5.485   2.864   5.914
 8778SOL    HW127233   5.465   2.844   6.010
 8778SOL    HW227234   5.577   2.833   5.892
 8779SOL     OW27235   1.828   5.835   2.348
 8779SOL    HW127236   1.872   5.792   2.427
 8779SOL    HW227237   1.871   5.802   2.264
 8780SOL     OW27238   0.463   0.077   2.766
 8780SOL    HW127239   0.415   0.105   2.683
 8780SOL    HW227240   0.416   7.022   2.806
 8781SOL     OW27241   5.180   0.526   3.836
 8781SOL    HW127242   5.088   0.502   3.867
 8781SOL    HW227243   5.175   0.562   3.742
 8782SOL     OW27244   6.165   0.737   1.663
 8782SOL    HW127245   6.188   0.652   1.709
 8782SOL    HW227246   6.248   0.779   1.627
 8783SOL     OW27247   6.795   4.176   3.574
 8783SOL    HW127248   6.846   4.139   3.496
 8783SOL    HW227249   6.828   4.268   3.593
 8784SOL     OW27250   6.629   6.729   6.344
 8784SOL    HW127251   6.582   6.795   6.402
 8784SOL    HW227252   6.575   6.645   6.337
 8785SOL     OW27253   6.561   5.170   6.503
 8785SOL    HW127254   6.600   5.079   6.514
 8785SOL    HW227255   6.576   5.202   6.409
 8786SOL     OW27256   2.927   1.234   1.601
 8786SOL    HW127257   2.861   1.221   1.674
 8786SOL    HW227258   2.907   1.318   1.551
 8787SOL     OW27259   3.602   0.371   2.447
 8787SOL    HW127260   3.591   0.467   2.422
 8787SOL    HW227261   3.513   0.331   2.469
 8788SOL     OW27262   6.736   1.702   5.549
 8788SOL    HW127263   6.757   1.699   5.646
 8788SOL    HW227264   6.712   1.796   5.523
 8789SOL     OW27265   6.363   4.366   5.684
 8789SOL    HW127266   6.343   4.329   5.774
 8789SOL    HW227267   6.279   4.403   5.643
 8790SOL     OW27268   6.159   0.791   6.240
 8790SOL    HW127269   6.138   0.698   6.208
 8790SOL    HW227270   6.216   0.837   6.172
 8791SOL     OW27271   4.815   6.904   4.759
 8791SOL    HW127272   4.815   6.847   4.677
 8791SOL    HW227273   4.733   6.960   4.761
 8792SOL     OW27274   3.144   5.338   2.999
 8792SOL    HW127275   3.123   5.240   3.005
 8792SOL    HW227276   3.239   5.349   2.969
 8793SOL     OW27277   0.977   4.544   2.889
 8793SOL    HW127278   0.882   4.568   2.869
 8793SOL    HW227279   0.991   4.539   2.987
 8794SOL     OW27280   5.528   1.043   3.274
 8794SOL    HW127281   5.488   0.965   3.226
 8794SOL    HW227282   5.623   1.055   3.244
 8795SOL     OW27283   1.185   4.480   5.109
 8795SOL    HW127284   1.233   4.542   5.172
 8795SOL    HW227285   1.113   4.530   5.061
 8796SOL     OW27286   5.746   2.608   2.908
 8796SOL    HW127287   5.796   2.572   2.829
 8796SOL    HW227288   5.686   2.682   2.877
 8797SOL     OW27289   0.106   0.006   5.552
 8797SOL    HW127290   0.176   7.016   5.482
 8797SOL    HW227291   0.016   0.009   5.508
 8798SOL     OW27292   4.422   6.171   6.536
 8798SOL    HW127293   4.328   6.168   6.502
 8798SOL    HW227294   4.479   6.221   6.472
 8799SOL     OW27295   2.526   5.189   3.323
 8799SOL    HW127296   2.608   5.229   3.282
 8799SOL    HW227297   2.525   5.207   3.422
 8800SOL     OW27298   5.372   5.521   6.357
 8800SOL    HW127299   5.438   5.470   6.302
 8800SOL    HW227300   5.286   5.471   6.360
 8801SOL     OW27301   6.013   1.908   4.521
 8801SOL    HW127302   5.993   1.818   4.559
 8801SOL    HW227303   6.104   1.907   4.479
 8802SOL     OW27304   1.883   6.030   5.843
 8802SOL    HW127305   1.817   5.961   5.813
 8802SOL    HW227306   1.976   5.995   5.830
 8803SOL     OW27307   0.144   0.272   6.779
 8803SOL    HW127308   0.063   0.316   6.817
 8803SOL    HW227309   0.133   0.172   6.783
 8804SOL     OW27310   2.531   6.015   1.278
 8804SOL    HW127311   2.445   5.969   1.300
 8804SOL    HW227312   2.597   5.996   1.351
 8805SOL     OW27313   3.963   5.483   3.094
 8805SOL    HW127314   3.979   5.581   3.106
 8805SOL    HW227315   3.988   5.434   3.177
 8806SOL     OW27316   2.628   5.121   0.655
 8806SOL    HW127317   2.703   5.060   0.630
 8806SOL    HW227318   2.553   5.068   0.693
 8807SOL     OW27319   4.299   1.774   0.404
 8807SOL    HW127320   4.362   1.845   0.372
 8807SOL    HW227321   4.352   1.697   0.439
 8808SOL     OW27322   6.839   2.291   5.376
 8808SOL    HW127323   6.894   2.279   5.293
 8808SOL    HW227324   6.743   2.299   5.351
 8809SOL     OW27325   2.615   4.590   3.799
 8809SOL    HW127326   2.553   4.544   3.862
 8809SOL    HW227327   2.598   4.557   3.706
 8810SOL     OW27328   5.858   0.801   5.148
 8810SOL    HW127329   5.927   0.835   5.212
 8810SOL    HW227330   5.901   0.742   5.081
 8811SOL     OW27331   2.953   0.637   2.602
 8811SOL    HW127332   2.988   0.599   2.687
 8811SOL    HW227333   2.857   0.612   2.591
 8812SOL     OW27334   2.386   0.692   0.689
 8812SOL    HW127335   2.442   0.675   0.770
 8812SOL    HW227336   2.299   0.643   0.697
 8813SOL     OW27337   1.877   5.031   2.951
 8813SOL    HW127338   1.960   5.054   3.001
 8813SOL    HW227339   1.797   5.060   3.004
 8814SOL     OW27340   6.091   6.994   0.847
 8814SOL    HW127341   6.042   6.953   0.924
 8814SOL    HW227342   6.144   6.923   0.801
 8815SOL     OW27343   5.572   6.785   0.999
 8815SOL    HW127344   5.590   6.735   0.915
 8815SOL    HW227345   5.476   6.813   1.001
 8816SOL     OW27346   1.207   6.842   6.368
 8816SOL    HW127347   1.124   6.786   6.376
 8816SOL    HW227348   1.256   6.842   6.455
 8817SOL     OW27349   0.337   3.938   3.987
 8817SOL    HW127350   0.246   3.950   4.026
 8817SOL    HW227351   0.360   4.017   3.930
 8818SOL     OW27352   0.985   6.110   3.774
 8818SOL    HW127353   1.043   6.036   3.807
 8818SOL    HW227354   1.008   6.131   3.679
 8819SOL     OW27355   6.442   4.478   6.366
 8819SOL    HW127356   6.381   4.414   6.318
 8819SOL    HW227357   6.488   4.429   6.440
 8820SOL     OW27358   3.351   1.349   4.935
 8820SOL    HW127359   3.422   1.359   5.004
 8820SOL    HW227360   3.303   1.436   4.924
 8821SOL     OW27361   1.177   5.769   0.810
 8821SOL    HW127362   1.119   5.765   0.891
 8821SOL    HW227363   1.270   5.742   0.833
 8822SOL     OW27364   0.511   0.490   3.508
 8822SOL    HW127365   0.602   0.491   3.467
 8822SOL    HW227366   0.479   0.584   3.520
 8823SOL     OW27367   1.879   1.661   2.231
 8823SOL    HW127368   1.889   1.648   2.330
 8823SOL    HW227369   1.844   1.753   2.214
 8824SOL     OW27370   1.562   0.805   0.691
 8824SOL    HW127371   1.633   0.873   0.672
 8824SOL    HW227372   1.592   0.715   0.660
 8825SOL     OW27373   1.086   1.502   1.669
 8825SOL    HW127374   1.003   1.449   1.689
 8825SOL    HW227375   1.062   1.598   1.658
 8826SOL     OW27376   1.211   3.439   0.975
 8826SOL    HW127377   1.148   3.498   0.925
 8826SOL    HW227378   1.248   3.488   1.053
 8827SOL     OW27379   3.885   0.144   3.595
 8827SOL    HW127380   3.896   0.065   3.656
 8827SOL    HW227381   3.797   0.138   3.548
 8828SOL     OW27382   4.082   4.994   6.736
 8828SOL    HW127383   4.125   5.057   6.800
 8828SOL    HW227384   4.140   4.913   6.724
 8829SOL     OW27385   5.604   1.804   1.303
 8829SOL    HW127386   5.690   1.829   1.348
 8829SOL    HW227387   5.557   1.887   1.272
 8830SOL     OW27388   1.935   1.177   2.578
 8830SOL    HW127389   2.026   1.215   2.561
 8830SOL    HW227390   1.869   1.217   2.514
 8831SOL     OW27391   6.008   2.373   2.383
 8831SOL    HW127392   5.987   2.277   2.403
 8831SOL    HW227393   5.992   2.391   2.286
 8832SOL     OW27394   6.597   5.936   4.244
 8832SOL    HW127395   6.594   5.957   4.341
 8832SOL    HW227396   6.526   5.989   4.196
 8833SOL     OW27397   4.154   4.174   6.233
 8833SOL    HW127398   4.087   4.151   6.304
 8833SOL    HW227399   4.202   4.092   6.204
 8834SOL     OW27400   5.530   3.912   4.705
 8834SOL    HW127401   5.596   3.984   4.725
 8834SOL    HW227402   5.440   3.953   4.688
 8835SOL     OW27403   5.421   0.865   6.167
 8835SOL    HW127404   5.341   0.854   6.107
 8835SOL    HW227405   5.447   0.961   6.171
 8836SOL     OW27406   4.795   1.888   1.172
 8836SOL    HW127407   4.802   1.809   1.111
 8836SOL    HW227408   4.789   1.972   1.118
 8837SOL     OW27409   0.154   0.213   2.480
 8837SOL    HW127410   0.217   0.250   2.548
 8837SOL    HW227411   0.149   0.275   2.402
 8838SOL     OW27412   1.885   4.018   3.317
 8838SOL    HW127413   1.886   4.118   3.313
 8838SOL    HW227414   1.940   3.981   3.242
 8839SOL     OW27415   3.815   6.422   2.195
 8839SOL    HW127416   3.832   6.417   2.097
 8839SOL    HW227417   3.870   6.352   2.241
 8840SOL     OW27418   6.897   0.537   2.601
 8840SOL    HW127419   6.908   0.469   2.529
 8840SOL    HW227420   6.852   0.618   2.564
 8841SOL     OW27421   6.347   1.537   3.753
 8841SOL    HW127422   6.274   1.537   3.822
 8841SOL    HW227423   6.340   1.620   3.698
 8842SOL     OW27424   3.245   3.508   3.711
 8842SOL    HW127425   3.319   3.574   3.703
 8842SOL    HW227426   3.277   3.427   3.759
 8843SOL     OW27427   1.635   3.354   4.071
 8843SOL    HW127428   1.686   3.270   4.089
 8843SOL    HW227429   1.537   3.335   4.075
 8844SOL     OW27430   6.622   1.301   4.747
 8844SOL    HW127431   6.569   1.282   4.664
 8844SOL    HW227432   6.684   1.378   4.731
 8845SOL     OW27433   2.838   4.135   0.344
 8845SOL    HW127434   2.796   4.197   0.410
 8845SOL    HW227435   2.782   4.052   0.335
 8846SOL     OW27436   3.865   4.878   4.021
 8846SOL    HW127437   3.924   4.958   4.016
 8846SOL    HW227438   3.880   4.820   3.941
 8847SOL     OW27439   2.268   1.456   3.798
 8847SOL    HW127440   2.351   1.427   3.846
 8847SOL    HW227441   2.268   1.555   3.789
 8848SOL     OW27442   2.681   1.846   2.534
 8848SOL    HW127443   2.772   1.861   2.574
 8848SOL    HW227444   2.629   1.784   2.593
 8849SOL     OW27445   3.321   4.926   3.129
 8849SOL    HW127446   3.239   4.916   3.073
 8849SOL    HW227447   3.306   4.884   3.218
 8850SOL     OW27448   2.773   0.846   0.547
 8850SOL    HW127449   2.839   0.858   0.622
 8850SOL    HW227450   2.822   0.816   0.465
 8851SOL     OW27451   1.145   4.790   2.156
 8851SOL    HW127452   1.163   4.707   2.103
 8851SOL    HW227453   1.190   4.868   2.111
 8852SOL     OW27454   4.162   3.331   5.714
 8852SOL    HW127455   4.124   3.287   5.796
 8852SOL    HW227456   4.172   3.429   5.731
 8853SOL     OW27457   3.091   0.137   5.553
 8853SOL    HW127458   3.000   0.176   5.565
 8853SOL    HW227459   3.158   0.210   5.548
 8854SOL     OW27460   3.021   1.202   6.155
 8854SOL    HW127461   2.944   1.155   6.113
 8854SOL    HW227462   3.021   1.186   6.254
 8855SOL     OW27463   6.855   6.032   0.135
 8855SOL    HW127464   6.833   5.942   0.097
 8855SOL    HW227465   6.776   6.066   0.186
 8856SOL     OW27466   5.861   0.916   6.153
 8856SOL    HW127467   5.925   0.985   6.121
 8856SOL    HW227468   5.906   0.858   6.221
 8857SOL     OW27469   6.410   2.195   4.184
 8857SOL    HW127470   6.432   2.203   4.281
 8857SOL    HW227471   6.461   2.119   4.144
 8858SOL     OW27472   1.370   2.232   5.650
 8858SOL    HW127473   1.292   2.289   5.623
 8858SOL    HW227474   1.432   2.286   5.708
 8859SOL     OW27475   7.001   0.444   4.675
 8859SOL    HW127476   0.075   0.451   4.698
 8859SOL    HW227477   6.991   0.425   4.578
 8860SOL     OW27478   1.494   3.481   3.105
 8860SOL    HW127479   1.578   3.533   3.088
 8860SOL    HW227480   1.420   3.543   3.131
 8861SOL     OW27481   3.867   2.016   5.939
 8861SOL    HW127482   3.887   1.980   6.030
 8861SOL    HW227483   3.939   2.079   5.912
 8862SOL     OW27484   6.421   0.844   3.530
 8862SOL    HW127485   6.391   0.871   3.439
 8862SOL    HW227486   6.353   0.873   3.598
 8863SOL     OW27487   1.522   5.694   4.457
 8863SOL    HW127488   1.443   5.743   4.493
 8863SOL    HW227489   1.592   5.685   4.529
 8864SOL     OW27490   1.918   3.127   6.310
 8864SOL    HW127491   2.014   3.154   6.308
 8864SOL    HW227492   1.869   3.172   6.235
 8865SOL     OW27493   3.503   1.837   5.700
 8865SOL    HW127494   3.524   1.864   5.607
 8865SOL    HW227495   3.445   1.755   5.700
 8866SOL     OW27496   5.371   6.782   4.194
 8866SOL    HW127497   5.408   6.780   4.101
 8866SOL    HW227498   5.281   6.827   4.192
 8867SOL     OW27499   5.205   3.691   3.143
 8867SOL    HW127500   5.162   3.620   3.199
 8867SOL    HW227501   5.173   3.682   3.048
 8868SOL     OW27502   6.532   3.387   0.608
 8868SOL    HW127503   6.585   3.309   0.643
 8868SOL    HW227504   6.435   3.374   0.630
 8869SOL     OW27505   4.413   5.620   3.969
 8869SOL    HW127506   4.361   5.684   4.025
 8869SOL    HW227507   4.506   5.611   4.005
 8870SOL     OW27508   4.320   0.109   0.472
 8870SOL    HW127509   4.221   0.120   0.476
 8870SOL    HW227510   4.360   0.188   0.425
 8871SOL     OW27511   1.549   0.940   4.038
 8871SOL    HW127512   1.507   0.886   3.966
 8871SOL    HW227513   1.477   0.981   4.095
 8872SOL     OW27514   1.253   4.216   5.083
 8872SOL    HW127515   1.288   4.173   5.166
 8872SOL    HW227516   1.223   4.309   5.104
 8873SOL     OW27517   6.877   4.974   1.968
 8873SOL    HW127518   6.799   4.940   2.022
 8873SOL    HW227519   6.956   4.986   2.029
 8874SOL     OW27520   2.741   6.250   1.455
 8874SOL    HW127521   2.840   6.256   1.468
 8874SOL    HW227522   2.698   6.222   1.541
 8875SOL     OW27523   6.778   3.310   4.944
 8875SOL    HW127524   6.787   3.379   4.872
 8875SOL    HW227525   6.868   3.274   4.967
 8876SOL     OW27526   1.695   0.264   4.442
 8876SOL    HW127527   1.680   0.344   4.384
 8876SOL    HW227528   1.614   0.206   4.441
 8877SOL     OW27529   2.497   1.665   4.156
 8877SOL    HW127530   2.593   1.637   4.153
 8877SOL    HW227531   2.447   1.604   4.218
 8878SOL     OW27532   0.101   5.575   0.896
 8878SOL    HW127533   0.184   5.626   0.919
 8878SOL    HW227534   0.037   5.636   0.849
 8879SOL     OW27535   5.172   4.946   1.363
 8879SOL    HW127536   5.259   4.981   1.328
 8879SOL    HW227537   5.116   4.913   1.286
 8880SOL     OW27538   6.031   5.529   4.356
 8880SOL    HW127539   6.067   5.528   4.263
 8880SOL    HW227540   5.980   5.614   4.371
 8881SOL     OW27541   6.321   6.795   4.901
 8881SOL    HW127542   6.412   6.762   4.922
 8881SOL    HW227543   6.255   6.721   4.911
 8882SOL     OW27544   5.382   1.480   0.562
 8882SOL    HW127545   5.437   1.511   0.639
 8882SOL    HW227546   5.305   1.427   0.596
 8883SOL     OW27547   1.668   0.289   5.354
 8883SOL    HW127548   1.767   0.295   5.363
 8883SOL    HW227549   1.640   0.337   5.271
 8884SOL     OW27550   6.097   4.820   6.165
 8884SOL    HW127551   6.192   4.789   6.169
 8884SOL    HW227552   6.075   4.875   6.246
 8885SOL     OW27553   0.196   3.127   0.669
 8885SOL    HW127554   0.287   3.103   0.636
 8885SOL    HW227555   0.147   3.177   0.597
 8886SOL     OW27556   3.913   6.368   5.410
 8886SOL    HW127557   3.863   6.295   5.456
 8886SOL    HW227558   4.007   6.371   5.445
 8887SOL     OW27559   2.700   1.593   1.649
 8887SOL    HW127560   2.739   1.680   1.679
 8887SOL    HW227561   2.723   1.522   1.715
 8888SOL     OW27562   1.505   1.831   0.935
 8888SOL    HW127563   1.557   1.747   0.925
 8888SOL    HW227564   1.514   1.866   1.028
 8889SOL     OW27565   5.561   6.967   5.375
 8889SOL    HW127566   5.584   6.898   5.306
 8889SOL    HW227567   5.585   0.034   5.341
 8890SOL     OW27568   5.901   5.232   3.789
 8890SOL    HW127569   5.968   5.208   3.720
 8890SOL    HW227570   5.898   5.161   3.860
 8891SOL     OW27571   5.355   3.499   5.216
 8891SOL    HW127572   5.391   3.533   5.303
 8891SOL    HW227573   5.267   3.454   5.232
 8892SOL     OW27574   3.709   5.570   2.746
 8892SOL    HW127575   3.709   5.529   2.837
 8892SOL    HW227576   3.758   5.657   2.749
 8893SOL     OW27577   0.737   0.051   2.702
 8893SOL    HW127578   0.736   6.995   2.641
 8893SOL    HW227579   0.644   0.079   2.723
 8894SOL     OW27580   4.307   2.171   5.631
 8894SOL    HW127581   4.372   2.098   5.608
 8894SOL    HW227582   4.355   2.245   5.677
 8895SOL     OW27583   6.389   1.883   1.408
 8895SOL    HW127584   6.339   1.797   1.398
 8895SOL    HW227585   6.427   1.910   1.319
 8896SOL     OW27586   1.853   2.933   5.184
 8896SOL    HW127587   1.931   2.989   5.155
 8896SOL    HW227588   1.858   2.919   5.283
 8897SOL     OW27589   1.978   2.839   3.431
 8897SOL    HW127590   1.935   2.929   3.433
 8897SOL    HW227591   1.915   2.773   3.390
 8898SOL     OW27592   5.735   3.780   4.511
 8898SOL    HW127593   5.817   3.793   4.566
 8898SOL    HW227594   5.654   3.793   4.568
 8899SOL     OW27595   2.336   4.842   6.885
 8899SOL    HW127596   2.267   4.914   6.894
 8899SOL    HW227597   2.372   4.818   6.975
 8900SOL     OW27598   5.444   2.700   2.339
 8900SOL    HW127599   5.356   2.733   2.373
 8900SOL    HW227600   5.450   2.601   2.351
 8901SOL     OW27601   2.278   1.517   4.300
 8901SOL    HW127602   2.302   1.488   4.393
 8901SOL    HW227603   2.261   1.615   4.299
 8902SOL     OW27604   3.492   6.615   6.950
 8902SOL    HW127605   3.470   6.529   6.904
 8902SOL    HW227606   3.504   6.598   0.024
 8903SOL     OW27607   0.567   1.546   4.780
 8903SOL    HW127608   0.499   1.503   4.721
 8903SOL    HW227609   0.649   1.488   4.784
 8904SOL     OW27610   5.805   5.489   3.867
 8904SOL    HW127611   5.833   5.396   3.841
 8904SOL    HW227612   5.880   5.534   3.914
 8905SOL     OW27613   2.111   3.901   4.394
 8905SOL    HW127614   2.111   3.965   4.471
 8905SOL    HW227615   2.124   3.808   4.428
 8906SOL     OW27616   6.960   6.878   6.995
 8906SOL    HW127617   6.901   6.914   0.043
 8906SOL    HW227618   6.912   6.807   6.944
 8907SOL     OW27619   3.270   1.948   4.393
 8907SOL    HW127620   3.305   1.903   4.476
 8907SOL    HW227621   3.214   2.027   4.419
 8908SOL     OW27622   1.281   3.463   6.525
 8908SOL    HW127623   1.372   3.504   6.518
 8908SOL    HW227624   1.289   3.364   6.533
 8909SOL     OW27625   1.760   0.797   5.528
 8909SOL    HW127626   1.760   0.890   5.564
 8909SOL    HW227627   1.826   0.741   5.580
 8910SOL     OW27628   1.168   2.908   6.447
 8910SOL    HW127629   1.073   2.878   6.441
 8910SOL    HW227630   1.228   2.836   6.413
 8911SOL     OW27631   4.364   2.290   4.876
 8911SOL    HW127632   4.342   2.381   4.910
 8911SOL    HW227633   4.288   2.256   4.820
 8912SOL     OW27634   4.194   2.208   0.928
 8912SOL    HW127635   4.279   2.196   0.980
 8912SOL    HW227636   4.155   2.118   0.906
 8913SOL     OW27637   4.959   5.225   0.082
 8913SOL    HW127638   4.991   5.170   0.005
 8913SOL    HW227639   4.893   5.292   0.050
 8914SOL     OW27640   4.172   0.977   5.157
 8914SOL    HW127641   4.179   1.067   5.115
 8914SOL    HW227642   4.252   0.922   5.131
 8915SOL     OW27643   0.889   2.542   3.596
 8915SOL    HW127644   0.910   2.484   3.674
 8915SOL    HW227645   0.841   2.624   3.627
 8916SOL     OW27646   0.287   3.551   0.563
 8916SOL    HW127647   0.298   3.501   0.477
 8916SOL    HW227648   0.199   3.526   0.604
 8917SOL     OW27649   6.200   4.310   6.238
 8917SOL    HW127650   6.252   4.242   6.185
 8917SOL    HW227651   6.108   4.275   6.254
 8918SOL     OW27652   6.890   3.967   1.308
 8918SOL    HW127653   6.882   3.987   1.406
 8918SOL    HW227654   6.805   3.992   1.262
 8919SOL     OW27655   4.273   3.660   1.139
 8919SOL    HW127656   4.193   3.603   1.157
 8919SOL    HW227657   4.275   3.736   1.203
 8920SOL     OW27658   1.016   6.361   6.331
 8920SOL    HW127659   1.005   6.294   6.405
 8920SOL    HW227660   1.099   6.415   6.346
 8921SOL     OW27661   2.543   2.155   2.908
 8921SOL    HW127662   2.601   2.232   2.880
 8921SOL    HW227663   2.601   2.078   2.935
 8922SOL     OW27664   3.482   5.219   1.654
 8922SOL    HW127665   3.428   5.200   1.572
 8922SOL    HW227666   3.553   5.149   1.663
 8923SOL     OW27667   1.309   3.586   5.963
 8923SOL    HW127668   1.358   3.612   5.880
 8923SOL    HW227669   1.284   3.668   6.015
 8924SOL     OW27670   3.279   5.683   5.622
 8924SOL    HW127671   3.224   5.756   5.580
 8924SOL    HW227672   3.225   5.638   5.693
 8925SOL     OW27673   0.788   1.030   2.874
 8925SOL    HW127674   0.769   1.113   2.926
 8925SOL    HW227675   0.803   0.954   2.937
 8926SOL     OW27676   5.655   4.115   6.386
 8926SOL    HW127677   5.629   4.156   6.473
 8926SOL    HW227678   5.689   4.023   6.400
 8927SOL     OW27679   1.254   1.448   4.423
 8927SOL    HW127680   1.227   1.498   4.340
 8927SOL    HW227681   1.291   1.513   4.490
 8928SOL     OW27682   6.504   0.897   5.651
 8928SOL    HW127683   6.543   0.838   5.580
 8928SOL    HW227684   6.453   0.971   5.609
 8929SOL     OW27685   6.772   3.407   4.130
 8929SOL    HW127686   6.798   3.401   4.226
 8929SOL    HW227687   6.854   3.418   4.074
 8930SOL     OW27688   1.918   4.124   4.345
 8930SOL    HW127689   1.831   4.077   4.331
 8930SOL    HW227690   1.991   4.075   4.297
 8931SOL     OW27691   3.192   3.005   1.407
 8931SOL    HW127692   3.272   2.977   1.460
 8931SOL    HW227693   3.110   2.995   1.464
 8932SOL     OW27694   5.511   0.573   0.339
 8932SOL    HW127695   5.512   0.614   0.248
 8932SOL    HW227696   5.600   0.586   0.383
 8933SOL     OW27697   1.232   2.235   6.529
 8933SOL    HW127698   1.209   2.257   6.624
 8933SOL    HW227699   1.259   2.319   6.482
 8934SOL     OW27700   3.204   5.218   4.224
 8934SOL    HW127701   3.164   5.287   4.164
 8934SOL    HW227702   3.131   5.168   4.270
 8935SOL     OW27703   5.555   3.954   1.646
 8935SOL    HW127704   5.585   4.013   1.722
 8935SOL    HW227705   5.457   3.969   1.630
 8936SOL     OW27706   1.246   3.541   1.240
 8936SOL    HW127707   1.237   3.455   1.292
 8936SOL    HW227708   1.246   3.618   1.304
 8937SOL     OW27709   0.278   0.806   4.459
 8937SOL    HW127710   0.281   0.733   4.528
 8937SOL    HW227711   0.183   0.836   4.447
 8938SOL     OW27712   6.914   0.899   0.168
 8938SOL    HW127713   6.950   0.975   0.114
 8938SOL    HW227714   6.830   0.928   0.214
 8939SOL     OW27715   6.436   3.728   4.139
 8939SOL    HW127716   6.364   3.667   4.172
 8939SOL    HW227717   6.404   3.822   4.141
 8940SOL     OW27718   5.830   1.887   1.440
 8940SOL    HW127719   5.816   1.943   1.521
 8940SOL    HW227720   5.911   1.920   1.390
 8941SOL     OW27721   6.634   2.552   2.477
 8941SOL    HW127722   6.683   2.468   2.454
 8941SOL    HW227723   6.553   2.560   2.420
 8942SOL     OW27724   0.671   6.359   4.281
 8942SOL    HW127725   0.727   6.284   4.316
 8942SOL    HW227726   0.647   6.342   4.186
 8943SOL     OW27727   3.829   5.297   0.385
 8943SOL    HW127728   3.823   5.379   0.329
 8943SOL    HW227729   3.812   5.216   0.327
 8944SOL     OW27730   4.955   5.707   4.561
 8944SOL    HW127731   4.907   5.653   4.492
 8944SOL    HW227732   4.928   5.677   4.652
 8945SOL     OW27733   0.062   2.292   4.462
 8945SOL    HW127734   0.037   2.215   4.403
 8945SOL    HW227735   0.141   2.339   4.424
 8946SOL     OW27736   3.948   0.830   3.858
 8946SOL    HW127737   3.959   0.732   3.840
 8946SOL    HW227738   3.852   0.849   3.879
 8947SOL     OW27739   1.664   3.107   5.683
 8947SOL    HW127740   1.756   3.126   5.718
 8947SOL    HW227741   1.667   3.102   5.583
 8948SOL     OW27742   5.960   5.867   3.359
 8948SOL    HW127743   6.042   5.846   3.412
 8948SOL    HW227744   5.924   5.784   3.318
 8949SOL     OW27745   3.921   5.744   0.559
 8949SOL    HW127746   3.910   5.770   0.655
 8949SOL    HW227747   4.019   5.743   0.536
 8950SOL     OW27748   4.064   3.013   1.198
 8950SOL    HW127749   4.118   2.991   1.279
 8950SOL    HW227750   4.070   2.938   1.133
 8951SOL     OW27751   2.262   0.960   5.064
 8951SOL    HW127752   2.166   0.990   5.065
 8951SOL    HW227753   2.271   0.877   5.119
 8952SOL     OW27754   0.295   5.166   3.431
 8952SOL    HW127755   0.351   5.108   3.490
 8952SOL    HW227756   0.350   5.199   3.355
 8953SOL     OW27757   1.189   4.515   0.922
 8953SOL    HW127758   1.271   4.499   0.866
 8953SOL    HW227759   1.160   4.429   0.964
 8954SOL     OW27760   0.178   0.062   3.906
 8954SOL    HW127761   0.130   0.069   3.819
 8954SOL    HW227762   0.271   0.098   3.896
 8955SOL     OW27763   6.937   4.056   3.356
 8955SOL    HW127764   6.985   4.022   3.275
 8955SOL    HW227765   6.840   4.032   3.349
 8956SOL     OW27766   1.697   0.550   6.028
 8956SOL    HW127767   1.607   0.584   6.000
 8956SOL    HW227768   1.748   0.624   6.072
 8957SOL     OW27769   2.498   4.866   1.056
 8957SOL    HW127770   2.596   4.864   1.037
 8957SOL    HW227771   2.484   4.889   1.153
 8958SOL     OW27772   1.035   2.137   5.759
 8958SOL    HW127773   1.052   2.133   5.660
 8958SOL    HW227774   1.088   2.212   5.799
 8959SOL     OW27775   1.753   3.906   3.029
 8959SOL    HW127776   1.740   4.001   2.998
 8959SOL    HW227777   1.665   3.859   3.029
 8960SOL     OW27778   5.765   5.103   4.066
 8960SOL    HW127779   5.782   5.101   4.164
 8960SOL    HW227780   5.779   5.012   4.027
 8961SOL     OW27781   3.810   1.602   3.676
 8961SOL    HW127782   3.902   1.579   3.707
 8961SOL    HW227783   3.814   1.639   3.583
 8962SOL     OW27784   6.483   5.565   1.465
 8962SOL    HW127785   6.567   5.612   1.440
 8962SOL    HW227786   6.496   5.515   1.550
 8963SOL     OW27787   3.927   6.626   5.153
 8963SOL    HW127788   3.848   6.610   5.094
 8963SOL    HW227789   4.011   6.614   5.101
 8964SOL     OW27790   5.898   3.155   2.595
 8964SOL    HW127791   5.823   3.090   2.578
 8964SOL    HW227792   5.923   3.153   2.692
 8965SOL     OW27793   3.078   5.071   6.990
 8965SOL    HW127794   3.007   5.130   6.952
 8965SOL    HW227795   3.168   5.114   6.976
 8966SOL     OW27796   6.553   4.367   0.395
 8966SOL    HW127797   6.511   4.457   0.381
 8966SOL    HW227798   6.595   4.337   0.310
 8967SOL     OW27799   4.301   1.477   2.748
 8967SOL    HW127800   4.245   1.410   2.699
 8967SOL    HW227801   4.279   1.569   2.715
 8968SOL     OW27802   3.435   5.887   2.542
 8968SOL    HW127803   3.419   5.810   2.604
 8968SOL    HW227804   3.500   5.859   2.471
 8969SOL     OW27805   0.160   0.172   3.426
 8969SOL    HW127806   0.202   0.254   3.464
 8969SOL    HW227807   0.136   0.188   3.330
 8970SOL     OW27808   1.231   2.283   6.795
 8970SOL    HW127809   1.168   2.206   6.806
 8970SOL    HW227810   1.302   2.278   6.865
 8971SOL     OW27811   5.500   6.660   1.386
 8971SOL    HW127812   5.420   6.714   1.410
 8971SOL    HW227813   5.472   6.580   1.333
 8972SOL     OW27814   5.355   3.818   0.754
 8972SOL    HW127815   5.344   3.904   0.802
 8972SOL    HW227816   5.366   3.744   0.820
 8973SOL     OW27817   0.030   2.760   2.404
 8973SOL    HW127818   0.030   2.679   2.345
 8973SOL    HW227819   7.017   2.735   2.494
 8974SOL     OW27820   1.727   3.114   4.106
 8974SOL    HW127821   1.801   3.051   4.087
 8974SOL    HW227822   1.665   3.074   4.174
 8975SOL     OW27823   0.769   5.777   6.787
 8975SOL    HW127824   0.691   5.825   6.748
 8975SOL    HW227825   0.745   5.744   6.878
 8976SOL     OW27826   0.415   5.407   0.548
 8976SOL    HW127827   0.454   5.356   0.471
 8976SOL    HW227828   0.357   5.347   0.602
 8977SOL     OW27829   6.629   3.904   6.900
 8977SOL    HW127830   6.567   3.979   6.923
 8977SOL    HW227831   6.721   3.926   6.930
 8978SOL     OW27832   5.969   7.022   4.821
 8978SOL    HW127833   5.874   0.025   4.804
 8978SOL    HW227834   5.989   0.009   4.918
 8979SOL     OW27835   1.448   5.144   5.845
 8979SOL    HW127836   1.446   5.139   5.745
 8979SOL    HW227837   1.472   5.055   5.882
 8980SOL     OW27838   5.423   2.361   6.136
 8980SOL    HW127839   5.470   2.442   6.100
 8980SOL    HW227840   5.333   2.353   6.093
 8981SOL     OW27841   4.877   1.868   5.338
 8981SOL    HW127842   4.810   1.942   5.332
 8981SOL    HW227843   4.831   1.780   5.325
 8982SOL     OW27844   0.554   1.841   0.811
 8982SOL    HW127845   0.611   1.895   0.873
 8982SOL    HW227846   0.475   1.804   0.861
 8983SOL     OW27847   0.788   5.320   0.778
 8983SOL    HW127848   0.791   5.398   0.715
 8983SOL    HW227849   0.699   5.318   0.824
 8984SOL     OW27850   6.618   6.619   4.292
 8984SOL    HW127851   6.620   6.527   4.330
 8984SOL    HW227852   6.524   6.653   4.290
 8985SOL     OW27853   2.615   1.953   1.884
 8985SOL    HW127854   2.518   1.979   1.885
 8985SOL    HW227855   2.671   2.033   1.907
 8986SOL     OW27856   4.713   4.981   2.722
 8986SOL    HW127857   4.763   4.959   2.638
 8986SOL    HW227858   4.618   4.951   2.713
 8987SOL     OW27859   2.916   0.006   1.199
 8987SOL    HW127860   2.954   0.046   1.283
 8987SOL    HW227861   2.818   7.010   1.213
 8988SOL     OW27862   2.276   4.982   0.363
 8988SOL    HW127863   2.326   5.066   0.345
 8988SOL    HW227864   2.183   5.004   0.395
 8989SOL     OW27865   4.849   3.340   2.598
 8989SOL    HW127866   4.922   3.334   2.530
 8989SOL    HW227867   4.768   3.292   2.565
 8990SOL     OW27868   2.489   5.608   1.559
 8990SOL    HW127869   2.458   5.513   1.563
 8990SOL    HW227870   2.452   5.652   1.477
 8991SOL     OW27871   2.712   1.166   1.405
 8991SOL    HW127872   2.739   1.072   1.386
 8991SOL    HW227873   2.792   1.219   1.432
 8992SOL     OW27874   0.066   2.737   6.848
 8992SOL    HW127875   0.070   2.806   6.920
 8992SOL    HW227876   0.099   2.776   6.762
 8993SOL     OW27877   4.491   2.535   2.693
 8993SOL    HW127878   4.553   2.586   2.633
 8993SOL    HW227879   4.431   2.477   2.638
 8994SOL     OW27880   1.140   5.880   3.853
 8994SOL    HW127881   1.221   5.822   3.867
 8994SOL    HW227882   1.074   5.863   3.926
 8995SOL     OW27883   1.390   2.003   5.820
 8995SOL    HW127884   1.323   2.001   5.895
 8995SOL    HW227885   1.368   2.079   5.759
 8996SOL     OW27886   0.599   4.323   1.604
 8996SOL    HW127887   0.512   4.358   1.640
 8996SOL    HW227888   0.588   4.227   1.577
 8997SOL     OW27889   4.583   1.043   6.768
 8997SOL    HW127890   4.593   1.079   6.861
 8997SOL    HW227891   4.525   0.962   6.770
 8998SOL     OW27892   0.591   1.679   4.534
 8998SOL    HW127893   0.572   1.777   4.523
 8998SOL    HW227894   0.556   1.648   4.623
 8999SOL     OW27895   4.148   0.633   6.975
 8999SOL    HW127896   4.151   0.533   6.977
 8999SOL    HW227897   4.159   0.665   6.882
 9000SOL     OW27898   2.528   3.825   6.710
 9000SOL    HW127899   2.528   3.850   6.807
 9000SOL    HW227900   2.609   3.863   6.666
 9001SOL     OW27901   1.752   5.570   2.830
 9001SOL    HW127902   1.695   5.489   2.817
 9001SOL    HW227903   1.694   5.650   2.846
 9002SOL     OW27904   0.449   4.930   5.146
 9002SOL    HW127905   0.470   5.015   5.098
 9002SOL    HW227906   0.358   4.936   5.187
 9003SOL     OW27907   5.903   3.098   1.386
 9003SOL    HW127908   5.923   3.176   1.327
 9003SOL    HW227909   5.843   3.126   1.461
 9004SOL     OW27910   4.421   6.718   1.561
 9004SOL    HW127911   4.448   6.713   1.658
 9004SOL    HW227912   4.502   6.704   1.504
 9005SOL     OW27913   6.185   1.867   4.243
 9005SOL    HW127914   6.228   1.811   4.173
 9005SOL    HW227915   6.209   1.831   4.333
 9006SOL     OW27916   1.447   6.174   0.870
 9006SOL    HW127917   1.367   6.129   0.832
 9006SOL    HW227918   1.476   6.248   0.809
 9007SOL     OW27919   3.421   5.558   3.636
 9007SOL    HW127920   3.325   5.584   3.629
 9007SOL    HW227921   3.479   5.634   3.606
 9008SOL     OW27922   6.863   5.430   2.806
 9008SOL    HW127923   6.765   5.410   2.815
 9008SOL    HW227924   6.883   5.516   2.853
 9009SOL     OW27925   2.956   6.293   0.557
 9009SOL    HW127926   2.891   6.251   0.494
 9009SOL    HW227927   2.945   6.252   0.648
 9010SOL     OW27928   0.907   0.060   4.780
 9010SOL    HW127929   0.825   0.052   4.723
 9010SOL    HW227930   0.927   0.157   4.796
 9011SOL     OW27931   3.970   1.794   1.537
 9011SOL    HW127932   3.911   1.772   1.614
 9011SOL    HW227933   3.955   1.728   1.463
 9012SOL     OW27934   2.809   5.117   1.237
 9012SOL    HW127935   2.765   5.181   1.174
 9012SOL    HW227936   2.902   5.097   1.204
 9013SOL     OW27937   6.089   5.933   4.695
 9013SOL    HW127938   6.139   5.916   4.780
 9013SOL    HW227939   6.117   5.866   4.626
 9014SOL     OW27940   0.895   1.596   0.747
 9014SOL    HW127941   0.970   1.640   0.797
 9014SOL    HW227942   0.920   1.501   0.727
 9015SOL     OW27943   6.077   0.520   0.693
 9015SOL    HW127944   6.033   0.579   0.760
 9015SOL    HW227945   6.010   0.455   0.656
 9016SOL     OW27946   6.316   6.171   6.361
 9016SOL    HW127947   6.369   6.087   6.359
 9016SOL    HW227948   6.248   6.170   6.288
 9017SOL     OW27949   5.556   2.458   3.095
 9017SOL    HW127950   5.613   2.378   3.115
 9017SOL    HW227951   5.614   2.532   3.062
 9018SOL     OW27952   4.447   1.690   5.571
 9018SOL    HW127953   4.351   1.716   5.564
 9018SOL    HW227954   4.483   1.719   5.660
 9019SOL     OW27955   0.851   6.544   0.821
 9019SOL    HW127956   0.874   6.528   0.917
 9019SOL    HW227957   0.916   6.495   0.763
 9020SOL     OW27958   1.519   3.483   1.896
 9020SOL    HW127959   1.477   3.405   1.851
 9020SOL    HW227960   1.616   3.465   1.910
 9021SOL     OW27961   6.553   6.998   3.852
 9021SOL    HW127962   6.566   6.911   3.805
 9021SOL    HW227963   6.457   0.000   3.848
 9022SOL     OW27964   2.860   0.831   1.424
 9022SOL    HW127965   2.807   0.774   1.488
 9022SOL    HW227966   2.837   0.806   1.330
 9023SOL     OW27967   3.989   3.145   2.884
 9023SOL    HW127968   4.043   3.223   2.914
 9023SOL    HW227969   4.006   3.128   2.786
 9024SOL     OW27970   1.568   5.618   6.216
 9024SOL    HW127971   1.543   5.569   6.299
 9024SOL    HW227972   1.581   5.553   6.141
 9025SOL     OW27973   6.445   5.933   1.005
 9025SOL    HW127974   6.481   5.945   0.913
 9025SOL    HW227975   6.464   5.840   1.037
 9026SOL     OW27976   3.991   3.157   3.226
 9026SOL    HW127977   3.991   3.251   3.259
 9026SOL    HW227978   4.064   3.145   3.159
 9027SOL     OW27979   3.134   1.754   4.018
 9027SOL    HW127980   3.151   1.774   4.114
 9027SOL    HW227981   3.208   1.697   3.982
 9028SOL     OW27982   2.562   4.213   6.032
 9028SOL    HW127983   2.570   4.307   6.065
 9028SOL    HW227984   2.554   4.214   5.932
 9029SOL     OW27985   3.590   5.561   5.198
 9029SOL    HW127986   3.526   5.592   5.268
 9029SOL    HW227987   3.559   5.593   5.108
 9030SOL     OW27988   1.884   1.087   3.021
 9030SOL    HW127989   1.909   1.042   2.935
 9030SOL    HW227990   1.922   1.179   3.023
 9031SOL     OW27991   4.386   5.424   5.862
 9031SOL    HW127992   4.370   5.512   5.906
 9031SOL    HW227993   4.445   5.437   5.783
 9032SOL     OW27994   4.166   2.491   0.966
 9032SOL    HW127995   4.179   2.395   0.940
 9032SOL    HW227996   4.091   2.498   1.031
 9033SOL     OW27997   1.776   3.488   3.667
 9033SOL    HW127998   1.752   3.392   3.654
 9033SOL    HW227999   1.799   3.504   3.763
 9034SOL     OW28000   2.707   6.551   4.903
 9034SOL    HW128001   2.729   6.643   4.935
 9034SOL    HW228002   2.666   6.556   4.812
 9035SOL     OW28003   0.493   6.879   5.214
 9035SOL    HW128004   0.558   6.954   5.228
 9035SOL    HW228005   0.414   6.913   5.161
 9036SOL     OW28006   1.350   1.711   4.555
 9036SOL    HW128007   1.334   1.785   4.489
 9036SOL    HW228008   1.269   1.700   4.612
 9037SOL     OW28009   1.341   4.229   6.677
 9037SOL    HW128010   1.292   4.165   6.619
 9037SOL    HW228011   1.356   4.314   6.627
 9038SOL     OW28012   4.796   0.574   5.263
 9038SOL    HW128013   4.798   0.475   5.271
 9038SOL    HW228014   4.778   0.599   5.168
 9039SOL     OW28015   1.443   4.367   4.463
 9039SOL    HW128016   1.391   4.445   4.498
 9039SOL    HW228017   1.536   4.398   4.439
 9040SOL     OW28018   2.888   1.482   3.148
 9040SOL    HW128019   2.809   1.439   3.191
 9040SOL    HW228020   2.969   1.469   3.205
 9041SOL     OW28021   0.953   1.501   1.942
 9041SOL    HW128022   0.900   1.569   1.890
 9041SOL    HW228023   1.032   1.546   1.984
 9042SOL     OW28024   2.974   5.551   3.968
 9042SOL    HW128025   2.972   5.636   4.020
 9042SOL    HW228026   2.906   5.556   3.894
 9043SOL     OW28027   2.066   1.102   5.477
 9043SOL    HW128028   2.142   1.037   5.490
 9043SOL    HW228029   2.069   1.138   5.384
 9044SOL     OW28030   6.353   1.623   1.345
 9044SOL    HW128031   6.274   1.629   1.284
 9044SOL    HW228032   6.327   1.576   1.430
 9045SOL     OW28033   3.252   1.784   2.270
 9045SOL    HW128034   3.160   1.806   2.238
 9045SOL    HW228035   3.309   1.866   2.269
 9046SOL     OW28036   3.232   3.676   4.314
 9046SOL    HW128037   3.153   3.712   4.364
 9046SOL    HW228038   3.303   3.649   4.379
 9047SOL     OW28039   1.586   3.395   5.523
 9047SOL    HW128040   1.649   3.470   5.542
 9047SOL    HW228041   1.507   3.401   5.584
 9048SOL     OW28042   6.386   3.315   6.221
 9048SOL    HW128043   6.311   3.250   6.229
 9048SOL    HW228044   6.471   3.271   6.252
 9049SOL     OW28045   4.647   6.707   6.507
 9049SOL    HW128046   4.721   6.689   6.572
 9049SOL    HW228047   4.575   6.639   6.519
 9050SOL     OW28048   0.671   5.470   5.708
 9050SOL    HW128049   0.655   5.393   5.646
 9050SOL    HW228050   0.769   5.491   5.710
 9051SOL     OW28051   4.575   6.235   1.234
 9051SOL    HW128052   4.555   6.332   1.246
 9051SOL    HW228053   4.570   6.211   1.137
 9052SOL     OW28054   2.184   3.809   4.143
 9052SOL    HW128055   2.209   3.713   4.148
 9052SOL    HW228056   2.161   3.843   4.235
 9053SOL     OW28057   2.306   1.866   3.436
 9053SOL    HW128058   2.209   1.887   3.452
 9053SOL    HW228059   2.348   1.939   3.382
 9054SOL     OW28060   1.483   0.525   2.121
 9054SOL    HW128061   1.439   0.581   2.051
 9054SOL    HW228062   1.561   0.574   2.160
 9055SOL     OW28063   0.244   3.817   3.468
 9055SOL    HW128064   0.220   3.759   3.390
 9055SOL    HW228065   0.313   3.771   3.524
 9056SOL     OW28066   5.082   0.173   2.364
 9056SOL    HW128067   4.983   0.186   2.354
 9056SOL    HW228068   5.120   0.133   2.281
 9057SOL     OW28069   5.927   5.352   5.795
 9057SOL    HW128070   6.001   5.348   5.728
 9057SOL    HW228071   5.842   5.322   5.752
 9058SOL     OW28072   2.538   1.300   3.634
 9058SOL    HW128073   2.547   1.206   3.601
 9058SOL    HW228074   2.520   1.300   3.732
 9059SOL     OW28075   6.914   1.126   4.041
 9059SOL    HW128076   6.875   1.167   4.124
 9059SOL    HW228077   6.969   1.194   3.993
 9060SOL     OW28078   0.165   4.157   2.084
 9060SOL    HW128079   0.126   4.247   2.062
 9060SOL    HW228080   0.130   4.089   2.019
 9061SOL     OW28081   4.392   5.659   2.497
 9061SOL    HW128082   4.323   5.709   2.550
 9061SOL    HW228083   4.461   5.623   2.559
 9062SOL     OW28084   1.395   4.832   2.374
 9062SOL    HW128085   1.391   4.747   2.322
 9062SOL    HW228086   1.332   4.826   2.452
 9063SOL     OW28087   2.242   0.577   2.522
 9063SOL    HW128088   2.255   0.626   2.608
 9063SOL    HW228089   2.197   0.637   2.456
 9064SOL     OW28090   6.366   4.514   4.532
 9064SOL    HW128091   6.352   4.441   4.598
 9064SOL    HW228092   6.349   4.479   4.440
 9065SOL     OW28093   3.495   5.429   6.730
 9065SOL    HW128094   3.515   5.467   6.821
 9065SOL    HW228095   3.518   5.497   6.660
 9066SOL     OW28096   5.529   0.458   6.931
 9066SOL    HW128097   5.451   0.497   6.980
 9066SOL    HW228098   5.541   0.362   6.957
 9067SOL     OW28099   5.918   6.634   5.480
 9067SOL    HW128100   5.833   6.669   5.519
 9067SOL    HW228101   5.900   6.592   5.391
 9068SOL     OW28102   3.362   0.612   5.110
 9068SOL    HW128103   3.282   0.576   5.061
 9068SOL    HW228104   3.380   0.705   5.080
 9069SOL     OW28105   3.556   1.971   1.921
 9069SOL    HW128106   3.589   2.056   1.962
 9069SOL    HW228107   3.622   1.938   1.854
 9070SOL     OW28108   0.718   2.861   5.889
 9070SOL    HW128109   0.630   2.815   5.875
 9070SOL    HW228110   0.706   2.960   5.888
 9071SOL     OW28111   5.303   6.496   0.989
 9071SOL    HW128112   5.241   6.480   0.912
 9071SOL    HW228113   5.396   6.509   0.954
 9072SOL     OW28114   5.250   0.509   1.845
 9072SOL    HW128115   5.154   0.513   1.870
 9072SOL    HW228116   5.280   0.413   1.845
 9073SOL     OW28117   3.667   6.623   1.299
 9073SOL    HW128118   3.716   6.628   1.211
 9073SOL    HW228119   3.696   6.700   1.356
 9074SOL     OW28120   1.475   0.970   0.913
 9074SOL    HW128121   1.449   0.953   1.008
 9074SOL    HW228122   1.514   0.886   0.874
 9075SOL     OW28123   0.507   0.020   1.523
 9075SOL    HW128124   0.532   6.947   1.521
 9075SOL    HW228125   0.548   0.067   1.445
 9076SOL     OW28126   5.565   1.360   4.951
 9076SOL    HW128127   5.513   1.436   4.912
 9076SOL    HW228128   5.511   1.276   4.944
 9077SOL     OW28129   4.999   1.118   6.982
 9077SOL    HW128130   4.992   1.034   0.013
 9077SOL    HW228131   5.005   1.197   0.021
 9078SOL     OW28132   5.026   3.544   0.367
 9078SOL    HW128133   5.115   3.564   0.408
 9078SOL    HW228134   5.037   3.476   0.295
 9079SOL     OW28135   1.803   6.378   3.914
 9079SOL    HW128136   1.903   6.375   3.912
 9079SOL    HW228137   1.768   6.297   3.961
 9080SOL     OW28138   5.855   2.689   6.489
 9080SOL    HW128139   5.941   2.707   6.440
 9080SOL    HW228140   5.816   2.776   6.520
 9081SOL     OW28141   2.998   0.035   2.292
 9081SOL    HW128142   3.047   6.998   2.353
 9081SOL    HW228143   3.013   0.130   2.319
 9082SOL     OW28144   2.400   5.994   6.038
 9082SOL    HW128145   2.374   6.068   5.976
 9082SOL    HW228146   2.466   6.028   6.105
 9083SOL     OW28147   3.747   4.284   5.430
 9083SOL    HW128148   3.722   4.197   5.386
 9083SOL    HW228149   3.833   4.272   5.480
 9084SOL     OW28150   2.048   2.722   6.158
 9084SOL    HW128151   2.005   2.648   6.107
 9084SOL    HW228152   2.021   2.810   6.118
 9085SOL     OW28153   1.700   5.288   0.967
 9085SOL    HW128154   1.662   5.311   0.877
 9085SOL    HW228155   1.693   5.189   0.982
 9086SOL     OW28156   6.780   4.170   1.144
 9086SOL    HW128157   6.730   4.135   1.064
 9086SOL    HW228158   6.830   4.252   1.118
 9087SOL     OW28159   4.976   3.264   1.967
 9087SOL    HW128160   4.905   3.200   1.996
 9087SOL    HW228161   4.934   3.344   1.925
 9088SOL     OW28162   6.818   5.856   0.850
 9088SOL    HW128163   6.904   5.822   0.812
 9088SOL    HW228164   6.837   5.918   0.925
 9089SOL     OW28165   4.028   6.011   5.599
 9089SOL    HW128166   3.959   5.969   5.658
 9089SOL    HW228167   3.997   6.100   5.568
 9090SOL     OW28168   6.252   0.071   3.508
 9090SOL    HW128169   6.283   0.150   3.454
 9090SOL    HW228170   6.152   0.065   3.501
 9091SOL     OW28171   2.751   3.533   0.463
 9091SOL    HW128172   2.831   3.492   0.507
 9091SOL    HW228173   2.689   3.569   0.533
 9092SOL     OW28174   0.030   1.321   0.311
 9092SOL    HW128175   0.128   1.332   0.326
 9092SOL    HW228176   7.005   1.335   0.397
 9093SOL     OW28177   1.720   5.987   6.464
 9093SOL    HW128178   1.730   5.936   6.378
 9093SOL    HW228179   1.778   5.946   6.534
 9094SOL     OW28180   0.267   4.825   3.170
 9094SOL    HW128181   0.242   4.736   3.209
 9094SOL    HW228182   0.188   4.886   3.175
 9095SOL     OW28183   4.113   3.545   6.205
 9095SOL    HW128184   4.097   3.472   6.272
 9095SOL    HW228185   4.079   3.516   6.115
 9096SOL     OW28186   5.509   3.975   2.034
 9096SOL    HW128187   5.588   3.966   2.094
 9096SOL    HW228188   5.539   4.004   1.943
 9097SOL     OW28189   1.186   2.515   6.641
 9097SOL    HW128190   1.227   2.607   6.642
 9097SOL    HW228191   1.221   2.462   6.718
 9098SOL     OW28192   4.010   2.505   7.009
 9098SOL    HW128193   4.088   2.481   0.044
 9098SOL    HW228194   3.925   2.492   0.038
 9099SOL     OW28195   3.705   3.488   0.178
 9099SOL    HW128196   3.674   3.514   0.086
 9099SOL    HW228197   3.751   3.566   0.220
 9100SOL     OW28198   0.986   3.280   3.361
 9100SOL    HW128199   0.916   3.348   3.338
 9100SOL    HW228200   1.077   3.320   3.353
 9101SOL     OW28201   2.537   2.547   3.256
 9101SOL    HW128202   2.507   2.546   3.352
 9101SOL    HW228203   2.629   2.508   3.251
 9102SOL     OW28204   2.565   6.959   1.989
 9102SOL    HW128205   2.662   6.967   2.012
 9102SOL    HW228206   2.514   0.009   2.034
 9103SOL     OW28207   6.532   3.454   0.353
 9103SOL    HW128208   6.466   3.497   0.292
 9103SOL    HW228209   6.494   3.450   0.446
 9104SOL     OW28210   5.724   6.396   3.108
 9104SOL    HW128211   5.794   6.426   3.043
 9104SOL    HW228212   5.643   6.453   3.100
 9105SOL     OW28213   1.990   1.413   0.870
 9105SOL    HW128214   2.006   1.352   0.948
 9105SOL    HW228215   1.944   1.496   0.902
 9106SOL     OW28216   6.317   4.112   0.562
 9106SOL    HW128217   6.406   4.154   0.577
 9106SOL    HW228218   6.330   4.020   0.524
 9107SOL     OW28219   3.224   0.975   6.206
 9107SOL    HW128220   3.138   1.003   6.163
 9107SOL    HW228221   3.211   0.888   6.254
 9108SOL     OW28222   5.015   4.202   5.502
 9108SOL    HW128223   5.050   4.180   5.593
 9108SOL    HW228224   5.022   4.121   5.443
 9109SOL     OW28225   0.540   2.671   2.455
 9109SOL    HW128226   0.504   2.578   2.449
 9109SOL    HW228227   0.475   2.729   2.503
 9110SOL     OW28228   1.861   4.016   3.654
 9110SOL    HW128229   1.825   3.974   3.571
 9110SOL    HW228230   1.918   3.950   3.702
 9111SOL     OW28231   4.315   1.925   0.654
 9111SOL    HW128232   4.314   1.910   0.556
 9111SOL    HW228233   4.240   1.874   0.696
 9112SOL     OW28234   0.663   4.640   4.650
 9112SOL    HW128235   0.661   4.726   4.600
 9112SOL    HW228236   0.636   4.656   4.745
 9113SOL     OW28237   4.629   0.973   1.988
 9113SOL    HW128238   4.708   0.947   1.932
 9113SOL    HW228239   4.657   0.983   2.083
 9114SOL     OW28240   0.971   4.165   1.979
 9114SOL    HW128241   0.963   4.166   1.879
 9114SOL    HW228242   0.882   4.185   2.019
 9115SOL     OW28243   0.206   4.966   5.342
 9115SOL    HW128244   0.202   4.971   5.442
 9115SOL    HW228245   0.216   4.871   5.314
 9116SOL     OW28246   6.563   1.043   1.042
 9116SOL    HW128247   6.662   1.057   1.045
 9116SOL    HW228248   6.534   1.038   0.946
 9117SOL     OW28249   6.356   2.638   0.018
 9117SOL    HW128250   6.387   2.713   0.076
 9117SOL    HW228251   6.428   2.612   6.978
 9118SOL     OW28252   6.278   4.562   0.545
 9118SOL    HW128253   6.289   4.619   0.627
 9118SOL    HW228254   6.355   4.577   0.483
 9119SOL     OW28255   4.728   1.233   1.591
 9119SOL    HW128256   4.641   1.218   1.543
 9119SOL    HW228257   4.797   1.171   1.556
 9120SOL     OW28258   6.107   1.584   6.031
 9120SOL    HW128259   6.189   1.557   6.082
 9120SOL    HW228260   6.104   1.683   6.022
 9121SOL     OW28261   2.823   1.831   5.230
 9121SOL    HW128262   2.826   1.770   5.309
 9121SOL    HW228263   2.867   1.918   5.253
 9122SOL     OW28264   1.690   4.153   2.611
 9122SOL    HW128265   1.714   4.240   2.653
 9122SOL    HW228266   1.669   4.167   2.514
 9123SOL     OW28267   2.454   0.577   4.223
 9123SOL    HW128268   2.396   0.505   4.186
 9123SOL    HW228269   2.400   0.635   4.285
 9124SOL     OW28270   5.832   6.442   0.012
 9124SOL    HW128271   5.793   6.374   6.974
 9124SOL    HW228272   5.765   6.515   0.028
 9125SOL     OW28273   4.760   4.030   1.195
 9125SOL    HW128274   4.736   3.987   1.108
 9125SOL    HW228275   4.694   4.004   1.265
 9126SOL     OW28276   5.678   3.101   1.954
 9126SOL    HW128277   5.684   3.169   1.881
 9126SOL    HW228278   5.582   3.084   1.976
 9127SOL     OW28279   6.472   1.220   6.044
 9127SOL    HW128280   6.404   1.194   6.111
 9127SOL    HW228281   6.455   1.171   5.958
 9128SOL     OW28282   5.859   1.532   5.356
 9128SOL    HW128283   5.921   1.602   5.320
 9128SOL    HW228284   5.809   1.489   5.281
 9129SOL     OW28285   0.687   2.403   0.433
 9129SOL    HW128286   0.672   2.472   0.362
 9129SOL    HW228287   0.765   2.430   0.490
 9130SOL     OW28288   6.928   3.419   6.629
 9130SOL    HW128289   6.903   3.360   6.553
 9130SOL    HW228290   7.022   3.398   6.658
 9131SOL     OW28291   6.359   2.827   5.130
 9131SOL    HW128292   6.393   2.895   5.195
 9131SOL    HW228293   6.376   2.859   5.037
 9132SOL     OW28294   0.404   5.349   4.415
 9132SOL    HW128295   0.422   5.321   4.321
 9132SOL    HW228296   0.322   5.407   4.418
 9133SOL     OW28297   3.956   5.476   1.649
 9133SOL    HW128298   3.915   5.387   1.666
 9133SOL    HW228299   3.935   5.505   1.555
 9134SOL     OW28300   4.666   5.293   1.055
 9134SOL    HW128301   4.603   5.353   1.104
 9134SOL    HW228302   4.631   5.199   1.056
 9135SOL     OW28303   6.650   6.973   1.943
 9135SOL    HW128304   6.682   6.897   1.888
 9135SOL    HW228305   6.566   6.947   1.991
 9136SOL     OW28306   4.982   5.583   6.418
 9136SOL    HW128307   5.053   5.513   6.419
 9136SOL    HW228308   5.015   5.665   6.371
 9137SOL     OW28309   5.675   1.410   0.743
 9137SOL    HW128310   5.701   1.421   0.648
 9137SOL    HW228311   5.601   1.474   0.766
 9138SOL     OW28312   0.321   5.366   6.458
 9138SOL    HW128313   0.310   5.407   6.548
 9138SOL    HW228314   0.418   5.366   6.433
 9139SOL     OW28315   2.898   1.914   3.588
 9139SOL    HW128316   2.806   1.928   3.623
 9139SOL    HW228317   2.952   1.997   3.600
 9140SOL     OW28318   6.602   3.496   2.734
 9140SOL    HW128319   6.577   3.400   2.716
 9140SOL    HW228320   6.542   3.556   2.681
 9141SOL     OW28321   5.529   0.436   0.705
 9141SOL    HW128322   5.494   0.388   0.786
 9141SOL    HW228323   5.522   0.535   0.720
 9142SOL     OW28324   0.664   2.444   0.817
 9142SOL    HW128325   0.604   2.379   0.771
 9142SOL    HW228326   0.637   2.537   0.792
 9143SOL     OW28327   6.006   3.677   6.475
 9143SOL    HW128328   5.955   3.658   6.391
 9143SOL    HW228329   5.951   3.649   6.554
 9144SOL     OW28330   2.306   4.940   4.644
 9144SOL    HW128331   2.307   5.014   4.576
 9144SOL    HW228332   2.335   4.976   4.733
 9145SOL     OW28333   0.189   5.446   0.258
 9145SOL    HW128334   0.246   5.529   0.253
 9145SOL    HW228335   0.246   5.366   0.239
 9146SOL     OW28336   5.345   2.736   3.442
 9146SOL    HW128337   5.265   2.790   3.468
 9146SOL    HW228338   5.374   2.760   3.350
 9147SOL     OW28339   6.280   0.401   4.937
 9147SOL    HW128340   6.310   0.491   4.967
 9147SOL    HW228341   6.216   0.364   5.005
 9148SOL     OW28342   5.232   6.106   1.426
 9148SOL    HW128343   5.180   6.186   1.457
 9148SOL    HW228344   5.252   6.116   1.329
 9149SOL     OW28345   5.960   3.667   3.519
 9149SOL    HW128346   5.956   3.583   3.464
 9149SOL    HW228347   6.034   3.725   3.485
 9150SOL     OW28348   3.446   5.778   1.495
 9150SOL    HW128349   3.433   5.815   1.403
 9150SOL    HW228350   3.445   5.678   1.491
 9151SOL     OW28351   1.978   4.314   3.326
 9151SOL    HW128352   2.060   4.258   3.322
 9151SOL    HW228353   1.940   4.311   3.418
 9152SOL     OW28354   2.170   4.047   4.638
 9152SOL    HW128355   2.246   4.111   4.649
 9152SOL    HW228356   2.180   3.973   4.705
 9153SOL     OW28357   1.208   3.213   6.287
 9153SOL    HW128358   1.113   3.193   6.308
 9153SOL    HW228359   1.267   3.140   6.321
 9154SOL     OW28360   4.558   4.760   0.175
 9154SOL    HW128361   4.585   4.682   0.118
 9154SOL    HW228362   4.539   4.839   0.117
 9155SOL     OW28363   1.781   3.620   2.340
 9155SOL    HW128364   1.809   3.525   2.350
 9155SOL    HW228365   1.694   3.635   2.387
 9156SOL     OW28366   0.925   2.075   6.769
 9156SOL    HW128367   0.878   2.085   6.857
 9156SOL    HW228368   0.873   2.122   6.698
 9157SOL     OW28369   1.043   4.291   6.299
 9157SOL    HW128370   1.032   4.361   6.228
 9157SOL    HW228371   1.135   4.297   6.338
 9158SOL     OW28372   5.445   3.466   4.392
 9158SOL    HW128373   5.443   3.522   4.475
 9158SOL    HW228374   5.539   3.459   4.359
 9159SOL     OW28375   2.008   0.761   1.758
 9159SOL    HW128376   2.022   0.736   1.662
 9159SOL    HW228377   2.068   0.837   1.782
 9160SOL     OW28378   6.346   6.430   5.482
 9160SOL    HW128379   6.400   6.459   5.403
 9160SOL    HW228380   6.278   6.500   5.503
 9161SOL     OW28381   5.239   4.226   4.124
 9161SOL    HW128382   5.326   4.275   4.123
 9161SOL    HW228383   5.243   4.151   4.190
 9162SOL     OW28384   4.147   1.206   3.809
 9162SOL    HW128385   4.233   1.257   3.802
 9162SOL    HW228386   4.157   1.134   3.878
 9163SOL     OW28387   1.335   2.200   4.984
 9163SOL    HW128388   1.302   2.285   5.024
 9163SOL    HW228389   1.257   2.141   4.960
 9164SOL     OW28390   2.879   7.022   6.833
 9164SOL    HW128391   2.885   0.025   6.737
 9164SOL    HW228392   2.969   0.004   6.876
 9165SOL     OW28393   6.437   1.385   5.321
 9165SOL    HW128394   6.504   1.398   5.249
 9165SOL    HW228395   6.409   1.473   5.358
 9166SOL     OW28396   4.144   5.863   1.909
 9166SOL    HW128397   4.189   5.823   1.829
 9166SOL    HW228398   4.158   5.804   1.988
 9167SOL     OW28399   1.945   2.272   6.143
 9167SOL    HW128400   1.886   2.215   6.200
 9167SOL    HW228401   2.033   2.227   6.130
 9168SOL     OW28402   0.068   6.606   6.189
 9168SOL    HW128403   0.139   6.538   6.205
 9168SOL    HW228404   7.007   6.559   6.160
 9169SOL     OW28405   6.257   0.295   6.089
 9169SOL    HW128406   6.349   0.261   6.111
 9169SOL    HW228407   6.191   0.251   6.149
 9170SOL     OW28408   1.310   6.490   6.898
 9170SOL    HW128409   1.225   6.456   6.858
 9170SOL    HW228410   1.350   6.419   6.956
 9171SOL     OW28411   4.368   5.104   0.773
 9171SOL    HW128412   4.440   5.113   0.704
 9171SOL    HW228413   4.395   5.034   0.840
 9172SOL     OW28414   4.754   0.903   2.783
 9172SOL    HW128415   4.740   0.889   2.881
 9172SOL    HW228416   4.670   0.880   2.733
 9173SOL     OW28417   6.276   3.817   5.916
 9173SOL    HW128418   6.233   3.729   5.894
 9173SOL    HW228419   6.213   3.891   5.892
 9174SOL     OW28420   6.407   4.596   1.560
 9174SOL    HW128421   6.357   4.533   1.501
 9174SOL    HW228422   6.505   4.591   1.538
 9175SOL     OW28423   0.872   6.900   6.008
 9175SOL    HW128424   0.781   6.908   5.967
 9175SOL    HW228425   0.910   6.991   6.024
 9176SOL     OW28426   1.873   0.489   3.394
 9176SOL    HW128427   1.817   0.565   3.364
 9176SOL    HW228428   1.874   0.486   3.494
 9177SOL     OW28429   0.986   5.066   4.360
 9177SOL    HW128430   1.034   4.997   4.414
 9177SOL    HW228431   1.028   5.075   4.270
 9178SOL     OW28432   1.955   5.567   0.910
 9178SOL    HW128433   2.026   5.637   0.900
 9178SOL    HW228434   1.978   5.488   0.853
 9179SOL     OW28435   1.713   5.079   3.642
 9179SOL    HW128436   1.637   5.088   3.706
 9179SOL    HW228437   1.769   5.000   3.667
 9180SOL     OW28438   6.516   2.865   3.568
 9180SOL    HW128439   6.516   2.767   3.585
 9180SOL    HW228440   6.604   2.892   3.528
 9181SOL     OW28441   6.230   2.700   4.465
 9181SOL    HW128442   6.136   2.670   4.446
 9181SOL    HW228443   6.246   2.789   4.423
 9182SOL     OW28444   2.270   6.645   3.117
 9182SOL    HW128445   2.286   6.673   3.022
 9182SOL    HW228446   2.351   6.600   3.153
 9183SOL     OW28447   4.323   4.779   0.310
 9183SOL    HW128448   4.323   4.875   0.340
 9183SOL    HW228449   4.402   4.762   0.253
 9184SOL     OW28450   4.582   2.386   0.970
 9184SOL    HW128451   4.519   2.463   0.985
 9184SOL    HW228452   4.538   2.301   0.997
 9185SOL     OW28453   4.723   6.610   5.012
 9185SOL    HW128454   4.794   6.648   5.072
 9185SOL    HW228455   4.702   6.675   4.939
 9186SOL     OW28456   5.855   6.652   4.847
 9186SOL    HW128457   5.954   6.665   4.843
 9186SOL    HW228458   5.830   6.566   4.803
 9187SOL     OW28459   3.391   1.559   0.670
 9187SOL    HW128460   3.355   1.525   0.583
 9187SOL    HW228461   3.446   1.640   0.654
 9188SOL     OW28462   1.773   6.853   1.564
 9188SOL    HW128463   1.765   6.779   1.497
 9188SOL    HW228464   1.712   6.928   1.539
 9189SOL     OW28465   2.969   5.718   2.089
 9189SOL    HW128466   2.959   5.814   2.114
 9189SOL    HW228467   2.881   5.682   2.058
 9190SOL     OW28468   1.877   3.880   5.284
 9190SOL    HW128469   1.965   3.890   5.239
 9190SOL    HW228470   1.832   3.797   5.252
 9191SOL     OW28471   5.669   1.332   0.222
 9191SOL    HW128472   5.700   1.371   0.135
 9191SOL    HW228473   5.569   1.322   0.220
 9192SOL     OW28474   0.215   2.308   6.146
 9192SOL    HW128475   0.165   2.233   6.103
 9192SOL    HW228476   0.294   2.271   6.195
 9193SOL     OW28477   3.864   3.588   5.312
 9193SOL    HW128478   3.791   3.639   5.356
 9193SOL    HW228479   3.833   3.557   5.221
 9194SOL     OW28480   3.382   1.396   3.286
 9194SOL    HW128481   3.395   1.460   3.210
 9194SOL    HW228482   3.471   1.376   3.328
 9195SOL     OW28483   0.895   3.200   2.172
 9195SOL    HW128484   0.847   3.154   2.246
 9195SOL    HW228485   0.987   3.161   2.162
 9196SOL     OW28486   5.782   0.529   3.616
 9196SOL    HW128487   5.788   0.434   3.643
 9196SOL    HW228488   5.858   0.551   3.555
 9197SOL     OW28489   2.685   4.887   1.308
 9197SOL    HW128490   2.750   4.961   1.288
 9197SOL    HW228491   2.723   4.800   1.276
 9198SOL     OW28492   6.106   4.484   6.604
 9198SOL    HW128493   6.017   4.455   6.569
 9198SOL    HW228494   6.093   4.544   6.683
 9199SOL     OW28495   6.780   3.219   5.357
 9199SOL    HW128496   6.855   3.160   5.327
 9199SOL    HW228497   6.757   3.284   5.285
 9200SOL     OW28498   3.092   6.047   6.942
 9200SOL    HW128499   3.128   6.016   6.854
 9200SOL    HW228500   3.065   6.143   6.935
 9201SOL     OW28501   0.067   3.554   0.225
 9201SOL    HW128502   0.144   3.492   0.238
 9201SOL    HW228503   7.016   3.506   0.178
 9202SOL     OW28504   0.948   6.358   3.365
 9202SOL    HW128505   0.955   6.312   3.276
 9202SOL    HW228506   0.987   6.299   3.436
 9203SOL     OW28507   6.542   3.052   6.089
 9203SOL    HW128508   6.450   3.059   6.052
 9203SOL    HW228509   6.594   3.134   6.064
 9204SOL     OW28510   4.858   2.980   5.199
 9204SOL    HW128511   4.862   3.075   5.231
 9204SOL    HW228512   4.916   2.970   5.118
 9205SOL     OW28513   5.308   5.963   3.607
 9205SOL    HW128514   5.403   5.934   3.621
 9205SOL    HW228515   5.303   6.024   3.528
 9206SOL     OW28516   3.268   5.343   3.521
 9206SOL    HW128517   3.235   5.388   3.438
 9206SOL    HW228518   3.342   5.397   3.561
 9207SOL     OW28519   4.590   4.414   6.618
 9207SOL    HW128520   4.681   4.441   6.651
 9207SOL    HW228521   4.532   4.394   6.697
 9208SOL     OW28522   5.714   4.625   3.689
 9208SOL    HW128523   5.635   4.684   3.703
 9208SOL    HW228524   5.684   4.531   3.672
 9209SOL     OW28525   4.550   0.986   0.424
 9209SOL    HW128526   4.550   1.075   0.379
 9209SOL    HW228527   4.504   0.919   0.367
 9210SOL     OW28528   1.158   1.919   1.915
 9210SOL    HW128529   1.183   2.012   1.888
 9210SOL    HW228530   1.082   1.922   1.980
 9211SOL     OW28531   6.334   2.808   5.740
 9211SOL    HW128532   6.243   2.797   5.779
 9211SOL    HW228533   6.334   2.773   5.646
 9212SOL     OW28534   4.601   5.720   4.372
 9212SOL    HW128535   4.537   5.649   4.402
 9212SOL    HW228536   4.641   5.764   4.453
 9213SOL     OW28537   5.206   4.539   5.000
 9213SOL    HW128538   5.198   4.639   5.003
 9213SOL    HW228539   5.298   4.512   5.029
 9214SOL     OW28540   6.840   3.327   5.597
 9214SOL    HW128541   6.934   3.361   5.601
 9214SOL    HW228542   6.821   3.291   5.506
 9215SOL     OW28543   1.984   3.357   2.088
 9215SOL    HW128544   1.906   3.383   2.030
 9215SOL    HW228545   2.064   3.411   2.063
 9216SOL     OW28546   2.826   0.344   3.446
 9216SOL    HW128547   2.880   0.356   3.529
 9216SOL    HW228548   2.863   0.269   3.391
 9217SOL     OW28549   6.270   3.584   6.317
 9217SOL    HW128550   6.193   3.566   6.378
 9217SOL    HW228551   6.332   3.505   6.317
 9218SOL     OW28552   2.616   0.881   0.123
 9218SOL    HW128553   2.711   0.885   0.154
 9218SOL    HW228554   2.613   0.886   0.024
 9219SOL     OW28555   5.465   3.853   6.482
 9219SOL    HW128556   5.513   3.879   6.566
 9219SOL    HW228557   5.366   3.850   6.500
 9220SOL     OW28558   0.921   5.968   1.433
 9220SOL    HW128559   0.891   6.063   1.439
 9220SOL    HW228560   0.908   5.924   1.521
 9221SOL     OW28561   1.624   1.043   2.882
 9221SOL    HW128562   1.722   1.053   2.898
 9221SOL    HW228563   1.597   0.948   2.895
 9222SOL     OW28564   2.330   5.566   6.000
 9222SOL    HW128565   2.359   5.594   6.092
 9222SOL    HW228566   2.405   5.520   5.954
 9223SOL     OW28567   1.121   2.105   4.068
 9223SOL    HW128568   1.041   2.129   4.122
 9223SOL    HW228569   1.134   2.006   4.069
 9224SOL     OW28570   0.800   5.370   4.463
 9224SOL    HW128571   0.731   5.396   4.530
 9224SOL    HW228572   0.756   5.329   4.383
 9225SOL     OW28573   3.413   6.113   6.309
 9225SOL    HW128574   3.400   6.198   6.258
 9225SOL    HW228575   3.476   6.053   6.259
 9226SOL     OW28576   6.758   6.271   1.065
 9226SOL    HW128577   6.749   6.306   1.159
 9226SOL    HW228578   6.776   6.348   1.003
 9227SOL     OW28579   1.862   5.848   1.390
 9227SOL    HW128580   1.948   5.899   1.386
 9227SOL    HW228581   1.824   5.853   1.483
 9228SOL     OW28582   3.002   1.467   6.459
 9228SOL    HW128583   3.088   1.428   6.425
 9228SOL    HW228584   2.977   1.547   6.404
 9229SOL     OW28585   1.420   5.359   5.155
 9229SOL    HW128586   1.457   5.366   5.248
 9229SOL    HW228587   1.496   5.360   5.090
 9230SOL     OW28588   5.168   2.876   3.643
 9230SOL    HW128589   5.146   2.915   3.733
 9230SOL    HW228590   5.210   2.946   3.585
 9231SOL     OW28591   1.049   3.030   4.673
 9231SOL    HW128592   1.145   3.002   4.678
 9231SOL    HW228593   1.026   3.086   4.753
 9232SOL     OW28594   3.674   5.468   7.011
 9232SOL    HW128595   3.579   5.496   0.004
 9232SOL    HW228596   3.691   5.380   0.032
 9233SOL     OW28597   6.204   6.114   2.198
 9233SOL    HW128598   6.222   6.076   2.107
 9233SOL    HW228599   6.118   6.078   2.233
 9234SOL     OW28600   3.997   5.460   6.690
 9234SOL    HW128601   4.089   5.426   6.667
 9234SOL    HW228602   3.929   5.395   6.657
 9235SOL     OW28603   1.650   2.864   3.916
 9235SOL    HW128604   1.631   2.783   3.860
 9235SOL    HW228605   1.571   2.883   3.975
 9236SOL     OW28606   1.616   4.562   6.291
 9236SOL    HW128607   1.609   4.468   6.257
 9236SOL    HW228608   1.701   4.603   6.256
 9237SOL     OW28609   0.352   6.400   3.728
 9237SOL    HW128610   0.428   6.349   3.688
 9237SOL    HW228611   0.280   6.337   3.755
 9238SOL     OW28612   1.938   1.927   0.136
 9238SOL    HW128613   1.992   1.953   0.216
 9238SOL    HW228614   1.849   1.893   0.165
 9239SOL     OW28615   6.746   4.020   0.160
 9239SOL    HW128616   6.820   4.036   0.096
 9239SOL    HW228617   6.775   3.952   0.228
 9240SOL     OW28618   4.922   2.477   1.971
 9240SOL    HW128619   4.854   2.404   1.978
 9240SOL    HW228620   4.878   2.566   1.983
 9241SOL     OW28621   0.978   5.365   5.664
 9241SOL    HW128622   0.989   5.266   5.670
 9241SOL    HW228623   1.009   5.407   5.749
 9242SOL     OW28624   1.374   5.077   0.360
 9242SOL    HW128625   1.381   4.978   0.363
 9242SOL    HW228626   1.284   5.104   0.325
 9243SOL     OW28627   0.164   7.021   1.815
 9243SOL    HW128628   0.255   7.017   1.856
 9243SOL    HW228629   0.174   0.014   1.716
 9244SOL     OW28630   3.655   5.307   6.055
 9244SOL    HW128631   3.634   5.267   6.144
 9244SOL    HW228632   3.750   5.337   6.053
 9245SOL     OW28633   1.190   5.493   3.705
 9245SOL    HW128634   1.102   5.491   3.658
 9245SOL    HW228635   1.220   5.400   3.723
 9246SOL     OW28636   6.169   6.269   1.966
 9246SOL    HW128637   6.181   6.255   2.064
 9246SOL    HW228638   6.123   6.190   1.926
 9247SOL     OW28639   2.020   6.276   3.620
 9247SOL    HW128640   1.923   6.251   3.617
 9247SOL    HW228641   2.043   6.331   3.540
 9248SOL     OW28642   2.443   2.274   4.843
 9248SOL    HW128643   2.375   2.306   4.908
 9248SOL    HW228644   2.530   2.320   4.859
 9249SOL     OW28645   3.439   3.987   0.914
 9249SOL    HW128646   3.427   3.888   0.913
 9249SOL    HW228647   3.352   4.032   0.934
 9250SOL     OW28648   6.007   3.146   3.945
 9250SOL    HW128649   5.991   3.053   3.913
 9250SOL    HW228650   6.105   3.167   3.940
 9251SOL     OW28651   3.469   1.784   2.727
 9251SOL    HW128652   3.513   1.870   2.751
 9251SOL    HW228653   3.380   1.803   2.686
 9252SOL     OW28654   4.924   0.387   3.804
 9252SOL    HW128655   4.975   0.355   3.725
 9252SOL    HW228656   4.899   0.483   3.792
 9253SOL     OW28657   5.527   5.869   5.931
 9253SOL    HW128658   5.591   5.932   5.887
 9253SOL    HW228659   5.577   5.790   5.966
 9254SOL     OW28660   5.676   5.098   2.914
 9254SOL    HW128661   5.590   5.047   2.917
 9254SOL    HW228662   5.657   5.196   2.915
 9255SOL     OW28663   4.368   4.249   0.113
 9255SOL    HW128664   4.302   4.194   0.063
 9255SOL    HW228665   4.392   4.203   0.198
 9256SOL     OW28666   2.684   0.599   2.598
 9256SOL    HW128667   2.671   0.698   2.605
 9256SOL    HW228668   2.624   0.562   2.528
 9257SOL     OW28669   0.649   4.144   3.085
 9257SOL    HW128670   0.742   4.178   3.072
 9257SOL    HW228671   0.640   4.106   3.178
 9258SOL     OW28672   2.942   3.212   2.439
 9258SOL    HW128673   2.933   3.283   2.509
 9258SOL    HW228674   2.914   3.124   2.477
 9259SOL     OW28675   0.937   2.407   0.208
 9259SOL    HW128676   0.956   2.386   0.112
 9259SOL    HW228677   1.021   2.402   0.261
 9260SOL     OW28678   5.774   1.219   4.864
 9260SOL    HW128679   5.707   1.293   4.858
 9260SOL    HW228680   5.769   1.176   4.954
 9261SOL     OW28681   2.569   1.563   0.709
 9261SOL    HW128682   2.500   1.635   0.702
 9261SOL    HW228683   2.652   1.591   0.660
 9262SOL     OW28684   6.983   5.141   5.331
 9262SOL    HW128685   0.045   5.090   5.327
 9262SOL    HW228686   6.908   5.079   5.352
 9263SOL     OW28687   5.077   0.031   1.379
 9263SOL    HW128688   5.000   0.005   1.437
 9263SOL    HW228689   5.150   6.987   1.388
 9264SOL     OW28690   4.710   4.822   0.376
 9264SOL    HW128691   4.799   4.788   0.344
 9264SOL    HW228692   4.642   4.810   0.303
 9265SOL     OW28693   3.411   2.046   0.918
 9265SOL    HW128694   3.433   2.108   0.993
 9265SOL    HW228695   3.492   2.032   0.861
 9266SOL     OW28696   1.937   0.064   1.193
 9266SOL    HW128697   1.933   0.136   1.124
 9266SOL    HW228698   2.014   0.003   1.172
 9267SOL     OW28699   0.191   2.956   4.437
 9267SOL    HW128700   0.120   3.022   4.463
 9267SOL    HW228701   0.219   2.973   4.342
 9268SOL     OW28702   0.965   5.298   2.587
 9268SOL    HW128703   1.025   5.260   2.657
 9268SOL    HW228704   0.904   5.226   2.553
 9269SOL     OW28705   3.871   1.633   6.229
 9269SOL    HW128706   3.838   1.637   6.324
 9269SOL    HW228707   3.806   1.682   6.170
 9270SOL     OW28708   4.689   6.987   6.536
 9270SOL    HW128709   4.660   6.899   6.499
 9270SOL    HW228710   4.629   0.035   6.502
 9271SOL     OW28711   5.567   0.151   0.707
 9271SOL    HW128712   5.565   0.245   0.673
 9271SOL    HW228713   5.659   0.113   0.695
 9272SOL     OW28714   0.860   6.071   4.667
 9272SOL    HW128715   0.921   6.051   4.744
 9272SOL    HW228716   0.804   6.151   4.689
 9273SOL     OW28717   5.599   6.955   2.847
 9273SOL    HW128718   5.639   6.975   2.936
 9273SOL    HW228719   5.515   6.901   2.859
 9274SOL     OW28720   6.120   1.789   0.078
 9274SOL    HW128721   6.176   1.740   0.144
 9274SOL    HW228722   6.149   1.885   0.074
 9275SOL     OW28723   6.487   0.744   0.579
 9275SOL    HW128724   6.423   0.725   0.505
 9275SOL    HW228725   6.441   0.732   0.667
 9276SOL     OW28726   2.049   3.475   1.454
 9276SOL    HW128727   1.960   3.437   1.477
 9276SOL    HW228728   2.038   3.569   1.421
 9277SOL     OW28729   4.607   3.681   0.289
 9277SOL    HW128730   4.598   3.582   0.278
 9277SOL    HW228731   4.520   3.719   0.321
 9278SOL     OW28732   2.136   0.409   5.677
 9278SOL    HW128733   2.151   0.448   5.769
 9278SOL    HW228734   2.044   0.369   5.673
 9279SOL     OW28735   4.301   1.180   2.175
 9279SOL    HW128736   4.382   1.212   2.225
 9279SOL    HW228737   4.227   1.163   2.239
 9280SOL     OW28738   2.048   1.917   3.416
 9280SOL    HW128739   2.028   1.844   3.481
 9280SOL    HW228740   2.028   2.006   3.457
 9281SOL     OW28741   2.563   3.566   6.721
 9281SOL    HW128742   2.496   3.509   6.770
 9281SOL    HW228743   2.517   3.648   6.686
 9282SOL     OW28744   5.076   0.884   3.812
 9282SOL    HW128745   5.026   0.928   3.737
 9282SOL    HW228746   5.169   0.862   3.782
 9283SOL     OW28747   5.656   0.420   4.230
 9283SOL    HW128748   5.746   0.465   4.226
 9283SOL    HW228749   5.593   0.476   4.284
 9284SOL     OW28750   3.243   3.300   5.210
 9284SOL    HW128751   3.227   3.325   5.306
 9284SOL    HW228752   3.304   3.221   5.207
 9285SOL     OW28753   5.075   2.521   1.034
 9285SOL    HW128754   5.045   2.440   1.085
 9285SOL    HW228755   5.001   2.589   1.032
 9286SOL     OW28756   5.367   5.573   1.110
 9286SOL    HW128757   5.428   5.499   1.138
 9286SOL    HW228758   5.418   5.659   1.106
 9287SOL     OW28759   2.997   4.783   6.793
 9287SOL    HW128760   2.990   4.699   6.740
 9287SOL    HW228761   2.965   4.766   6.886
 9288SOL     OW28762   4.750   1.279   3.258
 9288SOL    HW128763   4.731   1.201   3.317
 9288SOL    HW228764   4.677   1.346   3.266
 9289SOL     OW28765   3.810   1.099   2.596
 9289SOL    HW128766   3.784   1.195   2.587
 9289SOL    HW228767   3.806   1.054   2.507
 9290SOL     OW28768   5.752   1.322   3.058
 9290SOL    HW128769   5.807   1.402   3.083
 9290SOL    HW228770   5.785   1.242   3.108
 9291SOL     OW28771   1.072   6.179   4.230
 9291SOL    HW128772   1.050   6.104   4.292
 9291SOL    HW228773   1.052   6.266   4.275
 9292SOL     OW28774   1.812   2.832   6.954
 9292SOL    HW128775   1.910   2.815   6.964
 9292SOL    HW228776   1.796   2.931   6.959
 9293SOL     OW28777   5.372   2.849   6.714
 9293SOL    HW128778   5.444   2.811   6.773
 9293SOL    HW228779   5.289   2.862   6.767
 9294SOL     OW28780   4.236   0.579   5.637
 9294SOL    HW128781   4.331   0.566   5.664
 9294SOL    HW228782   4.231   0.636   5.555
 9295SOL     OW28783   5.405   1.590   4.919
 9295SOL    HW128784   5.316   1.612   4.958
 9295SOL    HW228785   5.430   1.659   4.851
 9296SOL     OW28786   1.410   5.593   6.987
 9296SOL    HW128787   1.435   5.627   6.896
 9296SOL    HW228788   1.380   5.669   0.021
 9297SOL     OW28789   6.948   0.003   2.411
 9297SOL    HW128790   6.941   0.045   2.320
 9297SOL    HW228791   7.002   6.943   2.404
 9298SOL     OW28792   1.150   6.238   5.795
 9298SOL    HW128793   1.071   6.177   5.793
 9298SOL    HW228794   1.188   6.241   5.888
 9299SOL     OW28795   0.780   2.478   5.280
 9299SOL    HW128796   0.717   2.413   5.236
 9299SOL    HW228797   0.829   2.432   5.353
 9300SOL     OW28798   6.996   4.613   5.735
 9300SOL    HW128799   6.975   4.703   5.772
 9300SOL    HW228800   6.912   4.563   5.719
 9301SOL     OW28801   5.292   4.984   4.306
 9301SOL    HW128802   5.245   5.070   4.283
 9301SOL    HW228803   5.239   4.907   4.272
 9302SOL     OW28804   2.495   2.571   4.190
 9302SOL    HW128805   2.437   2.504   4.144
 9302SOL    HW228806   2.550   2.619   4.121
 9303SOL     OW28807   2.667   4.006   0.846
 9303SOL    HW128808   2.624   3.923   0.810
 9303SOL    HW228809   2.745   4.031   0.788
 9304SOL     OW28810   4.036   4.632   1.759
 9304SOL    HW128811   4.133   4.615   1.740
 9304SOL    HW228812   4.024   4.653   1.856
 9305SOL     OW28813   3.188   1.295   0.872
 9305SOL    HW128814   3.236   1.372   0.914
 9305SOL    HW228815   3.233   1.270   0.787
 9306SOL     OW28816   0.168   5.688   5.056
 9306SOL    HW128817   0.135   5.753   5.124
 9306SOL    HW228818   0.266   5.701   5.041
 9307SOL     OW28819   1.681   3.281   1.316
 9307SOL    HW128820   1.735   3.303   1.236
 9307SOL    HW228821   1.633   3.194   1.302
 9308SOL     OW28822   2.647   3.306   0.561
 9308SOL    HW128823   2.658   3.349   0.472
 9308SOL    HW228824   2.689   3.363   0.632
 9309SOL     OW28825   3.563   4.441   5.579
 9309SOL    HW128826   3.628   4.375   5.541
 9309SOL    HW228827   3.580   4.531   5.538
 9310SOL     OW28828   4.884   5.169   6.517
 9310SOL    HW128829   4.941   5.091   6.544
 9310SOL    HW228830   4.905   5.194   6.422
 9311SOL     OW28831   4.516   4.887   1.414
 9311SOL    HW128832   4.590   4.824   1.391
 9311SOL    HW228833   4.507   4.893   1.513
 9312SOL     OW28834   1.422   3.665   1.034
 9312SOL    HW128835   1.397   3.746   0.981
 9312SOL    HW228836   1.367   3.661   1.117
 9313SOL     OW28837   0.541   1.036   0.873
 9313SOL    HW128838   0.525   1.040   0.774
 9313SOL    HW228839   0.636   1.060   0.893
 9314SOL     OW28840   5.199   4.657   0.020
 9314SOL    HW128841   5.190   4.722   6.968
 9314SOL    HW228842   5.254   4.698   0.093
 9315SOL     OW28843   6.446   0.169   4.965
 9315SOL    HW128844   6.383   0.099   4.997
 9315SOL    HW228845   6.398   0.256   4.957
 9316SOL     OW28846   5.602   6.445   5.891
 9316SOL    HW128847   5.676   6.431   5.826
 9316SOL    HW228848   5.515   6.419   5.849
 9317SOL     OW28849   5.286   4.891   3.625
 9317SOL    HW128850   5.268   4.981   3.663
 9317SOL    HW228851   5.225   4.824   3.665
 9318SOL     OW28852   5.625   0.650   6.058
 9318SOL    HW128853   5.591   0.732   6.105
 9318SOL    HW228854   5.624   0.573   6.121
 9319SOL     OW28855   2.758   2.625   6.816
 9319SOL    HW128856   2.832   2.637   6.749
 9319SOL    HW228857   2.684   2.689   6.795
 9320SOL     OW28858   3.583   0.488   5.178
 9320SOL    HW128859   3.631   0.500   5.091
 9320SOL    HW228860   3.498   0.540   5.175
 9321SOL     OW28861   6.919   0.428   4.167
 9321SOL    HW128862   6.959   0.510   4.125
 9321SOL    HW228863   6.931   0.350   4.106
 9322SOL     OW28864   6.715   3.698   6.174
 9322SOL    HW128865   6.737   3.642   6.254
 9322SOL    HW228866   6.617   3.694   6.156
 9323SOL     OW28867   1.491   0.746   5.904
 9323SOL    HW128868   1.395   0.773   5.895
 9323SOL    HW228869   1.526   0.716   5.816
 9324SOL     OW28870   1.390   4.288   1.068
 9324SOL    HW128871   1.435   4.328   1.147
 9324SOL    HW228872   1.295   4.267   1.090
 9325SOL     OW28873   5.924   0.912   6.934
 9325SOL    HW128874   5.974   0.907   6.848
 9325SOL    HW228875   5.897   1.007   6.951
 9326SOL     OW28876   2.641   5.389   0.681
 9326SOL    HW128877   2.659   5.291   0.677
 9326SOL    HW228878   2.596   5.419   0.597
 9327SOL     OW28879   5.207   0.261   3.093
 9327SOL    HW128880   5.230   0.168   3.122
 9327SOL    HW228881   5.112   0.281   3.120
 9328SOL     OW28882   2.772   1.353   4.941
 9328SOL    HW128883   2.784   1.359   5.040
 9328SOL    HW228884   2.724   1.435   4.908
 9329SOL     OW28885   6.248   3.765   0.800
 9329SOL    HW128886   6.215   3.708   0.875
 9329SOL    HW228887   6.176   3.777   0.732
 9330SOL     OW28888   6.616   0.329   5.774
 9330SOL    HW128889   6.557   0.335   5.693
 9330SOL    HW228890   6.626   0.419   5.815
 9331SOL     OW28891   1.942   0.833   0.421
 9331SOL    HW128892   1.935   0.826   0.321
 9331SOL    HW228893   1.999   0.911   0.445
 9332SOL     OW28894   3.984   4.384   0.977
 9332SOL    HW128895   3.970   4.294   1.019
 9332SOL    HW228896   3.906   4.405   0.917
 9333SOL     OW28897   3.913   3.653   6.893
 9333SOL    HW128898   3.947   3.577   6.948
 9333SOL    HW228899   3.858   3.617   6.817
 9334SOL     OW28900   5.590   6.078   3.660
 9334SOL    HW128901   5.641   6.160   3.685
 9334SOL    HW228902   5.590   6.014   3.736
 9335SOL     OW28903   0.798   0.989   6.901
 9335SOL    HW128904   0.793   0.914   6.836
 9335SOL    HW228905   0.894   1.013   6.917
 9336SOL     OW28906   3.521   6.061   5.704
 9336SOL    HW128907   3.430   6.028   5.729
 9336SOL    HW228908   3.512   6.149   5.657
 9337SOL     OW28909   3.911   1.365   4.688
 9337SOL    HW128910   3.918   1.413   4.776
 9337SOL    HW228911   3.834   1.402   4.636
 9338SOL     OW28912   6.189   0.054   1.846
 9338SOL    HW128913   6.151   0.111   1.774
 9338SOL    HW228914   6.261   7.019   1.808
 9339SOL     OW28915   6.389   6.457   1.138
 9339SOL    HW128916   6.305   6.499   1.172
 9339SOL    HW228917   6.467   6.486   1.194
 9340SOL     OW28918   4.525   4.545   3.273
 9340SOL    HW128919   4.432   4.521   3.248
 9340SOL    HW228920   4.564   4.606   3.204
 9341SOL     OW28921   0.072   5.071   1.014
 9341SOL    HW128922   0.059   5.130   0.935
 9341SOL    HW228923   7.017   5.010   1.023
 9342SOL     OW28924   3.429   6.443   3.513
 9342SOL    HW128925   3.366   6.466   3.587
 9342SOL    HW228926   3.515   6.492   3.526
 9343SOL     OW28927   5.345   4.196   1.660
 9343SOL    HW128928   5.252   4.187   1.624
 9343SOL    HW228929   5.343   4.254   1.742
 9344SOL     OW28930   5.361   6.624   2.782
 9344SOL    HW128931   5.276   6.580   2.810
 9344SOL    HW228932   5.358   6.721   2.807
 9345SOL     OW28933   6.590   5.863   1.790
 9345SOL    HW128934   6.601   5.889   1.885
 9345SOL    HW228935   6.609   5.941   1.731
 9346SOL     OW28936   5.699   1.098   1.202
 9346SOL    HW128937   5.700   1.027   1.132
 9346SOL    HW228938   5.616   1.091   1.256
 9347SOL     OW28939   3.241   3.923   0.165
 9347SOL    HW128940   3.313   3.902   0.232
 9347SOL    HW228941   3.251   3.865   0.085
 9348SOL     OW28942   2.609   6.362   2.779
 9348SOL    HW128943   2.549   6.333   2.704
 9348SOL    HW228944   2.593   6.458   2.799
 9349SOL     OW28945   6.828   5.045   2.328
 9349SOL    HW128946   6.838   4.988   2.410
 9349SOL    HW228947   6.905   5.030   2.267
 9350SOL     OW28948   6.973   2.770   5.182
 9350SOL    HW128949   0.041   2.806   5.202
 9350SOL    HW228950   6.978   2.670   5.177
 9351SOL     OW28951   3.180   6.523   6.466
 9351SOL    HW128952   3.207   6.433   6.502
 9351SOL    HW228953   3.257   6.565   6.418
 9352SOL     OW28954   4.065   1.809   6.159
 9352SOL    HW128955   3.999   1.737   6.179
 9352SOL    HW228956   4.082   1.863   6.243
 9353SOL     OW28957   1.312   4.209   0.794
 9353SOL    HW128958   1.366   4.292   0.783
 9353SOL    HW228959   1.294   4.193   0.891
 9354SOL     OW28960   0.281   1.784   6.113
 9354SOL    HW128961   0.252   1.690   6.096
 9354SOL    HW228962   0.206   1.846   6.089
 9355SOL     OW28963   0.494   1.941   4.484
 9355SOL    HW128964   0.542   2.028   4.475
 9355SOL    HW228965   0.398   1.959   4.505
 9356SOL     OW28966   4.658   6.650   2.268
 9356SOL    HW128967   4.654   6.593   2.350
 9356SOL    HW228968   4.603   6.733   2.282
 9357SOL     OW28969   1.506   3.595   6.497
 9357SOL    HW128970   1.510   3.585   6.397
 9357SOL    HW228971   1.465   3.683   6.520
 9358SOL     OW28972   0.228   2.943   1.557
 9358SOL    HW128973   0.242   2.913   1.652
 9358SOL    HW228974   0.227   3.043   1.553
 9359SOL     OW28975   1.937   3.842   5.550
 9359SOL    HW128976   1.902   3.861   5.458
 9359SOL    HW228977   1.906   3.914   5.612
 9360SOL     OW28978   1.122   4.928   6.710
 9360SOL    HW128979   1.118   5.015   6.661
 9360SOL    HW228980   1.213   4.917   6.752
 9361SOL     OW28981   1.615   5.341   2.817
 9361SOL    HW128982   1.590   5.261   2.762
 9361SOL    HW228983   1.562   5.340   2.902
 9362SOL     OW28984   2.091   2.558   3.336
 9362SOL    HW128985   2.059   2.464   3.333
 9362SOL    HW228986   2.067   2.605   3.251
 9363SOL     OW28987   3.306   6.424   1.820
 9363SOL    HW128988   3.394   6.445   1.862
 9363SOL    HW228989   3.319   6.405   1.723
 9364SOL     OW28990   3.081   3.042   6.386
 9364SOL    HW128991   3.028   2.975   6.334
 9364SOL    HW228992   3.171   3.054   6.344
 9365SOL     OW28993   2.620   1.959   4.070
 9365SOL    HW128994   2.553   1.885   4.071
 9365SOL    HW228995   2.694   1.936   4.008
 9366SOL     OW28996   3.760   5.712   6.068
 9366SOL    HW128997   3.745   5.787   6.003
 9366SOL    HW228998   3.804   5.748   6.150
 9367SOL     OW28999   0.099   6.651   2.736
 9367SOL    HW129000   0.052   6.661   2.648
 9367SOL    HW229001   0.039   6.607   2.801
 9368SOL     OW29002   2.845   0.829   2.832
 9368SOL    HW129003   2.857   0.776   2.748
 9368SOL    HW229004   2.891   0.783   2.908
 9369SOL     OW29005   6.818   6.262   4.115
 9369SOL    HW129006   6.730   6.306   4.095
 9369SOL    HW229007   6.893   6.324   4.091
 9370SOL     OW29008   5.587   0.603   3.988
 9370SOL    HW129009   5.643   0.550   4.052
 9370SOL    HW229010   5.492   0.572   3.995
 9371SOL     OW29011   2.795   4.953   0.503
 9371SOL    HW129012   2.854   4.908   0.436
 9371SOL    HW229013   2.720   4.892   0.527
 9372SOL     OW29014   4.858   0.622   1.695
 9372SOL    HW129015   4.944   0.605   1.645
 9372SOL    HW229016   4.844   0.720   1.704
 9373SOL     OW29017   4.785   2.109   1.789
 9373SOL    HW129018   4.687   2.117   1.772
 9373SOL    HW229019   4.801   2.088   1.886
 9374SOL     OW29020   0.562   3.254   0.280
 9374SOL    HW129021   0.522   3.220   0.364
 9374SOL    HW229022   0.656   3.286   0.298
 9375SOL     OW29023   0.873   1.595   1.437
 9375SOL    HW129024   0.863   1.510   1.385
 9375SOL    HW229025   0.960   1.638   1.412
 9376SOL     OW29026   2.344   4.285   1.364
 9376SOL    HW129027   2.399   4.213   1.406
 9376SOL    HW229028   2.262   4.300   1.420
 9377SOL     OW29029   1.730   5.405   3.232
 9377SOL    HW129030   1.658   5.372   3.293
 9377SOL    HW229031   1.754   5.498   3.258
 9378SOL     OW29032   2.404   0.878   3.602
 9378SOL    HW129033   2.337   0.944   3.568
 9378SOL    HW229034   2.428   0.813   3.530
 9379SOL     OW29035   4.611   0.254   5.259
 9379SOL    HW129036   4.530   0.309   5.241
 9379SOL    HW229037   4.658   0.233   5.173
 9380SOL     OW29038   3.854   5.926   5.792
 9380SOL    HW129039   3.758   5.921   5.819
 9380SOL    HW229040   3.899   5.999   5.843
 9381SOL     OW29041   4.844   3.168   5.729
 9381SOL    HW129042   4.868   3.162   5.826
 9381SOL    HW229043   4.856   3.078   5.687
 9382SOL     OW29044   4.064   0.536   4.084
 9382SOL    HW129045   4.107   0.616   4.126
 9382SOL    HW229046   4.034   0.560   3.991
 9383SOL     OW29047   5.543   5.642   4.375
 9383SOL    HW129048   5.478   5.718   4.375
 9383SOL    HW229049   5.588   5.635   4.464
 9384SOL     OW29050   4.449   0.374   2.017
 9384SOL    HW129051   4.443   0.292   1.959
 9384SOL    HW229052   4.358   0.412   2.030
 9385SOL     OW29053   4.051   1.551   3.842
 9385SOL    HW129054   4.132   1.529   3.788
 9385SOL    HW229055   4.030   1.475   3.903
 9386SOL     OW29056   3.351   5.924   5.276
 9386SOL    HW129057   3.291   5.983   5.331
 9386SOL    HW229058   3.383   5.975   5.196
 9387SOL     OW29059   2.777   2.131   0.323
 9387SOL    HW129060   2.694   2.108   0.272
 9387SOL    HW229061   2.771   2.091   0.414
 9388SOL     OW29062   2.848   5.808   3.116
 9388SOL    HW129063   2.860   5.731   3.178
 9388SOL    HW229064   2.809   5.886   3.166
 9389SOL     OW29065   2.146   0.287   3.410
 9389SOL    HW129066   2.150   0.362   3.344
 9389SOL    HW229067   2.053   0.250   3.413
 9390SOL     OW29068   5.182   4.534   6.539
 9390SOL    HW129069   5.217   4.471   6.608
 9390SOL    HW229070   5.121   4.600   6.582
 9391SOL     OW29071   1.495   0.646   5.654
 9391SOL    HW129072   1.519   0.552   5.630
 9391SOL    HW229073   1.532   0.709   5.585
 9392SOL     OW29074   5.123   5.559   5.589
 9392SOL    HW129075   5.175   5.546   5.505
 9392SOL    HW229076   5.072   5.645   5.584
 9393SOL     OW29077   2.880   6.758   6.185
 9393SOL    HW129078   2.895   6.857   6.187
 9393SOL    HW229079   2.835   6.733   6.098
 9394SOL     OW29080   6.410   0.858   1.748
 9394SOL    HW129081   6.465   0.795   1.801
 9394SOL    HW229082   6.469   0.924   1.702
 9395SOL     OW29083   3.278   0.841   1.483
 9395SOL    HW129084   3.248   0.800   1.397
 9395SOL    HW229085   3.202   0.893   1.523
 9396SOL     OW29086   2.121   4.069   4.071
 9396SOL    HW129087   2.150   3.974   4.067
 9396SOL    HW229088   2.173   4.123   4.005
 9397SOL     OW29089   3.618   6.375   6.364
 9397SOL    HW129090   3.661   6.313   6.429
 9397SOL    HW229091   3.551   6.325   6.309
 9398SOL     OW29092   6.103   0.855   5.378
 9398SOL    HW129093   6.034   0.798   5.423
 9398SOL    HW229094   6.116   0.940   5.431
 9399SOL     OW29095   0.832   2.771   5.422
 9399SOL    HW129096   0.843   2.869   5.444
 9399SOL    HW229097   0.900   2.745   5.353
 9400SOL     OW29098   5.474   0.930   1.003
 9400SOL    HW129099   5.552   0.907   0.945
 9400SOL    HW229100   5.439   1.021   0.977
 9401SOL     OW29101   6.725   1.511   3.089
 9401SOL    HW129102   6.703   1.514   2.991
 9401SOL    HW229103   6.640   1.512   3.142
 9402SOL     OW29104   1.626   5.113   3.096
 9402SOL    HW129105   1.653   5.045   3.164
 9402SOL    HW229106   1.634   5.204   3.136
 9403SOL     OW29107   6.092   1.261   1.775
 9403SOL    HW129108   6.112   1.168   1.803
 9403SOL    HW229109   6.117   1.273   1.679
 9404SOL     OW29110   1.045   2.228   0.683
 9404SOL    HW129111   1.118   2.251   0.747
 9404SOL    HW229112   1.043   2.129   0.667
 9405SOL     OW29113   2.253   4.242   3.878
 9405SOL    HW129114   2.306   4.210   3.800
 9405SOL    HW229115   2.189   4.313   3.848
 9406SOL     OW29116   0.911   2.511   6.585
 9406SOL    HW129117   0.884   2.545   6.495
 9406SOL    HW229118   1.008   2.530   6.600
 9407SOL     OW29119   2.336   4.737   3.143
 9407SOL    HW129120   2.258   4.790   3.178
 9407SOL    HW229121   2.402   4.723   3.217
 9408SOL     OW29122   6.836   3.469   5.990
 9408SOL    HW129123   6.908   3.481   6.059
 9408SOL    HW229124   6.777   3.550   5.989
 9409SOL     OW29125   6.369   5.624   1.216
 9409SOL    HW129126   6.438   5.632   1.144
 9409SOL    HW229127   6.413   5.596   1.301
 9410SOL     OW29128   1.847   0.852   2.507
 9410SOL    HW129129   1.830   0.758   2.535
 9410SOL    HW229130   1.788   0.875   2.430
 9411SOL     OW29131   3.828   3.657   3.346
 9411SOL    HW129132   3.740   3.617   3.321
 9411SOL    HW229133   3.860   3.716   3.272
 9412SOL     OW29134   1.884   1.369   2.225
 9412SOL    HW129135   1.859   1.464   2.204
 9412SOL    HW229136   1.813   1.328   2.282
 9413SOL     OW29137   4.598   5.172   3.732
 9413SOL    HW129138   4.669   5.175   3.663
 9413SOL    HW229139   4.624   5.108   3.805
 9414SOL     OW29140   2.877   1.159   3.384
 9414SOL    HW129141   2.960   1.118   3.346
 9414SOL    HW229142   2.797   1.123   3.336
 9415SOL     OW29143   1.932   0.099   2.515
 9415SOL    HW129144   1.989   0.026   2.552
 9415SOL    HW229145   1.989   0.178   2.495
 9416SOL     OW29146   0.094   1.158   6.183
 9416SOL    HW129147   0.024   1.199   6.124
 9416SOL    HW229148   0.182   1.201   6.164
 9417SOL     OW29149   3.618   0.596   0.896
 9417SOL    HW129150   3.712   0.624   0.879
 9417SOL    HW229151   3.615   0.497   0.913
 9418SOL     OW29152   2.276   1.144   1.467
 9418SOL    HW129153   2.341   1.183   1.533
 9418SOL    HW229154   2.327   1.113   1.386
 9419SOL     OW29155   2.271   3.873   6.624
 9419SOL    HW129156   2.210   3.872   6.703
 9419SOL    HW229157   2.365   3.856   6.654
 9420SOL     OW29158   5.621   4.793   0.783
 9420SOL    HW129159   5.646   4.890   0.776
 9420SOL    HW229160   5.578   4.764   0.697
 9421SOL     OW29161   2.632   6.170   4.792
 9421SOL    HW129162   2.713   6.115   4.770
 9421SOL    HW229163   2.565   6.161   4.719
 9422SOL     OW29164   2.851   5.678   2.862
 9422SOL    HW129165   2.836   5.715   2.954
 9422SOL    HW229166   2.781   5.608   2.843
 9423SOL     OW29167   3.646   6.113   3.601
 9423SOL    HW129168   3.579   6.167   3.652
 9423SOL    HW229169   3.734   6.161   3.602
 9424SOL     OW29170   4.897   2.433   4.199
 9424SOL    HW129171   4.893   2.431   4.299
 9424SOL    HW229172   4.840   2.507   4.165
 9425SOL     OW29173   5.301   3.880   1.569
 9425SOL    HW129174   5.238   3.956   1.556
 9425SOL    HW229175   5.316   3.834   1.481
 9426SOL     OW29176   3.469   1.662   6.070
 9426SOL    HW129177   3.387   1.615   6.102
 9426SOL    HW229178   3.512   1.608   5.998
 9427SOL     OW29179   2.795   5.296   3.282
 9427SOL    HW129180   2.840   5.236   3.216
 9427SOL    HW229181   2.829   5.276   3.374
 9428SOL     OW29182   0.160   6.972   1.273
 9428SOL    HW129183   0.222   6.989   1.197
 9428SOL    HW229184   0.073   7.018   1.256
 9429SOL     OW29185   1.863   3.500   3.918
 9429SOL    HW129186   1.804   3.444   3.976
 9429SOL    HW229187   1.877   3.589   3.961
 9430SOL     OW29188   0.340   2.749   5.241
 9430SOL    HW129189   0.331   2.745   5.141
 9430SOL    HW229190   0.436   2.760   5.265
 9431SOL     OW29191   6.639   4.673   1.190
 9431SOL    HW129192   6.566   4.722   1.142
 9431SOL    HW229193   6.614   4.576   1.198
 9432SOL     OW29194   6.164   0.381   4.136
 9432SOL    HW129195   6.183   0.374   4.038
 9432SOL    HW229196   6.169   0.290   4.177
 9433SOL     OW29197   3.160   6.330   3.007
 9433SOL    HW129198   3.099   6.296   3.078
 9433SOL    HW229199   3.236   6.266   2.994
 9434SOL     OW29200   5.726   5.804   1.788
 9434SOL    HW129201   5.682   5.717   1.809
 9434SOL    HW229202   5.757   5.804   1.692
 9435SOL     OW29203   7.005   2.230   3.249
 9435SOL    HW129204   6.932   2.186   3.196
 9435SOL    HW229205   0.025   2.162   3.308
 9436SOL     OW29206   1.715   2.392   1.991
 9436SOL    HW129207   1.751   2.462   1.929
 9436SOL    HW229208   1.632   2.426   2.035
 9437SOL     OW29209   0.198   6.125   3.273
 9437SOL    HW129210   0.164   6.159   3.185
 9437SOL    HW229211   0.162   6.033   3.289
 9438SOL     OW29212   0.917   0.452   2.170
 9438SOL    HW129213   0.941   0.406   2.255
 9438SOL    HW229214   0.896   0.548   2.189
 9439SOL     OW29215   0.929   3.150   0.619
 9439SOL    HW129216   0.997   3.161   0.546
 9439SOL    HW229217   0.843   3.119   0.580
 9440SOL     OW29218   3.478   5.030   3.413
 9440SOL    HW129219   3.489   5.115   3.361
 9440SOL    HW229220   3.524   4.955   3.366
 9441SOL     OW29221   6.425   4.774   6.119
 9441SOL    HW129222   6.433   4.674   6.123
 9441SOL    HW229223   6.467   4.807   6.034
 9442SOL     OW29224   5.567   3.698   1.946
 9442SOL    HW129225   5.563   3.758   2.026
 9442SOL    HW229226   5.478   3.656   1.932
 9443SOL     OW29227   2.582   5.502   0.277
 9443SOL    HW129228   2.647   5.563   0.323
 9443SOL    HW229229   2.630   5.420   0.245
 9444SOL     OW29230   2.049   4.035   0.566
 9444SOL    HW129231   1.988   3.997   0.636
 9444SOL    HW229232   2.036   3.985   0.480
 9445SOL     OW29233   6.402   3.715   3.814
 9445SOL    HW129234   6.459   3.733   3.894
 9445SOL    HW229235   6.363   3.623   3.821
 9446SOL     OW29236   6.291   5.767   5.047
 9446SOL    HW129237   6.299   5.863   5.074
 9446SOL    HW229238   6.359   5.713   5.097
 9447SOL     OW29239   5.485   4.328   4.075
 9447SOL    HW129240   5.548   4.403   4.051
 9447SOL    HW229241   5.507   4.248   4.020
 9448SOL     OW29242   6.532   0.221   6.017
 9448SOL    HW129243   6.549   0.256   5.924
 9448SOL    HW229244   6.619   0.196   6.059
 9449SOL     OW29245   5.753   6.803   0.211
 9449SOL    HW129246   5.832   6.768   0.262
 9449SOL    HW229247   5.708   6.727   0.163
 9450SOL     OW29248   2.590   5.547   3.111
 9450SOL    HW129249   2.679   5.542   3.157
 9450SOL    HW229250   2.588   5.480   3.036
 9451SOL     OW29251   4.515   5.445   5.619
 9451SOL    HW129252   4.449   5.397   5.561
 9451SOL    HW229253   4.479   5.535   5.643
 9452SOL     OW29254   1.347   4.262   0.161
 9452SOL    HW129255   1.417   4.214   0.215
 9452SOL    HW229256   1.258   4.222   0.179
 9453SOL     OW29257   3.064   5.750   2.684
 9453SOL    HW129258   3.077   5.849   2.691
 9453SOL    HW229259   2.985   5.724   2.739
 9454SOL     OW29260   3.516   3.432   6.556
 9454SOL    HW129261   3.471   3.510   6.513
 9454SOL    HW229262   3.496   3.349   6.504
 9455SOL     OW29263   3.166   2.107   3.739
 9455SOL    HW129264   3.076   2.151   3.737
 9455SOL    HW229265   3.211   2.129   3.825
 9456SOL     OW29266   6.691   3.703   0.506
 9456SOL    HW129267   6.724   3.623   0.556
 9456SOL    HW229268   6.593   3.713   0.520
 9457SOL     OW29269   1.001   4.462   3.998
 9457SOL    HW129270   0.927   4.491   4.059
 9457SOL    HW229271   1.016   4.532   3.928
 9458SOL     OW29272   0.546   3.628   6.510
 9458SOL    HW129273   0.542   3.723   6.478
 9458SOL    HW229274   0.499   3.568   6.444
 9459SOL     OW29275   5.441   4.672   4.202
 9459SOL    HW129276   5.432   4.582   4.245
 9459SOL    HW229277   5.402   4.741   4.261
 9460SOL     OW29278   2.132   3.492   4.956
 9460SOL    HW129279   2.149   3.467   4.861
 9460SOL    HW229280   2.142   3.412   5.014
 9461SOL     OW29281   0.609   2.009   1.796
 9461SOL    HW129282   0.586   1.950   1.874
 9461SOL    HW229283   0.542   1.994   1.723
 9462SOL     OW29284   1.218   2.713   3.637
 9462SOL    HW129285   1.256   2.805   3.628
 9462SOL    HW229286   1.263   2.666   3.713
 9463SOL     OW29287   5.958   0.441   1.669
 9463SOL    HW129288   5.901   0.436   1.587
 9463SOL    HW229289   5.903   0.473   1.746
 9464SOL     OW29290   6.003   0.658   0.929
 9464SOL    HW129291   5.928   0.713   0.966
 9464SOL    HW229292   5.997   0.565   0.966
 9465SOL     OW29293   7.010   3.749   2.124
 9465SOL    HW129294   6.929   3.692   2.139
 9465SOL    HW229295   0.031   3.768   2.211
 9466SOL     OW29296   3.298   4.754   5.322
 9466SOL    HW129297   3.317   4.837   5.270
 9466SOL    HW229298   3.199   4.736   5.320
 9467SOL     OW29299   0.937   3.302   1.111
 9467SOL    HW129300   0.906   3.326   1.019
 9467SOL    HW229301   1.016   3.358   1.135
 9468SOL     OW29302   5.455   4.226   6.267
 9468SOL    HW129303   5.387   4.271   6.325
 9468SOL    HW229304   5.524   4.182   6.323
 9469SOL     OW29305   1.146   5.887   1.304
 9469SOL    HW129306   1.126   5.907   1.208
 9469SOL    HW229307   1.074   5.925   1.362
 9470SOL     OW29308   5.389   3.451   0.283
 9470SOL    HW129309   5.339   3.503   0.351
 9470SOL    HW229310   5.455   3.510   0.236
 9471SOL     OW29311   6.856   2.349   4.598
 9471SOL    HW129312   6.939   2.357   4.543
 9471SOL    HW229313   6.786   2.301   4.545
 9472SOL     OW29314   6.981   3.046   5.258
 9472SOL    HW129315   0.032   3.045   5.325
 9472SOL    HW229316   6.940   2.955   5.253
 9473SOL     OW29317   3.304   4.667   0.014
 9473SOL    HW129318   3.342   4.655   0.106
 9473SOL    HW229319   3.363   4.622   6.971
 9474SOL     OW29320   6.804   3.610   1.099
 9474SOL    HW129321   6.727   3.578   1.153
 9474SOL    HW229322   6.873   3.650   1.160
 9475SOL     OW29323   4.097   3.219   0.769
 9475SOL    HW129324   4.084   3.123   0.746
 9475SOL    HW229325   4.046   3.276   0.705
 9476SOL     OW29326   4.004   3.933   4.517
 9476SOL    HW129327   4.089   3.985   4.522
 9476SOL    HW229328   4.021   3.848   4.467
 9477SOL     OW29329   0.254   2.783   1.336
 9477SOL    HW129330   0.269   2.853   1.406
 9477SOL    HW229331   0.337   2.773   1.280
 9478SOL     OW29332   5.235   3.397   1.356
 9478SOL    HW129333   5.186   3.470   1.402
 9478SOL    HW229334   5.173   3.320   1.339
 9479SOL     OW29335   4.271   6.512   0.492
 9479SOL    HW129336   4.336   6.585   0.470
 9479SOL    HW229337   4.315   6.443   0.549
 9480SOL     OW29338   6.213   5.383   0.565
 9480SOL    HW129339   6.205   5.340   0.655
 9480SOL    HW229340   6.129   5.368   0.513
 9481SOL     OW29341   4.937   2.629   2.465
 9481SOL    HW129342   4.876   2.678   2.402
 9481SOL    HW229343   4.912   2.651   2.559
 9482SOL     OW29344   0.555   0.438   3.015
 9482SOL    HW129345   0.575   0.343   3.040
 9482SOL    HW229346   0.507   0.483   3.090
 9483SOL     OW29347   1.029   0.301   0.851
 9483SOL    HW129348   1.123   0.331   0.838
 9483SOL    HW229349   0.993   0.266   0.765
 9484SOL     OW29350   3.856   0.334   4.631
 9484SOL    HW129351   3.769   0.375   4.658
 9484SOL    HW229352   3.853   0.235   4.646
 9485SOL     OW29353   0.327   1.148   1.020
 9485SOL    HW129354   0.404   1.091   0.989
 9485SOL    HW229355   0.331   1.157   1.119
 9486SOL     OW29356   4.166   5.886   0.786
 9486SOL    HW129357   4.205   5.822   0.719
 9486SOL    HW229358   4.093   5.839   0.837
 9487SOL     OW29359   3.247   4.028   3.786
 9487SOL    HW129360   3.223   4.035   3.883
 9487SOL    HW229361   3.164   4.018   3.732
 9488SOL     OW29362   2.718   6.932   0.983
 9488SOL    HW129363   2.734   6.855   0.922
 9488SOL    HW229364   2.748   6.908   1.076
 9489SOL     OW29365   5.313   4.618   1.268
 9489SOL    HW129366   5.360   4.630   1.181
 9489SOL    HW229367   5.379   4.588   1.337
 9490SOL     OW29368   6.109   5.378   3.469
 9490SOL    HW129369   6.093   5.434   3.388
 9490SOL    HW229370   6.110   5.437   3.550
 9491SOL     OW29371   5.189   4.766   3.857
 9491SOL    HW129372   5.232   4.845   3.900
 9491SOL    HW229373   5.236   4.682   3.885
 9492SOL     OW29374   3.705   3.692   4.637
 9492SOL    HW129375   3.650   3.719   4.558
 9492SOL    HW229376   3.790   3.649   4.606
 9493SOL     OW29377   2.998   5.795   4.083
 9493SOL    HW129378   3.012   5.786   4.182
 9493SOL    HW229379   3.031   5.884   4.053
 9494SOL     OW29380   5.583   3.114   2.919
 9494SOL    HW129381   5.506   3.097   2.857
 9494SOL    HW229382   5.549   3.157   3.003
 9495SOL     OW29383   0.080   2.014   2.922
 9495SOL    HW129384   0.071   2.015   3.022
 9495SOL    HW229385   0.091   2.107   2.888
 9496SOL     OW29386   5.982   3.668   1.635
 9496SOL    HW129387   5.929   3.697   1.715
 9496SOL    HW229388   5.948   3.580   1.602
 9497SOL     OW29389   5.052   5.702   5.193
 9497SOL    HW129390   5.047   5.798   5.166
 9497SOL    HW229391   5.109   5.652   5.127
 9498SOL     OW29392   5.470   5.719   4.681
 9498SOL    HW129393   5.421   5.790   4.731
 9498SOL    HW229394   5.545   5.683   4.737
 9499SOL     OW29395   1.760   5.379   6.083
 9499SOL    HW129396   1.771   5.379   5.983
 9499SOL    HW229397   1.752   5.285   6.115
 9500SOL     OW29398   4.647   6.933   0.463
 9500SOL    HW129399   4.665   0.003   0.492
 9500SOL    HW229400   4.618   6.932   0.367
 9501SOL     OW29401   2.614   1.514   4.785
 9501SOL    HW129402   2.632   1.533   4.689
 9501SOL    HW229403   2.627   1.598   4.838
 9502SOL     OW29404   5.739   2.926   4.701
 9502SOL    HW129405   5.675   2.922   4.624
 9502SOL    HW229406   5.826   2.885   4.674
 9503SOL     OW29407   0.265   1.870   0.464
 9503SOL    HW129408   0.247   1.772   0.471
 9503SOL    HW229409   0.227   1.906   0.379
 9504SOL     OW29410   6.959   3.421   0.935
 9504SOL    HW129411   6.956   3.328   0.972
 9504SOL    HW229412   6.911   3.483   0.997
 9505SOL     OW29413   5.283   4.815   5.062
 9505SOL    HW129414   5.321   4.800   5.153
 9505SOL    HW229415   5.354   4.853   5.003
 9506SOL     OW29416   1.494   2.617   0.381
 9506SOL    HW129417   1.468   2.610   0.478
 9506SOL    HW229418   1.497   2.526   0.341
 9507SOL     OW29419   0.549   1.136   1.974
 9507SOL    HW129420   0.555   1.109   2.070
 9507SOL    HW229421   0.605   1.217   1.958
 9508SOL     OW29422   6.025   2.061   2.114
 9508SOL    HW129423   6.050   2.033   2.206
 9508SOL    HW229424   5.928   2.084   2.112
 9509SOL     OW29425   0.175   0.946   4.084
 9509SOL    HW129426   0.154   0.984   4.175
 9509SOL    HW229427   0.270   0.965   4.062
 9510SOL     OW29428   1.540   3.678   3.659
 9510SOL    HW129429   1.608   3.717   3.596
 9510SOL    HW229430   1.585   3.650   3.743
 9511SOL     OW29431   2.030   0.008   0.873
 9511SOL    HW129432   2.118   0.055   0.861
 9511SOL    HW229433   1.956   0.068   0.841
 9512SOL     OW29434   6.478   1.673   1.061
 9512SOL    HW129435   6.411   1.736   1.099
 9512SOL    HW229436   6.437   1.581   1.054
 9513SOL     OW29437   2.275   4.203   5.873
 9513SOL    HW129438   2.328   4.138   5.818
 9513SOL    HW229439   2.325   4.289   5.881
 9514SOL     OW29440   2.226   5.112   5.923
 9514SOL    HW129441   2.178   5.198   5.909
 9514SOL    HW229442   2.320   5.131   5.954
 9515SOL     OW29443   1.813   5.567   1.526
 9515SOL    HW129444   1.800   5.603   1.433
 9515SOL    HW229445   1.801   5.641   1.592
 9516SOL     OW29446   5.348   5.059   6.777
 9516SOL    HW129447   5.436   5.014   6.765
 9516SOL    HW229448   5.358   5.135   6.843
 9517SOL     OW29449   1.612   3.917   1.444
 9517SOL    HW129450   1.601   3.905   1.345
 9517SOL    HW229451   1.569   3.840   1.491
 9518SOL     OW29452   1.939   1.561   0.374
 9518SOL    HW129453   2.013   1.588   0.312
 9518SOL    HW229454   1.893   1.480   0.339
 9519SOL     OW29455   3.259   3.108   5.470
 9519SOL    HW129456   3.313   3.130   5.389
 9519SOL    HW229457   3.295   3.157   5.550
 9520SOL     OW29458   2.827   1.590   2.842
 9520SOL    HW129459   2.868   1.622   2.928
 9520SOL    HW229460   2.807   1.492   2.850
 9521SOL     OW29461   5.000   5.726   2.435
 9521SOL    HW129462   4.942   5.807   2.446
 9521SOL    HW229463   5.092   5.753   2.408
 9522SOL     OW29464   2.745   5.790   1.244
 9522SOL    HW129465   2.658   5.796   1.196
 9522SOL    HW229466   2.748   5.706   1.298
 9523SOL     OW29467   3.931   5.307   4.673
 9523SOL    HW129468   3.966   5.387   4.624
 9523SOL    HW229469   3.841   5.282   4.637
 9524SOL     OW29470   3.758   2.006   1.265
 9524SOL    HW129471   3.694   1.932   1.285
 9524SOL    HW229472   3.762   2.021   1.166
 9525SOL     OW29473   2.736   2.844   5.986
 9525SOL    HW129474   2.664   2.774   5.988
 9525SOL    HW229475   2.780   2.844   5.897
 9526SOL     OW29476   5.015   5.438   2.198
 9526SOL    HW129477   5.108   5.474   2.195
 9526SOL    HW229478   4.950   5.508   2.168
 9527SOL     OW29479   0.797   0.415   2.864
 9527SOL    HW129480   0.807   0.464   2.951
 9527SOL    HW229481   0.871   0.350   2.853
 9528SOL     OW29482   6.736   0.572   0.493
 9528SOL    HW129483   6.698   0.664   0.489
 9528SOL    HW229484   6.680   0.514   0.552
 9529SOL     OW29485   6.183   3.003   5.335
 9529SOL    HW129486   6.102   3.011   5.278
 9529SOL    HW229487   6.208   3.094   5.370
 9530SOL     OW29488   1.890   2.950   2.653
 9530SOL    HW129489   1.898   3.034   2.707
 9530SOL    HW229490   1.970   2.892   2.671
 9531SOL     OW29491   4.388   5.929   2.987
 9531SOL    HW129492   4.340   5.975   2.912
 9531SOL    HW229493   4.464   5.876   2.951
 9532SOL     OW29494   0.770   6.366   1.902
 9532SOL    HW129495   0.742   6.433   1.971
 9532SOL    HW229496   0.714   6.377   1.820
 9533SOL     OW29497   6.622   0.597   4.964
 9533SOL    HW129498   6.647   0.501   4.975
 9533SOL    HW229499   6.598   0.614   4.868
 9534SOL     OW29500   5.852   3.382   4.994
 9534SOL    HW129501   5.782   3.442   5.034
 9534SOL    HW229502   5.934   3.385   5.051
 9535SOL     OW29503   2.425   1.185   5.644
 9535SOL    HW129504   2.447   1.241   5.724
 9535SOL    HW229505   2.391   1.244   5.571
 9536SOL     OW29506   3.011   5.021   5.098
 9536SOL    HW129507   2.967   4.946   5.147
 9536SOL    HW229508   2.997   5.009   5.000
 9537SOL     OW29509   2.417   6.911   2.282
 9537SOL    HW129510   2.482   6.981   2.310
 9537SOL    HW229511   2.465   6.827   2.258
 9538SOL     OW29512   6.545   1.851   3.506
 9538SOL    HW129513   6.458   1.820   3.544
 9538SOL    HW229514   6.529   1.919   3.435
 9539SOL     OW29515   2.172   3.524   5.497
 9539SOL    HW129516   2.258   3.554   5.540
 9539SOL    HW229517   2.150   3.585   5.421
 9540SOL     OW29518   4.890   3.827   4.464
 9540SOL    HW129519   4.885   3.804   4.561
 9540SOL    HW229520   4.882   3.743   4.410
 9541SOL     OW29521   2.827   2.054   5.853
 9541SOL    HW129522   2.889   2.101   5.915
 9541SOL    HW229523   2.874   2.035   5.767
 9542SOL     OW29524   4.977   4.010   4.723
 9542SOL    HW129525   4.933   3.923   4.746
 9542SOL    HW229526   4.922   4.059   4.656
 9543SOL     OW29527   3.551   0.781   4.748
 9543SOL    HW129528   3.507   0.832   4.674
 9543SOL    HW229529   3.512   0.809   4.836
 9544SOL     OW29530   6.878   1.335   2.728
 9544SOL    HW129531   6.860   1.260   2.792
 9544SOL    HW229532   6.840   1.311   2.638
 9545SOL     OW29533   6.838   4.713   3.700
 9545SOL    HW129534   6.909   4.761   3.649
 9545SOL    HW229535   6.877   4.673   3.783
 9546SOL     OW29536   2.467   2.732   5.666
 9546SOL    HW129537   2.442   2.645   5.623
 9546SOL    HW229538   2.559   2.759   5.635
 9547SOL     OW29539   1.769   5.600   3.804
 9547SOL    HW129540   1.808   5.596   3.712
 9547SOL    HW229541   1.823   5.541   3.865
 9548SOL     OW29542   5.944   6.179   4.770
 9548SOL    HW129543   5.953   6.087   4.732
 9548SOL    HW229544   5.953   6.247   4.697
 9549SOL     OW29545   3.056   3.951   1.198
 9549SOL    HW129546   3.075   3.853   1.204
 9549SOL    HW229547   3.034   3.975   1.104
 9550SOL     OW29548   0.012   1.078   7.021
 9550SOL    HW129549   0.103   1.084   0.037
 9550SOL    HW229550   0.019   1.054   6.924
 9551SOL     OW29551   6.798   0.688   4.337
 9551SOL    HW129552   6.821   0.627   4.261
 9551SOL    HW229553   6.699   0.690   4.349
 9552SOL     OW29554   0.877   6.134   2.192
 9552SOL    HW129555   0.933   6.178   2.122
 9552SOL    HW229556   0.872   6.035   2.174
 9553SOL     OW29557   5.753   4.209   6.644
 9553SOL    HW129558   5.829   4.145   6.638
 9553SOL    HW229559   5.762   4.279   6.573
 9554SOL     OW29560   2.430   0.336   1.420
 9554SOL    HW129561   2.458   0.414   1.366
 9554SOL    HW229562   2.435   0.359   1.517
 9555SOL     OW29563   0.094   0.753   0.978
 9555SOL    HW129564   0.121   0.823   1.044
 9555SOL    HW229565   0.123   0.781   0.886
 9556SOL     OW29566   2.641   2.522   1.028
 9556SOL    HW129567   2.663   2.561   1.117
 9556SOL    HW229568   2.544   2.498   1.024
 9557SOL     OW29569   6.235   0.848   3.036
 9557SOL    HW129570   6.177   0.929   3.031
 9557SOL    HW229571   6.270   0.826   2.945
 9558SOL     OW29572   5.491   5.196   4.127
 9558SOL    HW129573   5.582   5.156   4.128
 9558SOL    HW229574   5.486   5.271   4.192
 9559SOL     OW29575   0.018   3.767   1.636
 9559SOL    HW129576   0.014   3.709   1.555
 9559SOL    HW229577   0.096   3.829   1.628
 9560SOL     OW29578   1.184   1.881   2.373
 9560SOL    HW129579   1.195   1.802   2.434
 9560SOL    HW229580   1.255   1.949   2.393
 9561SOL     OW29581   1.566   6.922   0.728
 9561SOL    HW129582   1.648   6.979   0.723
 9561SOL    HW229583   1.570   6.852   0.657
 9562SOL     OW29584   3.317   6.311   5.100
 9562SOL    HW129585   3.317   6.301   5.000
 9562SOL    HW229586   3.224   6.299   5.134
 9563SOL     OW29587   6.174   6.497   0.675
 9563SOL    HW129588   6.149   6.412   0.722
 9563SOL    HW229589   6.095   6.533   0.627
 9564SOL     OW29590   2.558   6.649   6.552
 9564SOL    HW129591   2.509   6.664   6.638
 9564SOL    HW229592   2.622   6.724   6.537
 9565SOL     OW29593   4.276   6.287   4.753
 9565SOL    HW129594   4.264   6.270   4.851
 9565SOL    HW229595   4.349   6.227   4.718
 9566SOL     OW29596   3.675   4.790   0.149
 9566SOL    HW129597   3.581   4.767   0.177
 9566SOL    HW229598   3.680   4.888   0.128
 9567SOL     OW29599   6.453   5.458   6.475
 9567SOL    HW129600   6.356   5.481   6.482
 9567SOL    HW229601   6.468   5.400   6.395
 9568SOL     OW29602   4.523   2.819   6.570
 9568SOL    HW129603   4.492   2.726   6.590
 9568SOL    HW229604   4.544   2.867   6.655
 9569SOL     OW29605   0.126   0.441   2.042
 9569SOL    HW129606   0.106   0.347   2.015
 9569SOL    HW229607   0.061   0.471   2.112
 9570SOL     OW29608   1.195   2.239   2.102
 9570SOL    HW129609   1.196   2.226   2.003
 9570SOL    HW229610   1.117   2.189   2.141
 9571SOL     OW29611   2.993   3.368   7.011
 9571SOL    HW129612   2.919   3.317   6.967
 9571SOL    HW229613   3.079   3.317   7.002
 9572SOL     OW29614   2.356   5.378   0.777
 9572SOL    HW129615   2.450   5.370   0.745
 9572SOL    HW229616   2.353   5.431   0.862
 9573SOL     OW29617   0.661   1.837   6.604
 9573SOL    HW129618   0.577   1.884   6.575
 9573SOL    HW229619   0.693   1.778   6.530
 9574SOL     OW29620   3.993   3.186   4.735
 9574SOL    HW129621   3.936   3.179   4.817
 9574SOL    HW229622   4.071   3.245   4.755
 9575SOL     OW29623   5.237   0.554   0.720
 9575SOL    HW129624   5.245   0.598   0.631
 9575SOL    HW229625   5.267   0.459   0.713
 9576SOL     OW29626   3.333   1.237   2.664
 9576SOL    HW129627   3.262   1.290   2.618
 9576SOL    HW229628   3.387   1.188   2.596
 9577SOL     OW29629   1.304   0.762   3.161
 9577SOL    HW129630   1.323   0.741   3.257
 9577SOL    HW229631   1.388   0.791   3.116
 9578SOL     OW29632   6.563   3.397   3.139
 9578SOL    HW129633   6.662   3.389   3.155
 9578SOL    HW229634   6.544   3.482   3.091
 9579SOL     OW29635   1.411   6.090   2.899
 9579SOL    HW129636   1.353   6.152   2.951
 9579SOL    HW229637   1.507   6.107   2.920
 9580SOL     OW29638   5.330   3.226   0.555
 9580SOL    HW129639   5.292   3.314   0.582
 9580SOL    HW229640   5.411   3.240   0.498
 9581SOL     OW29641   1.475   5.145   6.230
 9581SOL    HW129642   1.382   5.107   6.226
 9581SOL    HW229643   1.532   5.098   6.163
 9582SOL     OW29644   4.331   4.651   4.737
 9582SOL    HW129645   4.285   4.585   4.796
 9582SOL    HW229646   4.411   4.609   4.695
 9583SOL     OW29647   2.495   3.468   1.319
 9583SOL    HW129648   2.419   3.436   1.376
 9583SOL    HW229649   2.512   3.565   1.337
 9584SOL     OW29650   5.661   6.102   7.022
 9584SOL    HW129651   5.592   6.076   0.066
 9584SOL    HW229652   5.750   6.067   0.026
 9585SOL     OW29653   6.552   0.484   3.002
 9585SOL    HW129654   6.547   0.557   2.934
 9585SOL    HW229655   6.503   0.512   3.084
 9586SOL     OW29656   5.739   4.222   2.352
 9586SOL    HW129657   5.732   4.124   2.366
 9586SOL    HW229658   5.649   4.260   2.329
 9587SOL     OW29659   6.289   0.547   2.367
 9587SOL    HW129660   6.275   0.455   2.329
 9587SOL    HW229661   6.295   0.541   2.467
 9588SOL     OW29662   0.358   1.147   1.777
 9588SOL    HW129663   0.331   1.056   1.747
 9588SOL    HW229664   0.405   1.140   1.865
 9589SOL     OW29665   2.671   5.537   6.553
 9589SOL    HW129666   2.681   5.634   6.531
 9589SOL    HW229667   2.621   5.492   6.479
 9590SOL     OW29668   0.133   4.914   2.405
 9590SOL    HW129669   0.204   4.966   2.451
 9590SOL    HW229670   0.100   4.966   2.325
 9591SOL     OW29671   3.033   5.954   0.339
 9591SOL    HW129672   3.112   6.005   0.373
 9591SOL    HW229673   2.950   5.991   0.380
 9592SOL     OW29674   3.893   5.183   2.110
 9592SOL    HW129675   3.846   5.119   2.170
 9592SOL    HW229676   3.898   5.273   2.154
 9593SOL     OW29677   5.364   1.205   4.691
 9593SOL    HW129678   5.397   1.240   4.603
 9593SOL    HW229679   5.416   1.122   4.714
 9594SOL     OW29680   6.926   6.024   3.864
 9594SOL    HW129681   6.890   6.002   3.955
 9594SOL    HW229682   6.853   6.061   3.807
 9595SOL     OW29683   1.680   4.713   4.642
 9595SOL    HW129684   1.673   4.755   4.551
 9595SOL    HW229685   1.660   4.615   4.635
 9596SOL     OW29686   0.368   4.971   6.911
 9596SOL    HW129687   0.367   4.881   6.867
 9596SOL    HW229688   0.437   4.971   6.984
 9597SOL     OW29689   0.335   3.723   0.832
 9597SOL    HW129690   0.324   3.674   0.746
 9597SOL    HW229691   0.286   3.674   0.904
 9598SOL     OW29692   0.295   4.237   5.346
 9598SOL    HW129693   0.367   4.287   5.297
 9598SOL    HW229694   0.310   4.139   5.337
 9599SOL     OW29695   3.847   0.716   5.132
 9599SOL    HW129696   3.795   0.644   5.086
 9599SOL    HW229697   3.834   0.803   5.084
 9600SOL     OW29698   2.119   0.060   6.050
 9600SOL    HW129699   2.187   0.081   6.120
 9600SOL    HW229700   2.129   6.988   6.022
 9601SOL     OW29701   6.344   4.095   6.086
 9601SOL    HW129702   6.300   4.066   6.001
 9601SOL    HW229703   6.378   4.015   6.135
 9602SOL     OW29704   6.723   4.933   6.556
 9602SOL    HW129705   6.767   4.906   6.641
 9602SOL    HW229706   6.735   4.862   6.487
 9603SOL     OW29707   2.297   6.886   4.557
 9603SOL    HW129708   2.235   6.939   4.615
 9603SOL    HW229709   2.376   6.942   4.531
 9604SOL     OW29710   5.510   0.767   0.127
 9604SOL    HW129711   5.447   0.844   0.134
 9604SOL    HW229712   5.579   0.786   0.056
 9605SOL     OW29713   0.507   5.109   5.742
 9605SOL    HW129714   0.429   5.170   5.756
 9605SOL    HW229715   0.524   5.057   5.825
 9606SOL     OW29716   1.068   0.133   4.283
 9606SOL    HW129717   1.053   0.154   4.186
 9606SOL    HW229718   0.997   0.070   4.315
 9607SOL     OW29719   1.038   1.795   1.660
 9607SOL    HW129720   1.110   1.837   1.715
 9607SOL    HW229721   0.949   1.813   1.701
 9608SOL     OW29722   0.196   6.906   2.771
 9608SOL    HW129723   0.161   6.813   2.763
 9608SOL    HW229724   0.122   6.971   2.754
 9609SOL     OW29725   1.409   3.456   4.933
 9609SOL    HW129726   1.371   3.487   5.020
 9609SOL    HW229727   1.483   3.517   4.905
 9610SOL     OW29728   0.998   3.252   5.444
 9610SOL    HW129729   0.970   3.175   5.501
 9610SOL    HW229730   1.085   3.289   5.477
 9611SOL     OW29731   0.027   6.854   1.012
 9611SOL    HW129732   0.025   6.945   0.969
 9611SOL    HW229733   0.011   6.784   0.942
 9612SOL     OW29734   6.594   2.883   0.297
 9612SOL    HW129735   6.539   2.941   0.237
 9612SOL    HW229736   6.688   2.917   0.299
 9613SOL     OW29737   5.455   6.200   4.287
 9613SOL    HW129738   5.394   6.193   4.367
 9613SOL    HW229739   5.402   6.229   4.207
 9614SOL     OW29740   4.419   3.663   1.635
 9614SOL    HW129741   4.322   3.644   1.621
 9614SOL    HW229742   4.432   3.761   1.652
 9615SOL     OW29743   2.514   5.994   3.009
 9615SOL    HW129744   2.565   5.926   2.956
 9615SOL    HW229745   2.435   5.951   3.052
 9616SOL     OW29746   4.434   3.387   0.795
 9616SOL    HW129747   4.422   3.428   0.886
 9616SOL    HW229748   4.344   3.377   0.751
 9617SOL     OW29749   1.351   3.848   3.795
 9617SOL    HW129750   1.270   3.842   3.736
 9617SOL    HW229751   1.409   3.768   3.780
 9618SOL     OW29752   3.290   0.564   6.736
 9618SOL    HW129753   3.221   0.584   6.806
 9618SOL    HW229754   3.260   0.486   6.681
 9619SOL     OW29755   0.617   6.802   1.136
 9619SOL    HW129756   0.565   6.718   1.155
 9619SOL    HW229757   0.709   6.793   1.175
 9620SOL     OW29758   4.281   1.589   6.479
 9620SOL    HW129759   4.236   1.505   6.509
 9620SOL    HW229760   4.293   1.651   6.557
 9621SOL     OW29761   1.658   1.056   1.713
 9621SOL    HW129762   1.639   0.972   1.765
 9621SOL    HW229763   1.697   1.032   1.624
 9622SOL     OW29764   6.461   1.399   6.832
 9622SOL    HW129765   6.442   1.464   6.906
 9622SOL    HW229766   6.537   1.339   6.859
 9623SOL     OW29767   4.649   5.266   6.643
 9623SOL    HW129768   4.675   5.360   6.667
 9623SOL    HW229769   4.724   5.223   6.592
 9624SOL     OW29770   5.005   4.895   5.244
 9624SOL    HW129771   4.967   4.905   5.153
 9624SOL    HW229772   5.032   4.800   5.259
 9625SOL     OW29773   4.425   4.633   6.776
 9625SOL    HW129774   4.340   4.650   6.826
 9625SOL    HW229775   4.405   4.610   6.681
 9626SOL     OW29776   1.677   5.245   4.431
 9626SOL    HW129777   1.620   5.320   4.466
 9626SOL    HW229778   1.708   5.188   4.507
 9627SOL     OW29779   0.820   4.418   4.653
 9627SOL    HW129780   0.796   4.349   4.721
 9627SOL    HW229781   0.762   4.499   4.665
 9628SOL     OW29782   5.933   4.050   0.711
 9628SOL    HW129783   5.973   4.052   0.803
 9628SOL    HW229784   5.975   4.123   0.656
 9629SOL     OW29785   6.765   6.260   3.435
 9629SOL    HW129786   6.714   6.346   3.430
 9629SOL    HW229787   6.859   6.275   3.404
 9630SOL     OW29788   5.996   5.841   5.514
 9630SOL    HW129789   5.956   5.915   5.461
 9630SOL    HW229790   5.924   5.776   5.540
 9631SOL     OW29791   4.355   1.280   1.208
 9631SOL    HW129792   4.321   1.373   1.215
 9631SOL    HW229793   4.300   1.229   1.142
 9632SOL     OW29794   2.137   5.269   1.410
 9632SOL    HW129795   2.065   5.294   1.475
 9632SOL    HW229796   2.152   5.170   1.413
 9633SOL     OW29797   4.147   3.266   1.031
 9633SOL    HW129798   4.117   3.189   1.088
 9633SOL    HW229799   4.143   3.239   0.935
 9634SOL     OW29800   5.814   5.360   3.059
 9634SOL    HW129801   5.756   5.379   3.138
 9634SOL    HW229802   5.907   5.338   3.090
 9635SOL     OW29803   0.120   4.387   5.135
 9635SOL    HW129804   0.075   4.380   5.224
 9635SOL    HW229805   0.211   4.346   5.141
 9636SOL     OW29806   3.726   1.567   5.838
 9636SOL    HW129807   3.755   1.498   5.904
 9636SOL    HW229808   3.639   1.540   5.797
 9637SOL     OW29809   3.308   3.158   1.893
 9637SOL    HW129810   3.295   3.068   1.935
 9637SOL    HW229811   3.234   3.175   1.828
 9638SOL     OW29812   0.222   3.936   6.326
 9638SOL    HW129813   0.212   3.896   6.235
 9638SOL    HW229814   0.276   4.020   6.320
 9639SOL     OW29815   4.683   2.839   1.682
 9639SOL    HW129816   4.629   2.900   1.740
 9639SOL    HW229817   4.626   2.806   1.607
 9640SOL     OW29818   4.123   1.128   2.386
 9640SOL    HW129819   4.028   1.151   2.365
 9640SOL    HW229820   4.164   1.202   2.440
 9641SOL     OW29821   5.165   6.248   2.186
 9641SOL    HW129822   5.075   6.214   2.215
 9641SOL    HW229823   5.222   6.171   2.157
 9642SOL     OW29824   1.036   0.274   4.035
 9642SOL    HW129825   1.119   0.314   4.074
 9642SOL    HW229826   0.974   0.347   4.005
 9643SOL     OW29827   5.094   3.877   3.316
 9643SOL    HW129828   5.136   3.859   3.405
 9643SOL    HW229829   5.145   3.829   3.245
 9644SOL     OW29830   2.068   5.957   4.883
 9644SOL    HW129831   2.067   6.057   4.888
 9644SOL    HW229832   2.061   5.919   4.975
 9645SOL     OW29833   0.909   3.907   5.049
 9645SOL    HW129834   0.926   3.925   4.952
 9645SOL    HW229835   0.990   3.933   5.102
 9646SOL     OW29836   2.840   6.300   2.925
 9646SOL    HW129837   2.777   6.298   2.847
 9646SOL    HW229838   2.845   6.209   2.966
 9647SOL     OW29839   0.229   6.492   2.940
 9647SOL    HW129840   0.206   6.564   2.875
 9647SOL    HW229841   0.326   6.470   2.933
 9648SOL     OW29842   5.452   3.099   1.301
 9648SOL    HW129843   5.489   3.014   1.261
 9648SOL    HW229844   5.364   3.120   1.259
 9649SOL     OW29845   2.803   4.017   6.745
 9649SOL    HW129846   2.810   4.020   6.645
 9649SOL    HW229847   2.743   4.091   6.776
 9650SOL     OW29848   5.148   4.315   3.347
 9650SOL    HW129849   5.091   4.269   3.278
 9650SOL    HW229850   5.193   4.246   3.404
 9651SOL     OW29851   3.968   1.050   1.396
 9651SOL    HW129852   4.012   0.968   1.431
 9651SOL    HW229853   3.873   1.030   1.373
 9652SOL     OW29854   0.516   4.612   0.882
 9652SOL    HW129855   0.554   4.590   0.792
 9652SOL    HW229856   0.495   4.528   0.931
 9653SOL     OW29857   4.729   4.505   5.815
 9653SOL    HW129858   4.771   4.417   5.796
 9653SOL    HW229859   4.776   4.550   5.890
 9654SOL     OW29860   2.891   3.363   2.718
 9654SOL    HW129861   2.796   3.346   2.695
 9654SOL    HW229862   2.906   3.461   2.731
 9655SOL     OW29863   0.255   1.900   0.206
 9655SOL    HW129864   0.340   1.874   0.160
 9655SOL    HW229865   0.182   1.838   0.178
 9656SOL     OW29866   4.764   1.846   0.788
 9656SOL    HW129867   4.773   1.928   0.845
 9656SOL    HW229868   4.852   1.826   0.744
 9657SOL     OW29869   6.085   4.308   3.317
 9657SOL    HW129870   6.171   4.328   3.269
 9657SOL    HW229871   6.103   4.300   3.415
 9658SOL     OW29872   5.681   2.063   2.604
 9658SOL    HW129873   5.645   2.082   2.696
 9658SOL    HW229874   5.623   1.994   2.559
 9659SOL     OW29875   1.243   2.466   0.053
 9659SOL    HW129876   1.305   2.391   0.032
 9659SOL    HW229877   1.215   2.460   0.149
 9660SOL     OW29878   0.620   0.469   1.928
 9660SOL    HW129879   0.530   0.431   1.946
 9660SOL    HW229880   0.654   0.514   2.010
 9661SOL     OW29881   4.364   5.853   1.419
 9661SOL    HW129882   4.298   5.904   1.364
 9661SOL    HW229883   4.449   5.842   1.368
 9662SOL     OW29884   5.256   3.896   0.487
 9662SOL    HW129885   5.256   3.815   0.546
 9662SOL    HW229886   5.195   3.965   0.525
 9663SOL     OW29887   0.157   5.589   2.320
 9663SOL    HW129888   0.204   5.576   2.407
 9663SOL    HW229889   0.223   5.585   2.245
 9664SOL     OW29890   5.282   4.240   5.078
 9664SOL    HW129891   5.291   4.321   5.136
 9664SOL    HW229892   5.231   4.264   4.996
 9665SOL     OW29893   6.441   6.152   5.767
 9665SOL    HW129894   6.357   6.127   5.720
 9665SOL    HW229895   6.443   6.252   5.779
 9666SOL     OW29896   6.199   3.301   1.991
 9666SOL    HW129897   6.123   3.275   1.931
 9666SOL    HW229898   6.285   3.294   1.942
 9667SOL     OW29899   4.421   3.447   1.406
 9667SOL    HW129900   4.335   3.497   1.392
 9667SOL    HW229901   4.430   3.422   1.502
 9668SOL     OW29902   1.540   1.180   6.711
 9668SOL    HW129903   1.478   1.211   6.782
 9668SOL    HW229904   1.487   1.137   6.638
 9669SOL     OW29905   2.121   6.700   1.380
 9669SOL    HW129906   2.197   6.751   1.342
 9669SOL    HW229907   2.155   6.626   1.438
 9670SOL     OW29908   0.021   5.465   4.989
 9670SOL    HW129909   6.945   5.466   4.981
 9670SOL    HW229910   0.054   5.555   5.019
 9671SOL     OW29911   6.547   4.518   0.830
 9671SOL    HW129912   6.489   4.506   0.911
 9671SOL    HW229913   6.587   4.429   0.806
 9672SOL     OW29914   1.252   4.826   3.343
 9672SOL    HW129915   1.296   4.905   3.300
 9672SOL    HW229916   1.316   4.783   3.407
 9673SOL     OW29917   3.564   3.596   1.332
 9673SOL    HW129918   3.632   3.557   1.270
 9673SOL    HW229919   3.504   3.657   1.281
 9674SOL     OW29920   3.888   6.617   3.152
 9674SOL    HW129921   3.920   6.698   3.201
 9674SOL    HW229922   3.895   6.537   3.211
 9675SOL     OW29923   4.864   2.551   6.885
 9675SOL    HW129924   4.865   2.629   6.822
 9675SOL    HW229925   4.786   2.560   6.948
 9676SOL     OW29926   1.351   3.930   5.700
 9676SOL    HW129927   1.394   3.845   5.670
 9676SOL    HW229928   1.253   3.914   5.715
 9677SOL     OW29929   6.839   5.126   6.083
 9677SOL    HW129930   6.856   5.186   6.161
 9677SOL    HW229931   6.867   5.032   6.107
 9678SOL     OW29932   2.985   3.804   4.467
 9678SOL    HW129933   2.928   3.740   4.518
 9678SOL    HW229934   2.974   3.789   4.369
 9679SOL     OW29935   2.692   0.342   4.012
 9679SOL    HW129936   2.679   0.278   4.087
 9679SOL    HW229937   2.625   0.323   3.940
 9680SOL     OW29938   4.341   0.386   5.325
 9680SOL    HW129939   4.400   0.389   5.406
 9680SOL    HW229940   4.246   0.374   5.354
 9681SOL     OW29941   3.521   2.180   0.665
 9681SOL    HW129942   3.444   2.221   0.713
 9681SOL    HW229943   3.515   2.200   0.568
 9682SOL     OW29944   4.875   3.802   3.635
 9682SOL    HW129945   4.891   3.704   3.649
 9682SOL    HW229946   4.820   3.815   3.553
 9683SOL     OW29947   3.210   6.233   0.717
 9683SOL    HW129948   3.117   6.206   0.745
 9683SOL    HW229949   3.277   6.172   0.759
 9684SOL     OW29950   0.730   4.264   4.861
 9684SOL    HW129951   0.770   4.220   4.942
 9684SOL    HW229952   0.630   4.263   4.869
 9685SOL     OW29953   4.944   3.508   0.816
 9685SOL    HW129954   4.891   3.538   0.736
 9685SOL    HW229955   4.913   3.558   0.897
 9686SOL     OW29956   0.932   3.273   6.367
 9686SOL    HW129957   0.927   3.335   6.288
 9686SOL    HW229958   0.969   3.323   6.445
 9687SOL     OW29959   6.385   0.810   2.810
 9687SOL    HW129960   6.467   0.771   2.770
 9687SOL    HW229961   6.310   0.808   2.743
 9688SOL     OW29962   1.290   3.235   0.590
 9688SOL    HW129963   1.274   3.169   0.517
 9688SOL    HW229964   1.220   3.225   0.660
 9689SOL     OW29965   0.613   4.501   6.938
 9689SOL    HW129966   0.678   4.513   6.863
 9689SOL    HW229967   0.659   4.454   7.014
 9690SOL     OW29968   5.427   6.613   5.731
 9690SOL    HW129969   5.518   6.635   5.697
 9690SOL    HW229970   5.408   6.665   5.814
 9691SOL     OW29971   2.867   3.938   1.651
 9691SOL    HW129972   2.814   4.021   1.669
 9691SOL    HW229973   2.924   3.952   1.570
 9692SOL     OW29974   4.596   5.927   1.298
 9692SOL    HW129975   4.690   5.900   1.275
 9692SOL    HW229976   4.592   6.026   1.312
 9693SOL     OW29977   6.057   4.039   3.234
 9693SOL    HW129978   6.114   4.043   3.152
 9693SOL    HW229979   6.055   4.129   3.277
 9694SOL     OW29980   3.261   0.899   2.356
 9694SOL    HW129981   3.297   0.856   2.439
 9694SOL    HW229982   3.336   0.935   2.302
 9695SOL     OW29983   6.418   3.040   3.339
 9695SOL    HW129984   6.437   2.958   3.394
 9695SOL    HW229985   6.385   3.012   3.249
 9696SOL     OW29986   5.926   2.785   1.575
 9696SOL    HW129987   6.024   2.800   1.559
 9696SOL    HW229988   5.911   2.695   1.614
 9697SOL     OW29989   0.672   6.220   0.333
 9697SOL    HW129990   0.632   6.292   0.277
 9697SOL    HW229991   0.765   6.200   0.301
 9698SOL     OW29992   5.599   2.546   6.015
 9698SOL    HW129993   5.549   2.585   5.937
 9698SOL    HW229994   5.663   2.477   5.982
 9699SOL     OW29995   6.980   5.323   0.291
 9699SOL    HW129996   0.046   5.368   0.286
 9699SOL    HW229997   6.918   5.366   0.226
 9700SOL     OW29998   6.190   5.106   4.645
 9700SOL    HW129999   6.193   5.143   4.738
 9700SOL    HW230000   6.199   5.180   4.579
 9701SOL     OW30001   4.126   4.528   5.745
 9701SOL    HW130002   4.120   4.436   5.783
 9701SOL    HW230003   4.218   4.565   5.761
 9702SOL     OW30004   4.203   2.145   0.388
 9702SOL    HW130005   4.296   2.111   0.404
 9702SOL    HW230006   4.175   2.123   0.294
 9703SOL     OW30007   4.891   3.538   3.679
 9703SOL    HW130008   4.832   3.457   3.675
 9703SOL    HW230009   4.937   3.540   3.768
 9704SOL     OW30010   3.644   5.908   1.843
 9704SOL    HW130011   3.576   5.973   1.877
 9704SOL    HW230012   3.601   5.819   1.828
 9705SOL     OW30013   5.316   4.492   5.860
 9705SOL    HW130014   5.411   4.462   5.868
 9705SOL    HW230015   5.277   4.502   5.952
 9706SOL     OW30016   2.828   2.003   0.961
 9706SOL    HW130017   2.816   1.929   0.895
 9706SOL    HW230018   2.925   2.011   0.986
 9707SOL     OW30019   5.817   4.718   2.766
 9707SOL    HW130020   5.908   4.677   2.766
 9707SOL    HW230021   5.764   4.682   2.842
 9708SOL     OW30022   0.617   1.317   3.484
 9708SOL    HW130023   0.672   1.331   3.402
 9708SOL    HW230024   0.530   1.274   3.459
 9709SOL     OW30025   5.282   5.052   2.316
 9709SOL    HW130026   5.352   5.119   2.340
 9709SOL    HW230027   5.298   4.967   2.367
 9710SOL     OW30028   6.528   1.359   1.558
 9710SOL    HW130029   6.550   1.401   1.470
 9710SOL    HW230030   6.438   1.391   1.589
 9711SOL     OW30031   4.538   5.385   6.124
 9711SOL    HW130032   4.616   5.353   6.069
 9711SOL    HW230033   4.480   5.308   6.148
 9712SOL     OW30034   5.417   3.559   6.928
 9712SOL    HW130035   5.381   3.564   6.835
 9712SOL    HW230036   5.425   3.651   6.966
 9713SOL     OW30037   2.141   4.615   3.416
 9713SOL    HW130038   2.132   4.712   3.395
 9713SOL    HW230039   2.060   4.583   3.465
 9714SOL     OW30040   4.305   6.491   6.348
 9714SOL    HW130041   4.297   6.535   6.437
 9714SOL    HW230042   4.331   6.395   6.360
 9715SOL     OW30043   5.450   4.124   6.960
 9715SOL    HW130044   5.362   4.123   7.008
 9715SOL    HW230045   5.524   4.116   0.003
 9716SOL     OW30046   3.600   4.271   6.875
 9716SOL    HW130047   3.640   4.202   6.935
 9716SOL    HW230048   3.596   4.235   6.782
 9717SOL     OW30049   4.982   6.469   5.852
 9717SOL    HW130050   4.924   6.548   5.834
 9717SOL    HW230051   5.067   6.498   5.895
 9718SOL     OW30052   5.015   3.236   1.381
 9718SOL    HW130053   4.991   3.172   1.308
 9718SOL    HW230054   4.967   3.211   1.465
 9719SOL     OW30055   5.469   0.321   6.052
 9719SOL    HW130056   5.547   0.313   5.989
 9719SOL    HW230057   5.474   0.248   6.120
 9720SOL     OW30058   1.024   3.528   2.361
 9720SOL    HW130059   1.082   3.510   2.441
 9720SOL    HW230060   0.951   3.591   2.388
 9721SOL     OW30061   0.260   1.143   0.058
 9721SOL    HW130062   0.326   1.068   0.066
 9721SOL    HW230063   0.297   1.214   7.023
 9722SOL     OW30064   3.344   1.160   5.261
 9722SOL    HW130065   3.247   1.144   5.247
 9722SOL    HW230066   3.380   1.096   5.329
 9723SOL     OW30067   3.942   6.155   3.837
 9723SOL    HW130068   3.877   6.084   3.864
 9723SOL    HW230069   3.978   6.201   3.918
 9724SOL     OW30070   1.282   4.573   0.120
 9724SOL    HW130071   1.316   4.479   0.126
 9724SOL    HW230072   1.226   4.583   0.038
 9725SOL     OW30073   4.356   6.464   6.020
 9725SOL    HW130074   4.348   6.449   6.119
 9725SOL    HW230075   4.449   6.492   5.998
 9726SOL     OW30076   4.226   1.697   3.521
 9726SOL    HW130077   4.162   1.621   3.510
 9726SOL    HW230078   4.179   1.774   3.564
 9727SOL     OW30079   0.831   2.231   6.570
 9727SOL    HW130080   0.878   2.319   6.573
 9727SOL    HW230081   0.788   2.219   6.481
 9728SOL     OW30082   0.405   1.491   4.993
 9728SOL    HW130083   0.468   1.446   5.056
 9728SOL    HW230084   0.454   1.514   4.908
 9729SOL     OW30085   1.189   4.817   3.889
 9729SOL    HW130086   1.120   4.753   3.854
 9729SOL    HW230087   1.260   4.766   3.936
 9730SOL     OW30088   0.746   4.337   3.460
 9730SOL    HW130089   0.845   4.326   3.459
 9730SOL    HW230090   0.718   4.394   3.382
 9731SOL     OW30091   5.047   5.367   1.909
 9731SOL    HW130092   5.000   5.443   1.865
 9731SOL    HW230093   5.092   5.399   1.992
 9732SOL     OW30094   1.562   3.691   2.477
 9732SOL    HW130095   1.505   3.621   2.435
 9732SOL    HW230096   1.535   3.781   2.444
 9733SOL     OW30097   5.044   5.522   0.193
 9733SOL    HW130098   5.092   5.483   0.272
 9733SOL    HW230099   5.012   5.449   0.133
 9734SOL     OW30100   6.564   0.112   0.324
 9734SOL    HW130101   6.591   0.020   0.296
 9734SOL    HW230102   6.619   0.140   0.403
 9735SOL     OW30103   1.866   3.228   3.538
 9735SOL    HW130104   1.812   3.178   3.606
 9735SOL    HW230105   1.963   3.207   3.550
 9736SOL     OW30106   5.280   1.490   5.857
 9736SOL    HW130107   5.252   1.584   5.838
 9736SOL    HW230108   5.329   1.454   5.778
 9737SOL     OW30109   5.173   2.355   2.881
 9737SOL    HW130110   5.214   2.273   2.921
 9737SOL    HW230111   5.239   2.430   2.886
 9738SOL     OW30112   2.099   6.553   0.671
 9738SOL    HW130113   2.112   6.651   0.690
 9738SOL    HW230114   2.040   6.513   0.741
 9739SOL     OW30115   5.215   5.756   0.965
 9739SOL    HW130116   5.288   5.690   0.948
 9739SOL    HW230117   5.237   5.842   0.920
 9740SOL     OW30118   0.554   0.957   3.571
 9740SOL    HW130119   0.606   0.928   3.491
 9740SOL    HW230120   0.528   0.877   3.625
 9741SOL     OW30121   2.421   1.181   2.428
 9741SOL    HW130122   2.421   1.202   2.330
 9741SOL    HW230123   2.511   1.201   2.466
 9742SOL     OW30124   3.785   0.924   0.752
 9742SOL    HW130125   3.837   1.009   0.757
 9742SOL    HW230126   3.786   0.879   0.841
 9743SOL     OW30127   6.683   4.209   3.275
 9743SOL    HW130128   6.616   4.135   3.268
 9743SOL    HW230129   6.714   4.235   3.184
 9744SOL     OW30130   1.325   0.079   2.120
 9744SOL    HW130131   1.381   0.007   2.079
 9744SOL    HW230132   1.257   0.038   2.181
 9745SOL     OW30133   4.428   2.967   6.356
 9745SOL    HW130134   4.494   2.928   6.420
 9745SOL    HW230135   4.363   2.897   6.327
 9746SOL     OW30136   5.815   0.253   5.635
 9746SOL    HW130137   5.890   0.192   5.611
 9746SOL    HW230138   5.838   0.346   5.607
 9747SOL     OW30139   2.405   2.225   2.085
 9747SOL    HW130140   2.385   2.247   1.989
 9747SOL    HW230141   2.494   2.263   2.109
 9748SOL     OW30142   6.198   6.732   3.925
 9748SOL    HW130143   6.159   6.777   4.005
 9748SOL    HW230144   6.144   6.652   3.901
 9749SOL     OW30145   1.136   0.890   3.944
 9749SOL    HW130146   1.219   0.836   3.951
 9749SOL    HW230147   1.078   0.872   4.023
 9750SOL     OW30148   5.890   5.059   3.134
 9750SOL    HW130149   5.810   5.090   3.083
 9750SOL    HW230150   5.871   5.062   3.232
 9751SOL     OW30151   2.537   0.128   0.993
 9751SOL    HW130152   2.468   0.083   1.050
 9751SOL    HW230153   2.621   0.074   0.994
 9752SOL     OW30154   4.487   1.766   5.124
 9752SOL    HW130155   4.472   1.814   5.211
 9752SOL    HW230156   4.487   1.667   5.140
 9753SOL     OW30157   0.502   5.496   5.371
 9753SOL    HW130158   0.514   5.414   5.428
 9753SOL    HW230159   0.556   5.571   5.409
 9754SOL     OW30160   2.277   0.407   0.595
 9754SOL    HW130161   2.259   0.409   0.694
 9754SOL    HW230162   2.286   0.312   0.566
 9755SOL     OW30163   3.448   3.515   4.522
 9755SOL    HW130164   3.476   3.423   4.495
 9755SOL    HW230165   3.526   3.563   4.563
 9756SOL     OW30166   5.906   2.108   6.063
 9756SOL    HW130167   5.933   2.201   6.038
 9756SOL    HW230168   5.928   2.045   5.989
 9757SOL     OW30169   5.555   4.699   4.889
 9757SOL    HW130170   5.564   4.601   4.910
 9757SOL    HW230171   5.562   4.751   4.974
 9758SOL     OW30172   1.690   1.020   0.320
 9758SOL    HW130173   1.667   0.937   0.370
 9758SOL    HW230174   1.776   1.007   0.270
 9759SOL     OW30175   1.304   0.853   0.648
 9759SOL    HW130176   1.402   0.830   0.646
 9759SOL    HW230177   1.279   0.882   0.741
 9760SOL     OW30178   4.847   3.393   5.567
 9760SOL    HW130179   4.785   3.367   5.493
 9760SOL    HW230180   4.853   3.319   5.634
 9761SOL     OW30181   0.432   2.342   1.472
 9761SOL    HW130182   0.420   2.252   1.429
 9761SOL    HW230183   0.529   2.356   1.494
 9762SOL     OW30184   3.762   1.931   5.063
 9762SOL    HW130185   3.714   1.844   5.073
 9762SOL    HW230186   3.706   1.995   5.011
 9763SOL     OW30187   5.288   1.621   3.175
 9763SOL    HW130188   5.193   1.653   3.169
 9763SOL    HW230189   5.312   1.573   3.090
 9764SOL     OW30190   6.918   2.623   2.608
 9764SOL    HW130191   6.891   2.531   2.578
 9764SOL    HW230192   6.933   2.623   2.707
 9765SOL     OW30193   6.617   6.163   3.210
 9765SOL    HW130194   6.661   6.181   3.298
 9765SOL    HW230195   6.634   6.240   3.148
 9766SOL     OW30196   1.802   6.571   1.987
 9766SOL    HW130197   1.753   6.642   2.038
 9766SOL    HW230198   1.844   6.610   1.906
 9767SOL     OW30199   2.596   2.238   5.720
 9767SOL    HW130200   2.640   2.149   5.730
 9767SOL    HW230201   2.628   2.299   5.792
 9768SOL     OW30202   5.287   1.172   1.492
 9768SOL    HW130203   5.213   1.119   1.533
 9768SOL    HW230204   5.330   1.118   1.419
 9769SOL     OW30205   3.533   1.145   4.842
 9769SOL    HW130206   3.468   1.219   4.857
 9769SOL    HW230207   3.616   1.162   4.895
 9770SOL     OW30208   3.724   1.211   5.827
 9770SOL    HW130209   3.691   1.116   5.836
 9770SOL    HW230210   3.687   1.265   5.903
 9771SOL     OW30211   2.716   5.536   0.890
 9771SOL    HW130212   2.649   5.602   0.922
 9771SOL    HW230213   2.688   5.501   0.800
 9772SOL     OW30214   1.285   6.267   1.469
 9772SOL    HW130215   1.201   6.294   1.517
 9772SOL    HW230216   1.278   6.293   1.373
 9773SOL     OW30217   5.132   5.472   3.684
 9773SOL    HW130218   5.116   5.426   3.597
 9773SOL    HW230219   5.122   5.571   3.672
 9774SOL     OW30220   6.882   4.852   1.717
 9774SOL    HW130221   6.892   4.901   1.803
 9774SOL    HW230222   6.793   4.807   1.714
 9775SOL     OW30223   3.032   0.369   3.653
 9775SOL    HW130224   3.089   0.317   3.588
 9775SOL    HW230225   3.015   0.313   3.734
 9776SOL     OW30226   0.627   5.256   5.549
 9776SOL    HW130227   0.594   5.171   5.592
 9776SOL    HW230228   0.686   5.234   5.472
 9777SOL     OW30229   6.021   4.886   0.661
 9777SOL    HW130230   6.062   4.799   0.687
 9777SOL    HW230231   6.085   4.960   0.680
 9778SOL     OW30232   0.332   1.715   4.359
 9778SOL    HW130233   0.388   1.798   4.368
 9778SOL    HW230234   0.391   1.634   4.364
 9779SOL     OW30235   0.402   1.413   3.941
 9779SOL    HW130236   0.464   1.393   4.017
 9779SOL    HW230237   0.313   1.441   3.977
 9780SOL     OW30238   2.179   2.699   0.336
 9780SOL    HW130239   2.131   2.777   0.296
 9780SOL    HW230240   2.113   2.638   0.380
 9781SOL     OW30241   2.045   2.235   4.816
 9781SOL    HW130242   1.962   2.184   4.794
 9781SOL    HW230243   2.073   2.213   4.909
 9782SOL     OW30244   0.604   2.132   0.416
 9782SOL    HW130245   0.606   2.228   0.445
 9782SOL    HW230246   0.554   2.078   0.484
 9783SOL     OW30247   4.599   2.650   3.595
 9783SOL    HW130248   4.611   2.723   3.663
 9783SOL    HW230249   4.631   2.682   3.506
 9784SOL     OW30250   3.396   1.186   6.280
 9784SOL    HW130251   3.473   1.194   6.216
 9784SOL    HW230252   3.347   1.100   6.264
 9785SOL     OW30253   0.260   1.943   5.749
 9785SOL    HW130254   0.343   1.930   5.803
 9785SOL    HW230255   0.261   1.879   5.671
 9786SOL     OW30256   2.673   3.938   0.272
 9786SOL    HW130257   2.682   3.843   0.243
 9786SOL    HW230258   2.623   3.943   0.358
 9787SOL     OW30259   3.213   3.114   2.710
 9787SOL    HW130260   3.119   3.094   2.736
 9787SOL    HW230261   3.228   3.213   2.715
 9788SOL     OW30262   0.889   6.795   2.890
 9788SOL    HW130263   0.791   6.816   2.886
 9788SOL    HW230264   0.922   6.777   2.798
 9789SOL     OW30265   1.897   5.390   0.594
 9789SOL    HW130266   1.865   5.305   0.635
 9789SOL    HW230267   1.836   5.465   0.621
 9790SOL     OW30268   6.290   4.850   6.536
 9790SOL    HW130269   6.258   4.776   6.477
 9790SOL    HW230270   6.359   4.904   6.488
 9791SOL     OW30271   0.649   6.644   6.549
 9791SOL    HW130272   0.707   6.593   6.486
 9791SOL    HW230273   0.612   6.582   6.619
 9792SOL     OW30274   2.991   3.976   0.524
 9792SOL    HW130275   2.968   3.994   0.428
 9792SOL    HW230276   2.922   4.019   0.582
 9793SOL     OW30277   4.534   0.195   2.491
 9793SOL    HW130278   4.524   0.271   2.427
 9793SOL    HW230279   4.569   0.229   2.578
 9794SOL     OW30280   6.724   4.430   6.406
 9794SOL    HW130281   6.675   4.374   6.474
 9794SOL    HW230282   6.772   4.370   6.343
 9795SOL     OW30283   1.070   1.996   4.558
 9795SOL    HW130284   0.974   2.007   4.585
 9795SOL    HW230285   1.126   1.979   4.640
 9796SOL     OW30286   4.112   3.323   2.273
 9796SOL    HW130287   4.193   3.271   2.299
 9796SOL    HW230288   4.068   3.280   2.195
 9797SOL     OW30289   2.172   5.505   0.487
 9797SOL    HW130290   2.125   5.549   0.410
 9797SOL    HW230291   2.116   5.429   0.520
 9798SOL     OW30292   3.320   0.436   2.318
 9798SOL    HW130293   3.287   0.419   2.411
 9798SOL    HW230294   3.349   0.350   2.277
 9799SOL     OW30295   2.404   4.425   5.751
 9799SOL    HW130296   2.469   4.500   5.737
 9799SOL    HW230297   2.448   4.338   5.730
 9800SOL     OW30298   4.823   5.215   5.287
 9800SOL    HW130299   4.841   5.172   5.199
 9800SOL    HW230300   4.842   5.313   5.281
 9801SOL     OW30301   4.437   3.736   6.695
 9801SOL    HW130302   4.500   3.681   6.640
 9801SOL    HW230303   4.433   3.829   6.658
 9802SOL     OW30304   6.034   4.306   1.932
 9802SOL    HW130305   5.943   4.318   1.970
 9802SOL    HW230306   6.049   4.210   1.909
 9803SOL     OW30307   1.976   2.330   6.441
 9803SOL    HW130308   1.977   2.362   6.535
 9803SOL    HW230309   2.012   2.401   6.380
 9804SOL     OW30310   0.749   6.488   2.844
 9804SOL    HW130311   0.785   6.540   2.921
 9804SOL    HW230312   0.792   6.398   2.841
 9805SOL     OW30313   0.740   6.610   2.550
 9805SOL    HW130314   0.775   6.528   2.504
 9805SOL    HW230315   0.716   6.588   2.644
 9806SOL     OW30316   1.496   1.666   0.042
 9806SOL    HW130317   1.478   1.628   6.974
 9806SOL    HW230318   1.410   1.701   0.081
 9807SOL     OW30319   3.176   3.584   1.542
 9807SOL    HW130320   3.225   3.669   1.562
 9807SOL    HW230321   3.241   3.517   1.504
 9808SOL     OW30322   4.128   6.550   4.996
 9808SOL    HW130323   4.115   6.627   4.935
 9808SOL    HW230324   4.101   6.465   4.949
 9809SOL     OW30325   0.938   3.678   6.733
 9809SOL    HW130326   0.898   3.729   6.657
 9809SOL    HW230327   0.975   3.591   6.700
 9810SOL     OW30328   2.889   2.292   4.546
 9810SOL    HW130329   2.852   2.370   4.496
 9810SOL    HW230330   2.814   2.239   4.585
 9811SOL     OW30331   5.456   4.642   3.230
 9811SOL    HW130332   5.458   4.725   3.285
 9811SOL    HW230333   5.401   4.572   3.276
 9812SOL     OW30334   3.843   1.788   5.477
 9812SOL    HW130335   3.784   1.709   5.493
 9812SOL    HW230336   3.877   1.823   5.564
 9813SOL     OW30337   4.723   1.585   0.757
 9813SOL    HW130338   4.727   1.682   0.781
 9813SOL    HW230339   4.659   1.538   0.817
 9814SOL     OW30340   0.090   0.200   6.492
 9814SOL    HW130341   0.068   0.247   6.577
 9814SOL    HW230342   0.181   0.159   6.498
 9815SOL     OW30343   4.932   3.600   4.318
 9815SOL    HW130344   4.895   3.521   4.268
 9815SOL    HW230345   4.978   3.569   4.401
 9816SOL     OW30346   1.203   0.888   6.299
 9816SOL    HW130347   1.152   0.943   6.365
 9816SOL    HW230348   1.159   0.799   6.288
 9817SOL     OW30349   2.777   6.273   3.534
 9817SOL    HW130350   2.771   6.176   3.554
 9817SOL    HW230351   2.734   6.291   3.445
 9818SOL     OW30352   0.359   0.718   3.892
 9818SOL    HW130353   0.260   0.726   3.906
 9818SOL    HW230354   0.407   0.774   3.959
 9819SOL     OW30355   5.397   3.822   3.297
 9819SOL    HW130356   5.462   3.758   3.337
 9819SOL    HW230357   5.325   3.771   3.250
 9820SOL     OW30358   3.621   2.642   6.809
 9820SOL    HW130359   3.660   2.733   6.822
 9820SOL    HW230360   3.694   2.574   6.809
 9821SOL     OW30361   5.283   1.505   0.008
 9821SOL    HW130362   5.265   1.475   6.938
 9821SOL    HW230363   5.227   1.586   0.028
 9822SOL     OW30364   2.110   6.874   3.155
 9822SOL    HW130365   2.113   6.912   3.247
 9822SOL    HW230366   2.166   6.791   3.152
 9823SOL     OW30367   2.506   0.263   6.826
 9823SOL    HW130368   2.514   0.328   6.751
 9823SOL    HW230369   2.533   0.307   6.912
 9824SOL     OW30370   1.845   5.137   4.671
 9824SOL    HW130371   1.891   5.052   4.647
 9824SOL    HW230372   1.756   5.117   4.712
 9825SOL     OW30373   4.384   5.356   5.379
 9825SOL    HW130374   4.441   5.356   5.297
 9825SOL    HW230375   4.306   5.295   5.366
 9826SOL     OW30376   5.145   5.323   6.445
 9826SOL    HW130377   5.203   5.242   6.453
 9826SOL    HW230378   5.061   5.299   6.396
 9827SOL     OW30379   2.156   3.883   3.701
 9827SOL    HW130380   2.172   3.837   3.613
 9827SOL    HW230381   2.207   3.969   3.703
 9828SOL     OW30382   2.169   2.733   5.811
 9828SOL    HW130383   2.181   2.765   5.718
 9828SOL    HW230384   2.258   2.724   5.856
 9829SOL     OW30385   4.015   5.138   0.155
 9829SOL    HW130386   4.069   5.124   0.238
 9829SOL    HW230387   4.000   5.051   0.109
 9830SOL     OW30388   5.879   2.719   1.933
 9830SOL    HW130389   5.887   2.786   1.859
 9830SOL    HW230390   5.939   2.641   1.914
 9831SOL     OW30391   2.170   5.028   1.091
 9831SOL    HW130392   2.161   5.003   1.188
 9831SOL    HW230393   2.259   5.073   1.076
 9832SOL     OW30394   4.770   5.227   2.839
 9832SOL    HW130395   4.837   5.205   2.910
 9832SOL    HW230396   4.733   5.142   2.801
 9833SOL     OW30397   3.602   3.788   5.392
 9833SOL    HW130398   3.630   3.808   5.298
 9833SOL    HW230399   3.526   3.723   5.392
 9834SOL     OW30400   2.762   4.953   5.369
 9834SOL    HW130401   2.708   4.989   5.293
 9834SOL    HW230402   2.821   4.879   5.337
 9835SOL     OW30403   3.277   3.264   5.696
 9835SOL    HW130404   3.374   3.258   5.671
 9835SOL    HW230405   3.245   3.357   5.682
 9836SOL     OW30406   6.845   4.980   3.872
 9836SOL    HW130407   6.776   4.995   3.942
 9836SOL    HW230408   6.934   4.963   3.916
 9837SOL     OW30409   2.926   0.167   3.278
 9837SOL    HW130410   2.871   0.224   3.217
 9837SOL    HW230411   3.017   0.154   3.239
 9838SOL     OW30412   1.866   6.729   6.544
 9838SOL    HW130413   1.945   6.671   6.523
 9838SOL    HW230414   1.898   6.819   6.573
 9839SOL     OW30415   5.769   0.842   3.787
 9839SOL    HW130416   5.801   0.854   3.693
 9839SOL    HW230417   5.676   0.806   3.785
 9840SOL     OW30418   6.384   1.413   1.039
 9840SOL    HW130419   6.287   1.396   1.020
 9840SOL    HW230420   6.419   1.344   1.103
 9841SOL     OW30421   1.662   4.076   5.155
 9841SOL    HW130422   1.684   4.017   5.077
 9841SOL    HW230423   1.704   4.038   5.237
 9842SOL     OW30424   3.977   3.028   2.413
 9842SOL    HW130425   3.987   2.982   2.324
 9842SOL    HW230426   3.893   3.081   2.414
 9843SOL     OW30427   6.048   0.939   1.037
 9843SOL    HW130428   5.987   0.983   0.971
 9843SOL    HW230429   6.141   0.938   1.000
 9844SOL     OW30430   6.447   0.727   2.218
 9844SOL    HW130431   6.416   0.688   2.131
 9844SOL    HW230432   6.421   0.666   2.293
 9845SOL     OW30433   2.687   2.353   3.885
 9845SOL    HW130434   2.726   2.363   3.976
 9845SOL    HW230435   2.651   2.260   3.874
 9846SOL     OW30436   4.212   3.641   1.465
 9846SOL    HW130437   4.245   3.729   1.428
 9846SOL    HW230438   4.115   3.631   1.445
 9847SOL     OW30439   3.404   2.887   4.122
 9847SOL    HW130440   3.360   2.886   4.212
 9847SOL    HW230441   3.335   2.883   4.051
 9848SOL     OW30442   3.420   3.618   5.260
 9848SOL    HW130443   3.356   3.684   5.219
 9848SOL    HW230444   3.460   3.562   5.187
 9849SOL     OW30445   0.042   6.420   6.443
 9849SOL    HW130446   6.995   6.443   6.376
 9849SOL    HW230447   0.003   6.358   6.512
 9850SOL     OW30448   5.665   0.034   3.980
 9850SOL    HW130449   5.650   0.024   4.079
 9850SOL    HW230450   5.685   0.129   3.958
 9851SOL     OW30451   5.157   0.700   4.773
 9851SOL    HW130452   5.196   0.621   4.726
 9851SOL    HW230453   5.183   0.784   4.725
 9852SOL     OW30454   3.976   2.178   3.188
 9852SOL    HW130455   4.064   2.222   3.206
 9852SOL    HW230456   3.920   2.237   3.130
 9853SOL     OW30457   5.248   3.914   4.964
 9853SOL    HW130458   5.197   3.831   4.982
 9853SOL    HW230459   5.187   3.993   4.968
 9854SOL     OW30460   0.291   6.043   4.963
 9854SOL    HW130461   0.288   6.039   4.863
 9854SOL    HW230462   0.383   6.070   4.992
 9855SOL     OW30463   2.737   3.297   0.873
 9855SOL    HW130464   2.671   3.242   0.822
 9855SOL    HW230465   2.703   3.310   0.967
 9856SOL     OW30466   5.282   4.794   5.354
 9856SOL    HW130467   5.206   4.854   5.328
 9856SOL    HW230468   5.246   4.703   5.375
 9857SOL     OW30469   4.443   2.474   3.459
 9857SOL    HW130470   4.508   2.543   3.492
 9857SOL    HW230471   4.466   2.449   3.365
 9858SOL     OW30472   6.935   0.557   1.357
 9858SOL    HW130473   7.014   0.547   1.296
 9858SOL    HW230474   6.923   0.653   1.380
 9859SOL     OW30475   6.238   0.264   2.341
 9859SOL    HW130476   6.179   0.246   2.262
 9859SOL    HW230477   6.321   0.209   2.334
 9860SOL     OW30478   1.317   1.178   4.015
 9860SOL    HW130479   1.244   1.173   3.947
 9860SOL    HW230480   1.294   1.119   4.092
 9861SOL     OW30481   2.910   6.989   3.522
 9861SOL    HW130482   2.911   6.995   3.422
 9861SOL    HW230483   2.833   0.019   3.557
 9862SOL     OW30484   4.049   3.475   0.068
 9862SOL    HW130485   4.125   3.520   0.115
 9862SOL    HW230486   4.002   3.415   0.132
 9863SOL     OW30487   3.204   6.905   3.213
 9863SOL    HW130488   3.302   6.885   3.205
 9863SOL    HW230489   3.156   6.871   3.132
 9864SOL     OW30490   3.814   6.357   4.055
 9864SOL    HW130491   3.858   6.437   4.015
 9864SOL    HW230492   3.884   6.289   4.078
 9865SOL     OW30493   1.097   0.842   4.524
 9865SOL    HW130494   1.005   0.860   4.559
 9865SOL    HW230495   1.164   0.895   4.576
 9866SOL     OW30496   5.289   4.925   6.174
 9866SOL    HW130497   5.225   4.989   6.132
 9866SOL    HW230498   5.366   4.975   6.213
 9867SOL     OW30499   6.441   1.065   0.769
 9867SOL    HW130500   6.436   1.040   0.672
 9867SOL    HW230501   6.366   1.127   0.791
 9868SOL     OW30502   0.196   3.730   6.112
 9868SOL    HW130503   0.116   3.736   6.053
 9868SOL    HW230504   0.255   3.656   6.080
 9869SOL     OW30505   1.765   3.313   2.279
 9869SOL    HW130506   1.697   3.280   2.213
 9869SOL    HW230507   1.850   3.333   2.231
 9870SOL     OW30508   3.736   5.557   2.472
 9870SOL    HW130509   3.734   5.543   2.571
 9870SOL    HW230510   3.692   5.480   2.427
 9871SOL     OW30511   0.425   5.911   6.260
 9871SOL    HW130512   0.498   5.934   6.195
 9871SOL    HW230513   0.455   5.835   6.318
 9872SOL     OW30514   2.254   5.260   4.006
 9872SOL    HW130515   2.206   5.218   3.930
 9872SOL    HW230516   2.309   5.337   3.972
 9873SOL     OW30517   2.918   2.414   0.248
 9873SOL    HW130518   2.867   2.329   0.238
 9873SOL    HW230519   2.864   2.479   0.301
 9874SOL     OW30520   6.653   3.092   4.563
 9874SOL    HW130521   6.742   3.133   4.582
 9874SOL    HW230522   6.582   3.143   4.612
 9875SOL     OW30523   6.412   6.203   2.358
 9875SOL    HW130524   6.433   6.122   2.411
 9875SOL    HW230525   6.346   6.180   2.286
 9876SOL     OW30526   6.321   0.321   3.342
 9876SOL    HW130527   6.259   0.306   3.265
 9876SOL    HW230528   6.275   0.376   3.412
 9877SOL     OW30529   6.849   5.982   4.120
 9877SOL    HW130530   6.836   6.080   4.137
 9877SOL    HW230531   6.764   5.933   4.141
 9878SOL     OW30532   2.586   4.633   4.908
 9878SOL    HW130533   2.597   4.687   4.824
 9878SOL    HW230534   2.676   4.605   4.942
 9879SOL     OW30535   5.555   5.588   5.020
 9879SOL    HW130536   5.575   5.562   5.114
 9879SOL    HW230537   5.635   5.569   4.962
 9880SOL     OW30538   3.618   0.967   6.271
 9880SOL    HW130539   3.614   0.870   6.247
 9880SOL    HW230540   3.705   0.986   6.316
 9881SOL     OW30541   0.658   1.062   5.154
 9881SOL    HW130542   0.626   1.033   5.244
 9881SOL    HW230543   0.745   1.018   5.133
 9882SOL     OW30544   1.355   3.267   4.018
 9882SOL    HW130545   1.311   3.194   3.967
 9882SOL    HW230546   1.327   3.263   4.114
 9883SOL     OW30547   1.123   6.335   0.269
 9883SOL    HW130548   1.090   6.395   0.197
 9883SOL    HW230549   1.145   6.389   0.350
 9884SOL     OW30550   5.277   2.482   1.384
 9884SOL    HW130551   5.344   2.473   1.457
 9884SOL    HW230552   5.247   2.390   1.355
 9885SOL     OW30553   6.799   1.986   4.964
 9885SOL    HW130554   6.821   2.074   4.922
 9885SOL    HW230555   6.800   1.996   5.064
 9886SOL     OW30556   1.179   4.583   2.403
 9886SOL    HW130557   1.253   4.576   2.336
 9886SOL    HW230558   1.167   4.679   2.429
 9887SOL     OW30559   4.145   0.508   6.346
 9887SOL    HW130560   4.205   0.550   6.277
 9887SOL    HW230561   4.179   0.416   6.366
 9888SOL     OW30562   5.850   4.719   2.445
 9888SOL    HW130563   5.901   4.804   2.431
 9888SOL    HW230564   5.911   4.641   2.431
 9889SOL     OW30565   6.602   4.874   1.507
 9889SOL    HW130566   6.662   4.936   1.456
 9889SOL    HW230567   6.638   4.781   1.502
 9890SOL     OW30568   1.403   2.923   0.872
 9890SOL    HW130569   1.359   2.877   0.794
 9890SOL    HW230570   1.335   2.944   0.941
 9891SOL     OW30571   5.545   3.259   2.159
 9891SOL    HW130572   5.458   3.219   2.127
 9891SOL    HW230573   5.621   3.217   2.109
 9892SOL     OW30574   0.684   4.702   1.126
 9892SOL    HW130575   0.741   4.784   1.114
 9892SOL    HW230576   0.654   4.669   1.037
 9893SOL     OW30577   0.610   0.976   1.612
 9893SOL    HW130578   0.697   0.929   1.629
 9893SOL    HW230579   0.605   1.058   1.670
 9894SOL     OW30580   3.537   2.486   0.518
 9894SOL    HW130581   3.534   2.404   0.460
 9894SOL    HW230582   3.460   2.545   0.496
 9895SOL     OW30583   5.940   4.695   5.241
 9895SOL    HW130584   5.963   4.623   5.177
 9895SOL    HW230585   5.937   4.783   5.193
 9896SOL     OW30586   6.057   1.082   0.556
 9896SOL    HW130587   6.080   1.145   0.481
 9896SOL    HW230588   6.059   1.131   0.643
 9897SOL     OW30589   5.587   6.133   2.585
 9897SOL    HW130590   5.574   6.228   2.556
 9897SOL    HW230591   5.504   6.099   2.628
 9898SOL     OW30592   1.189   5.233   5.428
 9898SOL    HW130593   1.153   5.286   5.351
 9898SOL    HW230594   1.116   5.216   5.494
 9899SOL     OW30595   1.704   5.666   0.906
 9899SOL    HW130596   1.696   5.738   0.974
 9899SOL    HW230597   1.799   5.635   0.901
 9900SOL     OW30598   1.146   2.665   2.993
 9900SOL    HW130599   1.121   2.730   2.920
 9900SOL    HW230600   1.231   2.619   2.968
 9901SOL     OW30601   3.120   0.633   6.986
 9901SOL    HW130602   3.191   0.565   7.004
 9901SOL    HW230603   3.143   0.719   0.008
 9902SOL     OW30604   2.914   4.574   1.528
 9902SOL    HW130605   2.950   4.611   1.614
 9902SOL    HW230606   2.972   4.497   1.499
 9903SOL     OW30607   5.775   2.308   1.811
 9903SOL    HW130608   5.854   2.266   1.855
 9903SOL    HW230609   5.730   2.241   1.753
 9904SOL     OW30610   0.734   4.073   0.496
 9904SOL    HW130611   0.816   4.076   0.553
 9904SOL    HW230612   0.711   4.166   0.466
 9905SOL     OW30613   2.498   0.825   6.125
 9905SOL    HW130614   2.414   0.781   6.156
 9905SOL    HW230615   2.486   0.924   6.128
 9906SOL     OW30616   1.716   3.304   0.632
 9906SOL    HW130617   1.655   3.227   0.650
 9906SOL    HW230618   1.751   3.299   0.539
 9907SOL     OW30619   0.844   0.389   1.040
 9907SOL    HW130620   0.936   0.356   1.016
 9907SOL    HW230621   0.796   0.317   1.091
 9908SOL     OW30622   6.289   1.774   5.101
 9908SOL    HW130623   6.284   1.872   5.080
 9908SOL    HW230624   6.355   1.730   5.040
 9909SOL     OW30625   4.284   1.074   2.893
 9909SOL    HW130626   4.295   0.986   2.938
 9909SOL    HW230627   4.235   1.136   2.954
 9910SOL     OW30628   1.226   4.988   2.009
 9910SOL    HW130629   1.226   4.926   1.931
 9910SOL    HW230630   1.287   5.065   1.990
 9911SOL     OW30631   2.770   6.561   2.560
 9911SOL    HW130632   2.832   6.606   2.497
 9911SOL    HW230633   2.803   6.469   2.581
 9912SOL     OW30634   3.522   0.849   1.266
 9912SOL    HW130635   3.465   0.891   1.337
 9912SOL    HW230636   3.524   0.909   1.186
 9913SOL     OW30637   6.400   3.871   0.422
 9913SOL    HW130638   6.394   3.787   0.475
 9913SOL    HW230639   6.436   3.850   0.331
 9914SOL     OW30640   5.880   1.100   4.632
 9914SOL    HW130641   5.833   1.154   4.701
 9914SOL    HW230642   5.906   1.012   4.671
 9915SOL     OW30643   6.107   0.924   3.559
 9915SOL    HW130644   6.007   0.918   3.559
 9915SOL    HW230645   6.140   0.921   3.464
 9916SOL     OW30646   2.331   2.356   3.197
 9916SOL    HW130647   2.408   2.417   3.216
 9916SOL    HW230648   2.269   2.399   3.131
 9917SOL     OW30649   4.012   3.944   6.098
 9917SOL    HW130650   4.109   3.939   6.121
 9917SOL    HW230651   3.959   3.898   6.169
 9918SOL     OW30652   1.702   2.489   2.674
 9918SOL    HW130653   1.683   2.448   2.585
 9918SOL    HW230654   1.759   2.427   2.728
 9919SOL     OW30655   1.036   5.715   1.035
 9919SOL    HW130656   1.000   5.630   0.996
 9919SOL    HW230657   0.978   5.743   1.111
 9920SOL     OW30658   5.062   0.552   2.412
 9920SOL    HW130659   5.089   0.494   2.490
 9920SOL    HW230660   5.127   0.539   2.337
 9921SOL     OW30661   4.430   6.484   4.509
 9921SOL    HW130662   4.457   6.441   4.423
 9921SOL    HW230663   4.511   6.503   4.564
 9922SOL     OW30664   3.529   4.257   1.274
 9922SOL    HW130665   3.540   4.165   1.238
 9922SOL    HW230666   3.432   4.281   1.277
 9923SOL     OW30667   5.922   4.667   6.811
 9923SOL    HW130668   5.914   4.741   6.876
 9923SOL    HW230669   5.847   4.602   6.824
 9924SOL     OW30670   6.137   1.658   3.150
 9924SOL    HW130671   6.217   1.674   3.092
 9924SOL    HW230672   6.088   1.578   3.117
 9925SOL     OW30673   0.508   5.191   3.870
 9925SOL    HW130674   0.514   5.275   3.815
 9925SOL    HW230675   0.508   5.215   3.967
 9926SOL     OW30676   4.166   2.469   1.536
 9926SOL    HW130677   4.242   2.432   1.483
 9926SOL    HW230678   4.089   2.406   1.532
 9927SOL     OW30679   1.365   0.179   1.115
 9927SOL    HW130680   1.416   0.094   1.120
 9927SOL    HW230681   1.371   0.216   1.023
 9928SOL     OW30682   4.996   5.033   3.313
 9928SOL    HW130683   4.907   5.069   3.288
 9928SOL    HW230684   5.050   5.015   3.230
 9929SOL     OW30685   3.308   3.897   4.872
 9929SOL    HW130686   3.213   3.928   4.865
 9929SOL    HW230687   3.356   3.952   4.940
 9930SOL     OW30688   0.201   6.472   5.284
 9930SOL    HW130689   0.262   6.551   5.291
 9930SOL    HW230690   0.256   6.389   5.270
 9931SOL     OW30691   6.963   5.396   4.493
 9931SOL    HW130692   0.014   5.462   4.495
 9931SOL    HW230693   6.930   5.380   4.586
 9932SOL     OW30694   2.185   3.154   5.794
 9932SOL    HW130695   2.229   3.197   5.715
 9932SOL    HW230696   2.245   3.083   5.831
 9933SOL     OW30697   1.955   6.829   4.073
 9933SOL    HW130698   1.978   6.906   4.013
 9933SOL    HW230699   1.880   6.776   4.033
 9934SOL     OW30700   6.820   2.435   5.598
 9934SOL    HW130701   6.872   2.511   5.560
 9934SOL    HW230702   6.819   2.359   5.532
 9935SOL     OW30703   3.216   6.866   0.862
 9935SOL    HW130704   3.122   6.833   0.855
 9935SOL    HW230705   3.231   6.904   0.954
 9936SOL     OW30706   6.343   4.521   1.019
 9936SOL    HW130707   6.374   4.616   1.025
 9936SOL    HW230708   6.251   4.514   1.056
 9937SOL     OW30709   0.396   2.033   1.093
 9937SOL    HW130710   0.433   2.119   1.058
 9937SOL    HW230711   0.470   1.966   1.103
 9938SOL     OW30712   5.956   4.749   3.669
 9938SOL    HW130713   5.949   4.828   3.609
 9938SOL    HW230714   5.865   4.707   3.680
 9939SOL     OW30715   4.764   3.253   1.075
 9939SOL    HW130716   4.679   3.209   1.047
 9939SOL    HW230717   4.829   3.183   1.105
 9940SOL     OW30718   1.310   0.963   1.810
 9940SOL    HW130719   1.234   0.960   1.744
 9940SOL    HW230720   1.339   1.058   1.822
 9941SOL     OW30721   3.528   3.172   4.978
 9941SOL    HW130722   3.612   3.119   4.972
 9941SOL    HW230723   3.493   3.168   5.072
 9942SOL     OW30724   2.854   5.524   2.465
 9942SOL    HW130725   2.782   5.488   2.525
 9942SOL    HW230726   2.944   5.504   2.505
 9943SOL     OW30727   0.805   4.427   6.372
 9943SOL    HW130728   0.896   4.388   6.365
 9943SOL    HW230729   0.799   4.510   6.317
 9944SOL     OW30730   0.769   4.707   6.569
 9944SOL    HW130731   0.787   4.793   6.617
 9944SOL    HW230732   0.713   4.725   6.489
 9945SOL     OW30733   4.347   6.186   6.962
 9945SOL    HW130734   4.321   6.197   0.035
 9945SOL    HW230735   4.298   6.254   6.906
 9946SOL     OW30736   5.996   0.629   3.403
 9946SOL    HW130737   5.900   0.655   3.390
 9946SOL    HW230738   6.047   0.645   3.318
 9947SOL     OW30739   2.652   2.411   4.914
 9947SOL    HW130740   2.652   2.486   4.847
 9947SOL    HW230741   2.717   2.432   4.987
 9948SOL     OW30742   6.931   4.896   6.216
 9948SOL    HW130743   6.943   4.972   6.280
 9948SOL    HW230744   6.861   4.834   6.251
 9949SOL     OW30745   6.542   4.520   4.019
 9949SOL    HW130746   6.452   4.529   3.976
 9949SOL    HW230747   6.598   4.457   3.966
 9950SOL     OW30748   5.454   6.141   5.939
 9950SOL    HW130749   5.551   6.159   5.924
 9950SOL    HW230750   5.435   6.044   5.925
 9951SOL     OW30751   1.438   2.165   3.863
 9951SOL    HW130752   1.404   2.225   3.791
 9951SOL    HW230753   1.398   2.074   3.852
 9952SOL     OW30754   1.372   4.805   0.317
 9952SOL    HW130755   1.338   4.775   0.406
 9952SOL    HW230756   1.312   4.771   0.245
 9953SOL     OW30757   6.283   2.507   3.977
 9953SOL    HW130758   6.216   2.434   3.983
 9953SOL    HW230759   6.371   2.474   4.013
 9954SOL     OW30760   1.056   0.818   5.753
 9954SOL    HW130761   1.098   0.849   5.668
 9954SOL    HW230762   1.050   0.895   5.817
 9955SOL     OW30763   5.288   4.116   6.021
 9955SOL    HW130764   5.330   4.164   6.098
 9955SOL    HW230765   5.218   4.174   5.980
 9956SOL     OW30766   0.548   5.675   2.964
 9956SOL    HW130767   0.632   5.652   3.014
 9956SOL    HW230768   0.528   5.772   2.976
 9957SOL     OW30769   5.629   0.330   1.961
 9957SOL    HW130770   5.678   0.255   1.918
 9957SOL    HW230771   5.650   0.416   1.913
 9958SOL     OW30772   1.881   5.617   6.528
 9958SOL    HW130773   1.826   5.673   6.465
 9958SOL    HW230774   1.898   5.528   6.487
 9959SOL     OW30775   4.151   3.602   4.152
 9959SOL    HW130776   4.117   3.623   4.060
 9959SOL    HW230777   4.244   3.638   4.162
 9960SOL     OW30778   6.858   0.322   2.412
 9960SOL    HW130779   6.794   0.334   2.337
 9960SOL    HW230780   6.884   0.226   2.419
 9961SOL     OW30781   1.406   5.048   4.532
 9961SOL    HW130782   1.422   5.077   4.438
 9961SOL    HW230783   1.472   5.093   4.593
 9962SOL     OW30784   4.509   7.023   1.946
 9962SOL    HW130785   4.442   0.009   1.872
 9962SOL    HW230786   4.601   0.014   1.910
 9963SOL     OW30787   2.484   2.520   6.146
 9963SOL    HW130788   2.451   2.426   6.140
 9963SOL    HW230789   2.582   2.522   6.130
 9964SOL     OW30790   4.565   3.606   5.610
 9964SOL    HW130791   4.532   3.615   5.516
 9964SOL    HW230792   4.656   3.648   5.617
 9965SOL     OW30793   3.896   4.752   6.554
 9965SOL    HW130794   3.869   4.846   6.535
 9965SOL    HW230795   3.825   4.689   6.522
 9966SOL     OW30796   2.220   5.936   2.232
 9966SOL    HW130797   2.257   5.910   2.143
 9966SOL    HW230798   2.185   5.855   2.279
 9967SOL     OW30799   5.988   6.735   2.167
 9967SOL    HW130800   5.949   6.676   2.237
 9967SOL    HW230801   5.924   6.744   2.091
 9968SOL     OW30802   3.154   3.731   6.516
 9968SOL    HW130803   3.163   3.797   6.591
 9968SOL    HW230804   3.111   3.647   6.550
 9969SOL     OW30805   1.527   2.449   4.220
 9969SOL    HW130806   1.563   2.392   4.147
 9969SOL    HW230807   1.602   2.481   4.278
 9970SOL     OW30808   5.616   4.311   2.839
 9970SOL    HW130809   5.601   4.327   2.742
 9970SOL    HW230810   5.704   4.266   2.852
 9971SOL     OW30811   2.764   3.551   7.014
 9971SOL    HW130812   2.801   3.621   6.952
 9971SOL    HW230813   2.835   3.484   0.011
 9972SOL     OW30814   3.711   4.543   0.380
 9972SOL    HW130815   3.793   4.539   0.323
 9972SOL    HW230816   3.648   4.470   0.353
 9973SOL     OW30817   4.080   1.816   3.877
 9973SOL    HW130818   4.085   1.852   3.784
 9973SOL    HW230819   4.080   1.716   3.873
 9974SOL     OW30820   6.433   4.026   3.271
 9974SOL    HW130821   6.396   4.089   3.340
 9974SOL    HW230822   6.430   3.932   3.307
 9975SOL     OW30823   6.651   4.303   0.655
 9975SOL    HW130824   6.617   4.331   0.565
 9975SOL    HW230825   6.746   4.334   0.665
 9976SOL     OW30826   0.518   5.906   5.217
 9976SOL    HW130827   0.423   5.881   5.236
 9976SOL    HW230828   0.520   5.983   5.153
 9977SOL     OW30829   0.236   5.128   6.068
 9977SOL    HW130830   0.323   5.179   6.071
 9977SOL    HW230831   0.169   5.180   6.015
 9978SOL     OW30832   6.288   3.237   3.435
 9978SOL    HW130833   6.347   3.162   3.404
 9978SOL    HW230834   6.196   3.223   3.399
 9979SOL     OW30835   6.477   5.067   5.616
 9979SOL    HW130836   6.512   5.092   5.526
 9979SOL    HW230837   6.387   5.108   5.629
 9980SOL     OW30838   1.634   1.389   6.263
 9980SOL    HW130839   1.637   1.397   6.363
 9980SOL    HW230840   1.672   1.301   6.235
 9981SOL     OW30841   2.280   1.924   1.468
 9981SOL    HW130842   2.214   1.923   1.394
 9981SOL    HW230843   2.367   1.961   1.435
 9982SOL     OW30844   0.477   0.947   4.039
 9982SOL    HW130845   0.532   0.937   4.122
 9982SOL    HW230846   0.532   0.993   3.968
 9983SOL     OW30847   1.232   2.397   2.715
 9983SOL    HW130848   1.227   2.318   2.654
 9983SOL    HW230849   1.328   2.415   2.737
 9984SOL     OW30850   1.346   0.605   0.483
 9984SOL    HW130851   1.286   0.600   0.403
 9984SOL    HW230852   1.312   0.676   0.545
 9985SOL     OW30853   2.175   0.830   2.110
 9985SOL    HW130854   2.188   0.756   2.043
 9985SOL    HW230855   2.238   0.904   2.090
 9986SOL     OW30856   4.658   4.195   6.442
 9986SOL    HW130857   4.603   4.271   6.478
 9986SOL    HW230858   4.744   4.231   6.405
 9987SOL     OW30859   6.312   2.196   3.038
 9987SOL    HW130860   6.274   2.172   3.127
 9987SOL    HW230861   6.265   2.145   2.966
 9988SOL     OW30862   0.346   6.069   4.693
 9988SOL    HW130863   0.342   6.142   4.625
 9988SOL    HW230864   0.433   6.019   4.684
 9989SOL     OW30865   6.293   4.208   3.565
 9989SOL    HW130866   6.368   4.142   3.568
 9989SOL    HW230867   6.330   4.300   3.579
 9990SOL     OW30868   2.592   6.687   2.285
 9990SOL    HW130869   2.640   6.722   2.365
 9990SOL    HW230870   2.645   6.706   2.203
 9991SOL     OW30871   2.129   3.243   4.201
 9991SOL    HW130872   2.125   3.338   4.169
 9991SOL    HW230873   2.187   3.237   4.282
 9992SOL     OW30874   4.633   3.953   0.342
 9992SOL    HW130875   4.607   4.013   0.267
 9992SOL    HW230876   4.653   3.861   0.306
 9993SOL     OW30877   3.712   0.534   2.020
 9993SOL    HW130878   3.757   0.611   2.066
 9993SOL    HW230879   3.614   0.534   2.042
 9994SOL     OW30880   6.974   4.607   3.902
 9994SOL    HW130881   6.984   4.670   3.979
 9994SOL    HW230882   0.040   4.588   3.862
 9995SOL     OW30883   3.410   0.818   2.822
 9995SOL    HW130884   3.477   0.889   2.801
 9995SOL    HW230885   3.421   0.789   2.917
 9996SOL     OW30886   2.904   3.290   1.957
 9996SOL    HW130887   2.884   3.356   2.029
 9996SOL    HW230888   2.995   3.306   1.921
 9997SOL     OW30889   3.680   1.566   1.211
 9997SOL    HW130890   3.625   1.591   1.131
 9997SOL    HW230891   3.619   1.545   1.287
 9998SOL     OW30892   6.002   4.881   1.571
 9998SOL    HW130893   5.965   4.791   1.548
 9998SOL    HW230894   6.079   4.870   1.635
 9999SOL     OW30895   6.368   3.324   4.927
 9999SOL    HW130896   6.269   3.335   4.936
 9999SOL    HW230897   6.403   3.276   5.008
10000SOL     OW30898   6.283   3.677   6.878
10000SOL    HW130899   6.309   3.605   6.815
10000SOL    HW230900   6.312   3.652   6.971
10001SOL     OW30901   5.412   0.914   1.902
10001SOL    HW130902   5.335   0.960   1.946
10001SOL    HW230903   5.498   0.958   1.931
10002SOL     OW30904   1.673   0.563   1.670
10002SOL    HW130905   1.604   0.584   1.738
10002SOL    HW230906   1.690   0.644   1.613
10003SOL     OW30907   3.980   1.734   4.375
10003SOL    HW130908   3.956   1.784   4.293
10003SOL    HW230909   4.007   1.641   4.351
10004SOL     OW30910   4.529   2.295   4.263
10004SOL    HW130911   4.468   2.335   4.196
10004SOL    HW230912   4.476   2.261   4.341
10005SOL     OW30913   4.487   0.257   3.888
10005SOL    HW130914   4.419   0.225   3.954
10005SOL    HW230915   4.481   0.357   3.879
10006SOL     OW30916   5.428   0.713   3.489
10006SOL    HW130917   5.470   0.745   3.573
10006SOL    HW230918   5.377   0.629   3.507
10007SOL     OW30919   0.528   5.096   4.801
10007SOL    HW130920   0.597   5.056   4.862
10007SOL    HW230921   0.532   5.196   4.808
10008SOL     OW30922   4.317   1.207   4.788
10008SOL    HW130923   4.239   1.147   4.771
10008SOL    HW230924   4.285   1.302   4.794
10009SOL     OW30925   1.933   3.687   1.626
10009SOL    HW130926   2.000   3.673   1.699
10009SOL    HW230927   1.918   3.785   1.612
10010SOL     OW30928   1.819   6.717   6.132
10010SOL    HW130929   1.806   6.763   6.044
10010SOL    HW230930   1.793   6.780   6.206
10011SOL     OW30931   5.940   1.657   4.640
10011SOL    HW130932   5.972   1.614   4.725
10011SOL    HW230933   5.848   1.624   4.618
10012SOL     OW30934   4.657   1.074   3.413
10012SOL    HW130935   4.605   0.990   3.427
10012SOL    HW230936   4.661   1.126   3.499
10013SOL     OW30937   1.169   1.589   3.480
10013SOL    HW130938   1.224   1.539   3.547
10013SOL    HW230939   1.088   1.535   3.456
10014SOL     OW30940   6.513   3.330   6.805
10014SOL    HW130941   6.452   3.387   6.750
10014SOL    HW230942   6.475   3.320   6.897
10015SOL     OW30943   2.434   4.240   0.538
10015SOL    HW130944   2.401   4.179   0.610
10015SOL    HW230945   2.457   4.187   0.457
10016SOL     OW30946   1.951   0.670   5.697
10016SOL    HW130947   1.948   0.594   5.762
10016SOL    HW230948   1.999   0.640   5.614
10017SOL     OW30949   2.413   2.570   2.797
10017SOL    HW130950   2.358   2.487   2.797
10017SOL    HW230951   2.433   2.597   2.703
10018SOL     OW30952   4.965   6.984   5.502
10018SOL    HW130953   5.064   6.974   5.507
10018SOL    HW230954   4.935   6.977   5.407
10019SOL     OW30955   0.370   1.970   2.833
10019SOL    HW130956   0.272   1.968   2.850
10019SOL    HW230957   0.418   2.002   2.915
10020SOL     OW30958   1.055   2.725   1.446
10020SOL    HW130959   1.034   2.628   1.463
10020SOL    HW230960   1.143   2.748   1.486
10021SOL     OW30961   0.201   2.442   0.788
10021SOL    HW130962   0.165   2.447   0.695
10021SOL    HW230963   0.162   2.363   0.835
10022SOL     OW30964   3.216   7.023   6.615
10022SOL    HW130965   3.177   6.944   6.661
10022SOL    HW230966   3.307   0.018   6.651
10023SOL     OW30967   1.031   5.244   6.149
10023SOL    HW130968   1.087   5.230   6.068
10023SOL    HW230969   1.081   5.216   6.231
10024SOL     OW30970   1.865   6.577   1.466
10024SOL    HW130971   1.939   6.577   1.533
10024SOL    HW230972   1.903   6.588   1.374
10025SOL     OW30973   1.451   1.666   1.578
10025SOL    HW130974   1.505   1.600   1.526
10025SOL    HW230975   1.407   1.620   1.655
10026SOL     OW30976   5.521   6.803   3.969
10026SOL    HW130977   5.581   6.730   3.938
10026SOL    HW230978   5.547   6.889   3.925
10027SOL     OW30979   6.396   4.050   5.225
10027SOL    HW130980   6.488   4.073   5.192
10027SOL    HW230981   6.342   4.133   5.231
10028SOL     OW30982   1.933   1.735   1.417
10028SOL    HW130983   1.861   1.689   1.366
10028SOL    HW230984   1.914   1.729   1.515
10029SOL     OW30985   3.813   2.152   4.569
10029SOL    HW130986   3.803   2.242   4.610
10029SOL    HW230987   3.723   2.120   4.537
10030SOL     OW30988   2.591   6.627   3.727
10030SOL    HW130989   2.591   6.585   3.636
10030SOL    HW230990   2.530   6.707   3.727
10031SOL     OW30991   6.187   5.007   4.261
10031SOL    HW130992   6.212   4.911   4.250
10031SOL    HW230993   6.119   5.016   4.334
10032SOL     OW30994   2.390   1.930   5.195
10032SOL    HW130995   2.318   1.999   5.185
10032SOL    HW230996   2.477   1.975   5.216
10033SOL     OW30997   5.782   1.898   3.514
10033SOL    HW130998   5.768   1.833   3.440
10033SOL    HW230999   5.831   1.853   3.589
10034SOL     OW31000   2.756   0.251   4.491
10034SOL    HW131001   2.831   0.294   4.542
10034SOL    HW231002   2.686   0.318   4.469
10035SOL     OW31003   6.241   4.225   2.151
10035SOL    HW131004   6.340   4.208   2.145
10035SOL    HW231005   6.211   4.276   2.071
10036SOL     OW31006   6.418   2.587   1.642
10036SOL    HW131007   6.472   2.607   1.560
10036SOL    HW231008   6.452   2.503   1.685
10037SOL     OW31009   6.792   0.948   0.856
10037SOL    HW131010   6.766   0.857   0.888
10037SOL    HW231011   6.815   1.006   0.934
10038SOL     OW31012   5.088   0.898   0.188
10038SOL    HW131013   5.037   0.887   0.274
10038SOL    HW231014   5.081   0.813   0.135
10039SOL     OW31015   3.032   0.521   3.174
10039SOL    HW131016   2.956   0.457   3.176
10039SOL    HW231017   3.114   0.476   3.210
10040SOL     OW31018   4.920   5.245   6.276
10040SOL    HW131019   4.875   5.164   6.238
10040SOL    HW231020   4.953   5.302   6.202
10041SOL     OW31021   3.971   6.259   6.541
10041SOL    HW131022   3.878   6.222   6.538
10041SOL    HW231023   3.968   6.358   6.539
10042SOL     OW31024   1.173   2.366   3.993
10042SOL    HW131025   1.178   2.267   3.978
10042SOL    HW231026   1.177   2.384   4.092
10043SOL     OW31027   6.368   1.084   5.320
10043SOL    HW131028   6.399   1.178   5.308
10043SOL    HW231029   6.270   1.083   5.339
10044SOL     OW31030   1.741   1.920   4.268
10044SOL    HW131031   1.821   1.979   4.261
10044SOL    HW231032   1.701   1.906   4.178
10045SOL     OW31033   4.062   0.298   2.678
10045SOL    HW131034   4.042   0.200   2.680
10045SOL    HW231035   4.161   0.312   2.679
10046SOL     OW31036   2.210   3.746   0.891
10046SOL    HW131037   2.174   3.839   0.891
10046SOL    HW231038   2.166   3.693   0.963
10047SOL     OW31039   1.032   3.206   4.921
10047SOL    HW131040   1.007   3.225   5.016
10047SOL    HW231041   1.131   3.221   4.909
10048SOL     OW31042   7.020   0.083   2.734
10048SOL    HW131043   0.051   0.163   2.757
10048SOL    HW231044   6.998   0.085   2.636
10049SOL     OW31045   1.594   1.248   5.754
10049SOL    HW131046   1.495   1.256   5.767
10049SOL    HW231047   1.615   1.167   5.700
10050SOL     OW31048   5.510   3.862   5.262
10050SOL    HW131049   5.442   3.935   5.257
10050SOL    HW231050   5.484   3.788   5.200
10051SOL     OW31051   0.217   3.692   5.191
10051SOL    HW131052   0.292   3.734   5.140
10051SOL    HW231053   0.130   3.725   5.153
10052SOL     OW31054   2.377   1.075   3.426
10052SOL    HW131055   2.302   1.073   3.360
10052SOL    HW231056   2.455   1.123   3.385
10053SOL     OW31057   4.629   5.970   4.220
10053SOL    HW131058   4.641   5.876   4.252
10053SOL    HW231059   4.621   6.031   4.299
10054SOL     OW31060   5.690   5.752   5.636
10054SOL    HW131061   5.594   5.760   5.609
10054SOL    HW231062   5.705   5.802   5.721
10055SOL     OW31063   6.178   1.521   5.199
10055SOL    HW131064   6.270   1.484   5.213
10055SOL    HW231065   6.183   1.621   5.188
10056SOL     OW31066   5.180   4.504   2.854
10056SOL    HW131067   5.119   4.431   2.887
10056SOL    HW231068   5.275   4.479   2.874
10057SOL     OW31069   5.178   3.506   5.583
10057SOL    HW131070   5.190   3.593   5.536
10057SOL    HW231071   5.088   3.504   5.627
10058SOL     OW31072   6.158   3.817   4.857
10058SOL    HW131073   6.146   3.887   4.927
10058SOL    HW231074   6.180   3.730   4.901
10059SOL     OW31075   0.329   1.368   6.921
10059SOL    HW131076   0.300   1.447   6.976
10059SOL    HW231077   0.422   1.383   6.889
10060SOL     OW31078   2.063   2.709   2.635
10060SOL    HW131079   2.149   2.755   2.611
10060SOL    HW231080   2.000   2.713   2.558
10061SOL     OW31081   4.469   1.250   3.572
10061SOL    HW131082   4.436   1.343   3.555
10061SOL    HW231083   4.491   1.239   3.669
10062SOL     OW31084   6.623   0.349   4.223
10062SOL    HW131085   6.718   0.371   4.201
10062SOL    HW231086   6.563   0.395   4.158
10063SOL     OW31087   3.234   1.137   4.609
10063SOL    HW131088   3.183   1.051   4.612
10063SOL    HW231089   3.184   1.206   4.661
10064SOL     OW31090   5.038   6.656   6.782
10064SOL    HW131091   4.938   6.654   6.779
10064SOL    HW231092   5.074   6.632   6.692
10065SOL     OW31093   2.145   0.992   1.796
10065SOL    HW131094   2.063   1.048   1.788
10065SOL    HW231095   2.224   1.051   1.814
10066SOL     OW31096   0.611   2.726   5.152
10066SOL    HW131097   0.690   2.778   5.120
10066SOL    HW231098   0.640   2.637   5.186
10067SOL     OW31099   0.097   3.142   6.335
10067SOL    HW131100   0.082   3.059   6.390
10067SOL    HW231101   0.146   3.209   6.390
10068SOL     OW31102   0.926   3.669   3.092
10068SOL    HW131103   0.992   3.624   3.031
10068SOL    HW231104   0.930   3.768   3.078
10069SOL     OW31105   2.958   5.135   1.753
10069SOL    HW131106   2.864   5.142   1.719
10069SOL    HW231107   3.007   5.220   1.735
10070SOL     OW31108   0.247   5.481   5.266
10070SOL    HW131109   0.235   5.551   5.196
10070SOL    HW231110   0.328   5.502   5.321
10071SOL     OW31111   0.704   0.252   4.207
10071SOL    HW131112   0.770   0.182   4.182
10071SOL    HW231113   0.671   0.297   4.124
10072SOL     OW31114   0.158   0.870   3.579
10072SOL    HW131115   0.068   0.831   3.559
10072SOL    HW231116   0.155   0.917   3.667
10073SOL     OW31117   0.106   4.161   3.833
10073SOL    HW131118   0.080   4.089   3.898
10073SOL    HW231119   0.133   4.120   3.746
10074SOL     OW31120   2.348   6.330   6.712
10074SOL    HW131121   2.280   6.392   6.674
10074SOL    HW231122   2.308   6.238   6.721
10075SOL     OW31123   1.251   1.380   2.346
10075SOL    HW131124   1.161   1.420   2.365
10075SOL    HW231125   1.321   1.427   2.399
10076SOL     OW31126   4.568   5.744   2.808
10076SOL    HW131127   4.592   5.839   2.787
10076SOL    HW231128   4.649   5.686   2.799
10077SOL     OW31129   4.610   2.730   1.061
10077SOL    HW131130   4.540   2.686   1.117
10077SOL    HW231131   4.569   2.803   1.007
10078SOL     OW31132   6.854   6.120   4.584
10078SOL    HW131133   6.875   6.181   4.661
10078SOL    HW231134   6.839   6.175   4.502
10079SOL     OW31135   6.192   2.593   2.361
10079SOL    HW131136   6.150   2.505   2.383
10079SOL    HW231137   6.121   2.663   2.352
10080SOL     OW31138   4.583   1.453   6.348
10080SOL    HW131139   4.661   1.489   6.398
10080SOL    HW231140   4.519   1.528   6.329
10081SOL     OW31141   0.920   1.654   0.006
10081SOL    HW131142   0.906   1.604   0.092
10081SOL    HW231143   0.851   1.625   6.962
10082SOL     OW31144   1.125   5.343   2.915
10082SOL    HW131145   1.128   5.280   2.993
10082SOL    HW231146   1.131   5.291   2.830
10083SOL     OW31147   3.130   0.091   3.877
10083SOL    HW131148   3.133   0.140   3.964
10083SOL    HW231149   3.050   0.121   3.825
10084SOL     OW31150   0.614   0.079   5.350
10084SOL    HW131151   0.605   0.163   5.402
10084SOL    HW231152   0.707   0.072   5.313
10085SOL     OW31153   3.704   6.923   0.580
10085SOL    HW131154   3.719   6.845   0.640
10085SOL    HW231155   3.708   7.008   0.633
10086SOL     OW31156   5.995   6.942   3.502
10086SOL    HW131157   5.967   6.988   3.418
10086SOL    HW231158   6.062   6.871   3.481
10087SOL     OW31159   6.610   6.441   4.083
10087SOL    HW131160   6.515   6.410   4.079
10087SOL    HW231161   6.617   6.518   4.146
10088SOL     OW31162   6.872   0.388   1.765
10088SOL    HW131163   6.783   0.343   1.765
10088SOL    HW231164   6.862   0.481   1.802
10089SOL     OW31165   2.934   1.959   2.925
10089SOL    HW131166   2.905   1.925   2.835
10089SOL    HW231167   3.023   1.921   2.948
10090SOL     OW31168   0.304   4.963   2.129
10090SOL    HW131169   0.336   5.048   2.088
10090SOL    HW231170   0.382   4.904   2.149
10091SOL     OW31171   6.521   5.849   6.926
10091SOL    HW131172   6.616   5.818   6.934
10091SOL    HW231173   6.496   5.855   6.829
10092SOL     OW31174   1.316   2.981   5.648
10092SOL    HW131175   1.376   2.904   5.669
10092SOL    HW231176   1.303   3.036   5.731
10093SOL     OW31177   4.965   3.404   4.950
10093SOL    HW131178   4.952   3.415   4.852
10093SOL    HW231179   4.917   3.477   4.999
10094SOL     OW31180   2.296   6.265   0.734
10094SOL    HW131181   2.319   6.318   0.652
10094SOL    HW231182   2.219   6.204   0.714
10095SOL     OW31183   5.420   1.539   4.380
10095SOL    HW131184   5.461   1.565   4.293
10095SOL    HW231185   5.420   1.618   4.442
10096SOL     OW31186   4.421   0.512   3.090
10096SOL    HW131187   4.338   0.493   3.039
10096SOL    HW231188   4.473   0.427   3.103
10097SOL     OW31189   2.510   2.117   6.328
10097SOL    HW131190   2.461   2.204   6.329
10097SOL    HW231191   2.507   2.078   6.236
10098SOL     OW31192   2.826   6.766   5.298
10098SOL    HW131193   2.736   6.729   5.277
10098SOL    HW231194   2.888   6.691   5.321
10099SOL     OW31195   6.536   4.327   2.026
10099SOL    HW131196   6.526   4.253   1.959
10099SOL    HW231197   6.613   4.308   2.086
10100SOL     OW31198   5.589   6.180   5.586
10100SOL    HW131199   5.668   6.241   5.594
10100SOL    HW231200   5.506   6.234   5.569
10101SOL     OW31201   6.393   2.993   1.377
10101SOL    HW131202   6.312   3.038   1.414
10101SOL    HW231203   6.445   2.952   1.451
10102SOL     OW31204   6.691   0.332   1.393
10102SOL    HW131205   6.629   0.374   1.327
10102SOL    HW231206   6.784   0.362   1.375
10103SOL     OW31207   1.583   0.257   5.068
10103SOL    HW131208   1.677   0.288   5.078
10103SOL    HW231209   1.537   0.309   4.996
10104SOL     OW31210   2.005   1.158   6.401
10104SOL    HW131211   1.961   1.214   6.332
10104SOL    HW231212   1.972   1.184   6.492
10105SOL     OW31213   2.105   0.996   6.021
10105SOL    HW131214   2.155   1.074   5.985
10105SOL    HW231215   2.013   0.994   5.982
10106SOL     OW31216   3.918   6.466   1.104
10106SOL    HW131217   3.972   6.506   1.178
10106SOL    HW231218   3.934   6.518   1.020
10107SOL     OW31219   5.614   1.641   6.105
10107SOL    HW131220   5.709   1.627   6.076
10107SOL    HW231221   5.578   1.723   6.061
10108SOL     OW31222   0.584   2.697   0.731
10108SOL    HW131223   0.670   2.700   0.682
10108SOL    HW231224   0.510   2.673   0.668
10109SOL     OW31225   0.682   1.034   0.446
10109SOL    HW131226   0.729   1.028   0.358
10109SOL    HW231227   0.703   1.122   0.489
10110SOL     OW31228   4.637   5.018   3.423
10110SOL    HW131229   4.719   5.060   3.461
10110SOL    HW231230   4.629   5.042   3.326
10111SOL     OW31231   0.096   3.273   2.884
10111SOL    HW131232   0.038   3.192   2.886
10111SOL    HW231233   0.132   3.290   2.976
10112SOL     OW31234   5.918   3.387   3.391
10112SOL    HW131235   6.004   3.344   3.363
10112SOL    HW231236   5.876   3.331   3.463
10113SOL     OW31237   4.008   0.162   0.435
10113SOL    HW131238   4.000   0.108   0.351
10113SOL    HW231239   3.927   0.219   0.446
10114SOL     OW31240   3.717   2.096   3.252
10114SOL    HW131241   3.804   2.144   3.247
10114SOL    HW231242   3.712   2.027   3.179
10115SOL     OW31243   3.720   1.795   4.677
10115SOL    HW131244   3.817   1.819   4.684
10115SOL    HW231245   3.691   1.799   4.581
10116SOL     OW31246   6.844   0.350   6.175
10116SOL    HW131247   6.823   0.391   6.087
10116SOL    HW231248   6.940   0.321   6.177
10117SOL     OW31249   6.861   6.132   5.946
10117SOL    HW131250   6.884   6.045   5.902
10117SOL    HW231251   6.827   6.196   5.878
10118SOL     OW31252   2.510   4.769   4.338
10118SOL    HW131253   2.544   4.718   4.259
10118SOL    HW231254   2.576   4.763   4.413
10119SOL     OW31255   6.490   5.453   4.567
10119SOL    HW131256   6.519   5.432   4.660
10119SOL    HW231257   6.512   5.549   4.546
10120SOL     OW31258   1.271   3.298   3.452
10120SOL    HW131259   1.303   3.349   3.532
10120SOL    HW231260   1.348   3.282   3.390
10121SOL     OW31261   6.024   4.258   1.378
10121SOL    HW131262   5.984   4.185   1.323
10121SOL    HW231263   5.951   4.306   1.427
10122SOL     OW31264   6.420   2.286   3.749
10122SOL    HW131265   6.455   2.297   3.842
10122SOL    HW231266   6.419   2.189   3.725
10123SOL     OW31267   5.861   6.734   0.845
10123SOL    HW131268   5.928   6.770   0.911
10123SOL    HW231269   5.851   6.635   0.858
10124SOL     OW31270   1.592   5.536   1.671
10124SOL    HW131271   1.671   5.521   1.611
10124SOL    HW231272   1.514   5.566   1.616
10125SOL     OW31273   2.558   1.357   1.272
10125SOL    HW131274   2.603   1.278   1.314
10125SOL    HW231275   2.622   1.404   1.211
10126SOL     OW31276   6.366   6.965   6.242
10126SOL    HW131277   6.387   6.935   6.335
10126SOL    HW231278   6.296   0.013   6.245
10127SOL     OW31279   1.422   3.837   6.469
10127SOL    HW131280   1.516   3.865   6.451
10127SOL    HW231281   1.372   3.829   6.383
10128SOL     OW31282   2.963   0.591   6.751
10128SOL    HW131283   2.998   0.665   6.694
10128SOL    HW231284   3.000   0.598   6.843
10129SOL     OW31285   0.320   1.464   2.181
10129SOL    HW131286   0.285   1.454   2.088
10129SOL    HW231287   0.360   1.555   2.192
10130SOL     OW31288   0.991   3.004   1.468
10130SOL    HW131289   0.976   3.057   1.385
10130SOL    HW231290   1.015   2.910   1.444
10131SOL     OW31291   1.644   0.485   4.284
10131SOL    HW131292   1.676   0.552   4.352
10131SOL    HW231293   1.629   0.531   4.197
10132SOL     OW31294   1.116   0.596   2.739
10132SOL    HW131295   1.084   0.666   2.802
10132SOL    HW231296   1.182   0.537   2.785
10133SOL     OW31297   4.230   6.514   1.084
10133SOL    HW131298   4.295   6.583   1.054
10133SOL    HW231299   4.191   6.467   1.004
10134SOL     OW31300   0.107   1.969   3.191
10134SOL    HW131301   0.076   1.998   3.282
10134SOL    HW231302   0.148   1.878   3.199
10135SOL     OW31303   5.516   1.560   3.345
10135SOL    HW131304   5.449   1.611   3.291
10135SOL    HW231305   5.518   1.465   3.314
10136SOL     OW31306   4.899   2.076   2.446
10136SOL    HW131307   4.950   2.161   2.430
10136SOL    HW231308   4.912   2.047   2.540
10137SOL     OW31309   0.519   4.791   6.118
10137SOL    HW131310   0.563   4.768   6.031
10137SOL    HW231311   0.421   4.769   6.113
10138SOL     OW31312   5.236   2.088   6.984
10138SOL    HW131313   5.204   2.181   6.966
10138SOL    HW231314   5.278   2.085   0.051
10139SOL     OW31315   3.787   3.092   4.982
10139SOL    HW131316   3.849   3.073   5.058
10139SOL    HW231317   3.797   3.020   4.912
10140SOL     OW31318   6.730   6.500   6.500
10140SOL    HW131319   6.787   6.501   6.418
10140SOL    HW231320   6.638   6.470   6.476
10141SOL     OW31321   4.404   0.888   3.429
10141SOL    HW131322   4.415   0.944   3.347
10141SOL    HW231323   4.368   0.943   3.503
10142SOL     OW31324   5.889   6.800   5.078
10142SOL    HW131325   5.932   6.721   5.121
10142SOL    HW231326   5.865   6.777   4.983
10143SOL     OW31327   5.857   3.288   0.029
10143SOL    HW131328   5.920   3.311   6.979
10143SOL    HW231329   5.805   3.206   0.002
10144SOL     OW31330   4.178   6.907   5.614
10144SOL    HW131331   4.125   6.987   5.588
10144SOL    HW231332   4.198   6.852   5.533
10145SOL     OW31333   4.312   6.103   2.791
10145SOL    HW131334   4.244   6.174   2.776
10145SOL    HW231335   4.284   6.019   2.744
10146SOL     OW31336   0.016   4.121   4.589
10146SOL    HW131337   6.979   4.043   4.604
10146SOL    HW231338   0.013   4.147   4.492
10147SOL     OW31339   4.890   4.841   0.030
10147SOL    HW131340   4.839   4.759   0.002
10147SOL    HW231341   4.879   4.912   6.984
10148SOL     OW31342   6.413   4.182   1.514
10148SOL    HW131343   6.346   4.195   1.586
10148SOL    HW231344   6.502   4.218   1.543
10149SOL     OW31345   4.945   4.911   1.190
10149SOL    HW131346   4.888   4.872   1.118
10149SOL    HW231347   4.928   5.009   1.196
10150SOL     OW31348   5.424   3.479   1.805
10150SOL    HW131349   5.373   3.556   1.767
10150SOL    HW231350   5.364   3.399   1.813
10151SOL     OW31351   0.642   6.761   5.703
10151SOL    HW131352   0.552   6.765   5.659
10151SOL    HW231353   0.712   6.788   5.636
10152SOL     OW31354   6.198   5.716   3.396
10152SOL    HW131355   6.296   5.698   3.394
10152SOL    HW231356   6.158   5.674   3.478
10153SOL     OW31357   4.367   5.781   3.698
10153SOL    HW131358   4.305   5.728   3.639
10153SOL    HW231359   4.400   5.724   3.773
10154SOL     OW31360   4.247   5.442   6.145
10154SOL    HW131361   4.303   5.476   6.070
10154SOL    HW231362   4.277   5.350   6.171
10155SOL     OW31363   5.076   2.023   6.060
10155SOL    HW131364   4.994   1.987   6.016
10155SOL    HW231365   5.134   1.948   6.091
10156SOL     OW31366   4.582   0.316   0.997
10156SOL    HW131367   4.622   0.308   0.906
10156SOL    HW231368   4.619   0.397   1.043
10157SOL     OW31369   0.169   2.304   0.287
10157SOL    HW131370   0.090   2.257   0.248
10157SOL    HW231371   0.199   2.255   0.369
10158SOL     OW31372   5.965   6.582   2.661
10158SOL    HW131373   6.039   6.539   2.711
10158SOL    HW231374   5.895   6.615   2.724
10159SOL     OW31375   3.730   3.371   3.251
10159SOL    HW131376   3.776   3.336   3.169
10159SOL    HW231377   3.736   3.303   3.324
10160SOL     OW31378   2.068   4.595   2.923
10160SOL    HW131379   2.161   4.630   2.933
10160SOL    HW231380   2.059   4.552   2.832
10161SOL     OW31381   3.836   4.366   6.572
10161SOL    HW131382   3.936   4.369   6.573
10161SOL    HW231383   3.801   4.421   6.648
10162SOL     OW31384   2.146   4.669   1.427
10162SOL    HW131385   2.242   4.685   1.451
10162SOL    HW231386   2.141   4.629   1.336
10163SOL     OW31387   0.671   5.721   6.039
10163SOL    HW131388   0.733   5.684   6.108
10163SOL    HW231389   0.659   5.820   6.055
10164SOL     OW31390   6.259   3.524   3.925
10164SOL    HW131391   6.282   3.427   3.919
10164SOL    HW231392   6.169   3.534   3.968
10165SOL     OW31393   6.243   2.337   3.469
10165SOL    HW131394   6.216   2.392   3.390
10165SOL    HW231395   6.297   2.394   3.532
10166SOL     OW31396   1.936   3.206   0.798
10166SOL    HW131397   1.860   3.256   0.757
10166SOL    HW231398   1.906   3.167   0.885
10167SOL     OW31399   0.164   4.865   0.107
10167SOL    HW131400   0.064   4.865   0.116
10167SOL    HW231401   0.189   4.876   0.011
10168SOL     OW31402   6.081   1.038   6.058
10168SOL    HW131403   6.164   1.072   6.103
10168SOL    HW231404   6.101   1.018   5.962
10169SOL     OW31405   6.708   3.961   3.024
10169SOL    HW131406   6.708   4.056   2.992
10169SOL    HW231407   6.707   3.960   3.124
10170SOL     OW31408   6.305   5.164   6.586
10170SOL    HW131409   6.404   5.177   6.589
10170SOL    HW231410   6.275   5.154   6.491
10171SOL     OW31411   1.142   2.432   5.659
10171SOL    HW131412   1.135   2.515   5.605
10171SOL    HW231413   1.114   2.451   5.754
10172SOL     OW31414   0.215   0.075   4.180
10172SOL    HW131415   0.310   0.058   4.206
10172SOL    HW231416   0.204   0.054   4.083
10173SOL     OW31417   2.950   4.010   6.966
10173SOL    HW131418   2.918   4.030   6.873
10173SOL    HW231419   2.980   3.915   6.971
10174SOL     OW31420   4.886   5.472   3.491
10174SOL    HW131421   4.952   5.517   3.431
10174SOL    HW231422   4.924   5.385   3.524
10175SOL     OW31423   6.860   1.432   3.470
10175SOL    HW131424   6.929   1.402   3.535
10175SOL    HW231425   6.904   1.479   3.393
10176SOL     OW31426   6.317   3.803   5.123
10176SOL    HW131427   6.370   3.719   5.117
10176SOL    HW231428   6.378   3.880   5.142
10177SOL     OW31429   2.095   0.604   0.770
10177SOL    HW131430   2.032   0.642   0.838
10177SOL    HW231431   2.127   0.515   0.801
10178SOL     OW31432   1.172   0.747   1.238
10178SOL    HW131433   1.191   0.737   1.336
10178SOL    HW231434   1.220   0.675   1.187
10179SOL     OW31435   6.960   4.003   0.004
10179SOL    HW131436   0.008   4.063   0.039
10179SOL    HW231437   6.950   4.018   6.929
10180SOL     OW31438   4.698   0.212   0.750
10180SOL    HW131439   4.693   0.277   0.674
10180SOL    HW231440   4.618   0.153   0.748
10181SOL     OW31441   0.089   3.095   1.180
10181SOL    HW131442   0.149   3.176   1.179
10181SOL    HW231443   0.123   3.028   1.114
10182SOL     OW31444   5.126   1.189   0.345
10182SOL    HW131445   5.028   1.196   0.324
10182SOL    HW231446   5.157   1.096   0.328
10183SOL     OW31447   5.953   3.003   5.910
10183SOL    HW131448   6.037   3.010   5.856
10183SOL    HW231449   5.880   3.056   5.866
10184SOL     OW31450   5.633   3.022   6.266
10184SOL    HW131451   5.703   2.954   6.286
10184SOL    HW231452   5.613   3.075   6.348
10185SOL     OW31453   4.919   6.445   2.448
10185SOL    HW131454   4.930   6.444   2.548
10185SOL    HW231455   4.951   6.533   2.412
10186SOL     OW31456   4.908   3.753   4.765
10186SOL    HW131457   4.851   3.721   4.841
10186SOL    HW231458   4.995   3.704   4.766
10187SOL     OW31459   2.119   3.957   5.173
10187SOL    HW131460   2.145   3.944   5.269
10187SOL    HW231461   2.200   3.985   5.120
10188SOL     OW31462   3.416   5.513   7.000
10188SOL    HW131463   3.411   5.550   0.069
10188SOL    HW231464   3.356   5.565   6.939
10189SOL     OW31465   1.463   0.710   6.876
10189SOL    HW131466   1.443   0.803   6.907
10189SOL    HW231467   1.380   0.654   6.883
10190SOL     OW31468   3.588   3.168   1.618
10190SOL    HW131469   3.673   3.116   1.629
10190SOL    HW231470   3.567   3.217   1.702
10191SOL     OW31471   5.789   5.860   1.506
10191SOL    HW131472   5.881   5.891   1.530
10191SOL    HW231473   5.727   5.938   1.507
10192SOL     OW31474   2.689   2.153   4.669
10192SOL    HW131475   2.613   2.179   4.610
10192SOL    HW231476   2.654   2.133   4.761
10193SOL     OW31477   3.172   4.022   2.741
10193SOL    HW131478   3.136   4.068   2.822
10193SOL    HW231479   3.266   3.993   2.757
10194SOL     OW31480   3.728   6.981   5.093
10194SOL    HW131481   3.727   0.039   5.035
10194SOL    HW231482   3.637   6.966   5.131
10195SOL     OW31483   6.749   0.013   1.569
10195SOL    HW131484   6.790   6.960   1.618
10195SOL    HW231485   6.737   0.090   1.632
10196SOL     OW31486   5.906   2.363   3.402
10196SOL    HW131487   5.844   2.333   3.475
10196SOL    HW231488   5.868   2.337   3.313
10197SOL     OW31489   5.380   0.900   4.293
10197SOL    HW131490   5.434   0.902   4.377
10197SOL    HW231491   5.440   0.879   4.216
10198SOL     OW31492   3.438   6.420   0.648
10198SOL    HW131493   3.393   6.497   0.601
10198SOL    HW231494   3.369   6.351   0.672
10199SOL     OW31495   0.651   1.239   6.835
10199SOL    HW131496   0.619   1.252   6.742
10199SOL    HW231497   0.704   1.154   6.842
10200SOL     OW31498   5.221   2.874   5.271
10200SOL    HW131499   5.232   2.954   5.329
10200SOL    HW231500   5.231   2.900   5.175
10201SOL     OW31501   0.455   5.999   1.395
10201SOL    HW131502   0.393   5.929   1.429
10201SOL    HW231503   0.407   6.087   1.393
10202SOL     OW31504   1.564   3.466   0.295
10202SOL    HW131505   1.498   3.508   0.233
10202SOL    HW231506   1.536   3.480   0.390
10203SOL     OW31507   1.521   2.981   1.570
10203SOL    HW131508   1.446   2.994   1.635
10203SOL    HW231509   1.607   2.973   1.619
10204SOL     OW31510   3.931   5.111   6.094
10204SOL    HW131511   3.927   5.190   6.033
10204SOL    HW231512   3.913   5.027   6.042
10205SOL     OW31513   3.785   1.038   2.988
10205SOL    HW131514   3.867   0.982   2.976
10205SOL    HW231515   3.788   1.082   3.078
10206SOL     OW31516   5.265   6.235   6.219
10206SOL    HW131517   5.178   6.201   6.184
10206SOL    HW231518   5.252   6.326   6.259
10207SOL     OW31519   1.466   0.712   1.174
10207SOL    HW131520   1.475   0.809   1.196
10207SOL    HW231521   1.486   0.658   1.256
10208SOL     OW31522   6.566   4.848   4.696
10208SOL    HW131523   6.637   4.916   4.679
10208SOL    HW231524   6.574   4.775   4.628
10209SOL     OW31525   0.548   1.019   5.381
10209SOL    HW131526   0.464   1.068   5.402
10209SOL    HW231527   0.545   0.927   5.421
10210SOL     OW31528   5.022   0.160   1.748
10210SOL    HW131529   4.984   0.229   1.686
10210SOL    HW231530   4.979   0.169   1.838
10211SOL     OW31531   4.601   6.465   5.906
10211SOL    HW131532   4.675   6.401   5.886
10211SOL    HW231533   4.612   6.546   5.849
10212SOL     OW31534   0.324   1.433   4.570
10212SOL    HW131535   0.299   1.340   4.597
10212SOL    HW231536   0.381   1.429   4.488
10213SOL     OW31537   6.424   1.653   2.669
10213SOL    HW131538   6.504   1.685   2.722
10213SOL    HW231539   6.453   1.631   2.576
10214SOL     OW31540   0.767   1.477   2.203
10214SOL    HW131541   0.776   1.429   2.115
10214SOL    HW231542   0.681   1.451   2.246
10215SOL     OW31543   3.324   2.814   5.180
10215SOL    HW131544   3.414   2.817   5.136
10215SOL    HW231545   3.316   2.728   5.232
10216SOL     OW31546   6.775   0.019   0.664
10216SOL    HW131547   6.685   7.019   0.701
10216SOL    HW231548   6.842   0.022   0.739
10217SOL     OW31549   2.673   1.023   3.691
10217SOL    HW131550   2.742   1.004   3.622
10217SOL    HW231551   2.591   0.968   3.673
10218SOL     OW31552   0.988   1.229   1.055
10218SOL    HW131553   1.065   1.227   0.990
10218SOL    HW231554   1.002   1.304   1.120
10219SOL     OW31555   0.362   2.846   1.790
10219SOL    HW131556   0.455   2.882   1.781
10219SOL    HW231557   0.306   2.912   1.841
10220SOL     OW31558   4.045   1.514   2.341
10220SOL    HW131559   4.068   1.549   2.250
10220SOL    HW231560   3.982   1.578   2.385
10221SOL     OW31561   1.368   1.901   3.765
10221SOL    HW131562   1.340   1.898   3.669
10221SOL    HW231563   1.329   1.823   3.813
10222SOL     OW31564   1.138   3.635   5.661
10222SOL    HW131565   1.099   3.659   5.572
10222SOL    HW231566   1.071   3.650   5.733
10223SOL     OW31567   1.760   5.866   6.724
10223SOL    HW131568   1.736   5.921   6.804
10223SOL    HW231569   1.856   5.880   6.702
10224SOL     OW31570   0.107   0.943   4.866
10224SOL    HW131571   0.095   1.037   4.899
10224SOL    HW231572   0.029   0.917   4.809
10225SOL     OW31573   1.526   6.574   5.433
10225SOL    HW131574   1.447   6.634   5.447
10225SOL    HW231575   1.527   6.543   5.338
10226SOL     OW31576   2.925   0.268   0.021
10226SOL    HW131577   2.829   0.297   0.019
10226SOL    HW231578   2.931   0.174   0.054
10227SOL     OW31579   4.679   4.413   0.740
10227SOL    HW131580   4.685   4.346   0.814
10227SOL    HW231581   4.770   4.450   0.721
10228SOL     OW31582   0.883   5.606   2.286
10228SOL    HW131583   0.944   5.534   2.253
10228SOL    HW231584   0.866   5.594   2.384
10229SOL     OW31585   1.221   1.179   4.394
10229SOL    HW131586   1.261   1.269   4.413
10229SOL    HW231587   1.130   1.190   4.354
10230SOL     OW31588   6.632   6.952   3.549
10230SOL    HW131589   6.728   6.971   3.567
10230SOL    HW231590   6.593   0.004   3.495
10231SOL     OW31591   0.132   6.141   5.984
10231SOL    HW131592   0.153   6.237   5.971
10231SOL    HW231593   0.033   6.129   5.988
10232SOL     OW31594   3.087   0.404   4.297
10232SOL    HW131595   2.988   0.390   4.301
10232SOL    HW231596   3.107   0.490   4.251
10233SOL     OW31597   5.160   3.213   5.029
10233SOL    HW131598   5.104   3.292   5.001
10233SOL    HW231599   5.160   3.206   5.129
10234SOL     OW31600   5.512   0.648   1.146
10234SOL    HW131601   5.452   0.631   1.224
10234SOL    HW231602   5.478   0.727   1.094
10235SOL     OW31603   4.522   2.175   0.598
10235SOL    HW131604   4.435   2.189   0.645
10235SOL    HW231605   4.527   2.081   0.564
10236SOL     OW31606   1.479   6.311   2.174
10236SOL    HW131607   1.449   6.396   2.130
10236SOL    HW231608   1.399   6.258   2.202
10237SOL     OW31609   5.896   4.053   1.285
10237SOL    HW131610   5.829   4.054   1.359
10237SOL    HW231611   5.975   3.999   1.312
10238SOL     OW31612   3.351   4.096   4.178
10238SOL    HW131613   3.307   4.173   4.132
10238SOL    HW231614   3.345   4.109   4.277
10239SOL     OW31615   1.153   3.906   5.149
10239SOL    HW131616   1.195   3.822   5.115
10239SOL    HW231617   1.224   3.963   5.191
10240SOL     OW31618   1.857   4.763   2.810
10240SOL    HW131619   1.886   4.858   2.823
10240SOL    HW231620   1.922   4.702   2.855
10241SOL     OW31621   0.150   0.673   1.857
10241SOL    HW131622   0.159   0.576   1.882
10241SOL    HW231623   0.176   0.730   1.934
10242SOL     OW31624   6.828   1.681   0.056
10242SOL    HW131625   6.768   1.753   0.020
10242SOL    HW231626   6.847   1.615   7.007
10243SOL     OW31627   0.549   5.253   0.921
10243SOL    HW131628   0.472   5.210   0.968
10243SOL    HW231629   0.538   5.352   0.924
10244SOL     OW31630   1.930   4.899   0.165
10244SOL    HW131631   1.861   4.962   0.201
10244SOL    HW231632   1.990   4.870   0.239
10245SOL     OW31633   3.063   4.464   6.977
10245SOL    HW131634   3.012   4.413   0.023
10245SOL    HW231635   3.099   4.548   7.018
10246SOL     OW31636   2.967   3.744   4.205
10246SOL    HW131637   2.998   3.662   4.156
10246SOL    HW231638   2.901   3.793   4.149
10247SOL     OW31639   0.284   5.493   4.838
10247SOL    HW131640   0.288   5.567   4.771
10247SOL    HW231641   0.199   5.500   4.890
10248SOL     OW31642   2.882   6.693   1.806
10248SOL    HW131643   2.921   6.784   1.818
10248SOL    HW231644   2.922   6.649   1.726
10249SOL     OW31645   3.410   0.945   6.005
10249SOL    HW131646   3.409   1.006   5.926
10249SOL    HW231647   3.340   0.973   6.070
10250SOL     OW31648   0.033   1.678   1.276
10250SOL    HW131649   6.964   1.681   1.238
10250SOL    HW231650   0.096   1.724   1.214
10251SOL     OW31651   2.356   2.435   5.047
10251SOL    HW131652   2.375   2.430   5.145
10251SOL    HW231653   2.346   2.530   5.019
10252SOL     OW31654   6.798   5.610   0.322
10252SOL    HW131655   6.735   5.566   0.386
10252SOL    HW231656   6.869   5.657   0.373
10253SOL     OW31657   5.409   5.900   0.493
10253SOL    HW131658   5.411   5.982   0.435
10253SOL    HW231659   5.449   5.922   0.582
10254SOL     OW31660   4.250   2.139   5.084
10254SOL    HW131661   4.282   2.184   5.000
10254SOL    HW231662   4.175   2.076   5.061
10255SOL     OW31663   2.252   5.075   1.615
10255SOL    HW131664   2.216   5.096   1.706
10255SOL    HW231665   2.349   5.051   1.622
10256SOL     OW31666   5.631   0.647   1.669
10256SOL    HW131667   5.600   0.561   1.629
10256SOL    HW231668   5.718   0.633   1.716
10257SOL     OW31669   2.127   5.209   4.234
10257SOL    HW131670   2.173   5.240   4.151
10257SOL    HW231671   2.067   5.282   4.268
10258SOL     OW31672   4.960   0.373   4.245
10258SOL    HW131673   4.897   0.334   4.177
10258SOL    HW231674   4.970   0.471   4.229
10259SOL     OW31675   0.762   5.150   3.362
10259SOL    HW131676   0.742   5.181   3.455
10259SOL    HW231677   0.751   5.227   3.299
10260SOL     OW31678   0.546   0.149   3.059
10260SOL    HW131679   0.601   0.069   3.082
10260SOL    HW231680   0.518   0.144   2.963
10261SOL     OW31681   6.859   6.058   2.691
10261SOL    HW131682   6.853   6.107   2.604
10261SOL    HW231683   6.883   5.962   2.674
10262SOL     OW31684   2.429   6.198   4.575
10262SOL    HW131685   2.399   6.162   4.486
10262SOL    HW231686   2.481   6.282   4.561
10263SOL     OW31687   4.641   1.315   6.632
10263SOL    HW131688   4.632   1.231   6.685
10263SOL    HW231689   4.678   1.293   6.542
10264SOL     OW31690   5.614   2.170   6.767
10264SOL    HW131691   5.590   2.081   6.806
10264SOL    HW231692   5.606   2.241   6.838
10265SOL     OW31693   3.119   2.175   2.615
10265SOL    HW131694   3.155   2.132   2.532
10265SOL    HW231695   3.024   2.205   2.599
10266SOL     OW31696   3.465   2.781   5.517
10266SOL    HW131697   3.467   2.731   5.603
10266SOL    HW231698   3.412   2.728   5.450
10267SOL     OW31699   6.116   1.939   6.328
10267SOL    HW131700   6.159   1.940   6.238
10267SOL    HW231701   6.023   1.903   6.320
10268SOL     OW31702   3.680   5.864   2.132
10268SOL    HW131703   3.678   5.959   2.164
10268SOL    HW231704   3.724   5.860   2.043
10269SOL     OW31705   1.782   1.789   5.473
10269SOL    HW131706   1.834   1.816   5.554
10269SOL    HW231707   1.685   1.777   5.497
10270SOL     OW31708   2.293   5.515   2.936
10270SOL    HW131709   2.326   5.600   2.976
10270SOL    HW231710   2.271   5.530   2.839
10271SOL     OW31711   4.402   3.251   0.137
10271SOL    HW131712   4.382   3.344   0.166
10271SOL    HW231713   4.333   3.222   0.069
10272SOL     OW31714   0.874   0.483   4.358
10272SOL    HW131715   0.825   0.422   4.296
10272SOL    HW231716   0.965   0.503   4.320
10273SOL     OW31717   4.764   5.175   3.222
10273SOL    HW131718   4.670   5.167   3.190
10273SOL    HW231719   4.812   5.245   3.168
10274SOL     OW31720   1.093   4.268   4.841
10274SOL    HW131721   1.139   4.237   4.923
10274SOL    HW231722   1.145   4.343   4.800
10275SOL     OW31723   0.688   6.829   2.174
10275SOL    HW131724   0.767   6.826   2.235
10275SOL    HW231725   0.710   6.888   2.095
10276SOL     OW31726   6.161   5.668   6.029
10276SOL    HW131727   6.145   5.734   6.103
10276SOL    HW231728   6.222   5.708   5.961
10277SOL     OW31729   2.744   5.792   4.082
10277SOL    HW131730   2.844   5.791   4.081
10277SOL    HW231731   2.709   5.705   4.047
10278SOL     OW31732   5.496   1.041   4.929
10278SOL    HW131733   5.405   1.040   4.972
10278SOL    HW231734   5.562   1.000   4.991
10279SOL     OW31735   2.126   6.613   4.007
10279SOL    HW131736   2.065   6.672   4.058
10279SOL    HW231737   2.107   6.621   3.909
10280SOL     OW31738   2.078   3.746   1.285
10280SOL    HW131739   2.135   3.698   1.218
10280SOL    HW231740   2.118   3.734   1.376
10281SOL     OW31741   6.708   2.287   2.438
10281SOL    HW131742   6.609   2.286   2.445
10281SOL    HW231743   6.735   2.271   2.343
10282SOL     OW31744   6.596   4.186   4.433
10282SOL    HW131745   6.650   4.160   4.353
10282SOL    HW231746   6.631   4.139   4.514
10283SOL     OW31747   1.058   3.403   0.418
10283SOL    HW131748   1.123   3.345   0.369
10283SOL    HW231749   1.107   3.468   0.476
10284SOL     OW31750   4.927   4.484   5.536
10284SOL    HW131751   4.912   4.387   5.514
10284SOL    HW231752   4.991   4.491   5.613
10285SOL     OW31753   4.977   0.411   0.851
10285SOL    HW131754   5.045   0.459   0.906
10285SOL    HW231755   4.885   0.438   0.880
10286SOL     OW31756   3.248   2.143   3.985
10286SOL    HW131757   3.173   2.182   4.039
10286SOL    HW231758   3.298   2.077   4.040
10287SOL     OW31759   1.593   6.553   1.653
10287SOL    HW131760   1.673   6.594   1.609
10287SOL    HW231761   1.553   6.484   1.592
10288SOL     OW31762   5.245   6.512   2.196
10288SOL    HW131763   5.203   6.422   2.206
10288SOL    HW231764   5.182   6.583   2.226
10289SOL     OW31765   3.943   0.556   2.614
10289SOL    HW131766   3.999   0.492   2.667
10289SOL    HW231767   3.932   0.641   2.665
10290SOL     OW31768   3.934   3.800   2.603
10290SOL    HW131769   3.866   3.867   2.631
10290SOL    HW231770   3.937   3.794   2.503
10291SOL     OW31771   4.097   1.036   4.242
10291SOL    HW131772   4.007   1.067   4.273
10291SOL    HW231773   4.093   1.014   4.144
10292SOL     OW31774   0.952   1.283   4.747
10292SOL    HW131775   0.887   1.337   4.694
10292SOL    HW231776   0.904   1.234   4.820
10293SOL     OW31777   1.840   6.068   3.430
10293SOL    HW131778   1.771   5.995   3.425
10293SOL    HW231779   1.801   6.147   3.477
10294SOL     OW31780   4.878   3.783   3.048
10294SOL    HW131781   4.835   3.698   3.019
10294SOL    HW231782   4.919   3.771   3.138
10295SOL     OW31783   6.312   5.201   6.057
10295SOL    HW131784   6.392   5.203   5.997
10295SOL    HW231785   6.232   5.170   6.005
10296SOL     OW31786   4.980   2.890   6.377
10296SOL    HW131787   4.993   2.796   6.407
10296SOL    HW231788   4.918   2.937   6.440
10297SOL     OW31789   2.085   6.650   5.128
10297SOL    HW131790   2.079   6.580   5.057
10297SOL    HW231791   2.177   6.650   5.167
10298SOL     OW31792   3.964   4.807   2.436
10298SOL    HW131793   4.049   4.777   2.479
10298SOL    HW231794   3.887   4.778   2.492
10299SOL     OW31795   4.557   4.456   2.888
10299SOL    HW131796   4.576   4.371   2.936
10299SOL    HW231797   4.609   4.458   2.802
10300SOL     OW31798   2.213   4.994   2.826
10300SOL    HW131799   2.185   5.062   2.893
10300SOL    HW231800   2.236   5.040   2.740
10301SOL     OW31801   6.018   2.259   2.695
10301SOL    HW131802   5.944   2.248   2.629
10301SOL    HW231803   5.998   2.338   2.753
10302SOL     OW31804   0.669   6.396   3.973
10302SOL    HW131805   0.768   6.400   3.972
10302SOL    HW231806   0.639   6.307   3.938
10303SOL     OW31807   3.192   5.399   1.224
10303SOL    HW131808   3.217   5.323   1.164
10303SOL    HW231809   3.165   5.478   1.169
10304SOL     OW31810   5.326   0.642   2.861
10304SOL    HW131811   5.328   0.644   2.761
10304SOL    HW231812   5.409   0.685   2.897
10305SOL     OW31813   0.115   5.361   6.818
10305SOL    HW131814   0.136   5.426   6.745
10305SOL    HW231815   0.077   5.411   6.896
10306SOL     OW31816   4.636   6.390   6.728
10306SOL    HW131817   4.610   6.333   6.806
10306SOL    HW231818   4.583   6.364   6.648
10307SOL     OW31819   2.324   1.858   4.596
10307SOL    HW131820   2.410   1.831   4.553
10307SOL    HW231821   2.327   1.955   4.619
10308SOL     OW31822   2.614   5.006   3.819
10308SOL    HW131823   2.557   5.015   3.900
10308SOL    HW231824   2.685   4.937   3.835
10309SOL     OW31825   6.557   0.473   3.593
10309SOL    HW131826   6.567   0.528   3.676
10309SOL    HW231827   6.525   0.381   3.618
10310SOL     OW31828   3.838   2.756   1.672
10310SOL    HW131829   3.834   2.708   1.584
10310SOL    HW231830   3.788   2.704   1.741
10311SOL     OW31831   0.628   5.860   0.684
10311SOL    HW131832   0.576   5.913   0.750
10311SOL    HW231833   0.566   5.820   0.616
10312SOL     OW31834   3.160   5.558   0.976
10312SOL    HW131835   3.093   5.625   1.010
10312SOL    HW231836   3.129   5.522   0.888
10313SOL     OW31837   3.965   6.935   2.186
10313SOL    HW131838   3.931   6.842   2.200
10313SOL    HW231839   3.952   6.962   2.091
10314SOL     OW31840   5.965   0.927   1.676
10314SOL    HW131841   5.923   0.957   1.590
10314SOL    HW231842   6.046   0.872   1.656
10315SOL     OW31843   6.166   5.707   4.548
10315SOL    HW131844   6.135   5.620   4.510
10315SOL    HW231845   6.191   5.695   4.644
10316SOL     OW31846   6.605   3.749   4.867
10316SOL    HW131847   6.522   3.794   4.834
10316SOL    HW231848   6.674   3.818   4.887
10317SOL     OW31849   3.550   4.704   5.802
10317SOL    HW131850   3.513   4.730   5.712
10317SOL    HW231851   3.475   4.674   5.861
10318SOL     OW31852   6.415   5.323   1.352
10318SOL    HW131853   6.316   5.327   1.362
10318SOL    HW231854   6.454   5.412   1.374
10319SOL     OW31855   1.238   3.359   5.543
10319SOL    HW131856   1.201   3.451   5.555
10319SOL    HW231857   1.278   3.327   5.628
10320SOL     OW31858   0.765   0.887   0.717
10320SOL    HW131859   0.745   0.814   0.783
10320SOL    HW231860   0.679   0.924   0.683
10321SOL     OW31861   4.130   0.623   5.105
10321SOL    HW131862   4.079   0.705   5.078
10321SOL    HW231863   4.107   0.599   5.199
10322SOL     OW31864   6.041   5.494   0.102
10322SOL    HW131865   6.044   5.397   0.127
10322SOL    HW231866   6.108   5.544   0.157
10323SOL     OW31867   6.525   3.965   6.250
10323SOL    HW131868   6.600   3.995   6.191
10323SOL    HW231869   6.507   3.868   6.233
10324SOL     OW31870   3.306   3.038   3.284
10324SOL    HW131871   3.376   2.966   3.277
10324SOL    HW231872   3.235   3.022   3.215
10325SOL     OW31873   6.599   4.596   3.564
10325SOL    HW131874   6.649   4.526   3.512
10325SOL    HW231875   6.654   4.625   3.642
10326SOL     OW31876   4.831   2.760   0.595
10326SOL    HW131877   4.828   2.671   0.551
10326SOL    HW231878   4.767   2.761   0.673
10327SOL     OW31879   2.854   1.508   2.347
10327SOL    HW131880   2.771   1.516   2.402
10327SOL    HW231881   2.882   1.599   2.316
10328SOL     OW31882   6.199   3.386   1.499
10328SOL    HW131883   6.263   3.461   1.512
10328SOL    HW231884   6.250   3.302   1.480
10329SOL     OW31885   2.992   0.014   4.916
10329SOL    HW131886   3.022   0.075   4.989
10329SOL    HW231887   2.897   7.010   4.933
10330SOL     OW31888   3.097   5.625   2.984
10330SOL    HW131889   3.104   5.526   2.997
10330SOL    HW231890   3.007   5.647   2.947
10331SOL     OW31891   6.128   0.626   3.165
10331SOL    HW131892   6.084   0.573   3.092
10331SOL    HW231893   6.166   0.710   3.127
10332SOL     OW31894   6.382   1.504   0.465
10332SOL    HW131895   6.304   1.565   0.449
10332SOL    HW231896   6.436   1.497   0.381
10333SOL     OW31897   5.925   4.374   4.488
10333SOL    HW131898   5.835   4.396   4.526
10333SOL    HW231899   5.933   4.275   4.477
10334SOL     OW31900   2.568   5.787   3.261
10334SOL    HW131901   2.617   5.867   3.224
10334SOL    HW231902   2.594   5.706   3.208
10335SOL     OW31903   1.794   4.375   6.664
10335SOL    HW131904   1.795   4.352   6.761
10335SOL    HW231905   1.725   4.320   6.618
10336SOL     OW31906   5.138   6.660   3.338
10336SOL    HW131907   5.045   6.689   3.314
10336SOL    HW231908   5.135   6.604   3.421
10337SOL     OW31909   6.661   5.740   5.553
10337SOL    HW131910   6.584   5.797   5.526
10337SOL    HW231911   6.746   5.793   5.544
10338SOL     OW31912   3.356   6.588   1.299
10338SOL    HW131913   3.456   6.585   1.300
10338SOL    HW231914   3.322   6.543   1.217
10339SOL     OW31915   3.663   4.594   0.654
10339SOL    HW131916   3.693   4.585   0.559
10339SOL    HW231917   3.696   4.516   0.707
10340SOL     OW31918   1.385   5.794   0.149
10340SOL    HW131919   1.307   5.853   0.128
10340SOL    HW231920   1.357   5.723   0.214
10341SOL     OW31921   2.323   3.090   1.700
10341SOL    HW131922   2.383   3.169   1.688
10341SOL    HW231923   2.375   3.013   1.737
10342SOL     OW31924   2.443   5.725   5.456
10342SOL    HW131925   2.523   5.734   5.515
10342SOL    HW231926   2.419   5.814   5.418
10343SOL     OW31927   2.586   3.990   7.004
10343SOL    HW131928   2.581   4.074   6.951
10343SOL    HW231929   2.664   3.994   0.043
10344SOL     OW31930   4.069   3.839   3.370
10344SOL    HW131931   3.995   3.773   3.355
10344SOL    HW231932   4.106   3.868   3.282
10345SOL     OW31933   2.031   0.322   6.344
10345SOL    HW131934   1.981   0.377   6.411
10345SOL    HW231935   2.074   0.383   6.277
10346SOL     OW31936   6.068   0.883   1.305
10346SOL    HW131937   6.061   0.891   1.205
10346SOL    HW231938   6.008   0.950   1.348
10347SOL     OW31939   5.365   2.035   1.633
10347SOL    HW131940   5.318   2.120   1.657
10347SOL    HW231941   5.301   1.973   1.587
10348SOL     OW31942   6.851   0.947   6.343
10348SOL    HW131943   6.781   0.978   6.407
10348SOL    HW231944   6.903   0.873   6.385
10349SOL     OW31945   6.611   0.499   1.064
10349SOL    HW131946   6.556   0.500   1.147
10349SOL    HW231947   6.551   0.485   0.985
10350SOL     OW31948   3.264   6.269   4.820
10350SOL    HW131949   3.177   6.271   4.772
10350SOL    HW231950   3.320   6.193   4.786
10351SOL     OW31951   6.223   5.134   5.626
10351SOL    HW131952   6.171   5.087   5.554
10351SOL    HW231953   6.179   5.118   5.714
10352SOL     OW31954   5.751   2.041   6.267
10352SOL    HW131955   5.826   2.057   6.203
10352SOL    HW231956   5.767   1.955   6.315
10353SOL     OW31957   6.591   3.223   4.319
10353SOL    HW131958   6.651   3.224   4.239
10353SOL    HW231959   6.631   3.162   4.388
10354SOL     OW31960   0.985   3.511   0.847
10354SOL    HW131961   0.927   3.430   0.846
10354SOL    HW231962   0.930   3.593   0.862
10355SOL     OW31963   0.795   1.075   0.926
10355SOL    HW131964   0.828   1.071   0.831
10355SOL    HW231965   0.855   1.135   0.979
10356SOL     OW31966   6.862   3.335   6.371
10356SOL    HW131967   6.801   3.409   6.341
10356SOL    HW231968   6.954   3.351   6.335
10357SOL     OW31969   2.985   2.273   5.967
10357SOL    HW131970   2.940   2.301   5.883
10357SOL    HW231971   3.013   2.354   6.019
10358SOL     OW31972   1.278   3.039   3.512
10358SOL    HW131973   1.264   3.134   3.539
10358SOL    HW231974   1.299   3.035   3.414
10359SOL     OW31975   4.906   2.186   2.116
10359SOL    HW131976   4.816   2.229   2.107
10359SOL    HW231977   4.951   2.221   2.198
10360SOL     OW31978   5.048   5.364   2.639
10360SOL    HW131979   5.143   5.386   2.614
10360SOL    HW231980   4.986   5.426   2.592
10361SOL     OW31981   2.500   0.486   2.462
10361SOL    HW131982   2.408   0.526   2.454
10361SOL    HW231983   2.496   0.407   2.523
10362SOL     OW31984   0.492   4.789   2.600
10362SOL    HW131985   0.433   4.753   2.672
10362SOL    HW231986   0.489   4.728   2.521
10363SOL     OW31987   4.867   2.693   1.019
10363SOL    HW131988   4.769   2.685   1.034
10363SOL    HW231989   4.886   2.772   0.961
10364SOL     OW31990   4.837   4.750   1.796
10364SOL    HW131991   4.772   4.770   1.869
10364SOL    HW231992   4.792   4.693   1.726
10365SOL     OW31993   5.686   4.718   0.457
10365SOL    HW131994   5.734   4.660   0.523
10365SOL    HW231995   5.609   4.667   0.418
10366SOL     OW31996   4.010   6.530   3.523
10366SOL    HW131997   4.079   6.547   3.453
10366SOL    HW231998   4.016   6.601   3.593
10367SOL     OW31999   0.061   1.619   2.088
10367SOL    HW132000   0.033   1.714   2.101
10367SOL    HW232001   0.055   1.570   2.175
10368SOL     OW32002   1.900   0.976   2.772
10368SOL    HW132003   1.875   0.887   2.734
10368SOL    HW232004   1.902   1.043   2.698
10369SOL     OW32005   2.596   6.412   6.059
10369SOL    HW132006   2.681   6.428   6.110
10369SOL    HW232007   2.562   6.498   6.022
10370SOL     OW32008   5.984   1.531   5.018
10370SOL    HW132009   5.963   1.629   5.022
10370SOL    HW232010   6.065   1.512   5.073
10371SOL     OW32011   2.498   6.992   3.866
10371SOL    HW132012   2.568   6.947   3.810
10371SOL    HW232013   2.448   6.923   3.919
10372SOL     OW32014   2.949   1.070   1.048
10372SOL    HW132015   3.025   1.117   1.094
10372SOL    HW232016   2.954   1.086   0.950
10373SOL     OW32017   0.508   6.839   4.872
10373SOL    HW132018   0.441   6.775   4.833
10373SOL    HW232019   0.459   6.909   4.925
10374SOL     OW32020   3.021   0.009   4.530
10374SOL    HW132021   2.962   6.961   4.491
10374SOL    HW232022   3.035   7.014   4.627
10375SOL     OW32023   2.669   2.241   6.118
10375SOL    HW132024   2.739   2.312   6.114
10375SOL    HW232025   2.635   2.233   6.212
10376SOL     OW32026   0.932   6.284   3.989
10376SOL    HW132027   0.971   6.222   3.922
10376SOL    HW232028   0.967   6.261   4.080
10377SOL     OW32029   0.509   1.886   1.515
10377SOL    HW132030   0.546   1.793   1.522
10377SOL    HW232031   0.420   1.890   1.562
10378SOL     OW32032   6.457   5.601   6.161
10378SOL    HW132033   6.534   5.643   6.209
10378SOL    HW232034   6.492   5.530   6.099
10379SOL     OW32035   3.414   5.456   3.902
10379SOL    HW132036   3.414   5.497   3.811
10379SOL    HW232037   3.498   5.403   3.915
10380SOL     OW32038   0.860   2.357   4.885
10380SOL    HW132039   0.763   2.355   4.907
10380SOL    HW232040   0.911   2.397   4.962
10381SOL     OW32041   4.187   3.887   0.551
10381SOL    HW132042   4.145   3.953   0.612
10381SOL    HW232043   4.235   3.817   0.604
10382SOL     OW32044   2.884   6.107   1.743
10382SOL    HW132045   2.805   6.154   1.783
10382SOL    HW232046   2.868   6.008   1.747
10383SOL     OW32047   2.230   3.815   0.379
10383SOL    HW132048   2.271   3.746   0.319
10383SOL    HW232049   2.145   3.780   0.418
10384SOL     OW32050   6.778   6.455   0.500
10384SOL    HW132051   6.789   6.505   0.586
10384SOL    HW232052   6.703   6.495   0.447
10385SOL     OW32053   4.185   6.126   6.425
10385SOL    HW132054   4.150   6.119   6.331
10385SOL    HW232055   4.115   6.167   6.483
10386SOL     OW32056   0.893   0.719   5.566
10386SOL    HW132057   0.933   0.750   5.652
10386SOL    HW232058   0.807   0.671   5.585
10387SOL     OW32059   4.969   2.383   2.713
10387SOL    HW132060   4.913   2.310   2.754
10387SOL    HW232061   5.059   2.383   2.756
10388SOL     OW32062   1.791   6.759   0.909
10388SOL    HW132063   1.694   6.769   0.931
10388SOL    HW232064   1.843   6.743   0.992
10389SOL     OW32065   5.608   3.522   1.453
10389SOL    HW132066   5.546   3.571   1.393
10389SOL    HW232067   5.635   3.581   1.529
10390SOL     OW32068   1.638   2.666   6.822
10390SOL    HW132069   1.699   2.731   6.866
10390SOL    HW232070   1.671   2.645   6.730
10391SOL     OW32071   0.559   6.152   3.855
10391SOL    HW132072   0.463   6.140   3.881
10391SOL    HW232073   0.609   6.067   3.873
10392SOL     OW32074   5.589   5.509   5.300
10392SOL    HW132075   5.679   5.523   5.342
10392SOL    HW232076   5.520   5.497   5.372
10393SOL     OW32077   2.013   3.781   3.917
10393SOL    HW132078   2.069   3.817   3.842
10393SOL    HW232079   2.061   3.793   4.004
10394SOL     OW32080   2.418   5.354   4.914
10394SOL    HW132081   2.423   5.451   4.937
10394SOL    HW232082   2.324   5.322   4.924
10395SOL     OW32083   0.227   0.060   1.530
10395SOL    HW132084   0.326   0.058   1.522
10395SOL    HW232085   0.186   0.044   1.440
10396SOL     OW32086   3.562   1.527   3.998
10396SOL    HW132087   3.651   1.489   4.023
10396SOL    HW232088   3.570   1.579   3.914
10397SOL     OW32089   3.153   1.564   4.285
10397SOL    HW132090   3.202   1.498   4.341
10397SOL    HW232091   3.096   1.516   4.218
10398SOL     OW32092   6.392   2.812   0.483
10398SOL    HW132093   6.472   2.823   0.424
10398SOL    HW232094   6.375   2.897   0.533
10399SOL     OW32095   5.328   2.369   3.234
10399SOL    HW132096   5.250   2.432   3.237
10399SOL    HW232097   5.407   2.416   3.194
10400SOL     OW32098   4.235   5.846   0.236
10400SOL    HW132099   4.310   5.899   0.275
10400SOL    HW232100   4.185   5.902   0.169
10401SOL     OW32101   0.162   6.403   2.246
10401SOL    HW132102   0.115   6.447   2.322
10401SOL    HW232103   0.236   6.345   2.281
10402SOL     OW32104   6.304   1.769   5.568
10402SOL    HW132105   6.387   1.771   5.624
10402SOL    HW232106   6.240   1.703   5.606
10403SOL     OW32107   4.803   2.090   3.488
10403SOL    HW132108   4.731   2.118   3.424
10403SOL    HW232109   4.881   2.151   3.479
10404SOL     OW32110   5.711   6.145   4.312
10404SOL    HW132111   5.747   6.226   4.264
10404SOL    HW232112   5.611   6.143   4.303
10405SOL     OW32113   0.837   0.227   4.513
10405SOL    HW132114   0.933   0.212   4.539
10405SOL    HW232115   0.825   0.323   4.486
10406SOL     OW32116   2.019   4.260   3.673
10406SOL    HW132117   2.106   4.214   3.656
10406SOL    HW232118   1.949   4.193   3.696
10407SOL     OW32119   2.699   6.891   6.540
10407SOL    HW132120   2.763   6.908   6.465
10407SOL    HW232121   2.645   6.973   6.556
10408SOL     OW32122   4.522   0.164   1.238
10408SOL    HW132123   4.555   0.070   1.249
10408SOL    HW232124   4.558   0.203   1.153
10409SOL     OW32125   0.366   5.088   1.072
10409SOL    HW132126   0.377   4.992   1.046
10409SOL    HW232127   0.272   5.117   1.051
10410SOL     OW32128   5.187   2.257   1.686
10410SOL    HW132129   5.173   2.205   1.770
10410SOL    HW232130   5.110   2.319   1.672
10411SOL     OW32131   3.723   6.877   3.345
10411SOL    HW132132   3.700   6.811   3.415
10411SOL    HW232133   3.677   6.964   3.364
10412SOL     OW32134   0.260   0.804   6.748
10412SOL    HW132135   0.231   0.738   6.818
10412SOL    HW232136   0.219   0.893   6.767
10413SOL     OW32137   0.161   2.921   0.041
10413SOL    HW132138   0.224   2.979   0.094
10413SOL    HW232139   0.189   2.825   0.050
10414SOL     OW32140   4.046   5.566   6.001
10414SOL    HW132141   4.129   5.559   6.055
10414SOL    HW232142   3.980   5.624   6.048
10415SOL     OW32143   1.786   3.539   5.220
10415SOL    HW132144   1.816   3.448   5.189
10415SOL    HW232145   1.782   3.540   5.320
10416SOL     OW32146   6.103   0.274   5.093
10416SOL    HW132147   6.107   0.179   5.063
10416SOL    HW232148   6.072   0.278   5.188
10417SOL     OW32149   2.922   5.221   3.776
10417SOL    HW132150   2.956   5.129   3.794
10417SOL    HW232151   2.885   5.260   3.860
10418SOL     OW32152   6.820   3.947   6.565
10418SOL    HW132153   6.856   4.001   6.641
10418SOL    HW232154   6.855   3.853   6.573
10419SOL     OW32155   2.693   6.889   5.805
10419SOL    HW132156   2.600   6.912   5.835
10419SOL    HW232157   2.700   6.898   5.706
10420SOL     OW32158   0.605   3.909   3.576
10420SOL    HW132159   0.663   3.851   3.519
10420SOL    HW232160   0.543   3.852   3.630
10421SOL     OW32161   0.653   2.091   3.874
10421SOL    HW132162   0.701   2.104   3.788
10421SOL    HW232163   0.665   2.171   3.932
10422SOL     OW32164   5.871   3.739   5.112
10422SOL    HW132165   5.940   3.666   5.117
10422SOL    HW232166   5.780   3.699   5.112
10423SOL     OW32167   6.089   5.412   5.585
10423SOL    HW132168   6.155   5.338   5.571
10423SOL    HW232169   6.045   5.433   5.498
10424SOL     OW32170   5.131   2.730   0.330
10424SOL    HW132171   5.118   2.793   0.407
10424SOL    HW232172   5.080   2.646   0.346
10425SOL     OW32173   1.200   6.802   1.973
10425SOL    HW132174   1.209   6.803   2.073
10425SOL    HW232175   1.288   6.826   1.932
10426SOL     OW32176   5.605   5.308   0.543
10426SOL    HW132177   5.609   5.408   0.555
10426SOL    HW232178   5.519   5.274   0.581
10427SOL     OW32179   3.921   1.004   6.306
10427SOL    HW132180   3.985   0.928   6.316
10427SOL    HW232181   3.962   1.087   6.345
10428SOL     OW32182   3.399   0.643   4.038
10428SOL    HW132183   3.348   0.634   3.953
10428SOL    HW232184   3.497   0.648   4.018
10429SOL     OW32185   0.030   4.035   1.111
10429SOL    HW132186   7.011   3.998   1.193
10429SOL    HW232187   6.986   4.045   1.039
10430SOL     OW32188   4.983   0.173   4.609
10430SOL    HW132189   4.981   0.082   4.650
10430SOL    HW232190   4.934   0.237   4.668
10431SOL     OW32191   2.796   6.069   4.451
10431SOL    HW132192   2.885   6.027   4.471
10431SOL    HW232193   2.736   6.000   4.410
10432SOL     OW32194   5.444   0.029   5.128
10432SOL    HW132195   5.476   0.121   5.104
10432SOL    HW232196   5.520   6.988   5.123
10433SOL     OW32197   1.099   5.840   1.704
10433SOL    HW132198   1.162   5.911   1.673
10433SOL    HW232199   1.119   5.755   1.655
10434SOL     OW32200   4.003   5.947   3.349
10434SOL    HW132201   3.992   5.923   3.446
10434SOL    HW232202   3.936   6.017   3.325
10435SOL     OW32203   6.588   1.002   5.189
10435SOL    HW132204   6.493   1.029   5.208
10435SOL    HW232205   6.603   1.002   5.091
10436SOL     OW32206   0.021   5.176   5.876
10436SOL    HW132207   6.965   5.205   5.929
10436SOL    HW232208   0.006   5.083   5.842
10437SOL     OW32209   4.768   4.085   5.623
10437SOL    HW132210   4.811   4.143   5.553
10437SOL    HW232211   4.674   4.063   5.595
10438SOL     OW32212   5.987   6.714   0.314
10438SOL    HW132213   6.006   6.695   0.410
10438SOL    HW232214   6.062   6.678   0.258
10439SOL     OW32215   3.861   1.324   5.610
10439SOL    HW132216   3.785   1.305   5.671
10439SOL    HW232217   3.948   1.303   5.655
10440SOL     OW32218   1.226   0.274   0.391
10440SOL    HW132219   1.315   0.230   0.404
10440SOL    HW232220   1.240   0.371   0.368
10441SOL     OW32221   3.480   0.677   1.629
10441SOL    HW132222   3.456   0.691   1.725
10441SOL    HW232223   3.420   0.731   1.571
10442SOL     OW32224   3.528   6.607   6.029
10442SOL    HW132225   3.498   6.546   5.955
10442SOL    HW232226   3.611   6.569   6.071
10443SOL     OW32227   4.652   4.217   3.919
10443SOL    HW132228   4.618   4.303   3.957
10443SOL    HW232229   4.577   4.170   3.872
10444SOL     OW32230   3.932   6.192   4.446
10444SOL    HW132231   3.850   6.246   4.462
10444SOL    HW232232   3.985   6.233   4.372
10445SOL     OW32233   0.533   4.915   4.590
10445SOL    HW132234   0.538   4.989   4.656
10445SOL    HW232235   0.543   4.952   4.497
10446SOL     OW32236   1.333   3.009   5.365
10446SOL    HW132237   1.284   3.087   5.324
10446SOL    HW232238   1.369   3.036   5.454
10447SOL     OW32239   0.168   1.297   1.651
10447SOL    HW132240   0.223   1.257   1.724
10447SOL    HW232241   0.227   1.327   1.576
10448SOL     OW32242   4.499   0.571   2.492
10448SOL    HW132243   4.439   0.628   2.548
10448SOL    HW232244   4.549   0.628   2.427
10449SOL     OW32245   2.803   5.154   4.681
10449SOL    HW132246   2.724   5.099   4.655
10449SOL    HW232247   2.776   5.218   4.754
10450SOL     OW32248   1.043   1.970   0.558
10450SOL    HW132249   1.053   2.043   0.490
10450SOL    HW232250   0.953   1.928   0.549
10451SOL     OW32251   1.256   5.580   2.403
10451SOL    HW132252   1.173   5.526   2.387
10451SOL    HW232253   1.289   5.562   2.496
10452SOL     OW32254   6.403   3.045   2.389
10452SOL    HW132255   6.466   3.062   2.465
10452SOL    HW232256   6.362   3.131   2.360
10453SOL     OW32257   3.739   6.450   1.506
10453SOL    HW132258   3.681   6.470   1.585
10453SOL    HW232259   3.738   6.527   1.442
10454SOL     OW32260   4.343   3.534   0.262
10454SOL    HW132261   4.423   3.483   0.293
10454SOL    HW232262   4.350   3.628   0.293
10455SOL     OW32263   6.655   6.496   3.369
10455SOL    HW132264   6.628   6.487   3.273
10455SOL    HW232265   6.592   6.558   3.415
10456SOL     OW32266   3.134   6.507   0.819
10456SOL    HW132267   3.172   6.449   0.747
10456SOL    HW232268   3.055   6.461   0.860
10457SOL     OW32269   2.959   3.778   2.324
10457SOL    HW132270   2.873   3.827   2.338
10457SOL    HW232271   2.990   3.791   2.230
10458SOL     OW32272   0.046   1.713   6.388
10458SOL    HW132273   0.020   1.639   6.326
10458SOL    HW232274   6.996   1.780   6.394
10459SOL     OW32275   4.904   5.947   1.500
10459SOL    HW132276   4.904   5.854   1.464
10459SOL    HW232277   4.873   6.011   1.429
10460SOL     OW32278   1.197   4.282   2.074
10460SOL    HW132279   1.108   4.245   2.048
10460SOL    HW232280   1.227   4.348   2.005
10461SOL     OW32281   0.889   5.290   5.430
10461SOL    HW132282   0.903   5.319   5.524
10461SOL    HW232283   0.930   5.356   5.368
10462SOL     OW32284   6.267   1.787   3.604
10462SOL    HW132285   6.238   1.707   3.552
10462SOL    HW232286   6.189   1.822   3.657
10463SOL     OW32287   3.856   3.052   5.542
10463SOL    HW132288   3.875   3.133   5.487
10463SOL    HW232289   3.942   3.011   5.572
10464SOL     OW32290   6.340   6.858   1.125
10464SOL    HW132291   6.247   6.841   1.156
10464SOL    HW232292   6.355   6.811   1.037
10465SOL     OW32293   6.704   5.741   1.405
10465SOL    HW132294   6.637   5.806   1.370
10465SOL    HW232295   6.768   5.789   1.466
10466SOL     OW32296   4.423   5.410   6.464
10466SOL    HW132297   4.477   5.448   6.539
10466SOL    HW232298   4.477   5.340   6.417
10467SOL     OW32299   1.893   1.911   6.172
10467SOL    HW132300   1.819   1.962   6.216
10467SOL    HW232301   1.901   1.821   6.214
10468SOL     OW32302   3.490   5.109   2.995
10468SOL    HW132303   3.427   5.071   3.063
10468SOL    HW232304   3.581   5.117   3.034
10469SOL     OW32305   3.915   3.540   5.616
10469SOL    HW132306   3.950   3.463   5.563
10469SOL    HW232307   3.955   3.625   5.580
10470SOL     OW32308   2.659   2.243   3.504
10470SOL    HW132309   2.589   2.195   3.556
10470SOL    HW232310   2.677   2.332   3.547
10471SOL     OW32311   2.723   2.212   0.729
10471SOL    HW132312   2.666   2.184   0.806
10471SOL    HW232313   2.810   2.163   0.733
10472SOL     OW32314   3.842   5.516   0.215
10472SOL    HW132315   3.819   5.541   0.121
10472SOL    HW232316   3.940   5.528   0.230
10473SOL     OW32317   6.813   0.639   6.900
10473SOL    HW132318   6.839   0.702   6.827
10473SOL    HW232319   6.732   0.675   6.947
10474SOL     OW32320   4.899   1.625   4.498
10474SOL    HW132321   4.860   1.620   4.406
10474SOL    HW232322   4.918   1.532   4.531
10475SOL     OW32323   5.219   6.857   2.461
10475SOL    HW132324   5.128   6.853   2.418
10475SOL    HW232325   5.229   6.945   2.507
10476SOL     OW32326   6.886   6.380   6.785
10476SOL    HW132327   6.875   6.302   6.724
10476SOL    HW232328   6.911   6.461   6.732
10477SOL     OW32329   6.806   1.984   4.294
10477SOL    HW132330   6.740   1.990   4.368
10477SOL    HW232331   6.795   1.896   4.247
10478SOL     OW32332   0.411   0.536   1.155
10478SOL    HW132333   0.399   0.466   1.225
10478SOL    HW232334   0.476   0.605   1.188
10479SOL     OW32335   6.996   2.774   1.148
10479SOL    HW132336   6.945   2.789   1.233
10479SOL    HW232337   0.069   2.792   1.164
10480SOL     OW32338   6.333   0.624   1.978
10480SOL    HW132339   6.264   0.696   1.965
10480SOL    HW232340   6.288   0.536   1.991
10481SOL     OW32341   2.263   6.914   4.933
10481SOL    HW132342   2.347   6.966   4.947
10481SOL    HW232343   2.204   6.963   4.869
10482SOL     OW32344   6.767   5.652   4.795
10482SOL    HW132345   6.805   5.701   4.717
10482SOL    HW232346   6.809   5.685   4.879
10483SOL     OW32347   6.983   5.430   0.592
10483SOL    HW132348   0.011   5.367   0.650
10483SOL    HW232349   6.979   5.395   0.499
10484SOL     OW32350   5.960   1.520   1.611
10484SOL    HW132351   5.948   1.436   1.664
10484SOL    HW232352   5.941   1.599   1.669
10485SOL     OW32353   3.240   4.135   1.837
10485SOL    HW132354   3.187   4.052   1.816
10485SOL    HW232355   3.283   4.125   1.927
10486SOL     OW32356   6.393   0.765   6.028
10486SOL    HW132357   6.429   0.777   6.120
10486SOL    HW232358   6.325   0.692   6.028
10487SOL     OW32359   4.389   2.085   2.001
10487SOL    HW132360   4.428   2.097   1.910
10487SOL    HW232361   4.397   2.172   2.052
10488SOL     OW32362   2.316   1.623   6.189
10488SOL    HW132363   2.366   1.580   6.115
10488SOL    HW232364   2.311   1.722   6.173
10489SOL     OW32365   6.073   6.613   4.544
10489SOL    HW132366   6.097   6.619   4.447
10489SOL    HW232367   6.141   6.662   4.599
10490SOL     OW32368   6.094   1.907   0.766
10490SOL    HW132369   6.008   1.954   0.785
10490SOL    HW232370   6.145   1.959   0.697
10491SOL     OW32371   2.616   2.076   5.257
10491SOL    HW132372   2.625   2.074   5.356
10491SOL    HW232373   2.705   2.089   5.215
10492SOL     OW32374   5.097   6.335   1.538
10492SOL    HW132375   5.148   6.375   1.613
10492SOL    HW232376   5.020   6.282   1.574
10493SOL     OW32377   2.605   6.443   2.015
10493SOL    HW132378   2.533   6.483   2.072
10493SOL    HW232379   2.684   6.504   2.014
10494SOL     OW32380   5.517   4.634   6.261
10494SOL    HW132381   5.568   4.650   6.176
10494SOL    HW232382   5.419   4.642   6.243
10495SOL     OW32383   6.998   0.342   0.893
10495SOL    HW132384   0.033   0.400   0.950
10495SOL    HW232385   6.958   0.397   0.819
10496SOL     OW32386   6.184   4.545   6.108
10496SOL    HW132387   6.181   4.456   6.153
10496SOL    HW232388   6.170   4.617   6.175
10497SOL     OW32389   1.014   6.529   2.208
10497SOL    HW132390   0.917   6.538   2.230
10497SOL    HW232391   1.066   6.603   2.252
10498SOL     OW32392   5.679   5.579   0.598
10498SOL    HW132393   5.730   5.661   0.625
10498SOL    HW232394   5.669   5.519   0.677
10499SOL     OW32395   4.796   0.359   2.081
10499SOL    HW132396   4.746   0.424   2.137
10499SOL    HW232397   4.757   0.268   2.093
10500SOL     OW32398   5.892   1.812   5.670
10500SOL    HW132399   5.826   1.793   5.743
10500SOL    HW232400   5.843   1.843   5.589
10501SOL     OW32401   2.683   5.460   1.973
10501SOL    HW132402   2.712   5.486   1.882
10501SOL    HW232403   2.635   5.372   1.969
10502SOL     OW32404   3.036   3.410   1.303
10502SOL    HW132405   2.990   3.378   1.221
10502SOL    HW232406   3.073   3.332   1.354
10503SOL     OW32407   6.039   3.518   0.464
10503SOL    HW132408   6.015   3.455   0.537
10503SOL    HW232409   5.966   3.519   0.395
10504SOL     OW32410   0.084   3.055   5.567
10504SOL    HW132411   0.111   3.146   5.537
10504SOL    HW232412   0.139   2.986   5.520
10505SOL     OW32413   5.915   5.805   1.130
10505SOL    HW132414   5.994   5.754   1.164
10505SOL    HW232415   5.897   5.882   1.190
10506SOL     OW32416   1.007   3.327   7.020
10506SOL    HW132417   1.029   3.424   7.011
10506SOL    HW232418   0.959   3.296   6.938
10507SOL     OW32419   1.990   5.332   0.076
10507SOL    HW132420   2.071   5.391   0.064
10507SOL    HW232421   1.946   5.353   0.163
10508SOL     OW32422   0.102   5.985   4.522
10508SOL    HW132423   0.010   6.000   4.559
10508SOL    HW232424   0.169   6.031   4.581
10509SOL     OW32425   6.422   4.575   4.952
10509SOL    HW132426   6.474   4.648   4.996
10509SOL    HW232427   6.335   4.611   4.919
10510SOL     OW32428   4.540   6.392   0.337
10510SOL    HW132429   4.520   6.452   0.260
10510SOL    HW232430   4.527   6.441   0.423
10511SOL     OW32431   3.069   1.045   2.532
10511SOL    HW132432   3.121   1.035   2.617
10511SOL    HW232433   3.125   1.012   2.455
10512SOL     OW32434   3.346   0.663   6.080
10512SOL    HW132435   3.363   0.759   6.055
10512SOL    HW232436   3.250   0.652   6.102
10513SOL     OW32437   6.741   3.161   3.247
10513SOL    HW132438   6.770   3.135   3.154
10513SOL    HW232439   6.643   3.149   3.256
10514SOL     OW32440   0.979   2.444   1.565
10514SOL    HW132441   0.977   2.344   1.558
10514SOL    HW232442   0.974   2.470   1.662
10515SOL     OW32443   1.753   3.588   4.564
10515SOL    HW132444   1.828   3.648   4.535
10515SOL    HW232445   1.731   3.524   4.490
10516SOL     OW32446   3.064   1.483   0.365
10516SOL    HW132447   3.041   1.573   0.400
10516SOL    HW232448   2.984   1.423   0.371
10517SOL     OW32449   0.973   3.820   1.690
10517SOL    HW132450   0.982   3.871   1.604
10517SOL    HW232451   1.056   3.765   1.704
10518SOL     OW32452   6.944   6.254   1.664
10518SOL    HW132453   7.023   6.313   1.650
10518SOL    HW232454   6.890   6.249   1.580
10519SOL     OW32455   3.059   3.707   0.575
10519SOL    HW132456   3.014   3.793   0.549
10519SOL    HW232457   3.067   3.648   0.495
10520SOL     OW32458   0.487   2.741   5.847
10520SOL    HW132459   0.440   2.783   5.925
10520SOL    HW232460   0.439   2.763   5.762
10521SOL     OW32461   0.153   5.428   1.151
10521SOL    HW132462   0.098   5.379   1.218
10521SOL    HW232463   0.097   5.454   1.073
10522SOL     OW32464   0.169   2.505   3.707
10522SOL    HW132465   0.146   2.597   3.677
10522SOL    HW232466   0.088   2.446   3.699
10523SOL     OW32467   0.769   4.765   2.980
10523SOL    HW132468   0.727   4.703   2.915
10523SOL    HW232469   0.698   4.815   3.030
10524SOL     OW32470   0.060   6.489   4.334
10524SOL    HW132471   0.075   6.518   4.240
10524SOL    HW232472   6.995   6.443   4.341
10525SOL     OW32473   3.621   1.031   5.196
10525SOL    HW132474   3.622   1.108   5.132
10525SOL    HW232475   3.709   1.025   5.243
10526SOL     OW32476   1.138   0.187   1.638
10526SOL    HW132477   1.154   0.248   1.716
10526SOL    HW232478   1.053   0.213   1.593
10527SOL     OW32479   1.580   0.988   5.992
10527SOL    HW132480   1.514   1.021   6.059
10527SOL    HW232481   1.566   0.890   5.977
10528SOL     OW32482   1.302   4.281   6.383
10528SOL    HW132483   1.316   4.368   6.431
10528SOL    HW232484   1.351   4.282   6.296
10529SOL     OW32485   2.281   5.882   4.242
10529SOL    HW132486   2.300   5.879   4.144
10529SOL    HW232487   2.321   5.965   4.281
10530SOL     OW32488   1.471   0.039   5.985
10530SOL    HW132489   1.391   0.064   6.040
10530SOL    HW232490   1.546   0.014   6.045
10531SOL     OW32491   2.590   1.782   4.444
10531SOL    HW132492   2.552   1.822   4.360
10531SOL    HW232493   2.667   1.837   4.475
10532SOL     OW32494   0.229   6.821   6.078
10532SOL    HW132495   0.156   6.758   6.104
10532SOL    HW232496   0.300   6.771   6.028
10533SOL     OW32497   3.157   5.963   3.510
10533SOL    HW132498   3.218   6.040   3.521
10533SOL    HW232499   3.152   5.937   3.413
10534SOL     OW32500   6.318   4.563   2.101
10534SOL    HW132501   6.406   4.547   2.146
10534SOL    HW232502   6.303   4.493   2.032
10535SOL     OW32503   2.021   1.531   2.470
10535SOL    HW132504   2.096   1.596   2.454
10535SOL    HW232505   2.032   1.453   2.409
10536SOL     OW32506   4.546   1.031   4.156
10536SOL    HW132507   4.495   1.078   4.229
10536SOL    HW232508   4.644   1.038   4.175
10537SOL     OW32509   4.986   6.749   4.046
10537SOL    HW132510   4.983   6.692   3.965
10537SOL    HW232511   4.893   6.762   4.081
10538SOL     OW32512   6.809   3.442   0.361
10538SOL    HW132513   6.709   3.450   0.357
10538SOL    HW232514   6.850   3.499   0.289
10539SOL     OW32515   6.209   6.046   1.069
10539SOL    HW132516   6.181   6.029   1.163
10539SOL    HW232517   6.274   5.976   1.040
10540SOL     OW32518   2.200   2.754   5.330
10540SOL    HW132519   2.126   2.689   5.313
10540SOL    HW232520   2.198   2.783   5.425
10541SOL     OW32521   4.103   3.370   3.011
10541SOL    HW132522   4.176   3.432   2.980
10541SOL    HW232523   4.070   3.400   3.100
10542SOL     OW32524   6.817   1.158   5.029
10542SOL    HW132525   6.758   1.094   4.980
10542SOL    HW232526   6.849   1.115   5.114
10543SOL     OW32527   1.145   1.610   4.193
10543SOL    HW132528   1.149   1.693   4.137
10543SOL    HW232529   1.068   1.618   4.257
10544SOL     OW32530   2.038   6.475   1.644
10544SOL    HW132531   2.019   6.388   1.690
10544SOL    HW232532   2.102   6.528   1.700
10545SOL     OW32533   1.767   2.651   1.350
10545SOL    HW132534   1.730   2.658   1.257
10545SOL    HW232535   1.714   2.710   1.412
10546SOL     OW32536   2.807   6.090   0.348
10546SOL    HW132537   2.773   6.144   0.271
10546SOL    HW232538   2.731   6.065   0.407
10547SOL     OW32539   5.451   2.623   3.916
10547SOL    HW132540   5.359   2.622   3.877
10547SOL    HW232541   5.490   2.531   3.913
10548SOL     OW32542   0.109   4.459   4.221
10548SOL    HW132543   0.138   4.550   4.250
10548SOL    HW232544   0.151   4.437   4.132
10549SOL     OW32545   0.736   1.575   0.993
10549SOL    HW132546   0.733   1.557   0.895
10549SOL    HW232547   0.813   1.636   1.014
10550SOL     OW32548   4.723   6.193   3.782
10550SOL    HW132549   4.631   6.168   3.754
10550SOL    HW232550   4.751   6.137   3.860
10551SOL     OW32551   1.658   1.882   0.172
10551SOL    HW132552   1.669   1.842   0.262
10551SOL    HW232553   1.634   1.811   0.106
10552SOL     OW32554   1.856   0.798   5.245
10552SOL    HW132555   1.772   0.751   5.218
10552SOL    HW232556   1.864   0.799   5.345
10553SOL     OW32557   0.669   4.455   1.298
10553SOL    HW132558   0.649   4.544   1.257
10553SOL    HW232559   0.588   4.396   1.289
10554SOL     OW32560   5.108   5.455   1.578
10554SOL    HW132561   5.140   5.361   1.565
10554SOL    HW232562   5.021   5.455   1.627
10555SOL     OW32563   2.729   2.898   0.610
10555SOL    HW132564   2.724   2.813   0.663
10555SOL    HW232565   2.714   2.877   0.514
10556SOL     OW32566   2.124   0.711   3.735
10556SOL    HW132567   2.118   0.780   3.807
10556SOL    HW232568   2.205   0.729   3.679
10557SOL     OW32569   2.019   2.773   3.774
10557SOL    HW132570   2.001   2.788   3.871
10557SOL    HW232571   2.016   2.860   3.725
10558SOL     OW32572   3.791   6.177   5.578
10558SOL    HW132573   3.743   6.205   5.661
10558SOL    HW232574   3.758   6.086   5.550
10559SOL     OW32575   3.909   0.292   1.694
10559SOL    HW132576   3.840   0.241   1.644
10559SOL    HW232577   3.944   0.366   1.637
10560SOL     OW32578   4.733   0.109   3.062
10560SOL    HW132579   4.702   0.107   2.967
10560SOL    HW232580   4.811   0.047   3.072
10561SOL     OW32581   3.651   4.413   1.649
10561SOL    HW132582   3.744   4.400   1.614
10561SOL    HW232583   3.653   4.471   1.730
10562SOL     OW32584   4.340   5.439   0.280
10562SOL    HW132585   4.274   5.513   0.271
10562SOL    HW232586   4.433   5.477   0.278
10563SOL     OW32587   0.878   0.751   2.204
10563SOL    HW132588   0.834   0.811   2.136
10563SOL    HW232589   0.977   0.767   2.202
10564SOL     OW32590   5.800   6.316   3.706
10564SOL    HW132591   5.839   6.272   3.787
10564SOL    HW232592   5.862   6.304   3.628
10565SOL     OW32593   6.778   6.290   5.752
10565SOL    HW132594   6.688   6.317   5.784
10565SOL    HW232595   6.780   6.292   5.652
10566SOL     OW32596   3.449   1.809   6.313
10566SOL    HW132597   3.368   1.863   6.289
10566SOL    HW232598   3.467   1.742   6.241
10567SOL     OW32599   1.971   2.547   5.754
10567SOL    HW132600   1.933   2.526   5.844
10567SOL    HW232601   2.042   2.617   5.763
10568SOL     OW32602   6.303   3.149   0.423
10568SOL    HW132603   6.271   3.132   0.516
10568SOL    HW232604   6.263   3.234   0.389
10569SOL     OW32605   5.662   0.949   2.325
10569SOL    HW132606   5.672   0.903   2.236
10569SOL    HW232607   5.565   0.965   2.344
10570SOL     OW32608   1.741   4.769   3.516
10570SOL    HW132609   1.782   4.825   3.588
10570SOL    HW232610   1.799   4.690   3.497
10571SOL     OW32611   0.019   4.554   4.909
10571SOL    HW132612   0.002   4.510   4.821
10571SOL    HW232613   0.058   4.487   4.973
10572SOL     OW32614   6.745   4.482   2.579
10572SOL    HW132615   6.807   4.460   2.655
10572SOL    HW232616   6.683   4.556   2.607
10573SOL     OW32617   5.000   0.621   4.999
10573SOL    HW132618   5.066   0.654   4.932
10573SOL    HW232619   4.978   0.696   5.063
10574SOL     OW32620   0.646   1.841   4.184
10574SOL    HW132621   0.570   1.887   4.138
10574SOL    HW232622   0.643   1.743   4.164
10575SOL     OW32623   0.037   0.697   3.830
10575SOL    HW132624   0.042   0.605   3.791
10575SOL    HW232625   6.977   0.743   3.798
10576SOL     OW32626   0.758   5.971   3.872
10576SOL    HW132627   0.821   6.048   3.858
10576SOL    HW232628   0.786   5.894   3.816
10577SOL     OW32629   1.993   4.405   0.291
10577SOL    HW132630   2.051   4.467   0.238
10577SOL    HW232631   2.050   4.350   0.352
10578SOL     OW32632   3.756   1.585   3.082
10578SOL    HW132633   3.756   1.512   3.014
10578SOL    HW232634   3.783   1.548   3.171
10579SOL     OW32635   4.126   2.864   1.648
10579SOL    HW132636   4.036   2.820   1.649
10579SOL    HW232637   4.196   2.795   1.662
10580SOL     OW32638   6.508   6.515   6.158
10580SOL    HW132639   6.468   6.466   6.235
10580SOL    HW232640   6.470   6.480   6.073
10581SOL     OW32641   5.780   0.559   3.106
10581SOL    HW132642   5.688   0.522   3.093
10581SOL    HW232643   5.842   0.518   3.039
10582SOL     OW32644   4.243   4.968   6.033
10582SOL    HW132645   4.263   5.027   6.111
10582SOL    HW232646   4.287   5.004   5.951
10583SOL     OW32647   4.637   0.951   3.699
10583SOL    HW132648   4.644   0.865   3.750
10583SOL    HW232649   4.595   1.020   3.758
10584SOL     OW32650   6.337   0.267   0.326
10584SOL    HW132651   6.325   0.317   0.412
10584SOL    HW232652   6.422   0.215   0.330
10585SOL     OW32653   2.917   1.777   5.501
10585SOL    HW132654   3.011   1.788   5.470
10585SOL    HW232655   2.916   1.716   5.580
10586SOL     OW32656   5.485   4.981   5.777
10586SOL    HW132657   5.402   4.926   5.767
10586SOL    HW232658   5.525   4.998   5.687
10587SOL     OW32659   6.759   5.246   6.725
10587SOL    HW132660   6.725   5.209   6.639
10587SOL    HW232661   6.815   5.177   6.771
10588SOL     OW32662   1.665   1.818   5.096
10588SOL    HW132663   1.740   1.885   5.094
10588SOL    HW232664   1.667   1.770   5.183
10589SOL     OW32665   4.998   0.847   4.551
10589SOL    HW132666   4.984   0.932   4.601
10589SOL    HW232667   5.068   0.861   4.481
10590SOL     OW32668   0.259   0.304   0.533
10590SOL    HW132669   0.173   0.354   0.529
10590SOL    HW232670   0.295   0.307   0.626
10591SOL     OW32671   2.490   2.275   0.382
10591SOL    HW132672   2.498   2.356   0.323
10591SOL    HW232673   2.515   2.193   0.330
10592SOL     OW32674   5.317   3.921   4.065
10592SOL    HW132675   5.378   3.988   4.022
10592SOL    HW232676   5.348   3.903   4.158
10593SOL     OW32677   3.158   6.015   1.109
10593SOL    HW132678   3.068   5.975   1.126
10593SOL    HW232679   3.147   6.110   1.079
10594SOL     OW32680   4.723   1.715   2.160
10594SOL    HW132681   4.713   1.646   2.089
10594SOL    HW232682   4.770   1.676   2.239
10595SOL     OW32683   5.972   7.000   0.241
10595SOL    HW132684   5.960   6.903   0.262
10595SOL    HW232685   5.905   0.030   0.291
10596SOL     OW32686   4.185   0.885   0.135
10596SOL    HW132687   4.114   0.894   0.065
10596SOL    HW232688   4.265   0.839   0.096
10597SOL     OW32689   3.508   1.493   5.689
10597SOL    HW132690   3.491   1.410   5.742
10597SOL    HW232691   3.423   1.542   5.675
10598SOL     OW32692   3.539   2.577   0.102
10598SOL    HW132693   3.536   2.624   0.014
10598SOL    HW232694   3.601   2.627   0.164
10599SOL     OW32695   5.498   3.602   6.405
10599SOL    HW132696   5.596   3.600   6.388
10599SOL    HW232697   5.472   3.692   6.441
10600SOL     OW32698   3.292   2.461   1.718
10600SOL    HW132699   3.196   2.451   1.743
10600SOL    HW232700   3.313   2.398   1.642
10601SOL     OW32701   1.293   4.803   5.871
10601SOL    HW132702   1.279   4.715   5.827
10601SOL    HW232703   1.391   4.814   5.892
10602SOL     OW32704   1.042   1.431   1.233
10602SOL    HW132705   0.999   1.372   1.301
10602SOL    HW232706   1.129   1.465   1.269
10603SOL     OW32707   4.251   6.940   3.424
10603SOL    HW132708   4.330   6.881   3.436
10603SOL    HW232709   4.172   6.900   3.471
10604SOL     OW32710   6.543   5.112   5.202
10604SOL    HW132711   6.634   5.116   5.161
10604SOL    HW232712   6.502   5.204   5.200
10605SOL     OW32713   2.173   6.208   0.028
10605SOL    HW132714   2.084   6.251   0.013
10605SOL    HW232715   2.162   6.109   0.029
10606SOL     OW32716   0.128   0.484   1.103
10606SOL    HW132717   0.227   0.494   1.113
10606SOL    HW232718   0.087   0.572   1.077
10607SOL     OW32719   4.045   4.598   7.012
10607SOL    HW132720   4.138   4.573   0.018
10607SOL    HW232721   3.998   4.516   6.979
10608SOL     OW32722   0.119   3.776   4.252
10608SOL    HW132723   0.078   3.820   4.173
10608SOL    HW232724   0.190   3.835   4.290
10609SOL     OW32725   3.072   6.797   6.693
10609SOL    HW132726   3.022   6.780   6.608
10609SOL    HW232727   3.037   6.738   6.765
10610SOL     OW32728   0.710   2.370   3.925
10610SOL    HW132729   0.791   2.427   3.910
10610SOL    HW232730   0.635   2.402   3.868
10611SOL     OW32731   2.918   4.309   6.588
10611SOL    HW132732   2.893   4.251   6.510
10611SOL    HW232733   3.010   4.285   6.619
10612SOL     OW32734   4.921   2.190   4.417
10612SOL    HW132735   4.870   2.187   4.503
10612SOL    HW232736   4.871   2.140   4.346
10613SOL     OW32737   6.291   5.873   5.720
10613SOL    HW132738   6.348   5.851   5.799
10613SOL    HW232739   6.232   5.794   5.699
10614SOL     OW32740   4.749   1.419   4.035
10614SOL    HW132741   4.830   1.392   4.087
10614SOL    HW232742   4.743   1.364   3.952
10615SOL     OW32743   3.594   1.221   6.079
10615SOL    HW132744   3.651   1.145   6.108
10615SOL    HW232745   3.647   1.306   6.083
10616SOL     OW32746   2.885   6.523   6.813
10616SOL    HW132747   2.933   6.562   6.892
10616SOL    HW232748   2.810   6.583   6.787
10617SOL     OW32749   3.045   4.053   1.448
10617SOL    HW132750   2.997   4.138   1.468
10617SOL    HW232751   3.048   4.040   1.349
10618SOL     OW32752   0.996   4.484   6.109
10618SOL    HW132753   1.055   4.535   6.046
10618SOL    HW232754   0.912   4.535   6.126
10619SOL     OW32755   0.241   2.898   3.707
10619SOL    HW132756   0.175   2.866   3.775
10619SOL    HW232757   0.194   2.914   3.620
10620SOL     OW32758   1.079   0.154   4.581
10620SOL    HW132759   1.064   0.088   4.655
10620SOL    HW232760   1.076   0.106   4.493
10621SOL     OW32761   0.958   5.007   1.910
10621SOL    HW132762   1.053   5.021   1.939
10621SOL    HW232763   0.953   4.928   1.849
10622SOL     OW32764   4.623   1.971   2.435
10622SOL    HW132765   4.721   1.991   2.437
10622SOL    HW232766   4.598   1.915   2.514
10623SOL     OW32767   6.588   5.149   5.925
10623SOL    HW132768   6.602   5.113   5.832
10623SOL    HW232769   6.674   5.146   5.975
10624SOL     OW32770   0.332   2.703   5.606
10624SOL    HW132771   0.384   2.662   5.531
10624SOL    HW232772   0.249   2.650   5.621
10625SOL     OW32773   1.075   4.308   1.053
10625SOL    HW132774   1.020   4.231   1.022
10625SOL    HW232775   1.034   4.348   1.135
10626SOL     OW32776   3.702   2.800   0.974
10626SOL    HW132777   3.784   2.744   0.969
10626SOL    HW232778   3.627   2.754   0.925
10627SOL     OW32779   5.730   2.057   0.107
10627SOL    HW132780   5.782   2.123   0.053
10627SOL    HW232781   5.772   1.966   0.098
10628SOL     OW32782   4.441   6.655   0.994
10628SOL    HW132783   4.530   6.671   0.951
10628SOL    HW232784   4.438   6.704   1.081
10629SOL     OW32785   2.590   5.017   4.581
10629SOL    HW132786   2.539   4.991   4.664
10629SOL    HW232787   2.647   4.941   4.552
10630SOL     OW32788   6.615   1.788   2.809
10630SOL    HW132789   6.678   1.834   2.746
10630SOL    HW232790   6.660   1.708   2.849
10631SOL     OW32791   4.041   4.962   5.077
10631SOL    HW132792   3.982   5.034   5.116
10631SOL    HW232793   4.049   4.887   5.143
10632SOL     OW32794   5.532   6.691   3.619
10632SOL    HW132795   5.533   6.790   3.623
10632SOL    HW232796   5.452   6.656   3.669
10633SOL     OW32797   2.784   2.459   1.453
10633SOL    HW132798   2.722   2.471   1.531
10633SOL    HW232799   2.785   2.363   1.426
10634SOL     OW32800   2.510   4.873   0.606
10634SOL    HW132801   2.434   4.891   0.669
10634SOL    HW232802   2.479   4.888   0.512
10635SOL     OW32803   2.027   3.682   6.751
10635SOL    HW132804   2.031   3.605   6.815
10635SOL    HW232805   1.942   3.677   6.699
10636SOL     OW32806   0.661   2.108   0.966
10636SOL    HW132807   0.682   2.122   1.063
10636SOL    HW232808   0.625   2.193   0.927
10637SOL     OW32809   0.863   4.947   5.944
10637SOL    HW132810   0.818   4.863   5.915
10637SOL    HW232811   0.795   5.020   5.953
10638SOL     OW32812   5.505   6.005   2.918
10638SOL    HW132813   5.436   5.950   2.964
10638SOL    HW232814   5.482   6.013   2.821
10639SOL     OW32815   1.488   3.814   3.155
10639SOL    HW132816   1.540   3.857   3.228
10639SOL    HW232817   1.409   3.871   3.131
10640SOL     OW32818   4.561   0.037   3.751
10640SOL    HW132819   4.525   0.120   3.793
10640SOL    HW232820   4.628   7.019   3.813
10641SOL     OW32821   2.380   1.691   2.112
10641SOL    HW132822   2.301   1.751   2.099
10641SOL    HW232823   2.435   1.691   2.029
10642SOL     OW32824   6.480   1.802   0.804
10642SOL    HW132825   6.504   1.762   0.893
10642SOL    HW232826   6.460   1.729   0.739
10643SOL     OW32827   2.426   5.750   4.438
10643SOL    HW132828   2.361   5.776   4.367
10643SOL    HW232829   2.378   5.703   4.511
10644SOL     OW32830   5.876   2.854   1.246
10644SOL    HW132831   5.922   2.933   1.289
10644SOL    HW232832   5.839   2.795   1.317
10645SOL     OW32833   1.859   2.785   4.273
10645SOL    HW132834   1.780   2.845   4.283
10645SOL    HW232835   1.860   2.744   4.182
10646SOL     OW32836   0.460   6.767   5.936
10646SOL    HW132837   0.505   6.807   6.016
10646SOL    HW232838   0.527   6.753   5.864
10647SOL     OW32839   3.013   5.709   4.352
10647SOL    HW132840   2.959   5.659   4.420
10647SOL    HW232841   3.081   5.647   4.312
10648SOL     OW32842   5.880   4.649   6.214
10648SOL    HW132843   5.783   4.665   6.236
10648SOL    HW232844   5.927   4.737   6.208
10649SOL     OW32845   0.724   4.285   2.831
10649SOL    HW132846   0.780   4.279   2.913
10649SOL    HW232847   0.673   4.371   2.831
10650SOL     OW32848   0.818   0.042   4.042
10650SOL    HW132849   0.852   6.981   4.000
10650SOL    HW232850   0.865   0.121   4.003
10651SOL     OW32851   6.099   6.461   6.935
10651SOL    HW132852   6.020   6.482   6.992
10651SOL    HW232853   6.171   6.529   6.951
10652SOL     OW32854   3.014   6.202   5.845
10652SOL    HW132855   3.013   6.117   5.899
10652SOL    HW232856   2.986   6.278   5.903
10653SOL     OW32857   4.267   5.570   4.813
10653SOL    HW132858   4.195   5.517   4.769
10653SOL    HW232859   4.229   5.656   4.847
10654SOL     OW32860   4.869   0.492   6.649
10654SOL    HW132861   4.791   0.479   6.588
10654SOL    HW232862   4.862   0.427   6.725
10655SOL     OW32863   2.119   5.608   0.228
10655SOL    HW132864   2.070   5.690   0.199
10655SOL    HW232865   2.188   5.585   0.160
10656SOL     OW32866   0.312   1.803   2.486
10656SOL    HW132867   0.229   1.758   2.520
10656SOL    HW232868   0.390   1.776   2.541
10657SOL     OW32869   5.811   0.181   5.174
10657SOL    HW132870   5.758   0.191   5.089
10657SOL    HW232871   5.754   0.206   5.252
10658SOL     OW32872   6.799   4.664   4.656
10658SOL    HW132873   6.711   4.660   4.608
10658SOL    HW232874   6.783   4.657   4.754
10659SOL     OW32875   0.762   5.724   0.887
10659SOL    HW132876   0.731   5.791   0.819
10659SOL    HW232877   0.811   5.772   0.960
10660SOL     OW32878   4.962   3.923   6.237
10660SOL    HW132879   4.951   3.929   6.138
10660SOL    HW232880   4.966   3.827   6.264
10661SOL     OW32881   0.885   0.192   1.504
10661SOL    HW132882   0.808   0.250   1.531
10661SOL    HW232883   0.896   0.118   1.571
10662SOL     OW32884   4.757   0.558   2.311
10662SOL    HW132885   4.720   0.645   2.344
10662SOL    HW232886   4.853   0.550   2.339
10663SOL     OW32887   0.802   1.997   2.409
10663SOL    HW132888   0.763   1.911   2.376
10663SOL    HW232889   0.871   2.029   2.345
10664SOL     OW32890   5.765   4.151   5.070
10664SOL    HW132891   5.803   4.082   5.132
10664SOL    HW232892   5.667   4.135   5.059
10665SOL     OW32893   0.845   1.568   0.274
10665SOL    HW132894   0.922   1.630   0.286
10665SOL    HW232895   0.759   1.620   0.284
10666SOL     OW32896   3.651   3.535   1.666
10666SOL    HW132897   3.640   3.459   1.730
10666SOL    HW232898   3.694   3.612   1.712
10667SOL     OW32899   4.762   2.476   3.924
10667SOL    HW132900   4.672   2.480   3.880
10667SOL    HW232901   4.773   2.387   3.968
10668SOL     OW32902   2.729   0.967   5.441
10668SOL    HW132903   2.752   0.870   5.430
10668SOL    HW232904   2.813   1.021   5.445
10669SOL     OW32905   5.521   0.440   1.526
10669SOL    HW132906   5.469   0.361   1.558
10669SOL    HW232907   5.461   0.500   1.472
10670SOL     OW32908   5.708   5.122   4.993
10670SOL    HW132909   5.783   5.147   4.933
10670SOL    HW232910   5.621   5.136   4.946
10671SOL     OW32911   2.137   1.978   3.733
10671SOL    HW132912   2.064   2.009   3.794
10671SOL    HW232913   2.149   2.045   3.659
10672SOL     OW32914   6.400   3.917   1.724
10672SOL    HW132915   6.326   3.852   1.741
10672SOL    HW232916   6.436   3.903   1.631
10673SOL     OW32917   0.957   0.709   6.891
10673SOL    HW132918   0.955   0.683   6.794
10673SOL    HW232919   0.865   0.698   6.929
10674SOL     OW32920   4.056   3.820   2.911
10674SOL    HW132921   3.990   3.845   2.840
10674SOL    HW232922   4.106   3.739   2.883
10675SOL     OW32923   1.919   6.730   6.969
10675SOL    HW132924   1.860   6.679   6.906
10675SOL    HW232925   1.882   6.724   0.038
10676SOL     OW32926   6.476   5.943   5.474
10676SOL    HW132927   6.459   5.972   5.568
10676SOL    HW232928   6.391   5.911   5.432
10677SOL     OW32929   1.515   0.981   1.244
10677SOL    HW132930   1.472   0.969   1.334
10677SOL    HW232931   1.611   1.005   1.256
10678SOL     OW32932   4.501   5.205   4.117
10678SOL    HW132933   4.556   5.272   4.066
10678SOL    HW232934   4.561   5.137   4.159
10679SOL     OW32935   4.567   5.530   6.756
10679SOL    HW132936   4.554   5.478   6.840
10679SOL    HW232937   4.541   5.625   6.772
10680SOL     OW32938   3.997   1.829   4.618
10680SOL    HW132939   4.009   1.797   4.524
10680SOL    HW232940   3.986   1.929   4.618
10681SOL     OW32941   1.070   3.820   0.824
10681SOL    HW132942   0.978   3.781   0.834
10681SOL    HW232943   1.110   3.789   0.738
10682SOL     OW32944   0.518   1.333   5.188
10682SOL    HW132945   0.597   1.279   5.217
10682SOL    HW232946   0.434   1.287   5.214
10683SOL     OW32947   4.266   1.895   4.051
10683SOL    HW132948   4.195   1.857   3.991
10683SOL    HW232949   4.292   1.986   4.019
10684SOL     OW32950   5.172   4.964   3.089
10684SOL    HW132951   5.176   4.864   3.079
10684SOL    HW232952   5.142   5.005   3.003
10685SOL     OW32953   0.778   5.769   1.695
10685SOL    HW132954   0.803   5.839   1.762
10685SOL    HW232955   0.858   5.713   1.673
10686SOL     OW32956   0.658   4.750   5.873
10686SOL    HW132957   0.562   4.761   5.849
10686SOL    HW232958   0.705   4.696   5.802
10687SOL     OW32959   5.788   5.692   3.650
10687SOL    HW132960   5.870   5.725   3.697
10687SOL    HW232961   5.753   5.611   3.698
10688SOL     OW32962   6.365   3.659   2.020
10688SOL    HW132963   6.341   3.583   2.079
10688SOL    HW232964   6.461   3.684   2.034
10689SOL     OW32965   0.080   6.218   3.614
10689SOL    HW132966   0.059   6.261   3.526
10689SOL    HW232967   0.042   6.273   3.688
10690SOL     OW32968   6.805   5.574   4.374
10690SOL    HW132969   6.777   5.592   4.280
10690SOL    HW232970   6.828   5.477   4.384
10691SOL     OW32971   0.831   2.661   2.184
10691SOL    HW132972   0.759   2.693   2.122
10691SOL    HW232973   0.795   2.587   2.241
10692SOL     OW32974   3.236   6.222   3.481
10692SOL    HW132975   3.293   6.302   3.501
10692SOL    HW232976   3.248   6.195   3.386
10693SOL     OW32977   1.971   5.972   7.016
10693SOL    HW132978   2.054   5.920   6.993
10693SOL    HW232979   1.903   5.910   0.031
10694SOL     OW32980   5.445   0.017   1.509
10694SOL    HW132981   5.528   0.051   1.466
10694SOL    HW232982   5.404   6.969   1.451
10695SOL     OW32983   0.094   2.384   2.383
10695SOL    HW132984   0.103   2.446   2.305
10695SOL    HW232985   0.087   2.436   2.468
10696SOL     OW32986   0.452   4.138   3.815
10696SOL    HW132987   0.427   4.152   3.719
10696SOL    HW232988   0.540   4.181   3.833
10697SOL     OW32989   6.547   5.616   5.101
10697SOL    HW132990   6.633   5.566   5.090
10697SOL    HW232991   6.565   5.702   5.148
10698SOL     OW32992   5.206   4.481   6.098
10698SOL    HW132993   5.175   4.405   6.156
10698SOL    HW232994   5.238   4.556   6.156
10699SOL     OW32995   4.043   3.933   1.988
10699SOL    HW132996   3.963   3.938   2.048
10699SOL    HW232997   4.055   4.021   1.941
10700SOL     OW32998   6.728   6.588   0.912
10700SOL    HW132999   6.701   6.644   0.990
10700SOL    HW233000   6.658   6.594   0.841
10701SOL     OW33001   3.346   6.113   0.032
10701SOL    HW133002   3.248   6.128   0.041
10701SOL    HW233003   3.382   6.171   6.982
10702SOL     OW33004   6.079   2.466   1.428
10702SOL    HW133005   6.109   2.554   1.391
10702SOL    HW233006   5.997   2.435   1.380
10703SOL     OW33007   3.068   3.027   5.190
10703SOL    HW133008   3.148   3.048   5.245
10703SOL    HW233009   3.089   2.950   5.129
10704SOL     OW33010   6.004   6.014   1.560
10704SOL    HW133011   6.074   5.989   1.628
10704SOL    HW233012   5.958   6.098   1.590
10705SOL     OW33013   5.912   4.440   2.442
10705SOL    HW133014   5.845   4.370   2.418
10705SOL    HW233015   5.909   4.457   2.540
10706SOL     OW33016   5.288   6.802   1.796
10706SOL    HW133017   5.319   6.769   1.885
10706SOL    HW233018   5.190   6.822   1.799
10707SOL     OW33019   0.011   6.818   4.411
10707SOL    HW133020   0.097   6.781   4.375
10707SOL    HW233021   6.958   6.779   4.360
10708SOL     OW33022   4.189   0.550   2.020
10708SOL    HW133023   4.114   0.515   1.964
10708SOL    HW233024   4.222   0.636   1.982
10709SOL     OW33025   5.849   6.022   5.356
10709SOL    HW133026   5.894   6.108   5.382
10709SOL    HW233027   5.753   6.024   5.385
10710SOL     OW33028   0.035   0.110   4.366
10710SOL    HW133029   0.107   0.102   4.297
10710SOL    HW233030   7.015   0.021   4.379
10711SOL     OW33031   1.622   6.483   4.292
10711SOL    HW133032   1.589   6.533   4.211
10711SOL    HW233033   1.703   6.430   4.267
10712SOL     OW33034   3.217   1.054   1.868
10712SOL    HW133035   3.146   1.011   1.812
10712SOL    HW233036   3.304   1.052   1.819
10713SOL     OW33037   0.300   3.650   1.496
10713SOL    HW133038   0.395   3.622   1.502
10713SOL    HW233039   0.252   3.623   1.580
10714SOL     OW33040   6.317   4.363   5.169
10714SOL    HW133041   6.286   4.431   5.103
10714SOL    HW233042   6.402   4.394   5.212
10715SOL     OW33043   4.983   0.823   2.401
10715SOL    HW133044   4.997   0.727   2.378
10715SOL    HW233045   5.008   0.838   2.496
10716SOL     OW33046   5.800   2.416   4.160
10716SOL    HW133047   5.788   2.441   4.064
10716SOL    HW233048   5.897   2.417   4.183
10717SOL     OW33049   1.020   2.190   1.062
10717SOL    HW133050   0.951   2.261   1.047
10717SOL    HW233051   1.002   2.112   1.002
10718SOL     OW33052   1.370   2.882   6.787
10718SOL    HW133053   1.418   2.902   6.702
10718SOL    HW233054   1.382   2.785   6.810
10719SOL     OW33055   6.189   5.795   2.467
10719SOL    HW133056   6.122   5.853   2.422
10719SOL    HW233057   6.171   5.699   2.445
10720SOL     OW33058   0.471   4.248   4.851
10720SOL    HW133059   0.454   4.322   4.787
10720SOL    HW233060   0.394   4.184   4.851
10721SOL     OW33061   5.677   4.346   4.591
10721SOL    HW133062   5.639   4.300   4.511
10721SOL    HW233063   5.642   4.301   4.674
10722SOL     OW33064   1.240   4.970   0.643
10722SOL    HW133065   1.295   5.046   0.608
10722SOL    HW233066   1.149   4.974   0.604
10723SOL     OW33067   0.528   4.022   6.145
10723SOL    HW133068   0.610   4.079   6.160
10723SOL    HW233069   0.536   3.974   6.058
10724SOL     OW33070   5.494   1.128   6.961
10724SOL    HW133071   5.550   1.054   6.999
10724SOL    HW233072   5.554   1.204   6.936
10725SOL     OW33073   0.862   4.952   4.817
10725SOL    HW133074   0.828   4.982   4.728
10725SOL    HW233075   0.820   5.008   4.889
10726SOL     OW33076   5.111   0.417   5.526
10726SOL    HW133077   5.069   0.495   5.479
10726SOL    HW233078   5.174   0.450   5.596
10727SOL     OW33079   0.075   5.062   4.662
10727SOL    HW133080   0.115   4.979   4.701
10727SOL    HW233081   0.135   5.140   4.680
10728SOL     OW33082   6.913   6.340   0.274
10728SOL    HW133083   6.841   6.282   0.235
10728SOL    HW233084   6.890   6.360   0.370
10729SOL     OW33085   5.287   1.608   1.852
10729SOL    HW133086   5.303   1.705   1.866
10729SOL    HW233087   5.281   1.588   1.754
10730SOL     OW33088   1.981   0.198   1.874
10730SOL    HW133089   1.883   0.177   1.870
10730SOL    HW233090   2.001   0.246   1.960
10731SOL     OW33091   3.197   6.326   0.408
10731SOL    HW133092   3.151   6.347   0.494
10731SOL    HW233093   3.267   6.256   0.423
10732SOL     OW33094   5.205   4.617   3.554
10732SOL    HW133095   5.144   4.649   3.482
10732SOL    HW233096   5.153   4.565   3.622
10733SOL     OW33097   6.411   2.613   6.725
10733SOL    HW133098   6.497   2.578   6.761
10733SOL    HW233099   6.396   2.706   6.760
10734SOL     OW33100   0.990   0.627   6.609
10734SOL    HW133101   1.023   0.719   6.592
10734SOL    HW233102   0.922   0.602   6.540
10735SOL     OW33103   1.433   3.205   3.028
10735SOL    HW133104   1.487   3.156   2.960
10735SOL    HW233105   1.486   3.282   3.064
10736SOL     OW33106   1.231   6.849   3.151
10736SOL    HW133107   1.294   6.865   3.227
10736SOL    HW233108   1.142   6.889   3.173
10737SOL     OW33109   1.892   2.122   6.945
10737SOL    HW133110   1.793   2.126   6.932
10737SOL    HW233111   1.915   2.050   7.009
10738SOL     OW33112   2.479   0.608   3.922
10738SOL    HW133113   2.495   0.558   4.008
10738SOL    HW233114   2.565   0.618   3.872
10739SOL     OW33115   0.529   1.348   0.649
10739SOL    HW133116   0.509   1.250   0.651
10739SOL    HW233117   0.459   1.398   0.699
10740SOL     OW33118   0.692   5.024   5.350
10740SOL    HW133119   0.676   5.087   5.274
10740SOL    HW233120   0.701   4.931   5.315
10741SOL     OW33121   0.249   7.008   2.336
10741SOL    HW133122   0.219   6.919   2.369
10741SOL    HW233123   0.188   0.056   2.371
10742SOL     OW33124   6.003   0.978   1.941
10742SOL    HW133125   6.100   1.000   1.952
10742SOL    HW233126   5.985   0.952   1.846
10743SOL     OW33127   3.333   2.069   5.467
10743SOL    HW133128   3.319   2.130   5.545
10743SOL    HW233129   3.400   2.110   5.405
10744SOL     OW33130   3.659   0.892   1.881
10744SOL    HW133131   3.719   0.856   1.952
10744SOL    HW233132   3.583   0.829   1.865
10745SOL     OW33133   0.872   5.049   0.330
10745SOL    HW133134   0.782   5.084   0.356
10745SOL    HW233135   0.883   5.054   0.231
10746SOL     OW33136   1.672   3.885   1.165
10746SOL    HW133137   1.723   3.800   1.151
10746SOL    HW233138   1.709   3.957   1.106
10747SOL     OW33139   4.129   0.760   3.271
10747SOL    HW133140   4.141   0.765   3.172
10747SOL    HW233141   4.219   0.755   3.316
10748SOL     OW33142   3.974   0.698   1.785
10748SOL    HW133143   3.924   0.617   1.816
10748SOL    HW233144   4.012   0.681   1.694
10749SOL     OW33145   6.770   5.182   3.353
10749SOL    HW133146   6.835   5.163   3.426
10749SOL    HW233147   6.803   5.258   3.298
10750SOL     OW33148   4.655   6.202   4.450
10750SOL    HW133149   4.738   6.156   4.481
10750SOL    HW233150   4.579   6.178   4.510
10751SOL     OW33151   1.346   4.639   4.029
10751SOL    HW133152   1.350   4.539   4.027
10751SOL    HW233153   1.314   4.669   4.118
10752SOL     OW33154   5.853   4.442   6.386
10752SOL    HW133155   5.886   4.484   6.302
10752SOL    HW233156   5.883   4.347   6.390
10753SOL     OW33157   4.289   6.577   4.075
10753SOL    HW133158   4.263   6.493   4.027
10753SOL    HW233159   4.386   6.596   4.059
10754SOL     OW33160   1.396   1.411   3.504
10754SOL    HW133161   1.456   1.475   3.552
10754SOL    HW233162   1.440   1.321   3.499
10755SOL     OW33163   0.324   1.388   6.609
10755SOL    HW133164   0.317   1.357   6.703
10755SOL    HW233165   0.313   1.487   6.605
10756SOL     OW33166   6.800   4.018   0.583
10756SOL    HW133167   6.749   4.100   0.558
10756SOL    HW233168   6.740   3.938   0.574
10757SOL     OW33169   1.191   2.721   0.345
10757SOL    HW133170   1.157   2.785   0.277
10757SOL    HW233171   1.288   2.738   0.361
10758SOL     OW33172   0.644   6.951   4.655
10758SOL    HW133173   0.581   6.886   4.697
10758SOL    HW233174   0.678   6.914   4.568
10759SOL     OW33175   1.601   2.796   0.178
10759SOL    HW133176   1.565   2.775   0.268
10759SOL    HW233177   1.528   2.832   0.120
10760SOL     OW33178   6.063   1.953   1.269
10760SOL    HW133179   6.115   1.967   1.354
10760SOL    HW233180   6.110   1.886   1.212
10761SOL     OW33181   0.959   1.457   6.395
10761SOL    HW133182   0.966   1.444   6.494
10761SOL    HW233183   0.876   1.509   6.374
10762SOL     OW33184   4.140   2.156   4.769
10762SOL    HW133185   4.215   2.095   4.743
10762SOL    HW233186   4.078   2.108   4.831
10763SOL     OW33187   4.642   6.397   1.804
10763SOL    HW133188   4.554   6.385   1.851
10763SOL    HW233189   4.716   6.376   1.868
10764SOL     OW33190   5.559   2.104   6.038
10764SOL    HW133191   5.502   2.164   6.093
10764SOL    HW233192   5.634   2.068   6.094
10765SOL     OW33193   5.537   2.749   0.663
10765SOL    HW133194   5.506   2.675   0.723
10765SOL    HW233195   5.507   2.837   0.700
10766SOL     OW33196   4.974   3.055   1.104
10766SOL    HW133197   5.074   3.060   1.104
10766SOL    HW233198   4.943   3.011   1.020
10767SOL     OW33199   0.813   0.543   0.467
10767SOL    HW133200   0.751   0.620   0.482
10767SOL    HW233201   0.895   0.556   0.523
10768SOL     OW33202   4.378   4.182   0.988
10768SOL    HW133203   4.312   4.216   0.922
10768SOL    HW233204   4.456   4.141   0.939
10769SOL     OW33205   2.431   4.480   4.571
10769SOL    HW133206   2.520   4.470   4.617
10769SOL    HW233207   2.445   4.488   4.472
10770SOL     OW33208   5.629   0.189   4.969
10770SOL    HW133209   5.636   0.169   4.871
10770SOL    HW233210   5.559   0.259   4.984
10771SOL     OW33211   5.171   1.113   3.129
10771SOL    HW133212   5.174   1.028   3.183
10771SOL    HW233213   5.126   1.184   3.183
10772SOL     OW33214   0.172   0.183   4.769
10772SOL    HW133215   0.188   0.276   4.804
10772SOL    HW233216   0.220   0.171   4.683
10773SOL     OW33217   6.751   5.645   6.872
10773SOL    HW133218   6.820   5.634   6.800
10773SOL    HW233219   6.679   5.577   6.861
10774SOL     OW33220   1.403   1.242   6.933
10774SOL    HW133221   1.430   1.207   7.023
10774SOL    HW233222   1.326   1.305   6.944
10775SOL     OW33223   0.834   3.724   0.901
10775SOL    HW133224   0.747   3.691   0.866
10775SOL    HW233225   0.818   3.777   0.984
10776SOL     OW33226   1.504   6.297   6.353
10776SOL    HW133227   1.602   6.299   6.372
10776SOL    HW233228   1.464   6.387   6.371
10777SOL     OW33229   3.764   6.196   3.075
10777SOL    HW133230   3.702   6.196   2.997
10777SOL    HW233231   3.715   6.165   3.156
10778SOL     OW33232   5.548   6.673   4.929
10778SOL    HW133233   5.512   6.614   5.001
10778SOL    HW233234   5.629   6.631   4.888
10779SOL     OW33235   6.504   5.109   3.430
10779SOL    HW133236   6.501   5.011   3.451
10779SOL    HW233237   6.596   5.134   3.400
10780SOL     OW33238   1.570   0.540   3.670
10780SOL    HW133239   1.670   0.531   3.663
10780SOL    HW233240   1.528   0.501   3.588
10781SOL     OW33241   4.153   0.255   3.545
10781SOL    HW133242   4.181   0.309   3.624
10781SOL    HW233243   4.071   0.202   3.568
10782SOL     OW33244   5.854   2.154   2.427
10782SOL    HW133245   5.803   2.094   2.489
10782SOL    HW233246   5.829   2.133   2.333
10783SOL     OW33247   0.646   3.658   3.081
10783SOL    HW133248   0.739   3.686   3.105
10783SOL    HW233249   0.590   3.739   3.064
10784SOL     OW33250   3.685   0.784   4.216
10784SOL    HW133251   3.710   0.727   4.294
10784SOL    HW233252   3.605   0.839   4.239
10785SOL     OW33253   6.921   5.423   1.980
10785SOL    HW133254   7.010   5.386   1.953
10785SOL    HW233255   6.849   5.376   1.930
10786SOL     OW33256   4.940   4.656   2.678
10786SOL    HW133257   4.953   4.603   2.762
10786SOL    HW233258   5.007   4.730   2.676
10787SOL     OW33259   2.268   1.649   4.751
10787SOL    HW133260   2.293   1.737   4.712
10787SOL    HW233261   2.282   1.651   4.850
10788SOL     OW33262   2.447   5.123   6.111
10788SOL    HW133263   2.471   5.035   6.153
10788SOL    HW233264   2.395   5.178   6.177
10789SOL     OW33265   6.408   2.614   6.429
10789SOL    HW133266   6.386   2.618   6.527
10789SOL    HW233267   6.482   2.678   6.409
10790SOL     OW33268   1.670   1.150   1.981
10790SOL    HW133269   1.658   1.105   1.893
10790SOL    HW233270   1.741   1.102   2.033
10791SOL     OW33271   0.619   6.831   0.144
10791SOL    HW133272   0.603   6.927   0.166
10791SOL    HW233273   0.537   6.792   0.101
10792SOL     OW33274   3.326   3.273   3.794
10792SOL    HW133275   3.296   3.220   3.714
10792SOL    HW233276   3.379   3.215   3.855
10793SOL     OW33277   5.953   3.628   4.347
10793SOL    HW133278   5.917   3.703   4.404
10793SOL    HW233279   6.026   3.663   4.288
10794SOL     OW33280   3.027   3.671   3.711
10794SOL    HW133281   2.997   3.726   3.789
10794SOL    HW233282   3.109   3.620   3.736
10795SOL     OW33283   6.918   4.048   2.479
10795SOL    HW133284   6.975   4.071   2.558
10795SOL    HW233285   6.829   4.093   2.488
10796SOL     OW33286   5.612   6.749   0.434
10796SOL    HW133287   5.653   6.776   0.346
10796SOL    HW233288   5.578   6.656   0.427
10797SOL     OW33289   4.156   2.020   1.430
10797SOL    HW133290   4.104   1.949   1.478
10797SOL    HW233291   4.105   2.106   1.430
10798SOL     OW33292   2.950   6.483   0.209
10798SOL    HW133293   2.992   6.501   0.298
10798SOL    HW233294   2.972   6.389   0.181
10799SOL     OW33295   3.848   0.727   2.387
10799SOL    HW133296   3.753   0.703   2.406
10799SOL    HW233297   3.908   0.679   2.451
10800SOL     OW33298   0.432   6.706   6.375
10800SOL    HW133299   0.453   6.779   6.311
10800SOL    HW233300   0.516   6.671   6.415
10801SOL     OW33301   0.376   6.176   6.248
10801SOL    HW133302   0.397   6.079   6.243
10801SOL    HW233303   0.338   6.207   6.160
10802SOL     OW33304   0.754   2.128   2.795
10802SOL    HW133305   0.680   2.195   2.801
10802SOL    HW233306   0.789   2.108   2.886
10803SOL     OW33307   2.939   4.159   5.559
10803SOL    HW133308   2.868   4.225   5.540
10803SOL    HW233309   2.925   4.119   5.650
10804SOL     OW33310   5.810   3.442   2.079
10804SOL    HW133311   5.748   3.497   2.023
10804SOL    HW233312   5.853   3.373   2.021
10805SOL     OW33313   4.141   0.365   7.001
10805SOL    HW133314   4.054   0.362   0.026
10805SOL    HW233315   4.129   0.328   6.909
10806SOL     OW33316   4.528   3.701   6.169
10806SOL    HW133317   4.603   3.636   6.182
10806SOL    HW233318   4.549   3.786   6.218
10807SOL     OW33319   1.117   6.767   2.302
10807SOL    HW133320   1.120   6.847   2.362
10807SOL    HW233321   1.206   6.722   2.301
10808SOL     OW33322   6.588   3.164   6.330
10808SOL    HW133323   6.678   3.139   6.366
10808SOL    HW233324   6.570   3.112   6.247
10809SOL     OW33325   3.166   5.649   3.736
10809SOL    HW133326   3.137   5.554   3.727
10809SOL    HW233327   3.132   5.702   3.658
10810SOL     OW33328   1.692   0.339   4.755
10810SOL    HW133329   1.748   0.262   4.786
10810SOL    HW233330   1.599   0.307   4.735
10811SOL     OW33331   3.763   4.379   5.772
10811SOL    HW133332   3.681   4.420   5.733
10811SOL    HW233333   3.738   4.327   5.854
10812SOL     OW33334   0.996   3.827   1.391
10812SOL    HW133335   0.962   3.910   1.349
10812SOL    HW233336   0.923   3.758   1.395
10813SOL     OW33337   2.051   5.017   6.216
10813SOL    HW133338   2.088   5.097   6.263
10813SOL    HW233339   2.080   5.018   6.120
10814SOL     OW33340   1.824   6.476   6.271
10814SOL    HW133341   1.921   6.462   6.287
10814SOL    HW233342   1.810   6.535   6.192
10815SOL     OW33343   4.250   4.669   3.322
10815SOL    HW133344   4.169   4.728   3.319
10815SOL    HW233345   4.311   4.693   3.246
10816SOL     OW33346   3.112   3.204   1.680
10816SOL    HW133347   3.112   3.303   1.668
10816SOL    HW233348   3.028   3.166   1.642
10817SOL     OW33349   4.796   6.636   2.921
10817SOL    HW133350   4.806   6.735   2.910
10817SOL    HW233351   4.882   6.598   2.957
10818SOL     OW33352   4.122   4.766   5.298
10818SOL    HW133353   4.121   4.824   5.379
10818SOL    HW233354   4.035   4.715   5.293
10819SOL     OW33355   6.440   4.505   6.914
10819SOL    HW133356   6.420   4.442   6.989
10819SOL    HW233357   6.363   4.566   6.900
10820SOL     OW33358   6.021   5.848   4.066
10820SOL    HW133359   6.075   5.877   4.145
10820SOL    HW233360   5.937   5.903   4.060
10821SOL     OW33361   5.787   0.306   2.210
10821SOL    HW133362   5.804   0.207   2.216
10821SOL    HW233363   5.747   0.328   2.121
10822SOL     OW33364   6.970   2.907   3.209
10822SOL    HW133365   6.905   2.971   3.250
10822SOL    HW233366   6.947   2.893   3.112
10823SOL     OW33367   1.446   6.380   1.179
10823SOL    HW133368   1.512   6.404   1.108
10823SOL    HW233369   1.385   6.308   1.145
10824SOL     OW33370   6.886   0.746   3.500
10824SOL    HW133371   6.878   0.776   3.595
10824SOL    HW233372   6.811   0.684   3.478
10825SOL     OW33373   2.547   0.861   6.856
10825SOL    HW133374   2.453   0.871   6.887
10825SOL    HW233375   2.561   0.916   6.773
10826SOL     OW33376   1.566   2.625   3.766
10826SOL    HW133377   1.564   2.601   3.669
10826SOL    HW233378   1.477   2.608   3.806
10827SOL     OW33379   6.237   3.849   4.458
10827SOL    HW133380   6.237   3.948   4.449
10827SOL    HW233381   6.214   3.807   4.370
10828SOL     OW33382   0.872   5.282   1.228
10828SOL    HW133383   0.931   5.352   1.186
10828SOL    HW233384   0.900   5.270   1.324
10829SOL     OW33385   4.075   2.184   1.178
10829SOL    HW133386   4.072   2.223   1.086
10829SOL    HW233387   4.031   2.094   1.178
10830SOL     OW33388   5.787   2.287   3.148
10830SOL    HW133389   5.856   2.357   3.126
10830SOL    HW233390   5.812   2.201   3.103
10831SOL     OW33391   3.206   5.835   2.183
10831SOL    HW133392   3.132   5.787   2.137
10831SOL    HW233393   3.289   5.831   2.126
10832SOL     OW33394   1.096   2.904   6.833
10832SOL    HW133395   1.089   2.828   6.898
10832SOL    HW233396   1.187   2.905   6.792
10833SOL     OW33397   1.708   0.852   2.113
10833SOL    HW133398   1.732   0.771   2.166
10833SOL    HW233399   1.791   0.893   2.075
10834SOL     OW33400   0.714   2.253   0.162
10834SOL    HW133401   0.697   2.213   0.253
10834SOL    HW233402   0.778   2.329   0.171
10835SOL     OW33403   6.187   2.014   6.943
10835SOL    HW133404   6.276   1.991   6.981
10835SOL    HW233405   6.142   2.081   7.001
10836SOL     OW33406   6.797   1.631   4.976
10836SOL    HW133407   6.896   1.634   4.964
10836SOL    HW233408   6.773   1.669   5.066
10837SOL     OW33409   6.792   5.432   1.655
10837SOL    HW133410   6.720   5.445   1.724
10837SOL    HW233411   6.832   5.341   1.665
10838SOL     OW33412   5.429   6.326   4.726
10838SOL    HW133413   5.421   6.284   4.817
10838SOL    HW233414   5.485   6.267   4.667
10839SOL     OW33415   4.363   3.117   1.759
10839SOL    HW133416   4.380   3.208   1.721
10839SOL    HW233417   4.448   3.078   1.793
10840SOL     OW33418   3.110   5.486   2.277
10840SOL    HW133419   3.033   5.546   2.255
10840SOL    HW233420   3.076   5.395   2.301
10841SOL     OW33421   5.352   5.245   6.999
10841SOL    HW133422   5.444   5.282   7.011
10841SOL    HW233423   5.285   5.320   7.001
10842SOL     OW33424   4.852   2.596   1.616
10842SOL    HW133425   4.947   2.621   1.597
10842SOL    HW233426   4.801   2.677   1.644
10843SOL     OW33427   1.405   2.881   1.197
10843SOL    HW133428   1.400   2.816   1.273
10843SOL    HW233429   1.430   2.832   1.113
10844SOL     OW33430   0.186   6.726   3.328
10844SOL    HW133431   0.194   6.718   3.427
10844SOL    HW233432   0.263   6.778   3.292
10845SOL     OW33433   3.515   0.248   5.228
10845SOL    HW133434   3.533   0.198   5.143
10845SOL    HW233435   3.525   0.346   5.211
10846SOL     OW33436   4.648   1.919   0.523
10846SOL    HW133437   4.653   1.871   0.610
10846SOL    HW233438   4.737   1.919   0.478
10847SOL     OW33439   3.568   3.157   6.812
10847SOL    HW133440   3.507   3.235   6.825
10847SOL    HW233441   3.599   3.155   6.716
10848SOL     OW33442   3.402   3.376   6.802
10848SOL    HW133443   3.308   3.411   6.801
10848SOL    HW233444   3.451   3.410   6.721
10849SOL     OW33445   2.182   6.123   2.436
10849SOL    HW133446   2.098   6.102   2.486
10849SOL    HW233447   2.180   6.075   2.348
10850SOL     OW33448   3.059   5.003   6.430
10850SOL    HW133449   3.091   4.925   6.484
10850SOL    HW233450   3.046   5.082   6.490
10851SOL     OW33451   2.010   3.255   6.925
10851SOL    HW133452   1.917   3.241   6.960
10851SOL    HW233453   2.006   3.308   6.841
10852SOL     OW33454   1.088   0.376   6.608
10852SOL    HW133455   1.185   0.372   6.632
10852SOL    HW233456   1.053   0.469   6.622
10853SOL     OW33457   2.076   1.943   5.966
10853SOL    HW133458   2.007   1.934   6.038
10853SOL    HW233459   2.073   1.864   5.906
10854SOL     OW33460   4.330   5.446   5.041
10854SOL    HW133461   4.250   5.429   5.098
10854SOL    HW233462   4.303   5.498   4.960
10855SOL     OW33463   2.863   6.820   0.611
10855SOL    HW133464   2.901   6.776   0.693
10855SOL    HW233465   2.904   6.910   0.601
10856SOL     OW33466   5.803   1.802   0.603
10856SOL    HW133467   5.751   1.744   0.540
10856SOL    HW233468   5.739   1.851   0.663
10857SOL     OW33469   6.766   2.882   1.942
10857SOL    HW133470   6.742   2.785   1.946
10857SOL    HW233471   6.770   2.919   2.035
10858SOL     OW33472   0.475   1.921   5.942
10858SOL    HW133473   0.541   1.986   5.979
10858SOL    HW233474   0.427   1.876   6.017
10859SOL     OW33475   2.130   3.545   4.219
10859SOL    HW133476   2.037   3.582   4.215
10859SOL    HW233477   2.161   3.544   4.314
10860SOL     OW33478   6.730   1.927   5.768
10860SOL    HW133479   6.739   1.995   5.840
10860SOL    HW233480   6.744   1.835   5.806
10861SOL     OW33481   3.751   3.556   2.946
10861SOL    HW133482   3.757   3.464   2.983
10861SOL    HW233483   3.787   3.556   2.852
10862SOL     OW33484   2.266   1.960   6.360
10862SOL    HW133485   2.351   2.011   6.373
10862SOL    HW233486   2.263   1.925   6.266
10863SOL     OW33487   3.550   0.707   3.508
10863SOL    HW133488   3.531   0.777   3.439
10863SOL    HW233489   3.560   0.618   3.462
10864SOL     OW33490   3.032   5.259   0.211
10864SOL    HW133491   2.991   5.198   0.144
10864SOL    HW233492   3.074   5.205   0.284
10865SOL     OW33493   6.701   1.500   2.828
10865SOL    HW133494   6.613   1.456   2.810
10865SOL    HW233495   6.773   1.449   2.781
10866SOL     OW33496   4.980   4.781   0.260
10866SOL    HW133497   4.950   4.815   0.171
10866SOL    HW233498   4.994   4.682   0.254
10867SOL     OW33499   3.655   3.430   0.577
10867SOL    HW133500   3.556   3.442   0.570
10867SOL    HW233501   3.696   3.513   0.614
10868SOL     OW33502   3.569   2.157   4.214
10868SOL    HW133503   3.599   2.229   4.151
10868SOL    HW233504   3.509   2.094   4.166
10869NA      NA33505   0.303   2.214   5.544
10870NA      NA33506   4.310   4.655   5.235
10871NA      NA33507   1.829   3.973   2.639
10872NA      NA33508   4.856   4.112   4.022
10873NA      NA33509   4.397   2.529   5.231
10874NA      NA33510   3.011   4.920   1.822
10875NA      NA33511   0.041   4.279   0.538
10876NA      NA33512   3.225   3.404   3.505
10877NA      NA33513   5.122   5.586   1.128
10878NA      NA33514   3.813   6.576   5.347
10879NA      NA33515   6.028   5.466   1.623
10880NA      NA33516   2.097   0.933   4.622
10881NA      NA33517   3.778   5.119   1.871
10882NA      NA33518   4.086   3.564   1.722
   7.02348   7.02348   7.02348
