Generated by trjconv : CNT in water t= 579.00000
33518
    1C        C    1   2.841   2.767   4.742
    1C        C    2   2.895   2.717   4.863
    1C        C    3   2.842   2.772   4.980
    1C        C    4   2.848   2.769   4.258
    1C        C    5   2.901   2.720   4.380
    1C        C    6   2.843   2.765   4.500
    1C        C    7   3.012   2.639   4.621
    1C        C    8   2.893   2.714   4.622
    1C        C    9   3.077   2.603   4.742
    1C        C   10   3.011   2.636   4.862
    1C        C   11   3.179   2.490   4.973
    1C        C   12   3.058   2.560   4.970
    1C        C   13   2.847   2.766   3.770
    1C        C   14   2.900   2.717   3.892
    1C        C   15   2.852   2.774   4.012
    1C        C   16   3.012   2.637   4.135
    1C        C   17   2.901   2.724   4.135
    1C        C   18   3.078   2.608   4.256
    1C        C   19   3.019   2.642   4.380
    1C        C   20   3.208   2.549   4.500
    1C        C   21   3.076   2.600   4.502
    1C        C   22   3.277   2.532   4.623
    1C        C   23   3.207   2.546   4.745
    1C        C   24   3.413   2.484   4.863
    1C        C   25   3.271   2.503   4.864
    1C        C   26   3.488   2.474   4.981
    1C        C   27   2.847   2.764   3.280
    1C        C   28   2.900   2.717   3.402
    1C        C   29   2.852   2.769   3.524
    1C        C   30   3.016   2.637   3.646
    1C        C   31   2.901   2.720   3.648
    1C        C   32   3.075   2.599   3.769
    1C        C   33   3.015   2.636   3.891
    1C        C   34   3.206   2.545   4.015
    1C        C   35   3.075   2.600   4.014
    1C        C   36   3.275   2.523   4.136
    1C        C   37   3.208   2.552   4.257
    1C        C   38   3.416   2.503   4.379
    1C        C   39   3.278   2.533   4.378
    1C        C   40   3.487   2.496   4.501
    1C        C   41   3.415   2.503   4.622
    1C        C   42   3.630   2.486   4.745
    1C        C   43   3.488   2.485   4.742
    1C        C   44   3.703   2.484   4.865
    1C        C   45   3.627   2.473   4.982
    1C        C   46   2.834   2.747   2.791
    1C        C   47   2.889   2.703   2.914
    1C        C   48   2.838   2.755   3.035
    1C        C   49   3.011   2.633   3.158
    1C        C   50   2.894   2.712   3.157
    1C        C   51   3.075   2.600   3.280
    1C        C   52   3.014   2.633   3.403
    1C        C   53   3.207   2.545   3.526
    1C        C   54   3.075   2.596   3.525
    1C        C   55   3.274   2.527   3.649
    1C        C   56   3.203   2.540   3.770
    1C        C   57   3.412   2.504   3.892
    1C        C   58   3.271   2.520   3.892
    1C        C   59   3.486   2.503   4.013
    1C        C   60   3.414   2.502   4.135
    1C        C   61   3.627   2.499   4.260
    1C        C   62   3.486   2.500   4.256
    1C        C   63   3.700   2.504   4.380
    1C        C   64   3.628   2.496   4.502
    1C        C   65   3.835   2.539   4.619
    1C        C   66   3.700   2.497   4.623
    1C        C   67   3.904   2.561   4.741
    1C        C   68   3.839   2.523   4.861
    1C        C   69   4.048   2.587   4.977
    1C        C   70   3.918   2.536   4.976
    1C        C   71   2.825   2.737   2.305
    1C        C   72   2.881   2.692   2.426
    1C        C   73   2.829   2.743   2.548
    1C        C   74   3.003   2.618   2.670
    1C        C   75   2.888   2.700   2.669
    1C        C   76   3.067   2.589   2.792
    1C        C   77   3.007   2.625   2.915
    1C        C   78   3.204   2.545   3.037
    1C        C   79   3.071   2.592   3.037
    1C        C   80   3.274   2.527   3.158
    1C        C   81   3.205   2.545   3.280
    1C        C   82   3.411   2.500   3.402
    1C        C   83   3.271   2.520   3.403
    1C        C   84   3.484   2.499   3.524
    1C        C   85   3.414   2.508   3.647
    1C        C   86   3.624   2.501   3.767
    1C        C   87   3.482   2.497   3.770
    1C        C   88   3.695   2.512   3.889
    1C        C   89   3.627   2.506   4.013
    1C        C   90   3.834   2.540   4.133
    1C        C   91   3.695   2.510   4.136
    1C        C   92   3.903   2.563   4.254
    1C        C   93   3.837   2.541   4.377
    1C        C   94   4.029   2.629   4.496
    1C        C   95   3.903   2.566   4.499
    1C        C   96   4.088   2.669   4.618
    1C        C   97   4.029   2.627   4.739
    1C        C   98   4.195   2.759   4.860
    1C        C   99   4.100   2.651   4.860
    1C        C  100   4.213   2.839   4.973
    1C        C  101   2.818   2.727   2.065
    1C        C  102   2.986   2.591   2.189
    1C        C  103   2.876   2.682   2.184
    1C        C  104   3.063   2.575   2.308
    1C        C  105   2.997   2.612   2.428
    1C        C  106   3.196   2.529   2.550
    1C        C  107   3.067   2.587   2.548
    1C        C  108   3.267   2.515   2.671
    1C        C  109   3.199   2.537   2.793
    1C        C  110   3.410   2.502   2.912
    1C        C  111   3.270   2.524   2.914
    1C        C  112   3.480   2.492   3.034
    1C        C  113   3.413   2.501   3.158
    1C        C  114   3.624   2.501   3.279
    1C        C  115   3.483   2.497   3.281
    1C        C  116   3.694   2.509   3.401
    1C        C  117   3.625   2.501   3.524
    1C        C  118   3.833   2.540   3.646
    1C        C  119   3.696   2.507   3.646
    1C        C  120   3.899   2.568   3.767
    1C        C  121   3.831   2.547   3.889
    1C        C  122   4.022   2.637   4.011
    1C        C  123   3.898   2.569   4.011
    1C        C  124   4.086   2.672   4.132
    1C        C  125   4.027   2.631   4.254
    1C        C  126   4.197   2.761   4.375
    1C        C  127   4.089   2.671   4.374
    1C        C  128   4.245   2.816   4.496
    1C        C  129   4.196   2.760   4.616
    1C        C  130   4.325   2.930   4.737
    1C        C  131   4.244   2.813   4.738
    1C        C  132   4.353   3.001   4.856
    1C        C  133   4.282   2.960   4.969
    1C        C  134   3.168   2.468   2.081
    1C        C  135   3.034   2.508   2.083
    1C        C  136   3.257   2.476   2.188
    1C        C  137   3.194   2.520   2.307
    1C        C  138   3.403   2.485   2.427
    1C        C  139   3.262   2.499   2.429
    1C        C  140   3.479   2.486   2.546
    1C        C  141   3.406   2.492   2.667
    1C        C  142   3.620   2.499   2.791
    1C        C  143   3.479   2.498   2.788
    1C        C  144   3.693   2.504   2.912
    1C        C  145   3.621   2.500   3.034
    1C        C  146   3.831   2.538   3.154
    1C        C  147   3.693   2.507   3.155
    1C        C  148   3.896   2.562   3.277
    1C        C  149   3.833   2.536   3.400
    1C        C  150   4.023   2.630   3.521
    1C        C  151   3.900   2.560   3.523
    1C        C  152   4.084   2.667   3.643
    1C        C  153   4.024   2.635   3.767
    1C        C  154   4.199   2.755   3.886
    1C        C  155   4.083   2.674   3.889
    1C        C  156   4.248   2.805   4.008
    1C        C  157   4.200   2.756   4.132
    1C        C  158   4.337   2.919   4.249
    1C        C  159   4.254   2.804   4.253
    1C        C  160   4.371   2.983   4.370
    1C        C  161   4.333   2.926   4.494
    1C        C  162   4.437   3.112   4.613
    1C        C  163   4.367   2.989   4.616
    1C        C  164   4.464   3.181   4.733
    1C        C  165   4.431   3.119   4.855
    1C        C  166   4.499   3.322   4.971
    1C        C  167   4.477   3.184   4.970
    1C        C  168   3.473   2.435   2.072
    1C        C  169   3.396   2.452   2.188
    1C        C  170   3.615   2.467   2.305
    1C        C  171   3.472   2.466   2.306
    1C        C  172   3.689   2.482   2.424
    1C        C  173   3.620   2.485   2.547
    1C        C  174   3.827   2.538   2.664
    1C        C  175   3.690   2.505   2.668
    1C        C  176   3.894   2.560   2.786
    1C        C  177   3.829   2.539   2.910
    1C        C  178   4.025   2.622   3.031
    1C        C  179   3.898   2.561   3.032
    1C        C  180   4.085   2.662   3.153
    1C        C  181   4.022   2.626   3.274
    1C        C  182   4.196   2.744   3.397
    1C        C  183   4.082   2.661   3.397
    1C        C  184   4.250   2.797   3.517
    1C        C  185   4.198   2.750   3.640
    1C        C  186   4.335   2.913   3.762
    1C        C  187   4.245   2.804   3.762
    1C        C  188   4.376   2.973   3.883
    1C        C  189   4.335   2.917   4.006
    1C        C  190   4.435   3.107   4.126
    1C        C  191   4.374   2.979   4.126
    1C        C  192   4.467   3.172   4.248
    1C        C  193   4.435   3.109   4.370
    1C        C  194   4.507   3.312   4.491
    1C        C  195   4.460   3.178   4.490
    1C        C  196   4.521   3.385   4.611
    1C        C  197   4.504   3.317   4.734
    1C        C  198   4.548   3.534   4.848
    1C        C  199   4.520   3.394   4.853
    1C        C  200   4.576   3.617   4.961
    1C        C  201   3.612   2.417   2.073
    1C        C  202   3.825   2.508   2.180
    1C        C  203   3.689   2.464   2.184
    1C        C  204   3.895   2.539   2.300
    1C        C  205   3.826   2.519   2.421
    1C        C  206   4.019   2.617   2.541
    1C        C  207   3.895   2.551   2.540
    1C        C  208   4.079   2.658   2.663
    1C        C  209   4.022   2.620   2.786
    1C        C  210   4.198   2.740   2.906
    1C        C  211   4.086   2.654   2.907
    1C        C  212   4.251   2.791   3.026
    1C        C  213   4.198   2.746   3.150
    1C        C  214   4.331   2.905   3.273
    1C        C  215   4.247   2.792   3.274
    1C        C  216   4.367   2.970   3.393
    1C        C  217   4.334   2.911   3.517
    1C        C  218   4.435   3.097   3.637
    1C        C  219   4.377   2.968   3.639
    1C        C  220   4.461   3.164   3.759
    1C        C  221   4.442   3.098   3.882
    1C        C  222   4.493   3.307   4.002
    1C        C  223   4.461   3.169   4.003
    1C        C  224   4.507   3.379   4.123
    1C        C  225   4.498   3.309   4.246
    1C        C  226   4.517   3.521   4.363
    1C        C  227   4.515   3.380   4.367
    1C        C  228   4.515   3.594   4.484
    1C        C  229   4.527   3.526   4.607
    1C        C  230   4.500   3.742   4.725
    1C        C  231   4.532   3.603   4.725
    1C        C  232   4.486   3.817   4.844
    1C        C  233   4.539   3.752   4.956
    1C        C  234   4.013   2.612   2.061
    1C        C  235   3.893   2.541   2.062
    1C        C  236   4.081   2.650   2.177
    1C        C  237   4.018   2.611   2.297
    1C        C  238   4.198   2.730   2.419
    1C        C  239   4.081   2.648   2.418
    1C        C  240   4.251   2.782   2.539
    1C        C  241   4.195   2.738   2.661
    1C        C  242   4.336   2.898   2.783
    1C        C  243   4.249   2.787   2.783
    1C        C  244   4.379   2.957   2.903
    1C        C  245   4.334   2.905   3.027
    1C        C  246   4.433   3.090   3.146
    1C        C  247   4.368   2.964   3.150
    1C        C  248   4.452   3.159   3.268
    1C        C  249   4.428   3.098   3.393
    1C        C  250   4.491   3.300   3.513
    1C        C  251   4.458   3.163   3.514
    1C        C  252   4.505   3.369   3.636
    1C        C  253   4.492   3.302   3.759
    1C        C  254   4.514   3.516   3.877
    1C        C  255   4.506   3.375   3.879
    1C        C  256   4.510   3.588   3.998
    1C        C  257   4.511   3.520   4.122
    1C        C  258   4.488   3.733   4.241
    1C        C  259   4.513   3.594   4.242
    1C        C  260   4.468   3.802   4.363
    1C        C  261   4.485   3.732   4.485
    1C        C  262   4.422   3.940   4.602
    1C        C  263   4.470   3.808   4.603
    1C        C  264   4.397   4.010   4.722
    1C        C  265   4.430   3.947   4.843
    1C        C  266   4.309   4.125   4.958
    1C        C  267   4.387   4.010   4.961
    1C        C  268   4.262   2.777   2.062
    1C        C  269   4.197   2.731   2.177
    1C        C  270   4.343   2.886   2.298
    1C        C  271   4.255   2.774   2.298
    1C        C  272   4.381   2.950   2.418
    1C        C  273   4.340   2.891   2.540
    1C        C  274   4.442   3.081   2.660
    1C        C  275   4.376   2.957   2.660
    1C        C  276   4.473   3.149   2.780
    1C        C  277   4.446   3.082   2.901
    1C        C  278   4.498   3.288   3.025
    1C        C  279   4.466   3.151   3.023
    1C        C  280   4.508   3.361   3.146
    1C        C  281   4.495   3.293   3.270
    1C        C  282   4.511   3.508   3.387
    1C        C  283   4.508   3.367   3.390
    1C        C  284   4.508   3.580   3.509
    1C        C  285   4.509   3.511   3.632
    1C        C  286   4.484   3.723   3.752
    1C        C  287   4.506   3.584   3.753
    1C        C  288   4.470   3.795   3.873
    1C        C  289   4.489   3.728   3.995
    1C        C  290   4.424   3.930   4.113
    1C        C  291   4.473   3.798   4.117
    1C        C  292   4.391   3.994   4.235
    1C        C  293   4.416   3.933   4.360
    1C        C  294   4.326   4.128   4.476
    1C        C  295   4.396   4.005   4.480
    1C        C  296   4.281   4.186   4.597
    1C        C  297   4.326   4.134   4.720
    1C        C  298   4.198   4.311   4.837
    1C        C  299   4.284   4.197   4.841
    1C        C  300   4.168   4.399   4.946
    1C        C  301   4.355   2.880   2.061
    1C        C  302   4.469   3.066   2.179
    1C        C  303   4.392   2.945   2.179
    1C        C  304   4.475   3.143   2.298
    1C        C  305   4.445   3.076   2.419
    1C        C  306   4.509   3.283   2.536
    1C        C  307   4.472   3.147   2.538
    1C        C  308   4.511   3.357   2.656
    1C        C  309   4.500   3.288   2.779
    1C        C  310   4.518   3.496   2.899
    1C        C  311   4.516   3.355   2.902
    1C        C  312   4.505   3.569   3.019
    1C        C  313   4.512   3.502   3.143
    1C        C  314   4.488   3.715   3.262
    1C        C  315   4.513   3.576   3.264
    1C        C  316   4.473   3.786   3.383
    1C        C  317   4.487   3.720   3.507
    1C        C  318   4.427   3.925   3.623
    1C        C  319   4.469   3.791   3.628
    1C        C  320   4.393   3.988   3.745
    1C        C  321   4.421   3.927   3.870
    1C        C  322   4.319   4.115   3.991
    1C        C  323   4.392   3.994   3.991
    1C        C  324   4.278   4.173   4.113
    1C        C  325   4.321   4.117   4.235
    1C        C  326   4.185   4.286   4.354
    1C        C  327   4.284   4.185   4.353
    1C        C  328   4.135   4.340   4.475
    1C        C  329   4.191   4.294   4.596
    1C        C  330   4.021   4.431   4.713
    1C        C  331   4.141   4.354   4.714
    1C        C  332   3.969   4.491   4.830
    1C        C  333   4.051   4.476   4.943
    1C        C  334   4.552   3.266   2.064
    1C        C  335   4.535   3.127   2.067
    1C        C  336   4.536   3.351   2.174
    1C        C  337   4.510   3.281   2.294
    1C        C  338   4.520   3.495   2.409
    1C        C  339   4.521   3.354   2.414
    1C        C  340   4.513   3.566   2.531
    1C        C  341   4.520   3.498   2.654
    1C        C  342   4.492   3.707   2.773
    1C        C  343   4.516   3.568   2.777
    1C        C  344   4.472   3.777   2.895
    1C        C  345   4.481   3.708   3.018
    1C        C  346   4.418   3.912   3.136
    1C        C  347   4.463   3.779   3.139
    1C        C  348   4.391   3.980   3.257
    1C        C  349   4.425   3.919   3.379
    1C        C  350   4.323   4.107   3.500
    1C        C  351   4.399   3.988   3.500
    1C        C  352   4.275   4.163   3.620
    1C        C  353   4.318   4.108   3.743
    1C        C  354   4.179   4.267   3.864
    1C        C  355   4.278   4.166   3.865
    1C        C  356   4.127   4.319   3.985
    1C        C  357   4.178   4.273   4.108
    1C        C  358   4.013   4.405   4.229
    1C        C  359   4.127   4.321   4.230
    1C        C  360   3.951   4.444   4.350
    1C        C  361   4.017   4.417   4.472
    1C        C  362   3.826   4.515   4.593
    1C        C  363   3.955   4.459   4.592
    1C        C  364   3.760   4.547   4.714
    1C        C  365   3.837   4.542   4.832
    1C        C  366   3.630   4.595   4.949
    1C        C  367   3.768   4.574   4.949
    1C        C  368   4.512   3.565   2.048
    1C        C  369   4.521   3.491   2.166
    1C        C  370   4.503   3.705   2.284
    1C        C  371   4.515   3.564   2.287
    1C        C  372   4.486   3.775   2.405
    1C        C  373   4.493   3.706   2.529
    1C        C  374   4.422   3.906   2.649
    1C        C  375   4.473   3.775   2.651
    1C        C  376   4.389   3.972   2.770
    1C        C  377   4.425   3.910   2.892
    1C        C  378   4.320   4.097   3.009
    1C        C  379   4.395   3.977   3.012
    1C        C  380   4.278   4.157   3.130
    1C        C  381   4.318   4.102   3.254
    1C        C  382   4.179   4.259   3.374
    1C        C  383   4.279   4.160   3.377
    1C        C  384   4.125   4.309   3.495
    1C        C  385   4.177   4.265   3.618
    1C        C  386   4.010   4.394   3.741
    1C        C  387   4.125   4.312   3.741
    1C        C  388   3.947   4.433   3.861
    1C        C  389   4.010   4.399   3.983
    1C        C  390   3.819   4.488   4.108
    1C        C  391   3.950   4.434   4.106
    1C        C  392   3.753   4.519   4.229
    1C        C  393   3.822   4.502   4.350
    1C        C  394   3.616   4.554   4.472
    1C        C  395   3.755   4.530   4.472
    1C        C  396   3.545   4.562   4.594
    1C        C  397   3.620   4.563   4.714
    1C        C  398   3.411   4.548   4.835
    1C        C  399   3.549   4.579   4.835
    1C        C  400   3.341   4.515   4.951
    1C        C  401   4.508   3.704   2.050
    1C        C  402   4.462   3.919   2.166
    1C        C  403   4.490   3.781   2.165
    1C        C  404   4.416   3.980   2.285
    1C        C  405   4.435   3.907   2.404
    1C        C  406   4.325   4.091   2.523
    1C        C  407   4.398   3.970   2.525
    1C        C  408   4.280   4.151   2.642
    1C        C  409   4.317   4.093   2.766
    1C        C  410   4.176   4.252   2.886
    1C        C  411   4.275   4.151   2.887
    1C        C  412   4.125   4.303   3.008
    1C        C  413   4.175   4.254   3.130
    1C        C  414   4.003   4.378   3.251
    1C        C  415   4.122   4.302   3.251
    1C        C  416   3.943   4.417   3.373
    1C        C  417   4.005   4.384   3.495
    1C        C  418   3.815   4.475   3.617
    1C        C  419   3.947   4.423   3.618
    1C        C  420   3.747   4.500   3.738
    1C        C  421   3.816   4.486   3.861
    1C        C  422   3.614   4.535   3.985
    1C        C  423   3.753   4.509   3.985
    1C        C  424   3.543   4.536   4.107
    1C        C  425   3.613   4.541   4.229
    1C        C  426   3.402   4.543   4.353
    1C        C  427   3.543   4.547   4.351
    1C        C  428   3.330   4.540   4.475
    1C        C  429   3.405   4.548   4.595
    1C        C  430   3.194   4.516   4.722
    1C        C  431   3.334   4.542   4.717
    1C        C  432   3.124   4.489   4.842
    1C        C  433   3.204   4.492   4.957
    1C        C  434   4.380   4.118   2.048
    1C        C  435   4.450   3.996   2.050
    1C        C  436   4.304   4.165   2.160
    1C        C  437   4.338   4.098   2.281
    1C        C  438   4.180   4.245   2.401
    1C        C  439   4.284   4.149   2.401
    1C        C  440   4.124   4.296   2.520
    1C        C  441   4.182   4.253   2.642
    1C        C  442   4.006   4.376   2.763
    1C        C  443   4.123   4.296   2.763
    1C        C  444   3.942   4.412   2.884
    1C        C  445   4.005   4.377   3.006
    1C        C  446   3.811   4.464   3.128
    1C        C  447   3.941   4.409   3.128
    1C        C  448   3.746   4.494   3.249
    1C        C  449   3.813   4.474   3.372
    1C        C  450   3.609   4.524   3.496
    1C        C  451   3.748   4.497   3.495
    1C        C  452   3.540   4.533   3.619
    1C        C  453   3.610   4.532   3.742
    1C        C  454   3.400   4.542   3.866
    1C        C  455   3.541   4.547   3.864
    1C        C  456   3.330   4.525   3.988
    1C        C  457   3.402   4.524   4.110
    1C        C  458   3.193   4.498   4.233
    1C        C  459   3.331   4.526   4.232
    1C        C  460   3.125   4.481   4.356
    1C        C  461   3.193   4.505   4.477
    1C        C  462   2.998   4.430   4.600
    1C        C  463   3.125   4.492   4.601
    1C        C  464   2.932   4.397   4.720
    1C        C  465   2.988   4.444   4.842
    1C        C  466   2.797   4.339   4.956
    1C        C  467   2.906   4.427   4.958
    1C        C  468   4.126   4.287   2.037
    1C        C  469   4.185   4.245   2.156
    1C        C  470   4.008   4.368   2.277
    1C        C  471   4.124   4.286   2.278
    1C        C  472   3.942   4.405   2.396
    1C        C  473   4.005   4.371   2.518
    1C        C  474   3.811   4.456   2.642
    1C        C  475   3.943   4.405   2.640
    1C        C  476   3.741   4.485   2.761
    1C        C  477   3.812   4.467   2.882
    1C        C  478   3.606   4.513   3.008
    1C        C  479   3.745   4.488   3.005
    1C        C  480   3.535   4.525   3.130
    1C        C  481   3.608   4.523   3.251
    1C        C  482   3.398   4.524   3.377
    1C        C  483   3.539   4.531   3.374
    1C        C  484   3.327   4.520   3.499
    1C        C  485   3.399   4.533   3.620
    1C        C  486   3.196   4.487   3.744
    1C        C  487   3.332   4.524   3.744
    1C        C  488   3.129   4.466   3.866
    1C        C  489   3.194   4.488   3.990
    1C        C  490   3.000   4.404   4.111
    1C        C  491   3.126   4.470   4.113
    1C        C  492   2.939   4.377   4.235
    1C        C  493   2.996   4.423   4.356
    1C        C  494   2.828   4.299   4.482
    1C        C  495   2.936   4.390   4.480
    1C        C  496   2.769   4.254   4.602
    1C        C  497   2.818   4.312   4.721
    1C        C  498   2.663   4.164   4.845
    1C        C  499   2.751   4.275   4.840
    1C        C  500   2.589   4.121   4.955
    1C        C  501   4.001   4.347   2.039
    1C        C  502   3.814   4.458   2.153
    1C        C  503   3.941   4.397   2.156
    1C        C  504   3.745   4.475   2.275
    1C        C  505   3.808   4.448   2.399
    1C        C  506   3.603   4.499   2.519
    1C        C  507   3.742   4.475   2.520
    1C        C  508   3.530   4.512   2.639
    1C        C  509   3.603   4.513   2.761
    1C        C  510   3.396   4.514   2.887
    1C        C  511   3.537   4.520   2.885
    1C        C  512   3.322   4.512   3.007
    1C        C  513   3.394   4.522   3.129
    1C        C  514   3.191   4.485   3.256
    1C        C  515   3.329   4.516   3.254
    1C        C  516   3.124   4.459   3.378
    1C        C  517   3.190   4.484   3.500
    1C        C  518   2.997   4.405   3.622
    1C        C  519   3.125   4.463   3.624
    1C        C  520   2.936   4.373   3.746
    1C        C  521   3.001   4.407   3.867
    1C        C  522   2.827   4.284   3.994
    1C        C  523   2.942   4.367   3.988
    1C        C  524   2.777   4.239   4.118
    1C        C  525   2.827   4.291   4.239
    1C        C  526   2.684   4.138   4.361
    1C        C  527   2.772   4.249   4.362
    1C        C  528   2.639   4.083   4.483
    1C        C  529   2.679   4.144   4.603
    1C        C  530   2.577   3.963   4.732
    1C        C  531   2.632   4.094   4.727
    1C        C  532   2.535   3.902   4.853
    1C        C  533   2.535   3.992   4.965
    1C        C  534   3.617   4.554   2.039
    1C        C  535   3.749   4.506   2.038
    1C        C  536   3.538   4.532   2.156
    1C        C  537   3.606   4.504   2.277
    1C        C  538   3.391   4.512   2.398
    1C        C  539   3.532   4.514   2.397
    1C        C  540   3.319   4.510   2.520
    1C        C  541   3.389   4.508   2.642
    1C        C  542   3.184   4.477   2.766
    1C        C  543   3.322   4.503   2.767
    1C        C  544   3.117   4.458   2.889
    1C        C  545   3.185   4.478   3.011
    1C        C  546   2.996   4.395   3.133
    1C        C  547   3.121   4.459   3.136
    1C        C  548   2.935   4.360   3.255
    1C        C  549   2.996   4.399   3.376
    1C        C  550   2.825   4.279   3.504
    1C        C  551   2.936   4.366   3.500
    1C        C  552   2.773   4.233   3.627
    1C        C  553   2.825   4.286   3.748
    1C        C  554   2.695   4.122   3.875
    1C        C  555   2.776   4.237   3.871
    1C        C  556   2.657   4.061   3.997
    1C        C  557   2.689   4.128   4.117
    1C        C  558   2.592   3.945   4.246
    1C        C  559   2.648   4.074   4.241
    1C        C  560   2.563   3.882   4.369
    1C        C  561   2.581   3.954   4.489
    1C        C  562   2.531   3.751   4.614
    1C        C  563   2.559   3.890   4.613
    1C        C  564   2.514   3.680   4.735
    1C        C  565   2.519   3.760   4.853
    1C        C  566   2.533   3.546   4.975
    1C        C  567   2.520   3.684   4.970
    1C        C  568   3.325   4.480   2.043
    1C        C  569   3.397   4.513   2.158
    1C        C  570   3.180   4.475   2.280
    1C        C  571   3.319   4.505   2.277
    1C        C  572   3.114   4.452   2.402
    1C        C  573   3.181   4.480   2.523
    1C        C  574   2.988   4.392   2.646
    1C        C  575   3.113   4.458   2.645
    1C        C  576   2.928   4.357   2.769
    1C        C  577   2.991   4.394   2.890
    1C        C  578   2.822   4.268   3.015
    1C        C  579   2.934   4.354   3.013
    1C        C  580   2.775   4.217   3.138
    1C        C  581   2.826   4.269   3.258
    1C        C  582   2.689   4.114   3.383
    1C        C  583   2.777   4.225   3.383
    1C        C  584   2.649   4.059   3.507
    1C        C  585   2.688   4.120   3.628
    1C        C  586   2.588   3.938   3.754
    1C        C  587   2.653   4.063   3.753
    1C        C  588   2.565   3.871   3.876
    1C        C  589   2.596   3.934   3.999
    1C        C  590   2.537   3.738   4.127
    1C        C  591   2.569   3.876   4.125
    1C        C  592   2.523   3.671   4.251
    1C        C  593   2.529   3.744   4.371
    1C        C  594   2.508   3.535   4.497
    1C        C  595   2.518   3.676   4.495
    1C        C  596   2.512   3.463   4.618
    1C        C  597   2.511   3.538   4.738
    1C        C  598   2.538   3.326   4.863
    1C        C  599   2.528   3.467   4.859
    1C        C  600   2.536   3.247   4.978
    1C        C  601   3.194   4.437   2.042
    1C        C  602   2.980   4.397   2.158
    1C        C  603   3.115   4.445   2.157
    1C        C  604   2.922   4.358   2.282
    1C        C  605   2.987   4.389   2.403
    1C        C  606   2.813   4.270   2.525
    1C        C  607   2.924   4.357   2.525
    1C        C  608   2.766   4.219   2.649
    1C        C  609   2.817   4.269   2.770
    1C        C  610   2.675   4.114   2.892
    1C        C  611   2.768   4.221   2.893
    1C        C  612   2.639   4.055   3.016
    1C        C  613   2.681   4.111   3.138
    1C        C  614   2.585   3.926   3.262
    1C        C  615   2.648   4.052   3.263
    1C        C  616   2.563   3.865   3.388
    1C        C  617   2.589   3.932   3.510
    1C        C  618   2.531   3.731   3.637
    1C        C  619   2.563   3.869   3.633
    1C        C  620   2.518   3.663   3.760
    1C        C  621   2.528   3.735   3.882
    1C        C  622   2.513   3.526   4.009
    1C        C  623   2.523   3.667   4.006
    1C        C  624   2.517   3.457   4.132
    1C        C  625   2.511   3.530   4.253
    1C        C  626   2.539   3.323   4.378
    1C        C  627   2.510   3.462   4.377
    1C        C  628   2.553   3.252   4.499
    1C        C  629   2.537   3.324   4.619
    1C        C  630   2.601   3.121   4.742
    1C        C  631   2.554   3.256   4.741
    1C        C  632   2.618   3.049   4.863
    1C        C  633   2.563   3.110   4.981
    1C        C  634   2.778   4.305   2.050
    1C        C  635   2.894   4.385   2.045
    1C        C  636   2.743   4.231   2.163
    1C        C  637   2.806   4.276   2.281
    1C        C  638   2.679   4.107   2.407
    1C        C  639   2.758   4.224   2.404
    1C        C  640   2.635   4.049   2.528
    1C        C  641   2.677   4.109   2.649
    1C        C  642   2.584   3.921   2.775
    1C        C  643   2.640   4.050   2.771
    1C        C  644   2.559   3.856   2.898
    1C        C  645   2.588   3.923   3.019
    1C        C  646   2.526   3.721   3.147
    1C        C  647   2.559   3.859   3.141
    1C        C  648   2.521   3.654   3.272
    1C        C  649   2.535   3.727   3.392
    1C        C  650   2.514   3.518   3.519
    1C        C  651   2.525   3.659   3.516
    1C        C  652   2.516   3.452   3.643
    1C        C  653   2.512   3.522   3.766
    1C        C  654   2.537   3.314   3.888
    1C        C  655   2.512   3.453   3.889
    1C        C  656   2.560   3.248   4.011
    1C        C  657   2.544   3.318   4.133
    1C        C  658   2.611   3.122   4.258
    1C        C  659   2.560   3.253   4.257
    1C        C  660   2.635   3.055   4.380
    1C        C  661   2.600   3.118   4.501
    1C        C  662   2.709   2.935   4.622
    1C        C  663   2.633   3.054   4.622
    1C        C  664   2.751   2.877   4.744
    1C        C  665   2.697   2.930   4.864
    1C        C  666   2.737   2.864   4.981
    1C        C  667   2.684   4.020   2.049
    1C        C  668   2.686   4.101   2.163
    1C        C  669   2.589   3.913   2.289
    1C        C  670   2.651   4.041   2.286
    1C        C  671   2.557   3.849   2.410
    1C        C  672   2.577   3.920   2.531
    1C        C  673   2.521   3.717   2.657
    1C        C  674   2.554   3.854   2.654
    1C        C  675   2.512   3.648   2.780
    1C        C  676   2.524   3.719   2.901
    1C        C  677   2.509   3.511   3.030
    1C        C  678   2.513   3.652   3.025
    1C        C  679   2.511   3.441   3.152
    1C        C  680   2.510   3.514   3.274
    1C        C  681   2.533   3.306   3.399
    1C        C  682   2.512   3.446   3.398
    1C        C  683   2.555   3.240   3.523
    1C        C  684   2.537   3.312   3.643
    1C        C  685   2.606   3.113   3.768
    1C        C  686   2.555   3.245   3.766
    1C        C  687   2.635   3.051   3.891
    1C        C  688   2.607   3.115   4.014
    1C        C  689   2.714   2.934   4.139
    1C        C  690   2.639   3.054   4.137
    1C        C  691   2.758   2.878   4.261
    1C        C  692   2.712   2.936   4.382
    1C        C  693   2.755   2.876   4.502
    1C        C  694   2.630   3.891   2.058
    1C        C  695   2.520   3.704   2.174
    1C        C  696   2.573   3.835   2.173
    1C        C  697   2.508   3.637   2.297
    1C        C  698   2.525   3.712   2.416
    1C        C  699   2.487   3.504   2.541
    1C        C  700   2.500   3.644   2.537
    1C        C  701   2.503   3.434   2.663
    1C        C  702   2.504   3.507   2.784
    1C        C  703   2.532   3.300   2.909
    1C        C  704   2.511   3.440   2.908
    1C        C  705   2.546   3.232   3.032
    1C        C  706   2.534   3.302   3.154
    1C        C  707   2.601   3.104   3.278
    1C        C  708   2.551   3.236   3.278
    1C        C  709   2.636   3.045   3.401
    1C        C  710   2.605   3.108   3.524
    1C        C  711   2.715   2.928   3.649
    1C        C  712   2.637   3.046   3.647
    1C        C  713   2.761   2.878   3.772
    1C        C  714   2.717   2.935   3.893
    1C        C  715   2.759   2.881   4.016
    1C        C  716   2.448   3.498   2.062
    1C        C  717   2.489   3.632   2.057
    1C        C  718   2.465   3.421   2.182
    1C        C  719   2.486   3.496   2.301
    1C        C  720   2.514   3.288   2.423
    1C        C  721   2.486   3.426   2.423
    1C        C  722   2.538   3.221   2.545
    1C        C  723   2.528   3.295   2.665
    1C        C  724   2.599   3.097   2.788
    1C        C  725   2.547   3.228   2.788
    1C        C  726   2.626   3.033   2.911
    1C        C  727   2.594   3.099   3.032
    1C        C  728   2.703   2.919   3.157
    1C        C  729   2.628   3.039   3.155
    1C        C  730   2.751   2.868   3.280
    1C        C  731   2.713   2.927   3.402
    1C        C  732   2.756   2.872   3.525
    1C        C  733   2.494   3.199   2.069
    1C        C  734   2.494   3.281   2.183
    1C        C  735   2.581   3.082   2.302
    1C        C  736   2.525   3.213   2.304
    1C        C  737   2.612   3.019   2.425
    1C        C  738   2.588   3.089   2.545
    1C        C  739   2.695   2.906   2.669
    1C        C  740   2.625   3.028   2.667
    1C        C  741   2.739   2.851   2.791
    1C        C  742   2.696   2.910   2.912
    1C        C  743   2.745   2.861   3.035
    1C        C  744   2.547   3.071   2.067
    1C        C  745   2.685   2.897   2.181
    1C        C  746   2.608   3.016   2.181
    1C        C  747   2.724   2.838   2.303
    1C        C  748   2.683   2.897   2.425
    1C        C  749   2.732   2.845   2.547
    1C        C  750   2.731   2.835   2.065
    1C        C  751   3.656   2.304   1.988
    1C        O  752   3.667   2.182   2.018
    1C        O  753   3.677   2.319   1.850
    1C        C  754   4.643   3.060   1.991
    1C        O  755   4.634   3.043   1.866
    1C        O  756   4.752   2.997   2.051
    1C        C  757   4.431   4.203   1.938
    1C        O  758   4.485   4.313   1.970
    1C        O  759   4.395   4.189   1.804
    1C        C  760   3.599   4.679   1.961
    1C        O  761   3.591   4.791   2.019
    1C        O  762   3.624   4.693   1.824
    1C        C  763   2.886   4.485   1.936
    1C        O  764   2.869   4.448   1.816
    1C        O  765   2.838   4.615   1.953
    1C        C  766   2.380   3.460   1.936
    1C        O  767   2.434   3.405   1.837
    1C        O  768   2.240   3.460   1.927
    1C        C  769   4.667   3.590   5.075
    1C        O  770   4.633   3.575   5.195
    1C        O  771   4.800   3.633   5.065
    1C        C  772   4.276   4.423   5.045
    1C        O  773   4.242   4.404   5.165
    1C        O  774   4.379   4.516   5.027
    1C        C  775   4.124   2.577   5.104
    1C        O  776   4.189   2.475   5.137
    1C        O  777   4.076   2.639   5.220
    1C        C  778   2.892   4.541   5.051
    1C        O  779   2.812   4.634   5.021
    1C        O  780   2.886   4.521   5.190
    1C        C  781   2.498   3.039   5.094
    1C        O  782   2.374   3.020   5.104
    1C        O  783   2.561   3.040   5.217
    1C        C  784   2.430   3.979   5.069
    1C        O  785   2.308   4.004   5.050
    1C        O  786   2.455   3.949   5.203
    1C        C  787   2.946   2.406   2.021
    1C        O  788   2.953   2.393   1.896
    1C        O  789   2.830   2.361   2.085
    1C        C  790   3.177   2.379   5.071
    1C        O  791   3.162   2.262   5.026
    1C        O  792   3.108   2.385   5.193
    1C        H  793   4.275   3.022   5.056
    1C        H  794   4.142   2.837   5.054
    1C        H  795   4.496   3.123   5.056
    1C        H  796   4.480   3.379   5.060
    1C        H  797   4.542   3.805   5.049
    1C        H  798   4.448   3.999   5.048
    1C        H  799   4.260   4.152   5.050
    1C        H  800   4.031   4.538   5.028
    1C        H  801   3.824   4.588   5.039
    1C        H  802   3.583   4.599   5.045
    1C        H  803   3.394   4.483   5.038
    1C        H  804   3.160   4.540   5.042
    1C        H  805   3.889   2.476   5.060
    1C        H  806   3.671   2.488   5.078
    1C        H  807   3.007   2.571   5.064
    1C        H  808   3.435   2.455   5.072
    1C        H  809   2.890   2.751   5.073
    1C        H  810   2.674   2.859   5.068
    1C        H  811   2.472   3.279   5.057
    1C        H  812   2.579   3.506   5.064
    1C        H  813   2.487   3.731   5.061
    1C        H  814   2.557   4.192   5.028
    1C        H  815   2.739   4.328   5.045
    1C        H  816   2.726   2.894   1.975
    1C        H  817   2.808   2.655   1.986
    1C        H  818   3.205   2.435   1.986
    1C        H  819   3.434   2.465   1.977
    1C        H  820   3.872   2.487   1.972
    1C        H  821   4.057   2.625   1.964
    1C        H  822   4.266   2.714   1.975
    1C        H  823   4.418   2.890   1.975
    1C        H  824   4.617   3.308   1.990
    1C        H  825   4.512   3.515   1.953
    1C        H  826   4.555   3.752   1.967
    1C        H  827   3.809   4.532   1.953
    1C        H  828   3.934   4.319   1.961
    1C        H  829   4.182   4.291   1.945
    1C        H  830   4.472   3.949   1.956
    1C        H  831   2.664   3.825   1.981
    1C        H  832   2.721   4.056   1.955
    1C        H  833   2.714   4.310   1.965
    1C        H  834   3.355   4.527   1.951
    1C        H  835   3.175   4.363   1.967
    1C        H  836   2.509   3.004   1.993
    1C        H  837   2.396   3.201   2.026
    1C        H  838   2.468   3.682   1.965
    2V3OU   H29  839   2.803   3.548   6.363
    2V3OU   C27  840   2.783   3.502   6.463
    2V3OU   H27  841   2.722   3.575   6.522
    2V3OU   H28  842   2.723   3.408   6.447
    2V3OU   O11  843   2.904   3.470   6.532
    2V3OU   C15  844   2.918   3.396   6.647
    2V3OU   C13  845   3.049   3.375   6.695
    2V3OU   C14  846   3.074   3.264   6.776
    2V3OU   C16  847   2.969   3.189   6.827
    2V3OU    H6  848   2.994   3.099   6.885
    2V3OU   C12  849   3.214   3.231   6.813
    2V3OU    O2  850   3.239   3.128   6.879
    2V3OU   C10  851   3.323   3.306   6.749
    2V3OU    C8  852   3.455   3.267   6.768
    2V3OU   O10  853   3.491   3.143   6.810
    2V3OU   H26  854   3.406   3.112   6.847
    2V3OU    C6  855   3.560   3.348   6.715
    2V3OU    C5  856   3.532   3.465   6.646
    2V3OU    C4  857   3.699   3.295   6.707
    2V3OU    H4  858   3.720   3.227   6.795
    2V3OU    H5  859   3.707   3.227   6.617
    2V3OU    C2  860   3.814   3.396   6.710
    2V3OU    O6  861   3.811   3.475   6.830
    2V3OU   H21  862   3.761   3.555   6.805
    2V3OU    C3  863   3.779   3.495   6.599
    2V3OU    H2  864   3.858   3.574   6.598
    2V3OU    H3  865   3.781   3.439   6.502
    2V3OU   C25  866   3.950   3.326   6.700
    2V3OU    O7  867   4.000   3.280   6.598
    2V3OU   C26  868   4.031   3.289   6.824
    2V3OU   H22  869   4.059   3.383   6.878
    2V3OU   H23  870   4.116   3.221   6.798
    2V3OU    O8  871   3.962   3.206   6.915
    2V3OU   H24  872   3.922   3.260   6.985
    2V3OU    C1  873   3.642   3.560   6.612
    2V3OU    H1  874   3.623   3.617   6.516
    2V3OU    O3  875   3.654   3.654   6.719
    2V3OU   C19  876   3.618   3.791   6.698
    2V3OU    H9  877   3.530   3.809   6.630
    2V3OU    O4  878   3.717   3.850   6.616
    2V3OU   C20  879   3.847   3.873   6.670
    2V3OU   H10  880   3.894   3.771   6.679
    2V3OU   C24  881   3.607   3.856   6.836
    2V3OU   H16  882   3.545   3.793   6.905
    2V3OU   H17  883   3.564   3.958   6.823
    2V3OU   C23  884   3.747   3.871   6.897
    2V3OU   H15  885   3.788   3.766   6.909
    2V3OU    N1  886   3.734   3.949   7.019
    2V3OU   H19  887   3.801   3.924   0.070
    2V3OU   H20  888   3.644   3.935   0.041
    2V3OU   C21  889   3.844   3.949   6.803
    2V3OU   H11  890   3.946   3.931   6.848
    2V3OU    O5  891   3.822   4.089   6.800
    2V3OU   H18  892   3.780   4.112   6.884
    2V3OU   C22  893   3.909   3.951   6.554
    2V3OU   H12  894   3.859   4.051   6.544
    2V3OU   H13  895   3.895   3.893   6.459
    2V3OU   H14  896   4.019   3.962   6.569
    2V3OU   C11  897   3.158   3.473   6.679
    2V3OU    O1  898   3.138   3.593   6.650
    2V3OU    C9  899   3.298   3.425   6.676
    2V3OU    C7  900   3.397   3.506   6.622
    2V3OU    O9  901   3.380   3.614   6.538
    2V3OU   H25  902   3.284   3.632   6.544
    2V3OU   C17  903   2.814   3.315   6.698
    2V3OU    H7  904   2.714   3.337   6.660
    2V3OU   C18  905   2.837   3.214   6.790
    2V3OU    H8  906   2.751   3.147   6.807
    3SOL     OW  907   2.862   3.974   5.100
    3SOL    HW1  908   2.897   3.880   5.096
    3SOL    HW2  909   2.786   3.983   5.036
    4SOL     OW  910   1.362   0.093   0.701
    4SOL    HW1  911   1.340   0.190   0.695
    4SOL    HW2  912   1.462   0.081   0.702
    5SOL     OW  913   4.115   1.929   0.828
    5SOL    HW1  914   4.128   1.949   0.731
    5SOL    HW2  915   4.183   1.862   0.857
    6SOL     OW  916   3.227   2.084   1.939
    6SOL    HW1  917   3.177   2.064   1.855
    6SOL    HW2  918   3.325   2.083   1.921
    7SOL     OW  919   1.997   2.686   4.494
    7SOL    HW1  920   2.005   2.775   4.539
    7SOL    HW2  921   2.089   2.648   4.481
    8SOL     OW  922   1.483   1.957   6.295
    8SOL    HW1  923   1.578   1.966   6.322
    8SOL    HW2  924   1.427   2.020   6.349
    9SOL     OW  925   2.426   2.495   5.749
    9SOL    HW1  926   2.371   2.422   5.791
    9SOL    HW2  927   2.371   2.543   5.680
   10SOL     OW  928   5.542   4.888   0.969
   10SOL    HW1  929   5.521   4.975   1.014
   10SOL    HW2  930   5.606   4.836   1.026
   11SOL     OW  931   3.022   1.148   0.659
   11SOL    HW1  932   3.094   1.214   0.680
   11SOL    HW2  933   3.054   1.086   0.587
   12SOL     OW  934   5.552   5.128   1.156
   12SOL    HW1  935   5.539   5.075   1.240
   12SOL    HW2  936   5.471   5.183   1.137
   13SOL     OW  937   4.385   5.522   1.679
   13SOL    HW1  938   4.436   5.444   1.644
   13SOL    HW2  939   4.291   5.495   1.699
   14SOL     OW  940   4.361   5.946   0.904
   14SOL    HW1  941   4.313   5.859   0.916
   14SOL    HW2  942   4.375   5.963   0.806
   15SOL     OW  943   0.506   0.308   6.443
   15SOL    HW1  944   0.480   0.340   6.533
   15SOL    HW2  945   0.555   0.380   6.394
   16SOL     OW  946   1.831   4.985   5.475
   16SOL    HW1  947   1.738   4.953   5.488
   16SOL    HW2  948   1.831   5.083   5.454
   17SOL     OW  949   0.089   2.051   4.009
   17SOL    HW1  950   0.033   2.104   3.946
   17SOL    HW2  951   0.030   1.996   4.069
   18SOL     OW  952   2.704   0.146   5.408
   18SOL    HW1  953   2.609   0.177   5.405
   18SOL    HW2  954   2.706   0.048   5.426
   19SOL     OW  955   4.421   5.871   2.924
   19SOL    HW1  956   4.375   5.950   2.964
   19SOL    HW2  957   4.379   5.787   2.958
   20SOL     OW  958   0.048   1.637   4.693
   20SOL    HW1  959   0.085   1.699   4.624
   20SOL    HW2  960   6.998   1.685   4.746
   21SOL     OW  961   2.006   3.295   1.730
   21SOL    HW1  962   1.969   3.250   1.649
   21SOL    HW2  963   1.931   3.334   1.783
   22SOL     OW  964   0.547   0.394   0.765
   22SOL    HW1  965   0.501   0.307   0.750
   22SOL    HW2  966   0.609   0.414   0.690
   23SOL     OW  967   0.577   5.749   0.458
   23SOL    HW1  968   0.566   5.668   0.401
   23SOL    HW2  969   0.608   5.722   0.550
   24SOL     OW  970   4.558   0.698   6.893
   24SOL    HW1  971   4.483   0.742   6.843
   24SOL    HW2  972   4.640   0.696   6.836
   25SOL     OW  973   1.483   0.910   5.578
   25SOL    HW1  974   1.503   0.813   5.595
   25SOL    HW2  975   1.425   0.918   5.497
   26SOL     OW  976   2.233   6.758   5.272
   26SOL    HW1  977   2.276   6.694   5.336
   26SOL    HW2  978   2.176   6.823   5.323
   27SOL     OW  979   6.815   0.205   2.398
   27SOL    HW1  980   6.904   0.200   2.353
   27SOL    HW2  981   6.761   0.278   2.357
   28SOL     OW  982   2.219   0.796   5.141
   28SOL    HW1  983   2.257   0.843   5.220
   28SOL    HW2  984   2.168   0.860   5.085
   29SOL     OW  985   5.647   0.590   1.447
   29SOL    HW1  986   5.550   0.581   1.470
   29SOL    HW2  987   5.657   0.591   1.347
   30SOL     OW  988   5.119   6.646   4.528
   30SOL    HW1  989   5.058   6.600   4.592
   30SOL    HW2  990   5.198   6.682   4.577
   31SOL     OW  991   6.162   4.029   4.158
   31SOL    HW1  992   6.168   4.110   4.217
   31SOL    HW2  993   6.072   4.026   4.115
   32SOL     OW  994   3.447   1.287   2.001
   32SOL    HW1  995   3.463   1.299   1.904
   32SOL    HW2  996   3.401   1.199   2.016
   33SOL     OW  997   1.887   4.319   5.162
   33SOL    HW1  998   1.943   4.237   5.172
   33SOL    HW2  999   1.828   4.329   5.242
   34SOL     OW 1000   2.681   6.881   5.381
   34SOL    HW1 1001   2.680   6.917   5.288
   34SOL    HW2 1002   2.590   6.890   5.422
   35SOL     OW 1003   1.384   3.143   4.930
   35SOL    HW1 1004   1.420   3.211   4.994
   35SOL    HW2 1005   1.325   3.079   4.980
   36SOL     OW 1006   5.253   1.150   4.044
   36SOL    HW1 1007   5.351   1.170   4.050
   36SOL    HW2 1008   5.217   1.182   3.956
   37SOL     OW 1009   1.317   5.528   3.972
   37SOL    HW1 1010   1.288   5.477   4.053
   37SOL    HW2 1011   1.237   5.557   3.920
   38SOL     OW 1012   0.613   3.399   1.763
   38SOL    HW1 1013   0.552   3.326   1.732
   38SOL    HW2 1014   0.696   3.359   1.803
   39SOL     OW 1015   6.495   5.109   1.271
   39SOL    HW1 1016   6.466   5.130   1.365
   39SOL    HW2 1017   6.471   5.015   1.248
   40SOL     OW 1018   4.211   0.738   6.355
   40SOL    HW1 1019   4.211   0.656   6.298
   40SOL    HW2 1020   4.213   0.819   6.297
   41SOL     OW 1021   0.180   3.966   1.192
   41SOL    HW1 1022   0.172   3.879   1.144
   41SOL    HW2 1023   0.270   4.006   1.173
   42SOL     OW 1024   2.692   3.540   0.898
   42SOL    HW1 1025   2.700   3.640   0.894
   42SOL    HW2 1026   2.612   3.511   0.846
   43SOL     OW 1027   4.870   0.646   3.797
   43SOL    HW1 1028   4.928   0.565   3.790
   43SOL    HW2 1029   4.891   0.709   3.723
   44SOL     OW 1030   0.180   1.019   6.874
   44SOL    HW1 1031   0.085   0.991   6.870
   44SOL    HW2 1032   0.186   1.119   6.872
   45SOL     OW 1033   2.083   3.687   6.029
   45SOL    HW1 1034   2.177   3.714   6.007
   45SOL    HW2 1035   2.025   3.702   5.949
   46SOL     OW 1036   0.875   4.775   4.274
   46SOL    HW1 1037   0.903   4.679   4.278
   46SOL    HW2 1038   0.952   4.830   4.242
   47SOL     OW 1039   0.095   4.139   5.804
   47SOL    HW1 1040   0.177   4.090   5.776
   47SOL    HW2 1041   0.082   4.130   5.903
   48SOL     OW 1042   0.750   4.043   0.135
   48SOL    HW1 1043   0.654   4.067   0.122
   48SOL    HW2 1044   0.805   4.086   0.063
   49SOL     OW 1045   3.300   0.506   0.168
   49SOL    HW1 1046   3.372   0.442   0.195
   49SOL    HW2 1047   3.302   0.519   0.069
   50SOL     OW 1048   5.144   1.583   5.502
   50SOL    HW1 1049   5.100   1.502   5.463
   50SOL    HW2 1050   5.107   1.666   5.460
   51SOL     OW 1051   1.029   6.252   2.248
   51SOL    HW1 1052   1.011   6.174   2.307
   51SOL    HW2 1053   1.090   6.224   2.174
   52SOL     OW 1054   5.433   3.138   3.045
   52SOL    HW1 1055   5.417   3.090   2.959
   52SOL    HW2 1056   5.450   3.072   3.118
   53SOL     OW 1057   3.908   6.867   1.016
   53SOL    HW1 1058   3.984   6.812   0.980
   53SOL    HW2 1059   3.941   6.958   1.041
   54SOL     OW 1060   1.098   1.650   5.942
   54SOL    HW1 1061   1.156   1.624   6.020
   54SOL    HW2 1062   1.133   1.609   5.859
   55SOL     OW 1063   2.501   3.648   6.253
   55SOL    HW1 1064   2.416   3.648   6.305
   55SOL    HW2 1065   2.518   3.740   6.217
   56SOL     OW 1066   1.888   2.211   0.033
   56SOL    HW1 1067   1.867   2.127   7.002
   56SOL    HW2 1068   1.832   2.286   7.016
   57SOL     OW 1069   4.266   5.750   1.568
   57SOL    HW1 1070   4.305   5.671   1.615
   57SOL    HW2 1071   4.228   5.721   1.480
   58SOL     OW 1072   0.388   0.606   0.165
   58SOL    HW1 1073   0.308   0.606   0.225
   58SOL    HW2 1074   0.435   0.694   0.171
   59SOL     OW 1075   4.293   3.383   0.128
   59SOL    HW1 1076   4.312   3.330   0.210
   59SOL    HW2 1077   4.198   3.413   0.128
   60SOL     OW 1078   6.482   2.635   2.335
   60SOL    HW1 1079   6.571   2.590   2.341
   60SOL    HW2 1080   6.447   2.653   2.427
   61SOL     OW 1081   1.596   5.377   2.704
   61SOL    HW1 1082   1.659   5.450   2.731
   61SOL    HW2 1083   1.622   5.344   2.613
   62SOL     OW 1084   4.975   3.429   3.243
   62SOL    HW1 1085   5.068   3.392   3.242
   62SOL    HW2 1086   4.932   3.407   3.331
   63SOL     OW 1087   4.341   7.008   6.151
   63SOL    HW1 1088   4.245   7.008   6.124
   63SOL    HW2 1089   4.399   7.014   6.069
   64SOL     OW 1090   2.360   1.737   6.959
   64SOL    HW1 1091   2.411   1.733   0.025
   64SOL    HW2 1092   2.267   1.772   6.976
   65SOL     OW 1093   0.868   5.316   4.986
   65SOL    HW1 1094   0.882   5.236   4.928
   65SOL    HW2 1095   0.956   5.348   5.022
   66SOL     OW 1096   4.366   1.204   1.229
   66SOL    HW1 1097   4.270   1.224   1.251
   66SOL    HW2 1098   4.423   1.279   1.260
   67SOL     OW 1099   0.043   3.214   2.493
   67SOL    HW1 1100   6.977   3.244   2.536
   67SOL    HW2 1101   0.036   3.118   2.468
   68SOL     OW 1102   0.517   0.915   6.239
   68SOL    HW1 1103   0.604   0.882   6.275
   68SOL    HW2 1104   0.534   0.982   6.167
   69SOL     OW 1105   1.434   0.859   6.404
   69SOL    HW1 1106   1.397   0.787   6.346
   69SOL    HW2 1107   1.488   0.922   6.349
   70SOL     OW 1108   4.713   4.933   3.165
   70SOL    HW1 1109   4.791   4.871   3.150
   70SOL    HW2 1110   4.747   5.022   3.195
   71SOL     OW 1111   5.338   1.371   5.744
   71SOL    HW1 1112   5.403   1.448   5.740
   71SOL    HW2 1113   5.249   1.404   5.774
   72SOL     OW 1114   6.768   2.116   2.937
   72SOL    HW1 1115   6.757   2.096   2.839
   72SOL    HW2 1116   6.694   2.072   2.987
   73SOL     OW 1117   2.873   1.110   0.917
   73SOL    HW1 1118   2.926   1.184   0.876
   73SOL    HW2 1119   2.828   1.057   0.844
   74SOL     OW 1120   2.469   0.784   0.644
   74SOL    HW1 1121   2.424   0.775   0.555
   74SOL    HW2 1122   2.438   0.868   0.689
   75SOL     OW 1123   2.498   2.506   1.527
   75SOL    HW1 1124   2.523   2.553   1.442
   75SOL    HW2 1125   2.450   2.421   1.505
   76SOL     OW 1126   2.969   5.338   6.742
   76SOL    HW1 1127   2.957   5.401   6.818
   76SOL    HW2 1128   2.919   5.371   6.662
   77SOL     OW 1129   0.143   4.747   4.595
   77SOL    HW1 1130   0.054   4.715   4.626
   77SOL    HW2 1131   0.215   4.707   4.652
   78SOL     OW 1132   4.878   1.351   0.722
   78SOL    HW1 1133   4.811   1.281   0.745
   78SOL    HW2 1134   4.967   1.308   0.705
   79SOL     OW 1135   2.028   4.056   4.382
   79SOL    HW1 1136   1.983   3.967   4.373
   79SOL    HW2 1137   2.096   4.066   4.309
   80SOL     OW 1138   3.985   2.213   5.372
   80SOL    HW1 1139   3.888   2.240   5.365
   80SOL    HW2 1140   3.996   2.149   5.447
   81SOL     OW 1141   2.614   4.628   2.994
   81SOL    HW1 1142   2.564   4.541   2.987
   81SOL    HW2 1143   2.576   4.693   2.929
   82SOL     OW 1144   2.505   0.622   1.387
   82SOL    HW1 1145   2.464   0.702   1.343
   82SOL    HW2 1146   2.435   0.574   1.439
   83SOL     OW 1147   6.035   2.375   3.375
   83SOL    HW1 1148   6.084   2.437   3.436
   83SOL    HW2 1149   6.050   2.280   3.404
   84SOL     OW 1150   4.828   2.438   2.830
   84SOL    HW1 1151   4.805   2.367   2.763
   84SOL    HW2 1152   4.745   2.470   2.875
   85SOL     OW 1153   2.295   5.277   2.807
   85SOL    HW1 1154   2.197   5.296   2.815
   85SOL    HW2 1155   2.347   5.360   2.826
   86SOL     OW 1156   4.502   1.046   6.494
   86SOL    HW1 1157   4.486   0.970   6.432
   86SOL    HW2 1158   4.582   1.098   6.463
   87SOL     OW 1159   3.032   2.736   6.664
   87SOL    HW1 1160   2.993   2.652   6.627
   87SOL    HW2 1161   3.096   2.714   6.737
   88SOL     OW 1162   1.229   2.009   0.766
   88SOL    HW1 1163   1.297   2.082   0.774
   88SOL    HW2 1164   1.274   1.926   0.731
   89SOL     OW 1165   4.179   3.912   5.664
   89SOL    HW1 1166   4.123   3.956   5.734
   89SOL    HW2 1167   4.221   3.829   5.702
   90SOL     OW 1168   6.958   4.409   1.736
   90SOL    HW1 1169   6.882   4.390   1.797
   90SOL    HW2 1170   0.012   4.344   1.754
   91SOL     OW 1171   5.328   5.146   0.491
   91SOL    HW1 1172   5.387   5.087   0.436
   91SOL    HW2 1173   5.331   5.117   0.587
   92SOL     OW 1174   6.412   6.198   6.808
   92SOL    HW1 1175   6.480   6.262   6.771
   92SOL    HW2 1176   6.322   6.242   6.809
   93SOL     OW 1177   2.931   3.208   2.502
   93SOL    HW1 1178   2.835   3.181   2.507
   93SOL    HW2 1179   2.960   3.207   2.406
   94SOL     OW 1180   3.777   0.999   4.229
   94SOL    HW1 1181   3.876   0.992   4.214
   94SOL    HW2 1182   3.741   0.908   4.252
   95SOL     OW 1183   1.137   6.226   4.391
   95SOL    HW1 1184   1.199   6.293   4.350
   95SOL    HW2 1185   1.186   6.141   4.407
   96SOL     OW 1186   0.278   6.602   0.110
   96SOL    HW1 1187   0.335   6.684   0.110
   96SOL    HW2 1188   0.309   6.540   0.182
   97SOL     OW 1189   3.426   4.941   4.455
   97SOL    HW1 1190   3.395   4.966   4.547
   97SOL    HW2 1191   3.346   4.926   4.396
   98SOL     OW 1192   6.469   1.889   4.935
   98SOL    HW1 1193   6.533   1.950   4.888
   98SOL    HW2 1194   6.377   1.929   4.933
   99SOL     OW 1195   4.705   4.390   4.843
   99SOL    HW1 1196   4.750   4.478   4.827
   99SOL    HW2 1197   4.606   4.403   4.840
  100SOL     OW 1198   2.515   2.032   5.687
  100SOL    HW1 1199   2.522   2.104   5.618
  100SOL    HW2 1200   2.599   1.978   5.689
  101SOL     OW 1201   5.130   3.133   2.528
  101SOL    HW1 1202   5.132   3.135   2.428
  101SOL    HW2 1203   5.149   3.225   2.563
  102SOL     OW 1204   4.665   6.336   1.092
  102SOL    HW1 1205   4.603   6.413   1.076
  102SOL    HW2 1206   4.758   6.363   1.068
  103SOL     OW 1207   2.397   2.000   0.905
  103SOL    HW1 1208   2.462   2.064   0.946
  103SOL    HW2 1209   2.380   2.025   0.810
  104SOL     OW 1210   0.856   3.616   1.609
  104SOL    HW1 1211   0.803   3.538   1.577
  104SOL    HW2 1212   0.801   3.699   1.600
  105SOL     OW 1213   0.170   1.912   4.571
  105SOL    HW1 1214   0.115   1.980   4.523
  105SOL    HW2 1215   0.153   1.919   4.670
  106SOL     OW 1216   5.141   3.586   1.419
  106SOL    HW1 1217   5.130   3.671   1.368
  106SOL    HW2 1218   5.236   3.555   1.413
  107SOL     OW 1219   4.482   0.365   2.547
  107SOL    HW1 1220   4.443   0.345   2.637
  107SOL    HW2 1221   4.556   0.300   2.527
  108SOL     OW 1222   3.747   1.281   5.257
  108SOL    HW1 1223   3.719   1.199   5.308
  108SOL    HW2 1224   3.796   1.253   5.174
  109SOL     OW 1225   2.389   1.631   4.526
  109SOL    HW1 1226   2.347   1.680   4.449
  109SOL    HW2 1227   2.375   1.682   4.610
  110SOL     OW 1228   4.367   5.011   5.563
  110SOL    HW1 1229   4.370   5.089   5.626
  110SOL    HW2 1230   4.451   4.956   5.574
  111SOL     OW 1231   0.001   3.251   0.795
  111SOL    HW1 1232   0.012   3.154   0.774
  111SOL    HW2 1233   6.930   3.266   0.835
  112SOL     OW 1234   3.768   6.464   4.700
  112SOL    HW1 1235   3.810   6.521   4.630
  112SOL    HW2 1236   3.738   6.521   4.777
  113SOL     OW 1237   1.578   4.944   2.485
  113SOL    HW1 1238   1.509   4.895   2.538
  113SOL    HW2 1239   1.569   5.042   2.502
  114SOL     OW 1240   6.851   2.539   2.098
  114SOL    HW1 1241   6.833   2.548   2.196
  114SOL    HW2 1242   6.768   2.561   2.047
  115SOL     OW 1243   4.502   1.327   3.135
  115SOL    HW1 1244   4.506   1.311   3.036
  115SOL    HW2 1245   4.438   1.402   3.154
  116SOL     OW 1246   5.899   5.921   6.634
  116SOL    HW1 1247   5.997   5.906   6.638
  116SOL    HW2 1248   5.851   5.835   6.651
  117SOL     OW 1249   2.084   1.246   0.668
  117SOL    HW1 1250   2.033   1.312   0.724
  117SOL    HW2 1251   2.157   1.205   0.723
  118SOL     OW 1252   1.278   2.411   1.392
  118SOL    HW1 1253   1.317   2.432   1.481
  118SOL    HW2 1254   1.277   2.312   1.377
  119SOL     OW 1255   5.654   5.437   4.920
  119SOL    HW1 1256   5.719   5.486   4.863
  119SOL    HW2 1257   5.657   5.472   5.014
  120SOL     OW 1258   4.409   1.565   4.179
  120SOL    HW1 1259   4.344   1.500   4.218
  120SOL    HW2 1260   4.372   1.601   4.093
  121SOL     OW 1261   6.856   4.991   5.574
  121SOL    HW1 1262   6.891   5.075   5.616
  121SOL    HW2 1263   6.882   4.913   5.631
  122SOL     OW 1264   0.543   4.786   5.720
  122SOL    HW1 1265   0.516   4.714   5.656
  122SOL    HW2 1266   0.603   4.851   5.673
  123SOL     OW 1267   0.632   2.073   0.914
  123SOL    HW1 1268   0.707   2.014   0.944
  123SOL    HW2 1269   0.629   2.155   0.971
  124SOL     OW 1270   1.874   3.705   6.598
  124SOL    HW1 1271   1.804   3.640   6.570
  124SOL    HW2 1272   1.934   3.725   6.521
  125SOL     OW 1273   4.230   3.197   1.237
  125SOL    HW1 1274   4.287   3.115   1.237
  125SOL    HW2 1275   4.156   3.186   1.303
  126SOL     OW 1276   3.551   3.504   5.241
  126SOL    HW1 1277   3.602   3.503   5.326
  126SOL    HW2 1278   3.453   3.516   5.261
  127SOL     OW 1279   0.064   4.450   6.008
  127SOL    HW1 1280   0.056   4.355   6.038
  127SOL    HW2 1281   0.040   4.511   6.084
  128SOL     OW 1282   4.914   4.417   5.780
  128SOL    HW1 1283   4.841   4.472   5.740
  128SOL    HW2 1284   4.966   4.472   5.845
  129SOL     OW 1285   0.846   5.464   2.512
  129SOL    HW1 1286   0.769   5.479   2.451
  129SOL    HW2 1287   0.856   5.543   2.573
  130SOL     OW 1288   6.703   4.118   4.596
  130SOL    HW1 1289   6.649   4.184   4.545
  130SOL    HW2 1290   6.668   4.025   4.579
  131SOL     OW 1291   0.799   2.998   2.103
  131SOL    HW1 1292   0.825   3.018   2.198
  131SOL    HW2 1293   0.877   2.959   2.055
  132SOL     OW 1294   3.928   3.934   2.508
  132SOL    HW1 1295   3.969   3.910   2.596
  132SOL    HW2 1296   3.996   3.923   2.435
  133SOL     OW 1297   4.343   4.311   5.629
  133SOL    HW1 1298   4.402   4.230   5.624
  133SOL    HW2 1299   4.281   4.302   5.707
  134SOL     OW 1300   6.942   2.180   7.009
  134SOL    HW1 1301   6.941   2.109   6.937
  134SOL    HW2 1302   6.949   2.270   6.966
  135SOL     OW 1303   4.557   5.268   3.931
  135SOL    HW1 1304   4.478   5.325   3.909
  135SOL    HW2 1305   4.527   5.190   3.987
  136SOL     OW 1306   3.845   6.132   6.145
  136SOL    HW1 1307   3.884   6.178   6.225
  136SOL    HW2 1308   3.855   6.190   6.064
  137SOL     OW 1309   2.152   4.171   0.161
  137SOL    HW1 1310   2.125   4.232   0.086
  137SOL    HW2 1311   2.126   4.211   0.248
  138SOL     OW 1312   0.821   6.017   1.315
  138SOL    HW1 1313   0.741   6.021   1.374
  138SOL    HW2 1314   0.844   6.109   1.283
  139SOL     OW 1315   1.065   6.941   1.306
  139SOL    HW1 1316   1.007   6.888   1.244
  139SOL    HW2 1317   1.028   6.933   1.399
  140SOL     OW 1318   2.796   6.982   2.606
  140SOL    HW1 1319   2.883   0.009   2.622
  140SOL    HW2 1320   2.814   6.892   2.567
  141SOL     OW 1321   2.400   1.741   0.235
  141SOL    HW1 1322   2.417   1.644   0.253
  141SOL    HW2 1323   2.477   1.795   0.270
  142SOL     OW 1324   1.834   4.606   6.162
  142SOL    HW1 1325   1.826   4.642   6.069
  142SOL    HW2 1326   1.918   4.641   6.204
  143SOL     OW 1327   5.128   6.207   2.139
  143SOL    HW1 1328   5.045   6.261   2.131
  143SOL    HW2 1329   5.113   6.117   2.097
  144SOL     OW 1330   2.279   5.029   3.397
  144SOL    HW1 1331   2.259   4.992   3.488
  144SOL    HW2 1332   2.318   4.957   3.339
  145SOL     OW 1333   6.407   6.083   2.903
  145SOL    HW1 1334   6.461   6.130   2.833
  145SOL    HW2 1335   6.314   6.069   2.870
  146SOL     OW 1336   6.843   1.231   4.252
  146SOL    HW1 1337   6.930   1.188   4.228
  146SOL    HW2 1338   6.841   1.250   4.350
  147SOL     OW 1339   6.425   0.061   5.234
  147SOL    HW1 1340   6.524   0.055   5.227
  147SOL    HW2 1341   6.383   6.996   5.200
  148SOL     OW 1342   1.967   6.892   3.479
  148SOL    HW1 1343   1.992   6.828   3.406
  148SOL    HW2 1344   2.026   6.876   3.558
  149SOL     OW 1345   1.855   2.177   4.997
  149SOL    HW1 1346   1.937   2.231   4.981
  149SOL    HW2 1347   1.774   2.235   4.988
  150SOL     OW 1348   5.290   2.713   4.816
  150SOL    HW1 1349   5.199   2.685   4.786
  150SOL    HW2 1350   5.283   2.791   4.878
  151SOL     OW 1351   5.664   2.896   1.609
  151SOL    HW1 1352   5.702   2.814   1.652
  151SOL    HW2 1353   5.601   2.868   1.535
  152SOL     OW 1354   5.973   2.239   0.152
  152SOL    HW1 1355   5.893   2.198   0.107
  152SOL    HW2 1356   6.032   2.280   0.084
  153SOL     OW 1357   2.028   1.914   4.271
  153SOL    HW1 1358   2.002   1.867   4.187
  153SOL    HW2 1359   2.001   2.010   4.266
  154SOL     OW 1360   0.302   1.593   3.585
  154SOL    HW1 1361   0.305   1.494   3.576
  154SOL    HW2 1362   0.217   1.628   3.545
  155SOL     OW 1363   5.896   5.015   3.314
  155SOL    HW1 1364   5.924   4.935   3.368
  155SOL    HW2 1365   5.796   5.015   3.304
  156SOL     OW 1366   4.350   0.019   1.152
  156SOL    HW1 1367   4.407   7.004   1.078
  156SOL    HW2 1368   4.389   0.104   1.187
  157SOL     OW 1369   4.881   0.892   0.647
  157SOL    HW1 1370   4.842   0.982   0.633
  157SOL    HW2 1371   4.810   0.829   0.679
  158SOL     OW 1372   1.133   2.594   5.625
  158SOL    HW1 1373   1.105   2.684   5.592
  158SOL    HW2 1374   1.231   2.582   5.612
  159SOL     OW 1375   0.086   4.811   6.870
  159SOL    HW1 1376   0.012   4.875   6.848
  159SOL    HW2 1377   0.149   4.805   6.793
  160SOL     OW 1378   3.953   0.173   1.663
  160SOL    HW1 1379   3.872   0.228   1.683
  160SOL    HW2 1380   3.954   0.092   1.721
  161SOL     OW 1381   5.679   6.693   0.778
  161SOL    HW1 1382   5.634   6.779   0.802
  161SOL    HW2 1383   5.634   6.618   0.825
  162SOL     OW 1384   4.338   0.169   5.113
  162SOL    HW1 1385   4.324   0.166   5.014
  162SOL    HW2 1386   4.337   0.076   5.149
  163SOL     OW 1387   1.171   3.846   3.104
  163SOL    HW1 1388   1.081   3.844   3.062
  163SOL    HW2 1389   1.210   3.754   3.106
  164SOL     OW 1390   1.712   2.542   2.319
  164SOL    HW1 1391   1.623   2.585   2.330
  164SOL    HW2 1392   1.783   2.613   2.322
  165SOL     OW 1393   0.247   5.642   4.956
  165SOL    HW1 1394   0.184   5.720   4.951
  165SOL    HW2 1395   0.196   5.557   4.943
  166SOL     OW 1396   0.597   5.197   3.719
  166SOL    HW1 1397   0.693   5.173   3.731
  166SOL    HW2 1398   0.584   5.245   3.632
  167SOL     OW 1399   0.097   1.401   3.232
  167SOL    HW1 1400   0.114   1.452   3.148
  167SOL    HW2 1401   0.084   1.464   3.308
  168SOL     OW 1402   3.447   4.112   4.499
  168SOL    HW1 1403   3.408   4.020   4.496
  168SOL    HW2 1404   3.396   4.168   4.565
  169SOL     OW 1405   4.845   2.919   6.051
  169SOL    HW1 1406   4.811   2.825   6.040
  169SOL    HW2 1407   4.767   2.982   6.051
  170SOL     OW 1408   6.581   5.448   2.779
  170SOL    HW1 1409   6.664   5.394   2.794
  170SOL    HW2 1410   6.501   5.389   2.791
  171SOL     OW 1411   3.741   3.157   0.948
  171SOL    HW1 1412   3.693   3.127   1.031
  171SOL    HW2 1413   3.739   3.085   0.880
  172SOL     OW 1414   1.477   0.764   0.156
  172SOL    HW1 1415   1.496   0.690   0.092
  172SOL    HW2 1416   1.455   0.726   0.246
  173SOL     OW 1417   5.444   0.762   4.790
  173SOL    HW1 1418   5.459   0.860   4.774
  173SOL    HW2 1419   5.529   0.712   4.773
  174SOL     OW 1420   6.453   4.615   4.435
  174SOL    HW1 1421   6.514   4.593   4.359
  174SOL    HW2 1422   6.503   4.612   4.521
  175SOL     OW 1423   0.606   5.583   2.398
  175SOL    HW1 1424   0.539   5.615   2.466
  175SOL    HW2 1425   0.595   5.636   2.314
  176SOL     OW 1426   6.241   4.026   0.600
  176SOL    HW1 1427   6.250   3.929   0.579
  176SOL    HW2 1428   6.184   4.070   0.531
  177SOL     OW 1429   5.257   2.559   3.357
  177SOL    HW1 1430   5.170   2.534   3.399
  177SOL    HW2 1431   5.275   2.497   3.280
  178SOL     OW 1432   1.772   5.073   4.816
  178SOL    HW1 1433   1.857   5.047   4.860
  178SOL    HW2 1434   1.789   5.094   4.719
  179SOL     OW 1435   3.134   4.059   2.172
  179SOL    HW1 1436   3.173   4.007   2.248
  179SOL    HW2 1437   3.095   4.145   2.206
  180SOL     OW 1438   4.366   0.579   5.850
  180SOL    HW1 1439   4.293   0.596   5.784
  180SOL    HW2 1440   4.455   0.591   5.805
  181SOL     OW 1441   3.113   6.563   5.013
  181SOL    HW1 1442   3.106   6.650   5.061
  181SOL    HW2 1443   3.049   6.497   5.053
  182SOL     OW 1444   2.991   2.920   5.638
  182SOL    HW1 1445   3.074   2.959   5.677
  182SOL    HW2 1446   2.991   2.821   5.652
  183SOL     OW 1447   2.038   1.313   2.940
  183SOL    HW1 1448   2.035   1.314   3.040
  183SOL    HW2 1449   1.953   1.351   2.904
  184SOL     OW 1450   5.920   7.009   3.850
  184SOL    HW1 1451   5.963   0.077   3.834
  184SOL    HW2 1452   5.883   6.974   3.764
  185SOL     OW 1453   0.774   5.701   5.657
  185SOL    HW1 1454   0.761   5.705   5.756
  185SOL    HW2 1455   0.689   5.723   5.611
  186SOL     OW 1456   3.472   5.633   0.379
  186SOL    HW1 1457   3.380   5.639   0.418
  186SOL    HW2 1458   3.473   5.562   0.308
  187SOL     OW 1459   3.617   5.341   0.488
  187SOL    HW1 1460   3.674   5.413   0.449
  187SOL    HW2 1461   3.585   5.370   0.579
  188SOL     OW 1462   1.215   4.035   4.196
  188SOL    HW1 1463   1.151   3.958   4.203
  188SOL    HW2 1464   1.270   4.025   4.113
  189SOL     OW 1465   6.150   3.979   5.654
  189SOL    HW1 1466   6.132   3.925   5.572
  189SOL    HW2 1467   6.081   3.959   5.723
  190SOL     OW 1468   5.716   6.351   6.859
  190SOL    HW1 1469   5.632   6.405   6.869
  190SOL    HW2 1470   5.755   6.333   6.949
  191SOL     OW 1471   2.390   3.458   6.090
  191SOL    HW1 1472   2.431   3.528   6.148
  191SOL    HW2 1473   2.380   3.494   5.997
  192SOL     OW 1474   0.980   0.008   0.745
  192SOL    HW1 1475   1.042   0.077   0.781
  192SOL    HW2 1476   1.032   6.960   0.693
  193SOL     OW 1477   2.803   6.451   1.698
  193SOL    HW1 1478   2.744   6.450   1.617
  193SOL    HW2 1479   2.843   6.542   1.709
  194SOL     OW 1480   4.431   6.442   3.640
  194SOL    HW1 1481   4.504   6.498   3.601
  194SOL    HW2 1482   4.457   6.414   3.733
  195SOL     OW 1483   3.134   1.186   1.344
  195SOL    HW1 1484   3.050   1.173   1.396
  195SOL    HW2 1485   3.212   1.155   1.398
  196SOL     OW 1486   4.007   2.992   1.403
  196SOL    HW1 1487   3.966   3.049   1.332
  196SOL    HW2 1488   4.013   3.044   1.488
  197SOL     OW 1489   0.642   6.717   1.448
  197SOL    HW1 1490   0.739   6.694   1.461
  197SOL    HW2 1491   0.610   6.678   1.362
  198SOL     OW 1492   6.165   0.203   5.730
  198SOL    HW1 1493   6.236   0.142   5.767
  198SOL    HW2 1494   6.131   0.165   5.644
  199SOL     OW 1495   1.717   0.964   3.292
  199SOL    HW1 1496   1.667   1.006   3.368
  199SOL    HW2 1497   1.729   1.032   3.220
  200SOL     OW 1498   1.727   3.455   3.375
  200SOL    HW1 1499   1.655   3.440   3.307
  200SOL    HW2 1500   1.697   3.418   3.463
  201SOL     OW 1501   4.854   1.141   6.767
  201SOL    HW1 1502   4.899   1.072   6.824
  201SOL    HW2 1503   4.763   1.161   6.805
  202SOL     OW 1504   4.165   0.739   3.088
  202SOL    HW1 1505   4.111   0.660   3.057
  202SOL    HW2 1506   4.260   0.729   3.057
  203SOL     OW 1507   5.636   3.230   0.930
  203SOL    HW1 1508   5.711   3.182   0.886
  203SOL    HW2 1509   5.579   3.273   0.859
  204SOL     OW 1510   2.527   5.919   0.741
  204SOL    HW1 1511   2.464   5.911   0.819
  204SOL    HW2 1512   2.620   5.927   0.776
  205SOL     OW 1513   5.257   0.524   1.149
  205SOL    HW1 1514   5.290   0.504   1.056
  205SOL    HW2 1515   5.305   0.465   1.214
  206SOL     OW 1516   0.270   5.688   1.527
  206SOL    HW1 1517   0.241   5.715   1.435
  206SOL    HW2 1518   0.265   5.589   1.536
  207SOL     OW 1519   6.758   2.405   5.746
  207SOL    HW1 1520   6.702   2.470   5.695
  207SOL    HW2 1521   6.722   2.312   5.733
  208SOL     OW 1522   4.905   3.508   1.001
  208SOL    HW1 1523   4.861   3.592   1.034
  208SOL    HW2 1524   4.877   3.431   1.058
  209SOL     OW 1525   6.118   0.487   4.342
  209SOL    HW1 1526   6.029   0.443   4.354
  209SOL    HW2 1527   6.173   0.474   4.424
  210SOL     OW 1528   4.671   2.131   6.715
  210SOL    HW1 1529   4.583   2.154   6.674
  210SOL    HW2 1530   4.656   2.088   6.804
  211SOL     OW 1531   0.262   4.173   2.236
  211SOL    HW1 1532   0.203   4.094   2.224
  211SOL    HW2 1533   0.340   4.148   2.294
  212SOL     OW 1534   1.264   5.499   4.821
  212SOL    HW1 1535   1.242   5.586   4.865
  212SOL    HW2 1536   1.320   5.444   4.883
  213SOL     OW 1537   4.493   2.453   1.458
  213SOL    HW1 1538   4.507   2.389   1.382
  213SOL    HW2 1539   4.496   2.403   1.545
  214SOL     OW 1540   0.386   5.527   3.997
  214SOL    HW1 1541   0.297   5.518   4.043
  214SOL    HW2 1542   0.396   5.453   3.930
  215SOL     OW 1543   4.027   3.803   3.887
  215SOL    HW1 1544   4.053   3.836   3.797
  215SOL    HW2 1545   4.079   3.852   3.957
  216SOL     OW 1546   3.913   6.751   4.932
  216SOL    HW1 1547   3.937   6.809   5.010
  216SOL    HW2 1548   3.814   6.753   4.918
  217SOL     OW 1549   6.200   2.023   4.876
  217SOL    HW1 1550   6.211   2.003   4.779
  217SOL    HW2 1551   6.211   2.122   4.890
  218SOL     OW 1552   2.765   4.277   5.875
  218SOL    HW1 1553   2.737   4.358   5.927
  218SOL    HW2 1554   2.843   4.300   5.818
  219SOL     OW 1555   3.407   6.355   6.422
  219SOL    HW1 1556   3.366   6.302   6.496
  219SOL    HW2 1557   3.505   6.333   6.416
  220SOL     OW 1558   1.180   5.264   0.413
  220SOL    HW1 1559   1.258   5.204   0.425
  220SOL    HW2 1560   1.184   5.305   0.322
  221SOL     OW 1561   6.298   4.009   4.757
  221SOL    HW1 1562   6.229   4.081   4.755
  221SOL    HW2 1563   6.267   3.932   4.702
  222SOL     OW 1564   1.951   0.282   4.468
  222SOL    HW1 1565   1.913   0.366   4.507
  222SOL    HW2 1566   1.893   0.205   4.495
  223SOL     OW 1567   5.598   5.468   1.778
  223SOL    HW1 1568   5.615   5.416   1.861
  223SOL    HW2 1569   5.529   5.538   1.795
  224SOL     OW 1570   5.183   4.559   2.909
  224SOL    HW1 1571   5.231   4.485   2.862
  224SOL    HW2 1572   5.113   4.597   2.848
  225SOL     OW 1573   4.402   5.894   2.052
  225SOL    HW1 1574   4.460   5.813   2.051
  225SOL    HW2 1575   4.360   5.905   2.142
  226SOL     OW 1576   1.545   5.960   2.284
  226SOL    HW1 1577   1.566   5.969   2.187
  226SOL    HW2 1578   1.557   5.865   2.313
  227SOL     OW 1579   0.631   3.930   2.802
  227SOL    HW1 1580   0.628   3.890   2.894
  227SOL    HW2 1581   0.622   4.029   2.808
  228SOL     OW 1582   3.984   5.955   3.387
  228SOL    HW1 1583   4.041   6.008   3.450
  228SOL    HW2 1584   3.923   5.896   3.440
  229SOL     OW 1585   5.754   6.161   2.508
  229SOL    HW1 1586   5.744   6.106   2.424
  229SOL    HW2 1587   5.827   6.122   2.564
  230SOL     OW 1588   1.475   4.462   5.572
  230SOL    HW1 1589   1.518   4.487   5.485
  230SOL    HW2 1590   1.385   4.423   5.555
  231SOL     OW 1591   0.322   1.880   6.360
  231SOL    HW1 1592   0.349   1.827   6.441
  231SOL    HW2 1593   0.291   1.817   6.289
  232SOL     OW 1594   1.884   3.019   6.800
  232SOL    HW1 1595   1.935   3.038   6.716
  232SOL    HW2 1596   1.904   3.089   6.868
  233SOL     OW 1597   3.508   6.889   0.275
  233SOL    HW1 1598   3.412   6.870   0.295
  233SOL    HW2 1599   3.565   6.814   0.307
  234SOL     OW 1600   1.582   4.956   0.199
  234SOL    HW1 1601   1.664   4.922   0.244
  234SOL    HW2 1602   1.531   4.880   0.159
  235SOL     OW 1603   3.904   3.235   5.893
  235SOL    HW1 1604   3.959   3.268   5.817
  235SOL    HW2 1605   3.854   3.153   5.865
  236SOL     OW 1606   6.974   0.196   6.849
  236SOL    HW1 1607   6.883   0.223   6.880
  236SOL    HW2 1608   6.967   0.122   6.782
  237SOL     OW 1609   6.145   6.983   2.272
  237SOL    HW1 1610   6.186   0.052   2.295
  237SOL    HW2 1611   6.059   6.998   2.223
  238SOL     OW 1612   0.713   2.102   3.513
  238SOL    HW1 1613   0.689   2.034   3.582
  238SOL    HW2 1614   0.642   2.105   3.443
  239SOL     OW 1615   6.635   4.849   6.747
  239SOL    HW1 1616   6.582   4.827   6.828
  239SOL    HW2 1617   6.611   4.786   6.673
  240SOL     OW 1618   0.204   2.628   4.025
  240SOL    HW1 1619   0.123   2.590   3.979
  240SOL    HW2 1620   0.281   2.565   4.015
  241SOL     OW 1621   6.111   2.573   4.334
  241SOL    HW1 1622   6.134   2.626   4.415
  241SOL    HW2 1623   6.095   2.477   4.360
  242SOL     OW 1624   2.786   2.217   3.332
  242SOL    HW1 1625   2.884   2.217   3.312
  242SOL    HW2 1626   2.772   2.224   3.431
  243SOL     OW 1627   4.864   1.385   6.625
  243SOL    HW1 1628   4.928   1.347   6.692
  243SOL    HW2 1629   4.833   1.312   6.563
  244SOL     OW 1630   1.375   0.730   5.845
  244SOL    HW1 1631   1.418   0.711   5.757
  244SOL    HW2 1632   1.432   0.795   5.896
  245SOL     OW 1633   4.864   1.865   4.609
  245SOL    HW1 1634   4.952   1.819   4.622
  245SOL    HW2 1635   4.816   1.871   4.696
  246SOL     OW 1636   5.792   3.651   4.385
  246SOL    HW1 1637   5.731   3.606   4.320
  246SOL    HW2 1638   5.807   3.590   4.464
  247SOL     OW 1639   2.043   0.477   3.092
  247SOL    HW1 1640   2.101   0.500   3.170
  247SOL    HW2 1641   2.040   0.378   3.081
  248SOL     OW 1642   6.686   2.606   3.392
  248SOL    HW1 1643   6.754   2.665   3.348
  248SOL    HW2 1644   6.608   2.662   3.422
  249SOL     OW 1645   2.188   5.987   5.024
  249SOL    HW1 1646   2.137   6.044   5.089
  249SOL    HW2 1647   2.124   5.936   4.967
  250SOL     OW 1648   5.529   3.021   6.753
  250SOL    HW1 1649   5.612   2.966   6.757
  250SOL    HW2 1650   5.449   2.962   6.768
  251SOL     OW 1651   2.587   0.125   1.929
  251SOL    HW1 1652   2.635   0.068   1.996
  251SOL    HW2 1653   2.556   0.210   1.972
  252SOL     OW 1654   6.845   2.942   6.761
  252SOL    HW1 1655   6.810   2.859   6.805
  252SOL    HW2 1656   6.795   3.022   6.795
  253SOL     OW 1657   1.954   4.851   5.767
  253SOL    HW1 1658   1.998   4.879   5.681
  253SOL    HW2 1659   1.973   4.919   5.838
  254SOL     OW 1660   4.694   3.367   6.939
  254SOL    HW1 1661   4.747   3.408   7.013
  254SOL    HW2 1662   4.729   3.276   6.919
  255SOL     OW 1663   4.154   2.229   2.264
  255SOL    HW1 1664   4.205   2.201   2.182
  255SOL    HW2 1665   4.068   2.273   2.235
  256SOL     OW 1666   0.603   6.257   1.426
  256SOL    HW1 1667   0.530   6.220   1.368
  256SOL    HW2 1668   0.624   6.192   1.499
  257SOL     OW 1669   3.058   5.917   6.572
  257SOL    HW1 1670   3.158   5.911   6.576
  257SOL    HW2 1671   3.030   5.932   6.477
  258SOL     OW 1672   4.843   5.357   4.465
  258SOL    HW1 1673   4.864   5.323   4.373
  258SOL    HW2 1674   4.745   5.378   4.472
  259SOL     OW 1675   0.111   1.229   2.306
  259SOL    HW1 1676   0.144   1.225   2.400
  259SOL    HW2 1677   0.076   1.140   2.279
  260SOL     OW 1678   6.166   6.575   5.470
  260SOL    HW1 1679   6.092   6.509   5.485
  260SOL    HW2 1680   6.216   6.590   5.555
  261SOL     OW 1681   0.647   1.379   3.213
  261SOL    HW1 1682   0.552   1.364   3.187
  261SOL    HW2 1683   0.661   1.477   3.231
  262SOL     OW 1684   1.998   5.335   0.818
  262SOL    HW1 1685   1.951   5.248   0.809
  262SOL    HW2 1686   1.931   5.410   0.819
  263SOL     OW 1687   0.889   5.084   4.839
  263SOL    HW1 1688   0.801   5.046   4.808
  263SOL    HW2 1689   0.948   5.011   4.871
  264SOL     OW 1690   3.729   3.985   0.816
  264SOL    HW1 1691   3.818   4.028   0.806
  264SOL    HW2 1692   3.694   4.001   0.908
  265SOL     OW 1693   4.734   5.628   4.202
  265SOL    HW1 1694   4.667   5.618   4.276
  265SOL    HW2 1695   4.760   5.724   4.193
  266SOL     OW 1696   4.347   3.668   0.093
  266SOL    HW1 1697   4.338   3.570   0.110
  266SOL    HW2 1698   4.399   3.682   0.008
  267SOL     OW 1699   2.332   1.760   6.486
  267SOL    HW1 1700   2.406   1.701   6.454
  267SOL    HW2 1701   2.345   1.853   6.451
  268SOL     OW 1702   1.412   3.860   2.532
  268SOL    HW1 1703   1.391   3.912   2.449
  268SOL    HW2 1704   1.355   3.892   2.607
  269SOL     OW 1705   3.051   1.302   6.077
  269SOL    HW1 1706   3.087   1.209   6.072
  269SOL    HW2 1707   2.962   1.301   6.122
  270SOL     OW 1708   5.867   5.227   4.890
  270SOL    HW1 1709   5.801   5.300   4.905
  270SOL    HW2 1710   5.839   5.173   4.811
  271SOL     OW 1711   2.368   0.778   0.355
  271SOL    HW1 1712   2.312   0.860   0.355
  271SOL    HW2 1713   2.450   0.793   0.299
  272SOL     OW 1714   5.485   4.391   6.957
  272SOL    HW1 1715   5.422   4.377   6.880
  272SOL    HW2 1716   5.560   4.449   6.929
  273SOL     OW 1717   0.349   6.167   4.369
  273SOL    HW1 1718   0.299   6.154   4.283
  273SOL    HW2 1719   0.430   6.109   4.368
  274SOL     OW 1720   5.159   3.135   2.253
  274SOL    HW1 1721   5.139   3.226   2.217
  274SOL    HW2 1722   5.197   3.078   2.180
  275SOL     OW 1723   5.877   4.766   5.414
  275SOL    HW1 1724   5.802   4.708   5.381
  275SOL    HW2 1725   5.839   4.842   5.466
  276SOL     OW 1726   0.851   0.450   4.629
  276SOL    HW1 1727   0.835   0.411   4.538
  276SOL    HW2 1728   0.806   0.539   4.635
  277SOL     OW 1729   4.241   3.416   5.782
  277SOL    HW1 1730   4.151   3.392   5.745
  277SOL    HW2 1731   4.277   3.340   5.836
  278SOL     OW 1732   5.949   4.872   1.926
  278SOL    HW1 1733   5.980   4.941   1.861
  278SOL    HW2 1734   5.946   4.783   1.882
  279SOL     OW 1735   6.695   3.179   4.184
  279SOL    HW1 1736   6.644   3.118   4.244
  279SOL    HW2 1737   6.779   3.133   4.153
  280SOL     OW 1738   4.623   1.032   2.944
  280SOL    HW1 1739   4.560   1.050   3.020
  280SOL    HW2 1740   4.578   0.974   2.877
  281SOL     OW 1741   5.341   6.044   5.946
  281SOL    HW1 1742   5.380   5.951   5.942
  281SOL    HW2 1743   5.270   6.047   6.016
  282SOL     OW 1744   0.463   1.929   6.819
  282SOL    HW1 1745   0.511   1.995   6.761
  282SOL    HW2 1746   0.379   1.970   6.854
  283SOL     OW 1747   6.331   4.156   1.841
  283SOL    HW1 1748   6.246   4.164   1.893
  283SOL    HW2 1749   6.374   4.068   1.860
  284SOL     OW 1750   5.685   6.781   2.790
  284SOL    HW1 1751   5.735   6.846   2.848
  284SOL    HW2 1752   5.669   6.822   2.700
  285SOL     OW 1753   4.636   6.117   6.321
  285SOL    HW1 1754   4.694   6.191   6.354
  285SOL    HW2 1755   4.567   6.096   6.391
  286SOL     OW 1756   3.594   5.461   5.558
  286SOL    HW1 1757   3.566   5.492   5.467
  286SOL    HW2 1758   3.611   5.363   5.555
  287SOL     OW 1759   3.507   6.493   0.582
  287SOL    HW1 1760   3.500   6.425   0.655
  287SOL    HW2 1761   3.567   6.567   0.612
  288SOL     OW 1762   3.314   0.968   0.718
  288SOL    HW1 1763   3.263   1.001   0.798
  288SOL    HW2 1764   3.392   1.029   0.701
  289SOL     OW 1765   5.242   4.842   5.132
  289SOL    HW1 1766   5.190   4.851   5.217
  289SOL    HW2 1767   5.303   4.763   5.138
  290SOL     OW 1768   2.965   0.854   4.700
  290SOL    HW1 1769   2.884   0.899   4.663
  290SOL    HW2 1770   3.044   0.875   4.643
  291SOL     OW 1771   5.852   1.315   4.756
  291SOL    HW1 1772   5.897   1.258   4.687
  291SOL    HW2 1773   5.914   1.388   4.784
  292SOL     OW 1774   2.079   0.641   4.107
  292SOL    HW1 1775   2.062   0.612   4.012
  292SOL    HW2 1776   2.153   0.708   4.108
  293SOL     OW 1777   5.568   1.038   3.192
  293SOL    HW1 1778   5.645   1.006   3.137
  293SOL    HW2 1779   5.583   1.134   3.217
  294SOL     OW 1780   6.529   0.852   6.661
  294SOL    HW1 1781   6.608   0.793   6.679
  294SOL    HW2 1782   6.557   0.930   6.606
  295SOL     OW 1783   0.571   0.859   5.021
  295SOL    HW1 1784   0.586   0.957   5.007
  295SOL    HW2 1785   0.646   0.821   5.075
  296SOL     OW 1786   7.015   1.216   6.595
  296SOL    HW1 1787   0.015   1.282   6.523
  296SOL    HW2 1788   0.064   1.223   6.667
  297SOL     OW 1789   4.931   4.125   3.103
  297SOL    HW1 1790   4.882   4.199   3.058
  297SOL    HW2 1791   5.004   4.092   3.043
  298SOL     OW 1792   3.983   6.885   5.171
  298SOL    HW1 1793   3.923   6.955   5.210
  298SOL    HW2 1794   4.056   6.929   5.118
  299SOL     OW 1795   0.363   1.236   6.308
  299SOL    HW1 1796   0.444   1.212   6.254
  299SOL    HW2 1797   0.301   1.157   6.311
  300SOL     OW 1798   4.133   6.005   4.426
  300SOL    HW1 1799   4.039   6.031   4.448
  300SOL    HW2 1800   4.135   5.914   4.384
  301SOL     OW 1801   6.584   6.785   5.016
  301SOL    HW1 1802   6.564   6.711   5.080
  301SOL    HW2 1803   6.501   6.812   4.968
  302SOL     OW 1804   0.652   6.816   2.098
  302SOL    HW1 1805   0.683   6.858   2.013
  302SOL    HW2 1806   0.726   6.820   2.166
  303SOL     OW 1807   4.933   5.621   2.717
  303SOL    HW1 1808   4.928   5.537   2.772
  303SOL    HW2 1809   5.012   5.617   2.656
  304SOL     OW 1810   1.373   1.405   4.947
  304SOL    HW1 1811   1.371   1.336   5.019
  304SOL    HW2 1812   1.466   1.442   4.938
  305SOL     OW 1813   2.887   1.862   1.305
  305SOL    HW1 1814   2.867   1.825   1.396
  305SOL    HW2 1815   2.861   1.796   1.235
  306SOL     OW 1816   0.470   6.619   2.979
  306SOL    HW1 1817   0.372   6.612   2.958
  306SOL    HW2 1818   0.514   6.679   2.913
  307SOL     OW 1819   3.972   3.800   4.686
  307SOL    HW1 1820   4.033   3.753   4.621
  307SOL    HW2 1821   3.898   3.739   4.713
  308SOL     OW 1822   6.074   2.917   1.398
  308SOL    HW1 1823   6.126   2.854   1.341
  308SOL    HW2 1824   6.101   3.011   1.378
  309SOL     OW 1825   1.909   4.975   0.552
  309SOL    HW1 1826   1.913   5.055   0.612
  309SOL    HW2 1827   2.000   4.935   0.543
  310SOL     OW 1828   4.951   6.502   5.288
  310SOL    HW1 1829   5.030   6.544   5.245
  310SOL    HW2 1830   4.900   6.450   5.219
  311SOL     OW 1831   1.497   6.213   1.903
  311SOL    HW1 1832   1.562   6.210   1.980
  311SOL    HW2 1833   1.541   6.176   1.821
  312SOL     OW 1834   3.457   0.820   4.234
  312SOL    HW1 1835   3.469   0.802   4.137
  312SOL    HW2 1836   3.512   0.755   4.287
  313SOL     OW 1837   3.702   3.360   3.350
  313SOL    HW1 1838   3.604   3.342   3.351
  313SOL    HW2 1839   3.731   3.397   3.438
  314SOL     OW 1840   2.185   4.354   6.078
  314SOL    HW1 1841   2.094   4.336   6.115
  314SOL    HW2 1842   2.189   4.448   6.044
  315SOL     OW 1843   5.907   0.158   4.889
  315SOL    HW1 1844   5.919   0.078   4.831
  315SOL    HW2 1845   5.978   0.226   4.867
  316SOL     OW 1846   4.173   0.984   4.656
  316SOL    HW1 1847   4.194   1.061   4.716
  316SOL    HW2 1848   4.253   0.963   4.599
  317SOL     OW 1849   0.543   1.482   2.071
  317SOL    HW1 1850   0.585   1.565   2.034
  317SOL    HW2 1851   0.598   1.403   2.044
  318SOL     OW 1852   1.098   1.521   3.569
  318SOL    HW1 1853   1.175   1.508   3.631
  318SOL    HW2 1854   1.046   1.602   3.597
  319SOL     OW 1855   0.453   1.921   2.109
  319SOL    HW1 1856   0.370   1.915   2.164
  319SOL    HW2 1857   0.429   1.930   2.012
  320SOL     OW 1858   5.166   1.113   6.387
  320SOL    HW1 1859   5.208   1.022   6.377
  320SOL    HW2 1860   5.156   1.134   6.484
  321SOL     OW 1861   4.405   3.487   1.355
  321SOL    HW1 1862   4.421   3.442   1.443
  321SOL    HW2 1863   4.315   3.460   1.320
  322SOL     OW 1864   2.934   1.990   0.498
  322SOL    HW1 1865   2.871   1.995   0.576
  322SOL    HW2 1866   2.988   1.906   0.504
  323SOL     OW 1867   0.470   4.430   2.212
  323SOL    HW1 1868   0.446   4.491   2.287
  323SOL    HW2 1869   0.459   4.335   2.241
  324SOL     OW 1870   6.319   0.460   3.457
  324SOL    HW1 1871   6.284   0.491   3.546
  324SOL    HW2 1872   6.279   0.371   3.434
  325SOL     OW 1873   6.352   2.849   0.874
  325SOL    HW1 1874   6.288   2.797   0.818
  325SOL    HW2 1875   6.309   2.935   0.902
  326SOL     OW 1876   6.221   5.585   6.156
  326SOL    HW1 1877   6.278   5.666   6.172
  326SOL    HW2 1878   6.129   5.602   6.192
  327SOL     OW 1879   4.118   6.631   6.320
  327SOL    HW1 1880   4.140   6.533   6.321
  327SOL    HW2 1881   4.135   6.669   6.410
  328SOL     OW 1882   2.178   4.154   3.524
  328SOL    HW1 1883   2.243   4.197   3.587
  328SOL    HW2 1884   2.221   4.141   3.435
  329SOL     OW 1885   2.946   3.293   2.961
  329SOL    HW1 1886   2.972   3.232   2.886
  329SOL    HW2 1887   2.847   3.288   2.974
  330SOL     OW 1888   2.201   3.990   6.452
  330SOL    HW1 1889   2.273   3.921   6.442
  330SOL    HW2 1890   2.241   4.079   6.471
  331SOL     OW 1891   5.029   5.787   3.860
  331SOL    HW1 1892   5.032   5.785   3.960
  331SOL    HW2 1893   5.048   5.879   3.828
  332SOL     OW 1894   6.412   2.479   2.604
  332SOL    HW1 1895   6.394   2.578   2.604
  332SOL    HW2 1896   6.341   2.433   2.658
  333SOL     OW 1897   3.257   6.445   3.715
  333SOL    HW1 1898   3.186   6.510   3.688
  333SOL    HW2 1899   3.260   6.439   3.815
  334SOL     OW 1900   3.776   3.342   4.648
  334SOL    HW1 1901   3.750   3.275   4.718
  334SOL    HW2 1902   3.866   3.321   4.613
  335SOL     OW 1903   4.138   1.398   0.320
  335SOL    HW1 1904   4.198   1.418   0.398
  335SOL    HW2 1905   4.191   1.352   0.249
  336SOL     OW 1906   3.794   2.010   4.840
  336SOL    HW1 1907   3.815   2.084   4.904
  336SOL    HW2 1908   3.696   1.989   4.844
  337SOL     OW 1909   1.272   1.961   5.160
  337SOL    HW1 1910   1.319   2.031   5.214
  337SOL    HW2 1911   1.227   2.004   5.082
  338SOL     OW 1912   5.174   1.560   1.877
  338SOL    HW1 1913   5.154   1.650   1.837
  338SOL    HW2 1914   5.223   1.571   1.963
  339SOL     OW 1915   3.357   4.956   5.666
  339SOL    HW1 1916   3.345   5.051   5.695
  339SOL    HW2 1917   3.380   4.953   5.569
  340SOL     OW 1918   5.608   3.794   4.783
  340SOL    HW1 1919   5.527   3.813   4.838
  340SOL    HW2 1920   5.581   3.776   4.688
  341SOL     OW 1921   6.103   0.327   1.643
  341SOL    HW1 1922   6.150   0.411   1.669
  341SOL    HW2 1923   6.053   0.291   1.722
  342SOL     OW 1924   4.663   0.907   1.559
  342SOL    HW1 1925   4.651   0.816   1.519
  342SOL    HW2 1926   4.683   0.973   1.487
  343SOL     OW 1927   5.624   0.840   1.936
  343SOL    HW1 1928   5.538   0.884   1.960
  343SOL    HW2 1929   5.609   0.775   1.861
  344SOL     OW 1930   6.469   2.775   1.469
  344SOL    HW1 1931   6.482   2.745   1.375
  344SOL    HW2 1932   6.470   2.875   1.473
  345SOL     OW 1933   0.325   2.998   3.795
  345SOL    HW1 1934   0.404   3.027   3.849
  345SOL    HW2 1935   0.336   3.028   3.700
  346SOL     OW 1936   0.864   6.958   3.066
  346SOL    HW1 1937   0.862   0.011   3.135
  346SOL    HW2 1938   0.906   6.993   2.983
  347SOL     OW 1939   1.812   4.253   1.565
  347SOL    HW1 1940   1.778   4.171   1.519
  347SOL    HW2 1941   1.736   4.317   1.580
  348SOL     OW 1942   5.802   4.914   1.097
  348SOL    HW1 1943   5.756   5.002   1.091
  348SOL    HW2 1944   5.901   4.927   1.095
  349SOL     OW 1945   6.026   5.463   0.027
  349SOL    HW1 1946   5.947   5.445   6.989
  349SOL    HW2 1947   5.994   5.493   0.117
  350SOL     OW 1948   2.100   0.289   0.893
  350SOL    HW1 1949   2.067   0.277   0.799
  350SOL    HW2 1950   2.184   0.237   0.906
  351SOL     OW 1951   3.663   4.244   1.149
  351SOL    HW1 1952   3.726   4.235   1.072
  351SOL    HW2 1953   3.658   4.158   1.199
  352SOL     OW 1954   3.970   0.800   2.269
  352SOL    HW1 1955   4.016   0.716   2.239
  352SOL    HW2 1956   3.891   0.776   2.326
  353SOL     OW 1957   2.840   6.107   0.578
  353SOL    HW1 1958   2.855   6.139   0.485
  353SOL    HW2 1959   2.772   6.165   0.623
  354SOL     OW 1960   2.323   2.225   0.392
  354SOL    HW1 1961   2.242   2.280   0.372
  354SOL    HW2 1962   2.351   2.175   0.310
  355SOL     OW 1963   0.433   2.359   2.063
  355SOL    HW1 1964   0.389   2.448   2.070
  355SOL    HW2 1965   0.470   2.347   1.971
  356SOL     OW 1966   3.099   0.345   5.982
  356SOL    HW1 1967   3.183   0.353   5.928
  356SOL    HW2 1968   3.023   0.322   5.921
  357SOL     OW 1969   6.312   5.965   4.558
  357SOL    HW1 1970   6.345   6.049   4.514
  357SOL    HW2 1971   6.245   5.921   4.499
  358SOL     OW 1972   3.520   5.979   6.996
  358SOL    HW1 1973   3.549   5.940   0.064
  358SOL    HW2 1974   3.595   5.972   6.930
  359SOL     OW 1975   1.812   2.289   0.930
  359SOL    HW1 1976   1.861   2.210   0.966
  359SOL    HW2 1977   1.869   2.335   0.861
  360SOL     OW 1978   1.980   4.372   2.935
  360SOL    HW1 1979   2.058   4.314   2.911
  360SOL    HW2 1980   1.992   4.462   2.892
  361SOL     OW 1981   6.317   3.404   2.085
  361SOL    HW1 1982   6.347   3.311   2.106
  361SOL    HW2 1983   6.395   3.458   2.055
  362SOL     OW 1984   3.929   3.580   3.053
  362SOL    HW1 1985   3.974   3.660   3.013
  362SOL    HW2 1986   3.959   3.570   3.148
  363SOL     OW 1987   4.958   4.995   0.697
  363SOL    HW1 1988   4.893   5.031   0.764
  363SOL    HW2 1989   4.915   4.991   0.607
  364SOL     OW 1990   1.157   0.787   0.260
  364SOL    HW1 1991   1.238   0.761   0.313
  364SOL    HW2 1992   1.099   0.847   0.315
  365SOL     OW 1993   4.861   0.500   4.086
  365SOL    HW1 1994   4.827   0.576   4.031
  365SOL    HW2 1995   4.784   0.449   4.125
  366SOL     OW 1996   5.185   1.709   0.239
  366SOL    HW1 1997   5.198   1.775   0.164
  366SOL    HW2 1998   5.272   1.696   0.286
  367SOL     OW 1999   5.959   0.135   6.826
  367SOL    HW1 2000   6.019   0.058   6.848
  367SOL    HW2 2001   5.866   0.102   6.810
  368SOL     OW 2002   2.787   1.415   5.900
  368SOL    HW1 2003   2.854   1.457   5.840
  368SOL    HW2 2004   2.697   1.414   5.856
  369SOL     OW 2005   5.188   3.744   0.478
  369SOL    HW1 2006   5.116   3.706   0.537
  369SOL    HW2 2007   5.156   3.828   0.435
  370SOL     OW 2008   1.922   2.130   3.668
  370SOL    HW1 2009   1.878   2.042   3.646
  370SOL    HW2 2010   1.997   2.146   3.604
  371SOL     OW 2011   2.969   4.648   0.553
  371SOL    HW1 2012   2.917   4.587   0.612
  371SOL    HW2 2013   2.907   4.716   0.513
  372SOL     OW 2014   3.066   6.205   5.961
  372SOL    HW1 2015   3.060   6.293   6.007
  372SOL    HW2 2016   2.990   6.195   5.897
  373SOL     OW 2017   5.493   4.550   2.869
  373SOL    HW1 2018   5.424   4.622   2.864
  373SOL    HW2 2019   5.448   4.461   2.876
  374SOL     OW 2020   2.420   2.408   2.238
  374SOL    HW1 2021   2.381   2.316   2.250
  374SOL    HW2 2022   2.365   2.474   2.288
  375SOL     OW 2023   6.994   5.515   3.691
  375SOL    HW1 2024   7.006   5.510   3.791
  375SOL    HW2 2025   0.063   5.526   3.648
  376SOL     OW 2026   4.645   0.786   3.517
  376SOL    HW1 2027   4.732   0.816   3.556
  376SOL    HW2 2028   4.644   0.686   3.511
  377SOL     OW 2029   2.754   3.452   6.125
  377SOL    HW1 2030   2.706   3.540   6.120
  377SOL    HW2 2031   2.835   3.454   6.066
  378SOL     OW 2032   4.168   0.676   1.138
  378SOL    HW1 2033   4.153   0.645   1.044
  378SOL    HW2 2034   4.194   0.773   1.137
  379SOL     OW 2035   3.237   3.423   0.117
  379SOL    HW1 2036   3.185   3.341   0.140
  379SOL    HW2 2037   3.302   3.443   0.190
  380SOL     OW 2038   4.827   1.810   0.236
  380SOL    HW1 2039   4.756   1.820   0.306
  380SOL    HW2 2040   4.862   1.900   0.211
  381SOL     OW 2041   0.915   3.267   2.291
  381SOL    HW1 2042   0.821   3.244   2.318
  381SOL    HW2 2043   0.972   3.185   2.299
  382SOL     OW 2044   6.134   0.294   0.768
  382SOL    HW1 2045   6.124   0.217   0.706
  382SOL    HW2 2046   6.214   0.348   0.743
  383SOL     OW 2047   5.316   3.368   1.008
  383SOL    HW1 2048   5.375   3.310   1.065
  383SOL    HW2 2049   5.352   3.370   0.915
  384SOL     OW 2050   1.082   2.633   4.919
  384SOL    HW1 2051   1.125   2.568   4.982
  384SOL    HW2 2052   1.149   2.661   4.850
  385SOL     OW 2053   4.744   3.027   6.636
  385SOL    HW1 2054   4.660   3.034   6.584
  385SOL    HW2 2055   4.795   2.945   6.607
  386SOL     OW 2056   3.332   5.762   5.195
  386SOL    HW1 2057   3.262   5.702   5.155
  386SOL    HW2 2058   3.397   5.706   5.247
  387SOL     OW 2059   2.431   6.633   3.680
  387SOL    HW1 2060   2.391   6.705   3.623
  387SOL    HW2 2061   2.437   6.548   3.628
  388SOL     OW 2062   1.408   5.738   5.575
  388SOL    HW1 2063   1.337   5.670   5.561
  388SOL    HW2 2064   1.432   5.780   5.487
  389SOL     OW 2065   3.251   2.335   0.038
  389SOL    HW1 2066   3.271   2.363   6.964
  389SOL    HW2 2067   3.185   2.261   0.037
  390SOL     OW 2068   3.257   1.456   3.992
  390SOL    HW1 2069   3.162   1.430   4.012
  390SOL    HW2 2070   3.288   1.522   4.060
  391SOL     OW 2071   0.584   1.637   0.349
  391SOL    HW1 2072   0.569   1.561   0.286
  391SOL    HW2 2073   0.496   1.680   0.371
  392SOL     OW 2074   4.245   5.541   4.452
  392SOL    HW1 2075   4.262   5.468   4.386
  392SOL    HW2 2076   4.308   5.617   4.435
  393SOL     OW 2077   6.177   3.296   5.838
  393SOL    HW1 2078   6.096   3.353   5.856
  393SOL    HW2 2079   6.206   3.309   5.743
  394SOL     OW 2080   1.898   1.350   6.441
  394SOL    HW1 2081   1.882   1.445   6.471
  394SOL    HW2 2082   1.962   1.350   6.364
  395SOL     OW 2083   0.089   3.161   1.116
  395SOL    HW1 2084   0.148   3.089   1.080
  395SOL    HW2 2085   0.005   3.167   1.061
  396SOL     OW 2086   3.919   2.834   5.602
  396SOL    HW1 2087   3.908   2.881   5.515
  396SOL    HW2 2088   3.863   2.752   5.603
  397SOL     OW 2089   4.707   0.126   6.542
  397SOL    HW1 2090   4.681   0.094   6.451
  397SOL    HW2 2091   4.628   0.169   6.587
  398SOL     OW 2092   6.419   4.014   2.623
  398SOL    HW1 2093   6.338   3.980   2.577
  398SOL    HW2 2094   6.392   4.071   2.701
  399SOL     OW 2095   3.092   5.528   1.293
  399SOL    HW1 2096   2.999   5.552   1.318
  399SOL    HW2 2097   3.091   5.480   1.205
  400SOL     OW 2098   2.497   4.491   5.760
  400SOL    HW1 2099   2.590   4.523   5.778
  400SOL    HW2 2100   2.483   4.401   5.801
  401SOL     OW 2101   6.249   1.313   1.439
  401SOL    HW1 2102   6.293   1.286   1.525
  401SOL    HW2 2103   6.156   1.278   1.437
  402SOL     OW 2104   0.649   5.717   0.718
  402SOL    HW1 2105   0.619   5.648   0.784
  402SOL    HW2 2106   0.736   5.756   0.748
  403SOL     OW 2107   5.159   4.864   0.566
  403SOL    HW1 2108   5.087   4.926   0.598
  403SOL    HW2 2109   5.203   4.902   0.485
  404SOL     OW 2110   6.984   5.915   4.908
  404SOL    HW1 2111   0.003   5.869   4.828
  404SOL    HW2 2112   0.004   5.878   4.991
  405SOL     OW 2113   0.896   1.394   1.345
  405SOL    HW1 2114   0.836   1.451   1.289
  405SOL    HW2 2115   0.841   1.337   1.406
  406SOL     OW 2116   1.017   2.774   3.814
  406SOL    HW1 2117   0.943   2.831   3.849
  406SOL    HW2 2118   1.105   2.811   3.845
  407SOL     OW 2119   3.441   2.138   3.815
  407SOL    HW1 2120   3.345   2.152   3.839
  407SOL    HW2 2121   3.456   2.166   3.720
  408SOL     OW 2122   2.264   0.427   3.697
  408SOL    HW1 2123   2.220   0.350   3.744
  408SOL    HW2 2124   2.199   0.502   3.688
  409SOL     OW 2125   0.113   4.460   4.301
  409SOL    HW1 2126   0.201   4.414   4.295
  409SOL    HW2 2127   0.058   4.417   4.372
  410SOL     OW 2128   2.661   6.507   6.000
  410SOL    HW1 2129   2.619   6.433   6.053
  410SOL    HW2 2130   2.603   6.529   5.922
  411SOL     OW 2131   0.185   4.375   5.742
  411SOL    HW1 2132   0.134   4.291   5.759
  411SOL    HW2 2133   0.157   4.445   5.808
  412SOL     OW 2134   3.477   6.171   2.637
  412SOL    HW1 2135   3.452   6.268   2.627
  412SOL    HW2 2136   3.442   6.137   2.724
  413SOL     OW 2137   1.928   0.469   1.912
  413SOL    HW1 2138   1.923   0.561   1.875
  413SOL    HW2 2139   1.853   0.455   1.977
  414SOL     OW 2140   5.178   4.665   0.998
  414SOL    HW1 2141   5.119   4.647   0.919
  414SOL    HW2 2142   5.178   4.585   1.059
  415SOL     OW 2143   3.903   0.147   2.986
  415SOL    HW1 2144   3.897   0.236   2.941
  415SOL    HW2 2145   3.867   0.076   2.925
  416SOL     OW 2146   3.860   5.921   0.038
  416SOL    HW1 2147   3.946   5.923   7.008
  416SOL    HW2 2148   3.797   5.858   7.013
  417SOL     OW 2149   5.140   5.252   1.034
  417SOL    HW1 2150   5.048   5.290   1.033
  417SOL    HW2 2151   5.164   5.218   0.943
  418SOL     OW 2152   0.075   5.291   6.607
  418SOL    HW1 2153   0.029   5.335   6.684
  418SOL    HW2 2154   0.083   5.193   6.625
  419SOL     OW 2155   4.925   5.455   6.556
  419SOL    HW1 2156   4.975   5.383   6.603
  419SOL    HW2 2157   4.933   5.541   6.607
  420SOL     OW 2158   5.487   3.754   6.806
  420SOL    HW1 2159   5.416   3.726   6.871
  420SOL    HW2 2160   5.447   3.761   6.715
  421SOL     OW 2161   1.627   6.146   6.259
  421SOL    HW1 2162   1.562   6.145   6.182
  421SOL    HW2 2163   1.696   6.075   6.245
  422SOL     OW 2164   6.545   3.624   6.652
  422SOL    HW1 2165   6.538   3.544   6.710
  422SOL    HW2 2166   6.492   3.699   6.692
  423SOL     OW 2167   1.011   3.485   6.281
  423SOL    HW1 2168   0.979   3.419   6.213
  423SOL    HW2 2169   1.083   3.541   6.241
  424SOL     OW 2170   1.962   4.323   6.206
  424SOL    HW1 2171   1.942   4.418   6.228
  424SOL    HW2 2172   1.892   4.263   6.245
  425SOL     OW 2173   2.628   0.630   0.792
  425SOL    HW1 2174   2.661   0.551   0.741
  425SOL    HW2 2175   2.568   0.685   0.734
  426SOL     OW 2176   0.933   3.610   0.272
  426SOL    HW1 2177   0.898   3.517   0.276
  426SOL    HW2 2178   0.999   3.624   0.346
  427SOL     OW 2179   3.654   3.150   0.136
  427SOL    HW1 2180   3.558   3.137   0.110
  427SOL    HW2 2181   3.698   3.061   0.146
  428SOL     OW 2182   3.996   1.452   4.604
  428SOL    HW1 2183   3.927   1.421   4.670
  428SOL    HW2 2184   3.984   1.550   4.588
  429SOL     OW 2185   3.603   6.338   0.149
  429SOL    HW1 2186   3.531   6.406   0.162
  429SOL    HW2 2187   3.588   6.261   0.212
  430SOL     OW 2188   2.839   0.555   4.535
  430SOL    HW1 2189   2.788   0.472   4.556
  430SOL    HW2 2190   2.907   0.572   4.607
  431SOL     OW 2191   3.758   0.878   6.836
  431SOL    HW1 2192   3.827   0.811   6.863
  431SOL    HW2 2193   3.742   0.942   6.912
  432SOL     OW 2194   6.231   1.563   0.914
  432SOL    HW1 2195   6.234   1.468   0.883
  432SOL    HW2 2196   6.279   1.570   1.002
  433SOL     OW 2197   3.177   6.093   5.091
  433SOL    HW1 2198   3.179   6.015   5.029
  433SOL    HW2 2199   3.122   6.167   5.051
  434SOL     OW 2200   6.319   3.121   0.893
  434SOL    HW1 2201   6.306   3.220   0.884
  434SOL    HW2 2202   6.415   3.100   0.908
  435SOL     OW 2203   3.795   3.303   0.675
  435SOL    HW1 2204   3.825   3.396   0.696
  435SOL    HW2 2205   3.763   3.259   0.759
  436SOL     OW 2206   2.584   1.433   1.028
  436SOL    HW1 2207   2.500   1.483   1.006
  436SOL    HW2 2208   2.622   1.393   0.945
  437SOL     OW 2209   6.257   6.453   5.920
  437SOL    HW1 2210   6.195   6.529   5.901
  437SOL    HW2 2211   6.229   6.408   6.005
  438SOL     OW 2212   1.334   3.344   0.751
  438SOL    HW1 2213   1.325   3.429   0.699
  438SOL    HW2 2214   1.247   3.323   0.796
  439SOL     OW 2215   6.032   5.021   1.711
  439SOL    HW1 2216   6.015   5.057   1.619
  439SOL    HW2 2217   6.111   5.067   1.751
  440SOL     OW 2218   1.153   2.942   2.641
  440SOL    HW1 2219   1.248   2.912   2.634
  440SOL    HW2 2220   1.128   2.952   2.738
  441SOL     OW 2221   6.813   1.323   3.370
  441SOL    HW1 2222   6.893   1.279   3.411
  441SOL    HW2 2223   6.836   1.418   3.346
  442SOL     OW 2224   1.395   5.285   6.340
  442SOL    HW1 2225   1.428   5.193   6.316
  442SOL    HW2 2226   1.324   5.278   6.409
  443SOL     OW 2227   0.248   4.663   5.866
  443SOL    HW1 2228   0.301   4.629   5.944
  443SOL    HW2 2229   0.165   4.707   5.900
  444SOL     OW 2230   5.119   3.191   6.876
  444SOL    HW1 2231   5.077   3.166   6.789
  444SOL    HW2 2232   5.198   3.250   6.859
  445SOL     OW 2233   1.147   3.636   3.498
  445SOL    HW1 2234   1.215   3.597   3.560
  445SOL    HW2 2235   1.070   3.572   3.488
  446SOL     OW 2236   1.952   4.905   4.070
  446SOL    HW1 2237   1.930   4.811   4.045
  446SOL    HW2 2238   1.952   4.914   4.169
  447SOL     OW 2239   0.662   6.130   0.672
  447SOL    HW1 2240   0.655   6.207   0.736
  447SOL    HW2 2241   0.574   6.117   0.626
  448SOL     OW 2242   4.405   0.476   5.436
  448SOL    HW1 2243   4.312   0.439   5.431
  448SOL    HW2 2244   4.402   0.569   5.473
  449SOL     OW 2245   5.410   0.453   4.896
  449SOL    HW1 2246   5.434   0.506   4.815
  449SOL    HW2 2247   5.427   0.509   4.978
  450SOL     OW 2248   6.758   6.052   2.913
  450SOL    HW1 2249   6.753   6.144   2.876
  450SOL    HW2 2250   6.818   5.996   2.856
  451SOL     OW 2251   6.093   3.820   3.619
  451SOL    HW1 2252   6.163   3.779   3.561
  451SOL    HW2 2253   6.133   3.846   3.707
  452SOL     OW 2254   6.557   4.892   5.828
  452SOL    HW1 2255   6.562   4.983   5.870
  452SOL    HW2 2256   6.649   4.856   5.817
  453SOL     OW 2257   3.618   1.526   6.436
  453SOL    HW1 2258   3.546   1.519   6.504
  453SOL    HW2 2259   3.583   1.572   6.355
  454SOL     OW 2260   0.901   6.368   0.461
  454SOL    HW1 2261   0.960   6.341   0.385
  454SOL    HW2 2262   0.934   6.326   0.546
  455SOL     OW 2263   5.199   1.422   5.201
  455SOL    HW1 2264   5.230   1.512   5.172
  455SOL    HW2 2265   5.259   1.352   5.164
  456SOL     OW 2266   3.962   5.289   0.253
  456SOL    HW1 2267   3.925   5.351   0.322
  456SOL    HW2 2268   3.928   5.196   0.270
  457SOL     OW 2269   0.549   4.623   1.680
  457SOL    HW1 2270   0.488   4.633   1.760
  457SOL    HW2 2271   0.499   4.645   1.597
  458SOL     OW 2272   0.586   6.232   5.664
  458SOL    HW1 2273   0.645   6.201   5.590
  458SOL    HW2 2274   0.576   6.332   5.659
  459SOL     OW 2275   1.315   0.587   3.624
  459SOL    HW1 2276   1.315   0.629   3.534
  459SOL    HW2 2277   1.313   0.487   3.614
  460SOL     OW 2278   6.509   2.340   3.085
  460SOL    HW1 2279   6.541   2.394   3.007
  460SOL    HW2 2280   6.434   2.387   3.130
  461SOL     OW 2281   5.371   4.917   5.903
  461SOL    HW1 2282   5.272   4.926   5.916
  461SOL    HW2 2283   5.390   4.887   5.809
  462SOL     OW 2284   3.026   2.482   6.868
  462SOL    HW1 2285   3.003   2.510   6.961
  462SOL    HW2 2286   3.044   2.384   6.865
  463SOL     OW 2287   6.044   6.085   2.379
  463SOL    HW1 2288   6.076   6.163   2.434
  463SOL    HW2 2289   6.115   6.015   2.377
  464SOL     OW 2290   1.747   1.854   5.829
  464SOL    HW1 2291   1.738   1.755   5.833
  464SOL    HW2 2292   1.678   1.891   5.767
  465SOL     OW 2293   0.365   3.423   6.410
  465SOL    HW1 2294   0.340   3.505   6.360
  465SOL    HW2 2295   0.313   3.345   6.376
  466SOL     OW 2296   1.863   0.534   3.602
  466SOL    HW1 2297   1.914   0.570   3.524
  466SOL    HW2 2298   1.792   0.599   3.629
  467SOL     OW 2299   1.821   1.766   5.022
  467SOL    HW1 2300   1.777   1.792   5.108
  467SOL    HW2 2301   1.907   1.719   5.042
  468SOL     OW 2302   3.012   3.772   3.348
  468SOL    HW1 2303   2.970   3.825   3.421
  468SOL    HW2 2304   2.951   3.698   3.321
  469SOL     OW 2305   3.376   6.889   6.762
  469SOL    HW1 2306   3.433   6.950   6.817
  469SOL    HW2 2307   3.385   6.912   6.665
  470SOL     OW 2308   4.743   6.906   3.202
  470SOL    HW1 2309   4.765   6.951   3.116
  470SOL    HW2 2310   4.824   6.901   3.259
  471SOL     OW 2311   2.676   2.388   4.034
  471SOL    HW1 2312   2.738   2.370   4.111
  471SOL    HW2 2313   2.655   2.302   3.988
  472SOL     OW 2314   4.040   4.353   5.334
  472SOL    HW1 2315   4.116   4.375   5.273
  472SOL    HW2 2316   4.003   4.263   5.311
  473SOL     OW 2317   0.191   4.462   3.785
  473SOL    HW1 2318   0.200   4.548   3.735
  473SOL    HW2 2319   0.189   4.481   3.883
  474SOL     OW 2320   4.729   4.598   5.685
  474SOL    HW1 2321   4.783   4.666   5.734
  474SOL    HW2 2322   4.738   4.613   5.586
  475SOL     OW 2323   2.509   6.189   0.370
  475SOL    HW1 2324   2.580   6.174   0.301
  475SOL    HW2 2325   2.497   6.287   0.384
  476SOL     OW 2326   6.210   5.855   3.278
  476SOL    HW1 2327   6.125   5.839   3.228
  476SOL    HW2 2328   6.194   5.925   3.348
  477SOL     OW 2329   2.044   4.492   4.179
  477SOL    HW1 2330   1.978   4.510   4.106
  477SOL    HW2 2331   2.127   4.450   4.140
  478SOL     OW 2332   1.502   4.967   3.401
  478SOL    HW1 2333   1.492   4.905   3.479
  478SOL    HW2 2334   1.515   4.913   3.317
  479SOL     OW 2335   4.563   1.921   2.018
  479SOL    HW1 2336   4.524   1.859   2.086
  479SOL    HW2 2337   4.584   2.009   2.060
  480SOL     OW 2338   1.720   6.311   3.872
  480SOL    HW1 2339   1.728   6.403   3.912
  480SOL    HW2 2340   1.636   6.306   3.818
  481SOL     OW 2341   1.997   0.209   1.181
  481SOL    HW1 2342   1.905   0.168   1.183
  481SOL    HW2 2343   2.041   0.187   1.094
  482SOL     OW 2344   5.372   5.631   0.629
  482SOL    HW1 2345   5.446   5.621   0.696
  482SOL    HW2 2346   5.302   5.561   0.645
  483SOL     OW 2347   5.297   2.138   2.963
  483SOL    HW1 2348   5.391   2.139   2.927
  483SOL    HW2 2349   5.237   2.187   2.900
  484SOL     OW 2350   6.444   1.777   3.968
  484SOL    HW1 2351   6.445   1.808   4.064
  484SOL    HW2 2352   6.400   1.847   3.911
  485SOL     OW 2353   2.868   5.921   1.301
  485SOL    HW1 2354   2.894   5.973   1.382
  485SOL    HW2 2355   2.771   5.898   1.306
  486SOL     OW 2356   0.447   0.825   5.848
  486SOL    HW1 2357   0.452   0.730   5.879
  486SOL    HW2 2358   0.456   0.886   5.926
  487SOL     OW 2359   6.917   2.560   6.485
  487SOL    HW1 2360   6.901   2.468   6.450
  487SOL    HW2 2361   6.852   2.623   6.442
  488SOL     OW 2362   0.991   4.726   2.510
  488SOL    HW1 2363   0.905   4.691   2.472
  488SOL    HW2 2364   0.980   4.741   2.608
  489SOL     OW 2365   3.499   5.709   6.245
  489SOL    HW1 2366   3.563   5.786   6.249
  489SOL    HW2 2367   3.550   5.625   6.224
  490SOL     OW 2368   5.365   7.011   4.166
  490SOL    HW1 2369   5.275   7.017   4.209
  490SOL    HW2 2370   5.375   6.921   4.124
  491SOL     OW 2371   0.855   2.571   3.346
  491SOL    HW1 2372   0.946   2.536   3.326
  491SOL    HW2 2373   0.862   2.647   3.411
  492SOL     OW 2374   1.863   1.219   4.784
  492SOL    HW1 2375   1.937   1.155   4.763
  492SOL    HW2 2376   1.873   1.301   4.726
  493SOL     OW 2377   6.217   4.257   4.311
  493SOL    HW1 2378   6.149   4.230   4.379
  493SOL    HW2 2379   6.228   4.357   4.314
  494SOL     OW 2380   5.870   1.086   6.704
  494SOL    HW1 2381   5.788   1.134   6.733
  494SOL    HW2 2382   5.923   1.146   6.643
  495SOL     OW 2383   5.170   4.263   0.381
  495SOL    HW1 2384   5.154   4.319   0.300
  495SOL    HW2 2385   5.148   4.316   0.463
  496SOL     OW 2386   5.803   3.411   2.413
  496SOL    HW1 2387   5.751   3.344   2.361
  496SOL    HW2 2388   5.741   3.461   2.473
  497SOL     OW 2389   4.147   6.792   4.071
  497SOL    HW1 2390   4.146   6.692   4.073
  497SOL    HW2 2391   4.240   6.824   4.084
  498SOL     OW 2392   1.166   2.803   1.036
  498SOL    HW1 2393   1.242   2.745   1.066
  498SOL    HW2 2394   1.162   2.885   1.094
  499SOL     OW 2395   3.858   1.379   4.832
  499SOL    HW1 2396   3.894   1.334   4.914
  499SOL    HW2 2397   3.811   1.463   4.858
  500SOL     OW 2398   1.376   4.556   2.701
  500SOL    HW1 2399   1.343   4.469   2.665
  500SOL    HW2 2400   1.452   4.539   2.764
  501SOL     OW 2401   0.300   5.049   6.450
  501SOL    HW1 2402   0.374   4.986   6.474
  501SOL    HW2 2403   0.330   5.107   6.373
  502SOL     OW 2404   2.336   5.344   6.365
  502SOL    HW1 2405   2.290   5.279   6.426
  502SOL    HW2 2406   2.422   5.373   6.407
  503SOL     OW 2407   6.656   5.158   4.572
  503SOL    HW1 2408   6.658   5.088   4.643
  503SOL    HW2 2409   6.661   5.114   4.482
  504SOL     OW 2410   1.240   5.039   4.463
  504SOL    HW1 2411   1.287   5.097   4.529
  504SOL    HW2 2412   1.151   5.012   4.499
  505SOL     OW 2413   3.381   6.776   5.118
  505SOL    HW1 2414   3.408   6.827   5.200
  505SOL    HW2 2415   3.404   6.679   5.130
  506SOL     OW 2416   1.957   3.312   0.730
  506SOL    HW1 2417   1.901   3.337   0.809
  506SOL    HW2 2418   2.032   3.253   0.760
  507SOL     OW 2419   3.966   2.090   4.623
  507SOL    HW1 2420   4.003   2.010   4.575
  507SOL    HW2 2421   3.900   2.060   4.691
  508SOL     OW 2422   6.511   5.322   4.229
  508SOL    HW1 2423   6.456   5.340   4.148
  508SOL    HW2 2424   6.584   5.257   4.206
  509SOL     OW 2425   4.687   3.262   1.730
  509SOL    HW1 2426   4.674   3.174   1.774
  509SOL    HW2 2427   4.712   3.248   1.634
  510SOL     OW 2428   0.983   4.217   4.138
  510SOL    HW1 2429   1.018   4.125   4.121
  510SOL    HW2 2430   1.048   4.285   4.105
  511SOL     OW 2431   0.500   5.956   1.110
  511SOL    HW1 2432   0.416   5.924   1.066
  511SOL    HW2 2433   0.578   5.939   1.050
  512SOL     OW 2434   1.780   3.546   6.032
  512SOL    HW1 2435   1.821   3.633   6.003
  512SOL    HW2 2436   1.729   3.560   6.116
  513SOL     OW 2437   0.845   5.091   4.030
  513SOL    HW1 2438   0.763   5.039   4.054
  513SOL    HW2 2439   0.820   5.184   4.004
  514SOL     OW 2440   4.934   1.916   3.759
  514SOL    HW1 2441   5.004   1.953   3.699
  514SOL    HW2 2442   4.973   1.900   3.850
  515SOL     OW 2443   3.109   5.728   0.124
  515SOL    HW1 2444   3.121   5.816   0.171
  515SOL    HW2 2445   3.036   5.736   0.057
  516SOL     OW 2446   1.540   4.215   3.785
  516SOL    HW1 2447   1.491   4.133   3.756
  516SOL    HW2 2448   1.572   4.203   3.879
  517SOL     OW 2449   4.643   0.485   6.057
  517SOL    HW1 2450   4.634   0.549   5.981
  517SOL    HW2 2451   4.628   0.392   6.024
  518SOL     OW 2452   1.600   1.329   6.868
  518SOL    HW1 2453   1.509   1.289   6.878
  518SOL    HW2 2454   1.668   1.257   6.856
  519SOL     OW 2455   0.834   6.424   0.103
  519SOL    HW1 2456   0.822   6.498   0.038
  519SOL    HW2 2457   0.903   6.360   0.069
  520SOL     OW 2458   6.231   4.524   4.279
  520SOL    HW1 2459   6.313   4.560   4.323
  520SOL    HW2 2460   6.150   4.559   4.325
  521SOL     OW 2461   6.645   0.761   0.325
  521SOL    HW1 2462   6.596   0.708   0.257
  521SOL    HW2 2463   6.605   0.852   0.333
  522SOL     OW 2464   3.313   3.936   5.719
  522SOL    HW1 2465   3.261   3.868   5.667
  522SOL    HW2 2466   3.331   4.016   5.661
  523SOL     OW 2467   6.437   0.107   3.756
  523SOL    HW1 2468   6.529   0.071   3.772
  523SOL    HW2 2469   6.408   0.083   3.663
  524SOL     OW 2470   4.364   0.548   4.696
  524SOL    HW1 2471   4.410   0.495   4.767
  524SOL    HW2 2472   4.341   0.639   4.732
  525SOL     OW 2473   3.227   2.656   6.837
  525SOL    HW1 2474   3.299   2.644   6.905
  525SOL    HW2 2475   3.170   2.573   6.834
  526SOL     OW 2476   4.531   5.917   4.649
  526SOL    HW1 2477   4.505   5.822   4.666
  526SOL    HW2 2478   4.587   5.950   4.725
  527SOL     OW 2479   0.749   1.783   0.156
  527SOL    HW1 2480   0.663   1.772   0.106
  527SOL    HW2 2481   0.746   1.727   0.239
  528SOL     OW 2482   1.710   2.041   6.429
  528SOL    HW1 2483   1.809   2.043   6.446
  528SOL    HW2 2484   1.664   1.998   6.508
  529SOL     OW 2485   6.910   5.373   4.218
  529SOL    HW1 2486   6.908   5.337   4.311
  529SOL    HW2 2487   6.862   5.461   4.215
  530SOL     OW 2488   0.115   2.702   5.132
  530SOL    HW1 2489   0.019   2.717   5.110
  530SOL    HW2 2490   0.165   2.789   5.125
  531SOL     OW 2491   6.885   0.521   0.041
  531SOL    HW1 2492   6.956   0.451   0.050
  531SOL    HW2 2493   6.795   0.478   0.047
  532SOL     OW 2494   2.138   1.124   5.908
  532SOL    HW1 2495   2.154   1.102   6.005
  532SOL    HW2 2496   2.046   1.094   5.883
  533SOL     OW 2497   4.485   0.505   5.140
  533SOL    HW1 2498   4.461   0.473   5.232
  533SOL    HW2 2499   4.544   0.585   5.147
  534SOL     OW 2500   2.834   5.362   2.948
  534SOL    HW1 2501   2.819   5.294   3.020
  534SOL    HW2 2502   2.762   5.356   2.880
  535SOL     OW 2503   6.219   4.315   1.651
  535SOL    HW1 2504   6.272   4.272   1.724
  535SOL    HW2 2505   6.172   4.245   1.598
  536SOL     OW 2506   1.910   5.927   1.126
  536SOL    HW1 2507   1.938   6.010   1.175
  536SOL    HW2 2508   1.991   5.875   1.100
  537SOL     OW 2509   2.316   6.825   2.984
  537SOL    HW1 2510   2.361   6.770   3.055
  537SOL    HW2 2511   2.302   6.918   3.018
  538SOL     OW 2512   1.559   5.378   4.275
  538SOL    HW1 2513   1.499   5.392   4.355
  538SOL    HW2 2514   1.519   5.423   4.195
  539SOL     OW 2515   1.607   5.423   1.679
  539SOL    HW1 2516   1.619   5.523   1.682
  539SOL    HW2 2517   1.695   5.379   1.661
  540SOL     OW 2518   2.045   2.942   1.118
  540SOL    HW1 2519   1.954   2.964   1.152
  540SOL    HW2 2520   2.114   2.973   1.184
  541SOL     OW 2521   4.608   5.469   4.910
  541SOL    HW1 2522   4.635   5.387   4.859
  541SOL    HW2 2523   4.546   5.443   4.984
  542SOL     OW 2524   5.569   0.014   6.063
  542SOL    HW1 2525   5.582   0.070   6.145
  542SOL    HW2 2526   5.521   0.067   5.993
  543SOL     OW 2527   6.276   6.934   1.703
  543SOL    HW1 2528   6.205   7.004   1.710
  543SOL    HW2 2529   6.247   6.853   1.754
  544SOL     OW 2530   0.838   5.821   0.418
  544SOL    HW1 2531   0.744   5.799   0.443
  544SOL    HW2 2532   0.873   5.893   0.477
  545SOL     OW 2533   2.944   1.614   3.738
  545SOL    HW1 2534   2.996   1.548   3.684
  545SOL    HW2 2535   3.000   1.647   3.814
  546SOL     OW 2536   1.812   2.197   6.723
  546SOL    HW1 2537   1.787   2.140   6.802
  546SOL    HW2 2538   1.910   2.216   6.726
  547SOL     OW 2539   3.065   2.217   0.375
  547SOL    HW1 2540   3.035   2.140   0.431
  547SOL    HW2 2541   3.155   2.248   0.405
  548SOL     OW 2542   3.221   3.690   5.581
  548SOL    HW1 2543   3.249   3.657   5.491
  548SOL    HW2 2544   3.281   3.650   5.651
  549SOL     OW 2545   0.894   4.377   0.798
  549SOL    HW1 2546   0.883   4.280   0.776
  549SOL    HW2 2547   0.830   4.431   0.744
  550SOL     OW 2548   6.831   4.407   0.684
  550SOL    HW1 2549   6.852   4.341   0.757
  550SOL    HW2 2550   6.799   4.493   0.725
  551SOL     OW 2551   0.248   0.659   0.480
  551SOL    HW1 2552   0.286   0.750   0.462
  551SOL    HW2 2553   0.155   0.669   0.516
  552SOL     OW 2554   4.813   5.049   0.198
  552SOL    HW1 2555   4.876   5.099   0.140
  552SOL    HW2 2556   4.804   4.955   0.165
  553SOL     OW 2557   1.252   2.155   1.354
  553SOL    HW1 2558   1.292   2.064   1.340
  553SOL    HW2 2559   1.153   2.151   1.337
  554SOL     OW 2560   4.577   5.124   4.616
  554SOL    HW1 2561   4.483   5.134   4.648
  554SOL    HW2 2562   4.639   5.165   4.683
  555SOL     OW 2563   1.717   4.627   5.641
  555SOL    HW1 2564   1.705   4.717   5.600
  555SOL    HW2 2565   1.630   4.579   5.643
  556SOL     OW 2566   6.640   4.290   2.741
  556SOL    HW1 2567   6.570   4.228   2.707
  556SOL    HW2 2568   6.723   4.238   2.761
  557SOL     OW 2569   6.335   5.997   5.474
  557SOL    HW1 2570   6.322   5.899   5.492
  557SOL    HW2 2571   6.430   6.015   5.451
  558SOL     OW 2572   4.037   4.019   5.852
  558SOL    HW1 2573   4.030   4.118   5.843
  558SOL    HW2 2574   4.020   3.993   5.947
  559SOL     OW 2575   5.833   4.905   6.246
  559SOL    HW1 2576   5.909   4.969   6.256
  559SOL    HW2 2577   5.761   4.929   6.311
  560SOL     OW 2578   4.536   6.562   0.575
  560SOL    HW1 2579   4.611   6.510   0.616
  560SOL    HW2 2580   4.456   6.503   0.563
  561SOL     OW 2581   5.205   0.023   1.942
  561SOL    HW1 2582   5.149   0.037   1.860
  561SOL    HW2 2583   5.256   0.107   1.962
  562SOL     OW 2584   6.255   0.106   0.930
  562SOL    HW1 2585   6.184   0.172   0.906
  562SOL    HW2 2586   6.284   0.122   1.025
  563SOL     OW 2587   2.878   0.745   5.121
  563SOL    HW1 2588   2.816   0.820   5.096
  563SOL    HW2 2589   2.903   0.754   5.218
  564SOL     OW 2590   0.891   1.346   5.402
  564SOL    HW1 2591   0.910   1.250   5.422
  564SOL    HW2 2592   0.866   1.355   5.305
  565SOL     OW 2593   4.311   3.679   5.735
  565SOL    HW1 2594   4.278   3.586   5.750
  565SOL    HW2 2595   4.353   3.713   5.819
  566SOL     OW 2596   6.800   4.717   1.940
  566SOL    HW1 2597   6.809   4.620   1.963
  566SOL    HW2 2598   6.716   4.753   1.980
  567SOL     OW 2599   3.834   3.704   5.797
  567SOL    HW1 2600   3.894   3.647   5.853
  567SOL    HW2 2601   3.881   3.730   5.713
  568SOL     OW 2602   2.364   1.129   6.695
  568SOL    HW1 2603   2.462   1.149   6.700
  568SOL    HW2 2604   2.315   1.211   6.666
  569SOL     OW 2605   1.607   4.185   6.709
  569SOL    HW1 2606   1.644   4.260   6.655
  569SOL    HW2 2607   1.516   4.160   6.674
  570SOL     OW 2608   0.089   5.617   0.110
  570SOL    HW1 2609   0.010   5.679   0.109
  570SOL    HW2 2610   0.062   5.531   0.154
  571SOL     OW 2611   4.296   6.138   2.510
  571SOL    HW1 2612   4.298   6.062   2.575
  571SOL    HW2 2613   4.328   6.221   2.556
  572SOL     OW 2614   1.149   3.773   3.821
  572SOL    HW1 2615   1.113   3.853   3.773
  572SOL    HW2 2616   1.194   3.803   3.905
  573SOL     OW 2617   3.928   2.511   0.040
  573SOL    HW1 2618   3.932   2.441   0.112
  573SOL    HW2 2619   3.838   2.555   0.042
  574SOL     OW 2620   2.694   1.784   3.711
  574SOL    HW1 2621   2.724   1.878   3.697
  574SOL    HW2 2622   2.764   1.734   3.762
  575SOL     OW 2623   4.573   2.398   5.997
  575SOL    HW1 2624   4.484   2.355   6.002
  575SOL    HW2 2625   4.644   2.331   6.016
  576SOL     OW 2626   0.921   3.577   2.884
  576SOL    HW1 2627   0.999   3.516   2.871
  576SOL    HW2 2628   0.863   3.541   2.957
  577SOL     OW 2629   4.239   1.951   3.398
  577SOL    HW1 2630   4.146   1.932   3.367
  577SOL    HW2 2631   4.263   1.888   3.472
  578SOL     OW 2632   6.925   3.758   4.320
  578SOL    HW1 2633   6.985   3.818   4.374
  578SOL    HW2 2634   6.934   3.781   4.223
  579SOL     OW 2635   4.318   3.643   0.986
  579SOL    HW1 2636   4.396   3.586   0.960
  579SOL    HW2 2637   4.294   3.703   0.911
  580SOL     OW 2638   0.268   0.254   0.197
  580SOL    HW1 2639   0.348   0.241   0.138
  580SOL    HW2 2640   0.298   0.292   0.285
  581SOL     OW 2641   3.892   3.548   3.597
  581SOL    HW1 2642   3.818   3.480   3.595
  581SOL    HW2 2643   3.979   3.502   3.614
  582SOL     OW 2644   6.870   4.234   0.235
  582SOL    HW1 2645   6.889   4.228   0.333
  582SOL    HW2 2646   6.921   4.311   0.196
  583SOL     OW 2647   2.394   6.897   6.444
  583SOL    HW1 2648   2.371   6.825   6.510
  583SOL    HW2 2649   2.343   6.883   6.360
  584SOL     OW 2650   1.554   5.088   4.448
  584SOL    HW1 2651   1.517   5.127   4.532
  584SOL    HW2 2652   1.653   5.077   4.457
  585SOL     OW 2653   5.369   1.629   5.123
  585SOL    HW1 2654   5.429   1.677   5.187
  585SOL    HW2 2655   5.424   1.591   5.048
  586SOL     OW 2656   3.356   5.485   0.963
  586SOL    HW1 2657   3.310   5.433   0.891
  586SOL    HW2 2658   3.381   5.575   0.927
  587SOL     OW 2659   2.422   2.829   6.391
  587SOL    HW1 2660   2.446   2.733   6.374
  587SOL    HW2 2661   2.373   2.865   6.312
  588SOL     OW 2662   1.829   6.938   2.122
  588SOL    HW1 2663   1.805   6.927   2.218
  588SOL    HW2 2664   1.887   6.862   2.092
  589SOL     OW 2665   4.794   4.920   1.529
  589SOL    HW1 2666   4.775   4.891   1.623
  589SOL    HW2 2667   4.746   5.006   1.511
  590SOL     OW 2668   0.127   4.038   1.943
  590SOL    HW1 2669   0.218   4.037   1.901
  590SOL    HW2 2670   0.134   4.004   2.037
  591SOL     OW 2671   2.577   0.256   2.996
  591SOL    HW1 2672   2.644   0.285   3.065
  591SOL    HW2 2673   2.614   0.274   2.905
  592SOL     OW 2674   5.268   6.918   5.856
  592SOL    HW1 2675   5.316   7.006   5.855
  592SOL    HW2 2676   5.201   6.916   5.781
  593SOL     OW 2677   0.132   0.697   4.720
  593SOL    HW1 2678   0.062   0.670   4.654
  593SOL    HW2 2679   0.088   0.736   4.801
  594SOL     OW 2680   5.288   2.441   1.587
  594SOL    HW1 2681   5.233   2.523   1.572
  594SOL    HW2 2682   5.277   2.411   1.682
  595SOL     OW 2683   3.125   0.147   4.309
  595SOL    HW1 2684   3.161   0.138   4.402
  595SOL    HW2 2685   3.072   0.231   4.301
  596SOL     OW 2686   0.721   4.546   2.358
  596SOL    HW1 2687   0.684   4.482   2.426
  596SOL    HW2 2688   0.743   4.497   2.274
  597SOL     OW 2689   4.883   1.964   5.577
  597SOL    HW1 2690   4.881   2.062   5.556
  597SOL    HW2 2691   4.965   1.924   5.537
  598SOL     OW 2692   3.679   3.380   1.801
  598SOL    HW1 2693   3.666   3.320   1.879
  598SOL    HW2 2694   3.702   3.472   1.833
  599SOL     OW 2695   5.647   5.976   3.551
  599SOL    HW1 2696   5.685   6.068   3.560
  599SOL    HW2 2697   5.548   5.983   3.535
  600SOL     OW 2698   2.801   2.253   0.219
  600SOL    HW1 2699   2.884   2.288   0.261
  600SOL    HW2 2700   2.778   2.307   0.138
  601SOL     OW 2701   1.872   4.756   2.402
  601SOL    HW1 2702   1.964   4.748   2.441
  601SOL    HW2 2703   1.825   4.835   2.443
  602SOL     OW 2704   0.306   0.636   2.557
  602SOL    HW1 2705   0.335   0.582   2.636
  602SOL    HW2 2706   0.250   0.713   2.588
  603SOL     OW 2707   4.254   1.482   2.869
  603SOL    HW1 2708   4.168   1.438   2.894
  603SOL    HW2 2709   4.251   1.508   2.772
  604SOL     OW 2710   1.016   3.275   5.796
  604SOL    HW1 2711   1.053   3.186   5.822
  604SOL    HW2 2712   0.935   3.296   5.852
  605SOL     OW 2713   5.269   0.418   4.529
  605SOL    HW1 2714   5.270   0.507   4.483
  605SOL    HW2 2715   5.190   0.412   4.590
  606SOL     OW 2716   2.314   6.922   2.202
  606SOL    HW1 2717   2.389   6.858   2.214
  606SOL    HW2 2718   2.283   6.921   2.108
  607SOL     OW 2719   4.030   0.658   4.654
  607SOL    HW1 2720   4.061   0.571   4.691
  607SOL    HW2 2721   4.084   0.682   4.573
  608SOL     OW 2722   5.747   2.685   0.900
  608SOL    HW1 2723   5.765   2.671   0.802
  608SOL    HW2 2724   5.796   2.616   0.953
  609SOL     OW 2725   3.727   4.239   5.213
  609SOL    HW1 2726   3.647   4.297   5.229
  609SOL    HW2 2727   3.740   4.178   5.290
  610SOL     OW 2728   6.208   1.998   4.598
  610SOL    HW1 2729   6.123   1.960   4.561
  610SOL    HW2 2730   6.254   2.052   4.527
  611SOL     OW 2731   6.360   6.766   0.521
  611SOL    HW1 2732   6.353   6.792   0.424
  611SOL    HW2 2733   6.453   6.737   0.541
  612SOL     OW 2734   1.685   4.427   6.587
  612SOL    HW1 2735   1.671   4.442   6.489
  612SOL    HW2 2736   1.666   4.512   6.636
  613SOL     OW 2737   3.724   1.559   6.942
  613SOL    HW1 2738   3.633   1.590   6.918
  613SOL    HW2 2739   3.724   1.459   6.953
  614SOL     OW 2740   5.199   2.461   0.742
  614SOL    HW1 2741   5.197   2.551   0.699
  614SOL    HW2 2742   5.111   2.415   0.729
  615SOL     OW 2743   5.926   5.955   0.439
  615SOL    HW1 2744   5.863   6.020   0.396
  615SOL    HW2 2745   6.019   5.991   0.434
  616SOL     OW 2746   4.842   1.518   4.686
  616SOL    HW1 2747   4.914   1.519   4.617
  616SOL    HW2 2748   4.753   1.527   4.641
  617SOL     OW 2749   6.329   6.833   5.166
  617SOL    HW1 2750   6.348   6.734   5.164
  617SOL    HW2 2751   6.259   6.852   5.234
  618SOL     OW 2752   5.330   4.744   0.768
  618SOL    HW1 2753   5.286   4.767   0.855
  618SOL    HW2 2754   5.268   4.767   0.693
  619SOL     OW 2755   1.819   6.967   6.714
  619SOL    HW1 2756   1.842   0.044   6.725
  619SOL    HW2 2757   1.865   6.930   6.634
  620SOL     OW 2758   4.875   1.860   1.736
  620SOL    HW1 2759   4.807   1.809   1.788
  620SOL    HW2 2760   4.884   1.952   1.775
  621SOL     OW 2761   1.954   6.733   6.332
  621SOL    HW1 2762   1.861   6.755   6.363
  621SOL    HW2 2763   1.955   6.642   6.292
  622SOL     OW 2764   0.586   3.382   6.269
  622SOL    HW1 2765   0.497   3.400   6.309
  622SOL    HW2 2766   0.576   3.368   6.170
  623SOL     OW 2767   6.700   1.784   2.911
  623SOL    HW1 2768   6.601   1.777   2.906
  623SOL    HW2 2769   6.741   1.739   2.832
  624SOL     OW 2770   6.455   0.882   6.068
  624SOL    HW1 2771   6.384   0.812   6.067
  624SOL    HW2 2772   6.442   0.941   6.148
  625SOL     OW 2773   2.885   1.123   1.467
  625SOL    HW1 2774   2.797   1.153   1.502
  625SOL    HW2 2775   2.888   1.023   1.464
  626SOL     OW 2776   0.247   6.224   3.624
  626SOL    HW1 2777   0.195   6.293   3.575
  626SOL    HW2 2778   0.343   6.253   3.631
  627SOL     OW 2779   6.834   4.788   6.435
  627SOL    HW1 2780   6.738   4.761   6.442
  627SOL    HW2 2781   6.840   4.871   6.379
  628SOL     OW 2782   3.915   4.330   6.695
  628SOL    HW1 2783   3.816   4.339   6.705
  628SOL    HW2 2784   3.942   4.235   6.712
  629SOL     OW 2785   2.036   6.711   6.743
  629SOL    HW1 2786   2.057   6.625   6.696
  629SOL    HW2 2787   1.952   6.700   6.796
  630SOL     OW 2788   5.877   2.278   0.636
  630SOL    HW1 2789   5.865   2.312   0.543
  630SOL    HW2 2790   5.939   2.199   0.635
  631SOL     OW 2791   1.729   3.288   2.250
  631SOL    HW1 2792   1.656   3.251   2.192
  631SOL    HW2 2793   1.795   3.336   2.192
  632SOL     OW 2794   3.604   4.660   1.424
  632SOL    HW1 2795   3.608   4.636   1.521
  632SOL    HW2 2796   3.619   4.758   1.413
  633SOL     OW 2797   1.230   6.111   6.777
  633SOL    HW1 2798   1.183   6.096   6.864
  633SOL    HW2 2799   1.270   6.202   6.776
  634SOL     OW 2800   2.746   3.306   5.628
  634SOL    HW1 2801   2.824   3.337   5.572
  634SOL    HW2 2802   2.669   3.283   5.568
  635SOL     OW 2803   6.602   6.567   6.870
  635SOL    HW1 2804   6.563   6.642   6.922
  635SOL    HW2 2805   6.612   6.486   6.929
  636SOL     OW 2806   1.949   2.044   4.618
  636SOL    HW1 2807   1.930   1.992   4.702
  636SOL    HW2 2808   2.023   2.000   4.568
  637SOL     OW 2809   6.698   1.707   2.308
  637SOL    HW1 2810   6.670   1.793   2.267
  637SOL    HW2 2811   6.649   1.631   2.265
  638SOL     OW 2812   0.249   3.523   5.141
  638SOL    HW1 2813   0.287   3.599   5.088
  638SOL    HW2 2814   0.192   3.467   5.081
  639SOL     OW 2815   5.895   3.614   1.657
  639SOL    HW1 2816   5.844   3.594   1.741
  639SOL    HW2 2817   5.865   3.702   1.620
  640SOL     OW 2818   6.128   3.431   2.730
  640SOL    HW1 2819   6.096   3.422   2.824
  640SOL    HW2 2820   6.186   3.512   2.723
  641SOL     OW 2821   2.371   5.519   4.263
  641SOL    HW1 2822   2.429   5.540   4.184
  641SOL    HW2 2823   2.428   5.497   4.342
  642SOL     OW 2824   0.733   4.770   4.530
  642SOL    HW1 2825   0.766   4.754   4.437
  642SOL    HW2 2826   0.648   4.719   4.544
  643SOL     OW 2827   4.349   4.899   0.643
  643SOL    HW1 2828   4.335   4.878   0.546
  643SOL    HW2 2829   4.387   4.991   0.652
  644SOL     OW 2830   5.878   0.630   4.558
  644SOL    HW1 2831   5.830   0.644   4.471
  644SOL    HW2 2832   5.885   0.532   4.576
  645SOL     OW 2833   4.137   6.640   2.269
  645SOL    HW1 2834   4.177   6.575   2.204
  645SOL    HW2 2835   4.120   6.593   2.356
  646SOL     OW 2836   3.724   1.782   5.086
  646SOL    HW1 2837   3.704   1.862   5.030
  646SOL    HW2 2838   3.639   1.744   5.122
  647SOL     OW 2839   2.521   2.288   6.783
  647SOL    HW1 2840   2.459   2.360   6.752
  647SOL    HW2 2841   2.473   2.227   6.846
  648SOL     OW 2842   5.237   2.321   4.143
  648SOL    HW1 2843   5.181   2.354   4.219
  648SOL    HW2 2844   5.184   2.256   4.088
  649SOL     OW 2845   3.884   5.459   0.437
  649SOL    HW1 2846   3.863   5.441   0.533
  649SOL    HW2 2847   3.904   5.556   0.424
  650SOL     OW 2848   2.680   3.870   1.085
  650SOL    HW1 2849   2.733   3.805   1.138
  650SOL    HW2 2850   2.633   3.933   1.147
  651SOL     OW 2851   0.096   1.935   3.017
  651SOL    HW1 2852   0.107   2.030   2.988
  651SOL    HW2 2853   0.086   1.877   2.936
  652SOL     OW 2854   3.874   6.270   0.798
  652SOL    HW1 2855   3.876   6.216   0.715
  652SOL    HW2 2856   3.786   6.319   0.804
  653SOL     OW 2857   1.440   6.985   3.340
  653SOL    HW1 2858   1.527   6.936   3.349
  653SOL    HW2 2859   1.453   0.060   3.369
  654SOL     OW 2860   1.287   0.010   5.852
  654SOL    HW1 2861   1.348   0.022   5.773
  654SOL    HW2 2862   1.339   0.021   5.936
  655SOL     OW 2863   1.334   4.260   1.608
  655SOL    HW1 2864   1.283   4.346   1.609
  655SOL    HW2 2865   1.395   4.258   1.528
  656SOL     OW 2866   2.187   0.016   0.035
  656SOL    HW1 2867   2.211   6.943   0.007
  656SOL    HW2 2868   2.201   0.079   6.979
  657SOL     OW 2869   3.933   3.416   4.385
  657SOL    HW1 2870   3.990   3.384   4.461
  657SOL    HW2 2871   3.961   3.370   4.300
  658SOL     OW 2872   2.412   0.299   5.150
  658SOL    HW1 2873   2.491   0.312   5.090
  658SOL    HW2 2874   2.358   0.383   5.153
  659SOL     OW 2875   1.731   5.248   6.884
  659SOL    HW1 2876   1.798   5.314   6.851
  659SOL    HW2 2877   1.640   5.272   6.848
  660SOL     OW 2878   5.451   4.153   2.341
  660SOL    HW1 2879   5.392   4.090   2.289
  660SOL    HW2 2880   5.465   4.236   2.287
  661SOL     OW 2881   4.083   5.826   4.230
  661SOL    HW1 2882   4.081   5.844   4.132
  661SOL    HW2 2883   4.100   5.728   4.246
  662SOL     OW 2884   6.474   3.197   6.694
  662SOL    HW1 2885   6.433   3.281   6.731
  662SOL    HW2 2886   6.451   3.120   6.754
  663SOL     OW 2887   1.508   4.345   5.813
  663SOL    HW1 2888   1.603   4.319   5.831
  663SOL    HW2 2889   1.505   4.399   5.728
  664SOL     OW 2890   1.926   6.975   5.801
  664SOL    HW1 2891   2.003   6.933   5.850
  664SOL    HW2 2892   1.884   0.025   5.858
  665SOL     OW 2893   2.430   4.427   3.000
  665SOL    HW1 2894   2.366   4.503   3.008
  665SOL    HW2 2895   2.408   4.372   2.920
  666SOL     OW 2896   2.801   0.461   0.601
  666SOL    HW1 2897   2.809   0.545   0.548
  666SOL    HW2 2898   2.726   0.406   0.565
  667SOL     OW 2899   1.417   2.882   2.626
  667SOL    HW1 2900   1.501   2.827   2.629
  667SOL    HW2 2901   1.393   2.911   2.718
  668SOL     OW 2902   5.276   7.014   0.612
  668SOL    HW1 2903   5.254   6.964   0.696
  668SOL    HW2 2904   5.361   6.979   0.573
  669SOL     OW 2905   6.573   5.872   2.986
  669SOL    HW1 2906   6.483   5.906   2.961
  669SOL    HW2 2907   6.641   5.943   2.970
  670SOL     OW 2908   3.430   4.146   3.462
  670SOL    HW1 2909   3.458   4.134   3.367
  670SOL    HW2 2910   3.355   4.211   3.467
  671SOL     OW 2911   1.539   0.186   6.225
  671SOL    HW1 2912   1.464   0.195   6.290
  671SOL    HW2 2913   1.625   0.215   6.268
  672SOL     OW 2914   0.944   1.931   2.964
  672SOL    HW1 2915   0.856   1.884   2.972
  672SOL    HW2 2916   0.989   1.932   3.053
  673SOL     OW 2917   4.847   0.660   6.801
  673SOL    HW1 2918   4.826   0.591   6.731
  673SOL    HW2 2919   4.875   0.745   6.757
  674SOL     OW 2920   6.592   2.346   4.045
  674SOL    HW1 2921   6.559   2.435   4.077
  674SOL    HW2 2922   6.524   2.275   4.065
  675SOL     OW 2923   5.894   6.985   3.410
  675SOL    HW1 2924   5.887   0.042   3.473
  675SOL    HW2 2925   5.944   7.013   3.328
  676SOL     OW 2926   3.251   4.878   4.939
  676SOL    HW1 2927   3.284   4.793   4.979
  676SOL    HW2 2928   3.264   4.953   5.005
  677SOL     OW 2929   4.844   6.873   0.495
  677SOL    HW1 2930   4.910   6.948   0.504
  677SOL    HW2 2931   4.891   6.793   0.458
  678SOL     OW 2932   2.711   0.738   6.435
  678SOL    HW1 2933   2.613   0.750   6.420
  678SOL    HW2 2934   2.729   0.644   6.466
  679SOL     OW 2935   6.566   0.433   2.598
  679SOL    HW1 2936   6.606   0.493   2.529
  679SOL    HW2 2937   6.636   0.370   2.631
  680SOL     OW 2938   6.120   3.317   4.401
  680SOL    HW1 2939   6.025   3.338   4.379
  680SOL    HW2 2940   6.180   3.356   4.330
  681SOL     OW 2941   1.089   5.278   2.731
  681SOL    HW1 2942   1.188   5.293   2.734
  681SOL    HW2 2943   1.064   5.239   2.642
  682SOL     OW 2944   0.212   0.107   5.896
  682SOL    HW1 2945   0.237   0.014   5.923
  682SOL    HW2 2946   0.151   0.146   5.965
  683SOL     OW 2947   5.337   1.476   1.609
  683SOL    HW1 2948   5.284   1.438   1.684
  683SOL    HW2 2949   5.357   1.572   1.628
  684SOL     OW 2950   6.594   5.771   6.689
  684SOL    HW1 2951   6.550   5.852   6.650
  684SOL    HW2 2952   6.690   5.769   6.662
  685SOL     OW 2953   6.141   0.713   5.285
  685SOL    HW1 2954   6.107   0.708   5.379
  685SOL    HW2 2955   6.114   0.800   5.244
  686SOL     OW 2956   5.595   4.619   1.442
  686SOL    HW1 2957   5.499   4.649   1.446
  686SOL    HW2 2958   5.642   4.648   1.526
  687SOL     OW 2959   5.333   2.570   6.871
  687SOL    HW1 2960   5.355   2.474   6.889
  687SOL    HW2 2961   5.273   2.604   6.944
  688SOL     OW 2962   6.453   2.711   5.364
  688SOL    HW1 2963   6.436   2.791   5.421
  688SOL    HW2 2964   6.436   2.628   5.418
  689SOL     OW 2965   5.494   4.495   4.657
  689SOL    HW1 2966   5.550   4.572   4.688
  689SOL    HW2 2967   5.551   4.432   4.605
  690SOL     OW 2968   6.779   2.287   4.656
  690SOL    HW1 2969   6.786   2.235   4.571
  690SOL    HW2 2970   6.708   2.357   4.647
  691SOL     OW 2971   0.604   3.255   0.041
  691SOL    HW1 2972   0.591   3.246   6.962
  691SOL    HW2 2973   0.702   3.259   0.061
  692SOL     OW 2974   2.472   0.073   3.976
  692SOL    HW1 2975   2.427   0.137   4.039
  692SOL    HW2 2976   2.485   7.005   4.021
  693SOL     OW 2977   5.775   1.355   3.664
  693SOL    HW1 2978   5.714   1.433   3.680
  693SOL    HW2 2979   5.845   1.352   3.735
  694SOL     OW 2980   1.269   0.464   2.960
  694SOL    HW1 2981   1.366   0.468   2.937
  694SOL    HW2 2982   1.215   0.497   2.882
  695SOL     OW 2983   4.992   5.486   6.280
  695SOL    HW1 2984   4.970   5.457   6.373
  695SOL    HW2 2985   4.951   5.576   6.263
  696SOL     OW 2986   5.050   5.824   2.319
  696SOL    HW1 2987   5.059   5.869   2.231
  696SOL    HW2 2988   5.086   5.883   2.391
  697SOL     OW 2989   1.065   3.888   3.414
  697SOL    HW1 2990   1.109   3.921   3.330
  697SOL    HW2 2991   1.091   3.793   3.430
  698SOL     OW 2992   5.061   6.505   4.074
  698SOL    HW1 2993   5.116   6.431   4.112
  698SOL    HW2 2994   5.054   6.579   4.140
  699SOL     OW 2995   2.147   5.418   6.182
  699SOL    HW1 2996   2.222   5.411   6.248
  699SOL    HW2 2997   2.136   5.330   6.135
  700SOL     OW 2998   2.075   2.610   4.945
  700SOL    HW1 2999   2.113   2.630   5.035
  700SOL    HW2 3000   2.025   2.690   4.911
  701SOL     OW 3001   0.904   4.939   5.530
  701SOL    HW1 3002   0.852   4.854   5.520
  701SOL    HW2 3003   0.934   4.949   5.625
  702SOL     OW 3004   5.967   6.318   5.374
  702SOL    HW1 3005   6.054   6.311   5.422
  702SOL    HW2 3006   5.966   6.253   5.297
  703SOL     OW 3007   6.042   3.581   6.315
  703SOL    HW1 3008   6.018   3.598   6.411
  703SOL    HW2 3009   5.972   3.521   6.275
  704SOL     OW 3010   2.199   6.972   1.952
  704SOL    HW1 3011   2.204   7.002   1.857
  704SOL    HW2 3012   2.112   6.927   1.969
  705SOL     OW 3013   0.969   1.551   3.901
  705SOL    HW1 3014   1.041   1.544   3.970
  705SOL    HW2 3015   0.944   1.460   3.869
  706SOL     OW 3016   5.938   3.446   3.771
  706SOL    HW1 3017   5.912   3.516   3.838
  706SOL    HW2 3018   6.038   3.444   3.762
  707SOL     OW 3019   5.097   3.058   2.982
  707SOL    HW1 3020   5.016   3.095   2.938
  707SOL    HW2 3021   5.178   3.077   2.925
  708SOL     OW 3022   4.805   1.224   1.944
  708SOL    HW1 3023   4.801   1.168   1.862
  708SOL    HW2 3024   4.840   1.314   1.922
  709SOL     OW 3025   1.292   4.701   6.700
  709SOL    HW1 3026   1.307   4.623   6.639
  709SOL    HW2 3027   1.353   4.694   6.779
  710SOL     OW 3028   3.219   3.493   3.231
  710SOL    HW1 3029   3.155   3.495   3.308
  710SOL    HW2 3030   3.237   3.587   3.201
  711SOL     OW 3031   0.921   0.891   4.394
  711SOL    HW1 3032   0.852   0.938   4.338
  711SOL    HW2 3033   1.011   0.900   4.351
  712SOL     OW 3034   6.928   4.467   3.378
  712SOL    HW1 3035   6.872   4.532   3.327
  712SOL    HW2 3036   0.004   4.495   3.372
  713SOL     OW 3037   2.622   3.766   5.296
  713SOL    HW1 3038   2.571   3.829   5.238
  713SOL    HW2 3039   2.577   3.759   5.385
  714SOL     OW 3040   4.754   4.921   4.638
  714SOL    HW1 3041   4.674   4.980   4.627
  714SOL    HW2 3042   4.725   4.832   4.675
  715SOL     OW 3043   6.941   0.425   6.462
  715SOL    HW1 3044   0.009   0.391   6.430
  715SOL    HW2 3045   6.957   0.505   6.521
  716SOL     OW 3046   6.377   5.338   6.719
  716SOL    HW1 3047   6.292   5.321   6.768
  716SOL    HW2 3048   6.447   5.274   6.751
  717SOL     OW 3049   6.039   2.577   5.725
  717SOL    HW1 3050   6.055   2.496   5.781
  717SOL    HW2 3051   5.940   2.593   5.716
  718SOL     OW 3052   3.547   2.745   0.562
  718SOL    HW1 3053   3.637   2.709   0.588
  718SOL    HW2 3054   3.491   2.757   0.645
  719SOL     OW 3055   6.154   4.227   6.290
  719SOL    HW1 3056   6.194   4.314   6.260
  719SOL    HW2 3057   6.228   4.164   6.314
  720SOL     OW 3058   4.154   1.274   5.985
  720SOL    HW1 3059   4.069   1.250   5.938
  720SOL    HW2 3060   4.156   1.231   6.075
  721SOL     OW 3061   1.510   6.932   5.505
  721SOL    HW1 3062   1.588   6.973   5.458
  721SOL    HW2 3063   1.452   6.885   5.438
  722SOL     OW 3064   4.599   0.754   5.153
  722SOL    HW1 3065   4.636   0.823   5.092
  722SOL    HW2 3066   4.506   0.780   5.180
  723SOL     OW 3067   0.317   3.266   1.547
  723SOL    HW1 3068   0.237   3.205   1.550
  723SOL    HW2 3069   0.387   3.232   1.610
  724SOL     OW 3070   0.530   2.336   4.472
  724SOL    HW1 3071   0.607   2.273   4.477
  724SOL    HW2 3072   0.450   2.296   4.516
  725SOL     OW 3073   2.531   5.024   2.368
  725SOL    HW1 3074   2.488   5.089   2.431
  725SOL    HW2 3075   2.498   5.041   2.275
  726SOL     OW 3076   5.555   6.033   6.446
  726SOL    HW1 3077   5.632   6.018   6.384
  726SOL    HW2 3078   5.575   6.110   6.506
  727SOL     OW 3079   1.891   4.629   4.663
  727SOL    HW1 3080   1.849   4.717   4.684
  727SOL    HW2 3081   1.991   4.636   4.671
  728SOL     OW 3082   6.219   2.011   5.990
  728SOL    HW1 3083   6.184   2.024   6.083
  728SOL    HW2 3084   6.284   2.083   5.968
  729SOL     OW 3085   3.850   1.848   0.739
  729SOL    HW1 3086   3.821   1.764   0.785
  729SOL    HW2 3087   3.950   1.854   0.738
  730SOL     OW 3088   6.187   1.134   4.069
  730SOL    HW1 3089   6.145   1.205   4.013
  730SOL    HW2 3090   6.119   1.065   4.093
  731SOL     OW 3091   0.086   1.852   3.616
  731SOL    HW1 3092   0.168   1.902   3.643
  731SOL    HW2 3093   0.024   1.914   3.568
  732SOL     OW 3094   0.487   3.870   3.426
  732SOL    HW1 3095   0.574   3.916   3.444
  732SOL    HW2 3096   0.502   3.771   3.423
  733SOL     OW 3097   4.566   4.484   4.588
  733SOL    HW1 3098   4.524   4.525   4.508
  733SOL    HW2 3099   4.517   4.512   4.670
  734SOL     OW 3100   0.824   6.169   6.502
  734SOL    HW1 3101   0.920   6.145   6.496
  734SOL    HW2 3102   0.786   6.181   6.410
  735SOL     OW 3103   3.637   4.421   6.704
  735SOL    HW1 3104   3.564   4.481   6.670
  735SOL    HW2 3105   3.605   4.326   6.702
  736SOL     OW 3106   6.064   1.226   2.246
  736SOL    HW1 3107   6.032   1.179   2.328
  736SOL    HW2 3108   6.156   1.263   2.262
  737SOL     OW 3109   5.610   3.742   0.234
  737SOL    HW1 3110   5.597   3.730   0.333
  737SOL    HW2 3111   5.597   3.654   0.189
  738SOL     OW 3112   6.937   4.054   4.002
  738SOL    HW1 3113   6.998   3.982   4.035
  738SOL    HW2 3114   6.983   4.142   4.008
  739SOL     OW 3115   4.482   6.391   6.178
  739SOL    HW1 3116   4.512   6.426   6.267
  739SOL    HW2 3117   4.421   6.313   6.191
  740SOL     OW 3118   5.625   0.017   0.112
  740SOL    HW1 3119   5.556   0.081   0.146
  740SOL    HW2 3120   5.697   0.069   0.066
  741SOL     OW 3121   2.014   0.593   3.839
  741SOL    HW1 3122   1.969   0.566   3.754
  741SOL    HW2 3123   2.060   0.681   3.827
  742SOL     OW 3124   1.604   6.164   2.915
  742SOL    HW1 3125   1.655   6.107   2.979
  742SOL    HW2 3126   1.510   6.174   2.948
  743SOL     OW 3127   1.773   3.648   2.389
  743SOL    HW1 3128   1.716   3.574   2.427
  743SOL    HW2 3129   1.736   3.677   2.301
  744SOL     OW 3130   6.571   5.183   0.968
  744SOL    HW1 3131   6.492   5.152   1.021
  744SOL    HW2 3132   6.540   5.217   0.879
  745SOL     OW 3133   1.052   6.302   1.758
  745SOL    HW1 3134   1.034   6.358   1.677
  745SOL    HW2 3135   0.968   6.290   1.810
  746SOL     OW 3136   3.171   6.973   3.336
  746SOL    HW1 3137   3.074   6.998   3.337
  746SOL    HW2 3138   3.207   6.983   3.243
  747SOL     OW 3139   6.927   4.228   0.512
  747SOL    HW1 3140   0.002   4.241   0.483
  747SOL    HW2 3141   6.900   4.306   0.570
  748SOL     OW 3142   3.317   2.938   3.569
  748SOL    HW1 3143   3.252   3.011   3.549
  748SOL    HW2 3144   3.298   2.900   3.659
  749SOL     OW 3145   5.287   2.855   5.676
  749SOL    HW1 3146   5.240   2.869   5.588
  749SOL    HW2 3147   5.221   2.823   5.744
  750SOL     OW 3148   3.146   3.750   2.195
  750SOL    HW1 3149   3.212   3.697   2.141
  750SOL    HW2 3150   3.194   3.826   2.240
  751SOL     OW 3151   5.589   1.849   0.207
  751SOL    HW1 3152   5.641   1.888   0.283
  751SOL    HW2 3153   5.516   1.792   0.241
  752SOL     OW 3154   4.751   0.561   1.982
  752SOL    HW1 3155   4.798   0.567   2.070
  752SOL    HW2 3156   4.748   0.651   1.940
  753SOL     OW 3157   3.879   1.542   1.844
  753SOL    HW1 3158   3.879   1.442   1.834
  753SOL    HW2 3159   3.928   1.567   1.928
  754SOL     OW 3160   5.492   5.081   6.704
  754SOL    HW1 3161   5.409   5.039   6.668
  754SOL    HW2 3162   5.471   5.130   6.788
  755SOL     OW 3163   5.815   5.141   2.189
  755SOL    HW1 3164   5.873   5.134   2.107
  755SOL    HW2 3165   5.762   5.226   2.185
  756SOL     OW 3166   2.204   6.518   3.816
  756SOL    HW1 3167   2.217   6.461   3.897
  756SOL    HW2 3168   2.293   6.554   3.787
  757SOL     OW 3169   6.962   0.620   4.535
  757SOL    HW1 3170   6.962   0.524   4.508
  757SOL    HW2 3171   6.919   0.675   4.464
  758SOL     OW 3172   4.052   1.504   0.643
  758SOL    HW1 3173   4.050   1.566   0.565
  758SOL    HW2 3174   3.997   1.542   0.717
  759SOL     OW 3175   2.132   0.269   1.902
  759SOL    HW1 3176   2.071   0.346   1.918
  759SOL    HW2 3177   2.120   0.202   1.975
  760SOL     OW 3178   4.533   1.690   6.103
  760SOL    HW1 3179   4.540   1.745   6.186
  760SOL    HW2 3180   4.553   1.595   6.125
  761SOL     OW 3181   5.107   0.870   6.738
  761SOL    HW1 3182   5.059   0.871   6.651
  761SOL    HW2 3183   5.205   0.855   6.722
  762SOL     OW 3184   2.523   4.719   4.966
  762SOL    HW1 3185   2.549   4.797   4.908
  762SOL    HW2 3186   2.603   4.663   4.985
  763SOL     OW 3187   0.045   4.983   0.774
  763SOL    HW1 3188   0.037   4.934   0.687
  763SOL    HW2 3189   6.996   4.949   0.838
  764SOL     OW 3190   5.860   1.298   2.636
  764SOL    HW1 3191   5.761   1.305   2.622
  764SOL    HW2 3192   5.896   1.386   2.666
  765SOL     OW 3193   1.134   6.522   3.177
  765SOL    HW1 3194   1.072   6.599   3.164
  765SOL    HW2 3195   1.228   6.557   3.187
  766SOL     OW 3196   0.309   6.239   0.182
  766SOL    HW1 3197   0.382   6.287   0.133
  766SOL    HW2 3198   0.269   6.170   0.122
  767SOL     OW 3199   5.729   5.951   1.465
  767SOL    HW1 3200   5.647   5.898   1.446
  767SOL    HW2 3201   5.737   5.965   1.564
  768SOL     OW 3202   2.972   6.636   3.953
  768SOL    HW1 3203   2.922   6.563   4.000
  768SOL    HW2 3204   2.937   6.646   3.860
  769SOL     OW 3205   3.802   0.427   0.170
  769SOL    HW1 3206   3.895   0.447   0.202
  769SOL    HW2 3207   3.788   0.470   0.081
  770SOL     OW 3208   3.250   5.103   5.083
  770SOL    HW1 3209   3.263   5.114   5.182
  770SOL    HW2 3210   3.152   5.108   5.062
  771SOL     OW 3211   0.338   6.896   4.604
  771SOL    HW1 3212   0.351   6.912   4.701
  771SOL    HW2 3213   0.310   6.800   4.590
  772SOL     OW 3214   0.403   3.143   6.587
  772SOL    HW1 3215   0.432   3.080   6.659
  772SOL    HW2 3216   0.379   3.231   6.627
  773SOL     OW 3217   6.687   3.376   2.194
  773SOL    HW1 3218   6.704   3.364   2.096
  773SOL    HW2 3219   6.699   3.289   2.241
  774SOL     OW 3220   1.201   1.156   1.582
  774SOL    HW1 3221   1.113   1.120   1.612
  774SOL    HW2 3222   1.252   1.085   1.534
  775SOL     OW 3223   1.814   3.059   4.114
  775SOL    HW1 3224   1.820   2.980   4.175
  775SOL    HW2 3225   1.781   3.030   4.025
  776SOL     OW 3226   2.571   0.505   5.462
  776SOL    HW1 3227   2.523   0.462   5.386
  776SOL    HW2 3228   2.571   0.604   5.449
  777SOL     OW 3229   3.981   0.075   6.944
  777SOL    HW1 3230   3.958   0.033   6.856
  777SOL    HW2 3231   4.022   0.006   7.004
  778SOL     OW 3232   4.750   6.041   4.831
  778SOL    HW1 3233   4.667   6.032   4.886
  778SOL    HW2 3234   4.830   6.017   4.886
  779SOL     OW 3235   0.426   0.194   2.154
  779SOL    HW1 3236   0.416   0.159   2.247
  779SOL    HW2 3237   0.508   0.251   2.148
  780SOL     OW 3238   5.610   2.133   5.117
  780SOL    HW1 3239   5.608   2.209   5.183
  780SOL    HW2 3240   5.703   2.099   5.108
  781SOL     OW 3241   1.382   4.047   0.055
  781SOL    HW1 3242   1.288   4.030   0.023
  781SOL    HW2 3243   1.447   4.005   7.012
  782SOL     OW 3244   0.125   5.449   0.731
  782SOL    HW1 3245   0.190   5.376   0.713
  782SOL    HW2 3246   0.049   5.413   0.786
  783SOL     OW 3247   1.961   5.608   0.365
  783SOL    HW1 3248   2.031   5.646   0.305
  783SOL    HW2 3249   1.947   5.670   0.442
  784SOL     OW 3250   5.278   5.370   3.237
  784SOL    HW1 3251   5.287   5.455   3.185
  784SOL    HW2 3252   5.205   5.315   3.198
  785SOL     OW 3253   6.146   2.781   3.560
  785SOL    HW1 3254   6.199   2.797   3.643
  785SOL    HW2 3255   6.070   2.847   3.555
  786SOL     OW 3256   5.883   6.833   1.356
  786SOL    HW1 3257   5.823   6.893   1.303
  786SOL    HW2 3258   5.912   6.756   1.300
  787SOL     OW 3259   4.242   1.069   6.960
  787SOL    HW1 3260   4.323   1.057   7.019
  787SOL    HW2 3261   4.253   1.152   6.906
  788SOL     OW 3262   0.425   4.485   3.578
  788SOL    HW1 3263   0.399   4.390   3.595
  788SOL    HW2 3264   0.448   4.529   3.665
  789SOL     OW 3265   5.822   3.086   0.782
  789SOL    HW1 3266   5.909   3.078   0.830
  789SOL    HW2 3267   5.837   3.078   0.684
  790SOL     OW 3268   2.960   0.465   3.986
  790SOL    HW1 3269   3.029   0.537   3.976
  790SOL    HW2 3270   2.953   0.439   4.082
  791SOL     OW 3271   3.648   0.993   4.643
  791SOL    HW1 3272   3.746   0.981   4.623
  791SOL    HW2 3273   3.595   0.975   4.560
  792SOL     OW 3274   5.575   0.734   3.866
  792SOL    HW1 3275   5.636   0.655   3.873
  792SOL    HW2 3276   5.565   0.760   3.770
  793SOL     OW 3277   0.239   6.904   6.791
  793SOL    HW1 3278   0.173   6.973   6.760
  793SOL    HW2 3279   0.195   6.841   6.854
  794SOL     OW 3280   3.529   5.080   5.022
  794SOL    HW1 3281   3.435   5.112   5.019
  794SOL    HW2 3282   3.590   5.155   5.047
  795SOL     OW 3283   4.970   5.182   0.017
  795SOL    HW1 3284   5.016   5.235   0.089
  795SOL    HW2 3285   4.907   5.241   6.987
  796SOL     OW 3286   1.243   1.702   5.645
  796SOL    HW1 3287   1.216   1.796   5.664
  796SOL    HW2 3288   1.175   1.659   5.586
  797SOL     OW 3289   6.165   3.010   5.557
  797SOL    HW1 3290   6.199   3.083   5.497
  797SOL    HW2 3291   6.127   2.937   5.502
  798SOL     OW 3292   6.198   1.010   4.349
  798SOL    HW1 3293   6.130   0.976   4.284
  798SOL    HW2 3294   6.280   0.952   4.345
  799SOL     OW 3295   0.160   3.937   3.698
  799SOL    HW1 3296   0.158   4.008   3.628
  799SOL    HW2 3297   0.067   3.904   3.714
  800SOL     OW 3298   0.376   2.506   2.401
  800SOL    HW1 3299   0.332   2.551   2.323
  800SOL    HW2 3300   0.308   2.459   2.456
  801SOL     OW 3301   0.453   3.012   3.537
  801SOL    HW1 3302   0.506   2.927   3.540
  801SOL    HW2 3303   0.513   3.088   3.512
  802SOL     OW 3304   6.531   1.465   0.870
  802SOL    HW1 3305   6.439   1.443   0.836
  802SOL    HW2 3306   6.549   1.411   0.952
  803SOL     OW 3307   2.166   0.151   4.381
  803SOL    HW1 3308   2.107   0.071   4.388
  803SOL    HW2 3309   2.110   0.234   4.385
  804SOL     OW 3310   5.776   5.748   0.529
  804SOL    HW1 3311   5.816   5.829   0.486
  804SOL    HW2 3312   5.836   5.669   0.513
  805SOL     OW 3313   2.282   2.478   6.372
  805SOL    HW1 3314   2.187   2.499   6.395
  805SOL    HW2 3315   2.301   2.507   6.278
  806SOL     OW 3316   4.371   6.342   0.550
  806SOL    HW1 3317   4.447   6.287   0.514
  806SOL    HW2 3318   4.286   6.291   0.541
  807SOL     OW 3319   0.671   0.391   3.247
  807SOL    HW1 3320   0.730   0.311   3.259
  807SOL    HW2 3321   0.623   0.411   3.333
  808SOL     OW 3322   5.598   3.446   4.490
  808SOL    HW1 3323   5.531   3.476   4.558
  808SOL    HW2 3324   5.639   3.360   4.519
  809SOL     OW 3325   0.231   5.748   6.092
  809SOL    HW1 3326   0.191   5.810   6.025
  809SOL    HW2 3327   0.198   5.772   6.184
  810SOL     OW 3328   5.884   5.356   5.836
  810SOL    HW1 3329   5.826   5.287   5.879
  810SOL    HW2 3330   5.832   5.441   5.823
  811SOL     OW 3331   3.080   4.843   2.881
  811SOL    HW1 3332   3.040   4.810   2.796
  811SOL    HW2 3333   3.062   4.777   2.954
  812SOL     OW 3334   0.056   0.557   2.499
  812SOL    HW1 3335   0.151   0.585   2.509
  812SOL    HW2 3336   0.016   0.543   2.590
  813SOL     OW 3337   5.032   5.448   1.787
  813SOL    HW1 3338   4.948   5.456   1.841
  813SOL    HW2 3339   5.099   5.395   1.838
  814SOL     OW 3340   5.182   5.839   1.358
  814SOL    HW1 3341   5.174   5.844   1.457
  814SOL    HW2 3342   5.249   5.768   1.334
  815SOL     OW 3343   1.002   1.085   1.210
  815SOL    HW1 3344   0.995   1.180   1.242
  815SOL    HW2 3345   0.914   1.056   1.173
  816SOL     OW 3346   5.962   0.129   1.489
  816SOL    HW1 3347   5.896   0.092   1.554
  816SOL    HW2 3348   6.023   0.193   1.536
  817SOL     OW 3349   0.739   2.494   1.945
  817SOL    HW1 3350   0.733   2.395   1.931
  817SOL    HW2 3351   0.694   2.518   2.031
  818SOL     OW 3352   5.940   1.158   2.843
  818SOL    HW1 3353   6.019   1.102   2.821
  818SOL    HW2 3354   5.913   1.211   2.763
  819SOL     OW 3355   0.333   5.052   2.372
  819SOL    HW1 3356   0.373   4.965   2.342
  819SOL    HW2 3357   0.360   5.124   2.307
  820SOL     OW 3358   2.730   2.923   5.947
  820SOL    HW1 3359   2.724   3.021   5.925
  820SOL    HW2 3360   2.638   2.885   5.953
  821SOL     OW 3361   1.210   4.081   0.743
  821SOL    HW1 3362   1.293   4.097   0.795
  821SOL    HW2 3363   1.230   4.088   0.645
  822SOL     OW 3364   0.705   2.990   4.955
  822SOL    HW1 3365   0.756   3.026   4.877
  822SOL    HW2 3366   0.752   2.910   4.992
  823SOL     OW 3367   3.874   3.889   1.636
  823SOL    HW1 3368   3.908   3.974   1.595
  823SOL    HW2 3369   3.927   3.812   1.603
  824SOL     OW 3370   5.840   3.185   6.495
  824SOL    HW1 3371   5.898   3.237   6.558
  824SOL    HW2 3372   5.878   3.192   6.402
  825SOL     OW 3373   1.907   3.131   1.515
  825SOL    HW1 3374   1.836   3.109   1.582
  825SOL    HW2 3375   1.866   3.143   1.425
  826SOL     OW 3376   0.842   2.148   6.730
  826SOL    HW1 3377   0.830   2.101   6.818
  826SOL    HW2 3378   0.938   2.142   6.703
  827SOL     OW 3379   3.617   4.625   1.093
  827SOL    HW1 3380   3.588   4.572   1.013
  827SOL    HW2 3381   3.716   4.616   1.104
  828SOL     OW 3382   5.803   1.060   5.142
  828SOL    HW1 3383   5.895   1.097   5.157
  828SOL    HW2 3384   5.740   1.098   5.210
  829SOL     OW 3385   4.018   4.397   5.599
  829SOL    HW1 3386   4.034   4.393   5.500
  829SOL    HW2 3387   3.925   4.368   5.619
  830SOL     OW 3388   4.724   3.217   6.407
  830SOL    HW1 3389   4.698   3.121   6.398
  830SOL    HW2 3390   4.773   3.247   6.325
  831SOL     OW 3391   5.606   1.164   5.310
  831SOL    HW1 3392   5.530   1.225   5.330
  831SOL    HW2 3393   5.605   1.087   5.373
  832SOL     OW 3394   2.502   1.254   5.997
  832SOL    HW1 3395   2.588   1.203   5.999
  832SOL    HW2 3396   2.463   1.258   6.089
  833SOL     OW 3397   1.461   0.410   5.117
  833SOL    HW1 3398   1.425   0.499   5.088
  833SOL    HW2 3399   1.397   0.338   5.092
  834SOL     OW 3400   2.773   4.585   5.850
  834SOL    HW1 3401   2.728   4.587   5.939
  834SOL    HW2 3402   2.789   4.679   5.818
  835SOL     OW 3403   3.507   1.897   2.493
  835SOL    HW1 3404   3.498   1.894   2.592
  835SOL    HW2 3405   3.524   1.992   2.464
  836SOL     OW 3406   2.401   0.984   5.875
  836SOL    HW1 3407   2.343   0.906   5.898
  836SOL    HW2 3408   2.360   1.068   5.912
  837SOL     OW 3409   4.067   2.106   4.228
  837SOL    HW1 3410   4.081   2.007   4.219
  837SOL    HW2 3411   4.091   2.151   4.142
  838SOL     OW 3412   0.910   6.805   2.655
  838SOL    HW1 3413   1.006   6.790   2.679
  838SOL    HW2 3414   0.883   6.897   2.683
  839SOL     OW 3415   2.032   1.763   2.069
  839SOL    HW1 3416   1.958   1.711   2.028
  839SOL    HW2 3417   2.019   1.861   2.052
  840SOL     OW 3418   1.454   1.070   5.790
  840SOL    HW1 3419   1.466   1.165   5.762
  840SOL    HW2 3420   1.444   1.013   5.709
  841SOL     OW 3421   0.133   3.546   0.710
  841SOL    HW1 3422   0.232   3.548   0.696
  841SOL    HW2 3423   0.088   3.521   0.624
  842SOL     OW 3424   3.819   4.919   4.125
  842SOL    HW1 3425   3.761   4.941   4.204
  842SOL    HW2 3426   3.761   4.905   4.045
  843SOL     OW 3427   6.802   3.484   1.365
  843SOL    HW1 3428   6.861   3.565   1.358
  843SOL    HW2 3429   6.857   3.402   1.356
  844SOL     OW 3430   5.868   4.632   6.185
  844SOL    HW1 3431   5.784   4.589   6.152
  844SOL    HW2 3432   5.851   4.728   6.205
  845SOL     OW 3433   2.041   4.781   5.477
  845SOL    HW1 3434   2.011   4.701   5.425
  845SOL    HW2 3435   1.965   4.845   5.486
  846SOL     OW 3436   4.440   2.017   0.255
  846SOL    HW1 3437   4.362   2.036   0.315
  846SOL    HW2 3438   4.406   1.986   0.166
  847SOL     OW 3439   4.925   4.515   2.159
  847SOL    HW1 3440   4.871   4.435   2.185
  847SOL    HW2 3441   5.017   4.507   2.197
  848SOL     OW 3442   5.470   0.188   5.580
  848SOL    HW1 3443   5.558   0.228   5.606
  848SOL    HW2 3444   5.451   0.211   5.485
  849SOL     OW 3445   0.850   6.143   3.640
  849SOL    HW1 3446   0.816   6.223   3.590
  849SOL    HW2 3447   0.911   6.173   3.713
  850SOL     OW 3448   2.971   1.009   3.540
  850SOL    HW1 3449   2.910   0.984   3.615
  850SOL    HW2 3450   2.933   1.088   3.492
  851SOL     OW 3451   6.828   1.090   5.477
  851SOL    HW1 3452   6.767   1.060   5.404
  851SOL    HW2 3453   6.882   1.167   5.445
  852SOL     OW 3454   3.005   5.189   5.094
  852SOL    HW1 3455   3.005   5.205   4.995
  852SOL    HW2 3456   2.923   5.138   5.119
  853SOL     OW 3457   0.602   4.152   0.639
  853SOL    HW1 3458   0.687   4.141   0.692
  853SOL    HW2 3459   0.625   4.169   0.543
  854SOL     OW 3460   6.178   5.210   0.883
  854SOL    HW1 3461   6.188   5.309   0.869
  854SOL    HW2 3462   6.102   5.193   0.945
  855SOL     OW 3463   4.705   0.418   0.565
  855SOL    HW1 3464   4.770   0.407   0.490
  855SOL    HW2 3465   4.656   0.505   0.553
  856SOL     OW 3466   1.592   0.523   5.372
  856SOL    HW1 3467   1.546   0.480   5.294
  856SOL    HW2 3468   1.686   0.490   5.378
  857SOL     OW 3469   5.687   4.366   1.677
  857SOL    HW1 3470   5.683   4.434   1.750
  857SOL    HW2 3471   5.774   4.375   1.628
  858SOL     OW 3472   3.327   3.909   2.303
  858SOL    HW1 3473   3.364   3.865   2.385
  858SOL    HW2 3474   3.400   3.956   2.254
  859SOL     OW 3475   0.431   4.696   0.932
  859SOL    HW1 3476   0.438   4.716   1.030
  859SOL    HW2 3477   0.428   4.782   0.881
  860SOL     OW 3478   1.766   4.393   5.953
  860SOL    HW1 3479   1.802   4.381   5.860
  860SOL    HW2 3480   1.757   4.491   5.972
  861SOL     OW 3481   4.255   4.346   6.253
  861SOL    HW1 3482   4.165   4.334   6.212
  861SOL    HW2 3483   4.302   4.258   6.259
  862SOL     OW 3484   4.569   4.591   3.772
  862SOL    HW1 3485   4.662   4.625   3.758
  862SOL    HW2 3486   4.571   4.491   3.781
  863SOL     OW 3487   6.079   2.869   1.688
  863SOL    HW1 3488   6.071   2.894   1.591
  863SOL    HW2 3489   6.013   2.923   1.741
  864SOL     OW 3490   0.377   6.080   2.096
  864SOL    HW1 3491   0.397   6.178   2.101
  864SOL    HW2 3492   0.417   6.034   2.175
  865SOL     OW 3493   1.769   1.376   4.127
  865SOL    HW1 3494   1.734   1.357   4.219
  865SOL    HW2 3495   1.819   1.296   4.093
  866SOL     OW 3496   3.924   0.947   1.481
  866SOL    HW1 3497   3.978   1.027   1.508
  866SOL    HW2 3498   3.827   0.965   1.498
  867SOL     OW 3499   2.630   1.707   6.131
  867SOL    HW1 3500   2.687   1.675   6.207
  867SOL    HW2 3501   2.538   1.727   6.165
  868SOL     OW 3502   5.007   2.227   3.730
  868SOL    HW1 3503   4.949   2.248   3.651
  868SOL    HW2 3504   5.066   2.306   3.750
  869SOL     OW 3505   6.716   3.682   0.614
  869SOL    HW1 3506   6.720   3.615   0.540
  869SOL    HW2 3507   6.771   3.649   0.691
  870SOL     OW 3508   6.318   1.335   0.539
  870SOL    HW1 3509   6.401   1.331   0.484
  870SOL    HW2 3510   6.251   1.268   0.504
  871SOL     OW 3511   6.865   4.815   0.354
  871SOL    HW1 3512   6.831   4.737   0.301
  871SOL    HW2 3513   6.912   4.879   0.293
  872SOL     OW 3514   6.925   1.751   1.547
  872SOL    HW1 3515   6.972   1.663   1.560
  872SOL    HW2 3516   6.951   1.814   1.620
  873SOL     OW 3517   3.767   6.800   4.287
  873SOL    HW1 3518   3.682   6.765   4.327
  873SOL    HW2 3519   3.844   6.743   4.317
  874SOL     OW 3520   1.163   3.874   6.489
  874SOL    HW1 3521   1.129   3.783   6.512
  874SOL    HW2 3522   1.092   3.942   6.506
  875SOL     OW 3523   6.285   6.047   6.188
  875SOL    HW1 3524   6.263   6.138   6.152
  875SOL    HW2 3525   6.270   6.046   6.287
  876SOL     OW 3526   2.849   2.403   1.355
  876SOL    HW1 3527   2.939   2.376   1.388
  876SOL    HW2 3528   2.791   2.429   1.433
  877SOL     OW 3529   5.858   5.860   6.219
  877SOL    HW1 3530   5.773   5.888   6.174
  877SOL    HW2 3531   5.933   5.864   6.153
  878SOL     OW 3532   4.102   3.607   1.256
  878SOL    HW1 3533   4.198   3.594   1.231
  878SOL    HW2 3534   4.045   3.597   1.175
  879SOL     OW 3535   5.156   3.467   3.504
  879SOL    HW1 3536   5.060   3.487   3.484
  879SOL    HW2 3537   5.161   3.399   3.578
  880SOL     OW 3538   4.466   6.593   1.481
  880SOL    HW1 3539   4.522   6.583   1.563
  880SOL    HW2 3540   4.524   6.624   1.405
  881SOL     OW 3541   5.060   5.239   3.143
  881SOL    HW1 3542   5.042   5.176   3.218
  881SOL    HW2 3543   4.978   5.293   3.124
  882SOL     OW 3544   0.972   1.903   5.388
  882SOL    HW1 3545   0.889   1.865   5.428
  882SOL    HW2 3546   1.043   1.909   5.458
  883SOL     OW 3547   3.219   4.887   0.314
  883SOL    HW1 3548   3.277   4.967   0.332
  883SOL    HW2 3549   3.263   4.829   0.246
  884SOL     OW 3550   3.914   5.064   1.338
  884SOL    HW1 3551   3.904   5.005   1.257
  884SOL    HW2 3552   3.977   5.021   1.402
  885SOL     OW 3553   4.130   6.362   6.297
  885SOL    HW1 3554   4.050   6.330   6.347
  885SOL    HW2 3555   4.186   6.283   6.270
  886SOL     OW 3556   4.221   2.234   6.352
  886SOL    HW1 3557   4.139   2.291   6.345
  886SOL    HW2 3558   4.299   2.291   6.377
  887SOL     OW 3559   6.091   6.428   4.628
  887SOL    HW1 3560   6.106   6.378   4.713
  887SOL    HW2 3561   6.009   6.485   4.637
  888SOL     OW 3562   6.459   1.005   3.225
  888SOL    HW1 3563   6.532   1.069   3.202
  888SOL    HW2 3564   6.407   0.981   3.143
  889SOL     OW 3565   0.944   0.768   4.630
  889SOL    HW1 3566   0.887   0.704   4.682
  889SOL    HW2 3567   0.897   0.792   4.545
  890SOL     OW 3568   2.288   3.181   0.605
  890SOL    HW1 3569   2.327   3.240   0.534
  890SOL    HW2 3570   2.348   3.102   0.618
  891SOL     OW 3571   6.000   3.034   5.826
  891SOL    HW1 3572   6.015   3.038   5.727
  891SOL    HW2 3573   5.992   3.128   5.862
  892SOL     OW 3574   1.785   4.727   1.895
  892SOL    HW1 3575   1.827   4.718   1.986
  892SOL    HW2 3576   1.856   4.750   1.828
  893SOL     OW 3577   1.837   6.644   2.069
  893SOL    HW1 3578   1.790   6.588   2.001
  893SOL    HW2 3579   1.774   6.665   2.144
  894SOL     OW 3580   1.351   4.751   4.374
  894SOL    HW1 3581   1.444   4.751   4.338
  894SOL    HW2 3582   1.330   4.841   4.412
  895SOL     OW 3583   2.479   1.264   4.340
  895SOL    HW1 3584   2.465   1.348   4.392
  895SOL    HW2 3585   2.514   1.192   4.401
  896SOL     OW 3586   4.696   0.226   3.571
  896SOL    HW1 3587   4.716   0.130   3.589
  896SOL    HW2 3588   4.733   0.282   3.645
  897SOL     OW 3589   6.073   1.044   6.259
  897SOL    HW1 3590   6.087   0.951   6.224
  897SOL    HW2 3591   6.040   1.102   6.185
  898SOL     OW 3592   4.881   6.117   3.623
  898SOL    HW1 3593   4.974   6.146   3.601
  898SOL    HW2 3594   4.844   6.176   3.695
  899SOL     OW 3595   1.266   5.313   0.153
  899SOL    HW1 3596   1.255   5.411   0.141
  899SOL    HW2 3597   1.362   5.288   0.145
  900SOL     OW 3598   0.324   5.740   3.269
  900SOL    HW1 3599   0.283   5.750   3.360
  900SOL    HW2 3600   0.303   5.821   3.215
  901SOL     OW 3601   6.166   1.928   3.214
  901SOL    HW1 3602   6.154   1.922   3.115
  901SOL    HW2 3603   6.242   1.991   3.234
  902SOL     OW 3604   1.411   6.111   0.347
  902SOL    HW1 3605   1.425   6.072   0.255
  902SOL    HW2 3606   1.466   6.059   0.413
  903SOL     OW 3607   1.181   4.673   6.413
  903SOL    HW1 3608   1.258   4.609   6.410
  903SOL    HW2 3609   1.194   4.737   6.490
  904SOL     OW 3610   1.592   2.035   4.183
  904SOL    HW1 3611   1.524   2.091   4.231
  904SOL    HW2 3612   1.648   2.093   4.124
  905SOL     OW 3613   6.074   3.415   3.459
  905SOL    HW1 3614   6.172   3.430   3.446
  905SOL    HW2 3615   6.030   3.501   3.485
  906SOL     OW 3616   6.837   2.952   5.402
  906SOL    HW1 3617   6.799   2.863   5.428
  906SOL    HW2 3618   6.903   2.981   5.472
  907SOL     OW 3619   0.028   3.979   2.641
  907SOL    HW1 3620   0.001   3.937   2.554
  907SOL    HW2 3621   0.051   3.907   2.707
  908SOL     OW 3622   2.683   1.409   3.568
  908SOL    HW1 3623   2.742   1.383   3.645
  908SOL    HW2 3624   2.627   1.330   3.542
  909SOL     OW 3625   3.276   6.860   2.517
  909SOL    HW1 3626   3.235   6.950   2.534
  909SOL    HW2 3627   3.217   6.789   2.554
  910SOL     OW 3628   1.034   0.902   2.308
  910SOL    HW1 3629   0.988   0.813   2.311
  910SOL    HW2 3630   1.118   0.894   2.255
  911SOL     OW 3631   0.999   2.588   0.820
  911SOL    HW1 3632   0.916   2.600   0.765
  911SOL    HW2 3633   1.014   2.670   0.876
  912SOL     OW 3634   1.917   0.835   0.309
  912SOL    HW1 3635   1.905   0.747   0.355
  912SOL    HW2 3636   1.928   0.907   0.377
  913SOL     OW 3637   2.133   0.903   1.926
  913SOL    HW1 3638   2.170   0.902   1.833
  913SOL    HW2 3639   2.207   0.885   1.991
  914SOL     OW 3640   3.167   4.901   2.237
  914SOL    HW1 3641   3.240   4.884   2.170
  914SOL    HW2 3642   3.080   4.872   2.198
  915SOL     OW 3643   3.154   2.144   1.043
  915SOL    HW1 3644   3.101   2.222   1.076
  915SOL    HW2 3645   3.213   2.110   1.116
  916SOL     OW 3646   0.387   3.524   2.143
  916SOL    HW1 3647   0.470   3.518   2.088
  916SOL    HW2 3648   0.338   3.437   2.140
  917SOL     OW 3649   3.953   0.783   6.130
  917SOL    HW1 3650   4.039   0.802   6.083
  917SOL    HW2 3651   3.913   0.869   6.162
  918SOL     OW 3652   6.987   2.401   4.811
  918SOL    HW1 3653   7.011   2.332   4.879
  918SOL    HW2 3654   6.898   2.379   4.771
  919SOL     OW 3655   0.614   0.283   1.070
  919SOL    HW1 3656   0.557   0.355   1.109
  919SOL    HW2 3657   0.710   0.312   1.072
  920SOL     OW 3658   1.182   1.750   1.976
  920SOL    HW1 3659   1.112   1.750   1.905
  920SOL    HW2 3660   1.161   1.820   2.044
  921SOL     OW 3661   4.294   4.335   0.283
  921SOL    HW1 3662   4.196   4.317   0.276
  921SOL    HW2 3663   4.343   4.250   0.301
  922SOL     OW 3664   2.110   5.597   6.634
  922SOL    HW1 3665   2.086   5.685   6.676
  922SOL    HW2 3666   2.207   5.579   6.650
  923SOL     OW 3667   3.763   1.054   0.106
  923SOL    HW1 3668   3.701   0.976   0.112
  923SOL    HW2 3669   3.774   1.095   0.197
  924SOL     OW 3670   5.760   5.147   1.815
  924SOL    HW1 3671   5.835   5.086   1.789
  924SOL    HW2 3672   5.679   5.127   1.760
  925SOL     OW 3673   5.753   2.642   1.728
  925SOL    HW1 3674   5.793   2.557   1.763
  925SOL    HW2 3675   5.710   2.625   1.640
  926SOL     OW 3676   3.664   5.992   1.609
  926SOL    HW1 3677   3.633   5.910   1.561
  926SOL    HW2 3678   3.713   6.051   1.545
  927SOL     OW 3679   5.314   5.595   5.257
  927SOL    HW1 3680   5.268   5.664   5.313
  927SOL    HW2 3681   5.303   5.505   5.299
  928SOL     OW 3682   6.926   1.679   1.242
  928SOL    HW1 3683   6.879   1.736   1.175
  928SOL    HW2 3684   6.929   1.726   1.330
  929SOL     OW 3685   0.076   2.686   2.035
  929SOL    HW1 3686   7.005   2.644   2.027
  929SOL    HW2 3687   0.066   2.784   2.055
  930SOL     OW 3688   6.354   5.016   2.819
  930SOL    HW1 3689   6.454   5.015   2.822
  930SOL    HW2 3690   6.321   4.942   2.760
  931SOL     OW 3691   0.318   3.224   1.275
  931SOL    HW1 3692   0.225   3.203   1.245
  931SOL    HW2 3693   0.315   3.274   1.361
  932SOL     OW 3694   4.472   6.537   1.022
  932SOL    HW1 3695   4.433   6.595   0.951
  932SOL    HW2 3696   4.470   6.585   1.109
  933SOL     OW 3697   0.793   6.557   3.304
  933SOL    HW1 3698   0.815   6.638   3.358
  933SOL    HW2 3699   0.834   6.477   3.348
  934SOL     OW 3700   4.232   1.697   5.357
  934SOL    HW1 3701   4.327   1.685   5.385
  934SOL    HW2 3702   4.227   1.703   5.257
  935SOL     OW 3703   1.371   3.575   4.192
  935SOL    HW1 3704   1.293   3.559   4.131
  935SOL    HW2 3705   1.340   3.622   4.275
  936SOL     OW 3706   0.722   0.993   1.902
  936SOL    HW1 3707   0.711   1.066   1.969
  936SOL    HW2 3708   0.645   0.995   1.838
  937SOL     OW 3709   4.695   2.398   3.181
  937SOL    HW1 3710   4.776   2.447   3.149
  937SOL    HW2 3711   4.690   2.309   3.134
  938SOL     OW 3712   0.732   0.909   6.449
  938SOL    HW1 3713   0.832   0.914   6.455
  938SOL    HW2 3714   0.699   0.837   6.510
  939SOL     OW 3715   6.401   0.639   4.698
  939SOL    HW1 3716   6.471   0.709   4.708
  939SOL    HW2 3717   6.407   0.575   4.775
  940SOL     OW 3718   6.009   0.288   3.356
  940SOL    HW1 3719   6.051   0.337   3.279
  940SOL    HW2 3720   6.079   0.240   3.408
  941SOL     OW 3721   5.522   3.041   4.830
  941SOL    HW1 3722   5.524   2.945   4.801
  941SOL    HW2 3723   5.615   3.077   4.830
  942SOL     OW 3724   4.723   6.225   5.547
  942SOL    HW1 3725   4.780   6.189   5.473
  942SOL    HW2 3726   4.752   6.318   5.569
  943SOL     OW 3727   5.202   2.063   0.359
  943SOL    HW1 3728   5.268   2.138   0.362
  943SOL    HW2 3729   5.155   2.057   0.447
  944SOL     OW 3730   4.951   5.002   4.432
  944SOL    HW1 3731   4.894   4.974   4.509
  944SOL    HW2 3732   4.912   5.084   4.390
  945SOL     OW 3733   5.757   2.889   6.516
  945SOL    HW1 3734   5.715   2.980   6.519
  945SOL    HW2 3735   5.849   2.896   6.477
  946SOL     OW 3736   6.714   2.795   5.808
  946SOL    HW1 3737   6.803   2.759   5.835
  946SOL    HW2 3738   6.668   2.834   5.887
  947SOL     OW 3739   0.923   2.496   6.343
  947SOL    HW1 3740   1.006   2.452   6.308
  947SOL    HW2 3741   0.924   2.593   6.319
  948SOL     OW 3742   3.500   2.038   0.900
  948SOL    HW1 3743   3.552   2.012   0.819
  948SOL    HW2 3744   3.548   2.111   0.949
  949SOL     OW 3745   5.710   5.576   5.795
  949SOL    HW1 3746   5.629   5.551   5.848
  949SOL    HW2 3747   5.738   5.669   5.817
  950SOL     OW 3748   3.717   5.609   1.217
  950SOL    HW1 3749   3.667   5.529   1.183
  950SOL    HW2 3750   3.780   5.580   1.289
  951SOL     OW 3751   0.558   2.776   3.459
  951SOL    HW1 3752   0.541   2.799   3.363
  951SOL    HW2 3753   0.562   2.676   3.468
  952SOL     OW 3754   4.896   1.552   0.954
  952SOL    HW1 3755   4.904   1.454   0.967
  952SOL    HW2 3756   4.799   1.576   0.943
  953SOL     OW 3757   3.928   6.312   5.680
  953SOL    HW1 3758   4.028   6.313   5.682
  953SOL    HW2 3759   3.896   6.364   5.601
  954SOL     OW 3760   6.253   6.572   1.203
  954SOL    HW1 3761   6.238   6.502   1.133
  954SOL    HW2 3762   6.240   6.662   1.163
  955SOL     OW 3763   1.689   6.234   3.475
  955SOL    HW1 3764   1.781   6.211   3.509
  955SOL    HW2 3765   1.659   6.162   3.412
  956SOL     OW 3766   1.675   2.644   0.438
  956SOL    HW1 3767   1.668   2.743   0.444
  956SOL    HW2 3768   1.585   2.605   0.417
  957SOL     OW 3769   1.925   5.773   4.658
  957SOL    HW1 3770   1.835   5.742   4.689
  957SOL    HW2 3771   1.916   5.813   4.567
  958SOL     OW 3772   4.436   2.684   6.615
  958SOL    HW1 3773   4.475   2.768   6.576
  958SOL    HW2 3774   4.361   2.708   6.676
  959SOL     OW 3775   1.916   4.466   0.324
  959SOL    HW1 3776   1.906   4.532   0.250
  959SOL    HW2 3777   1.846   4.483   0.393
  960SOL     OW 3778   1.541   3.932   5.813
  960SOL    HW1 3779   1.633   3.970   5.808
  960SOL    HW2 3780   1.541   3.838   5.780
  961SOL     OW 3781   3.329   6.401   6.876
  961SOL    HW1 3782   3.427   6.385   6.860
  961SOL    HW2 3783   3.317   6.463   6.953
  962SOL     OW 3784   0.886   0.283   3.555
  962SOL    HW1 3785   0.862   0.268   3.651
  962SOL    HW2 3786   0.871   0.198   3.503
  963SOL     OW 3787   5.699   0.188   2.574
  963SOL    HW1 3788   5.773   0.148   2.520
  963SOL    HW2 3789   5.703   0.152   2.668
  964SOL     OW 3790   6.300   4.735   1.554
  964SOL    HW1 3791   6.236   4.800   1.514
  964SOL    HW2 3792   6.343   4.775   1.635
  965SOL     OW 3793   2.348   1.765   0.590
  965SOL    HW1 3794   2.445   1.767   0.566
  965SOL    HW2 3795   2.299   1.705   0.527
  966SOL     OW 3796   6.055   2.536   2.072
  966SOL    HW1 3797   6.032   2.446   2.036
  966SOL    HW2 3798   6.110   2.525   2.155
  967SOL     OW 3799   0.770   5.415   2.845
  967SOL    HW1 3800   0.772   5.339   2.780
  967SOL    HW2 3801   0.857   5.419   2.894
  968SOL     OW 3802   0.187   4.289   0.510
  968SOL    HW1 3803   0.208   4.386   0.496
  968SOL    HW2 3804   0.209   4.263   0.604
  969SOL     OW 3805   3.331   6.635   6.660
  969SOL    HW1 3806   3.324   6.722   6.708
  969SOL    HW2 3807   3.395   6.575   6.709
  970SOL     OW 3808   5.488   3.796   6.438
  970SOL    HW1 3809   5.575   3.842   6.457
  970SOL    HW2 3810   5.506   3.708   6.394
  971SOL     OW 3811   0.292   2.113   6.916
  971SOL    HW1 3812   0.249   2.123   6.827
  971SOL    HW2 3813   0.237   2.160   6.985
  972SOL     OW 3814   4.464   6.919   6.500
  972SOL    HW1 3815   4.529   6.994   6.486
  972SOL    HW2 3816   4.372   6.950   6.475
  973SOL     OW 3817   6.557   3.175   6.104
  973SOL    HW1 3818   6.517   3.256   6.061
  973SOL    HW2 3819   6.493   3.140   6.172
  974SOL     OW 3820   2.332   0.260   4.149
  974SOL    HW1 3821   2.241   0.300   4.142
  974SOL    HW2 3822   2.340   0.210   4.235
  975SOL     OW 3823   2.814   0.004   4.541
  975SOL    HW1 3824   2.892   0.048   4.497
  975SOL    HW2 3825   2.817   6.925   4.526
  976SOL     OW 3826   0.319   4.745   3.744
  976SOL    HW1 3827   0.392   4.798   3.700
  976SOL    HW2 3828   0.316   4.767   3.841
  977SOL     OW 3829   1.103   2.151   1.632
  977SOL    HW1 3830   1.176   2.165   1.699
  977SOL    HW2 3831   1.097   2.054   1.609
  978SOL     OW 3832   5.873   2.879   3.525
  978SOL    HW1 3833   5.912   2.971   3.527
  978SOL    HW2 3834   5.835   2.861   3.434
  979SOL     OW 3835   6.320   1.392   2.757
  979SOL    HW1 3836   6.315   1.303   2.712
  979SOL    HW2 3837   6.263   1.392   2.839
  980SOL     OW 3838   6.397   6.454   5.338
  980SOL    HW1 3839   6.306   6.488   5.361
  980SOL    HW2 3840   6.427   6.388   5.407
  981SOL     OW 3841   6.132   3.350   0.136
  981SOL    HW1 3842   6.159   3.444   0.157
  981SOL    HW2 3843   6.051   3.352   0.077
  982SOL     OW 3844   1.602   4.542   0.053
  982SOL    HW1 3845   1.621   4.444   0.059
  982SOL    HW2 3846   1.579   4.576   0.144
  983SOL     OW 3847   5.720   1.870   3.016
  983SOL    HW1 3848   5.642   1.858   3.076
  983SOL    HW2 3849   5.785   1.794   3.029
  984SOL     OW 3850   5.255   3.141   5.691
  984SOL    HW1 3851   5.291   3.048   5.682
  984SOL    HW2 3852   5.156   3.139   5.680
  985SOL     OW 3853   2.208   4.595   0.400
  985SOL    HW1 3854   2.225   4.521   0.465
  985SOL    HW2 3855   2.187   4.555   0.310
  986SOL     OW 3856   4.985   3.917   5.048
  986SOL    HW1 3857   4.949   4.009   5.037
  986SOL    HW2 3858   4.980   3.868   4.961
  987SOL     OW 3859   3.134   1.065   2.938
  987SOL    HW1 3860   3.233   1.073   2.931
  987SOL    HW2 3861   3.110   1.011   3.019
  988SOL     OW 3862   3.916   3.199   1.253
  988SOL    HW1 3863   3.932   3.237   1.162
  988SOL    HW2 3864   3.892   3.272   1.317
  989SOL     OW 3865   0.780   1.279   4.515
  989SOL    HW1 3866   0.776   1.326   4.603
  989SOL    HW2 3867   0.875   1.254   4.496
  990SOL     OW 3868   4.258   5.951   2.299
  990SOL    HW1 3869   4.164   5.920   2.315
  990SOL    HW2 3870   4.285   6.013   2.372
  991SOL     OW 3871   5.823   1.639   6.049
  991SOL    HW1 3872   5.816   1.557   5.991
  991SOL    HW2 3873   5.811   1.613   6.144
  992SOL     OW 3874   0.053   2.744   0.568
  992SOL    HW1 3875   0.120   2.768   0.498
  992SOL    HW2 3876   0.056   2.646   0.585
  993SOL     OW 3877   4.529   6.681   3.974
  993SOL    HW1 3878   4.497   6.716   4.062
  993SOL    HW2 3879   4.467   6.710   3.902
  994SOL     OW 3880   2.890   3.403   3.928
  994SOL    HW1 3881   2.809   3.419   3.984
  994SOL    HW2 3882   2.951   3.339   3.976
  995SOL     OW 3883   1.529   1.887   5.112
  995SOL    HW1 3884   1.594   1.960   5.133
  995SOL    HW2 3885   1.436   1.917   5.135
  996SOL     OW 3886   1.388   3.353   6.824
  996SOL    HW1 3887   1.473   3.303   6.840
  996SOL    HW2 3888   1.374   3.421   6.895
  997SOL     OW 3889   6.976   1.333   0.366
  997SOL    HW1 3890   6.899   1.396   0.377
  997SOL    HW2 3891   6.958   1.249   0.417
  998SOL     OW 3892   4.861   0.314   3.183
  998SOL    HW1 3893   4.881   0.356   3.271
  998SOL    HW2 3894   4.851   0.386   3.114
  999SOL     OW 3895   6.762   5.085   0.179
  999SOL    HW1 3896   6.855   5.072   0.214
  999SOL    HW2 3897   6.759   5.060   0.083
 1000SOL     OW 3898   3.954   1.784   4.893
 1000SOL    HW1 3899   3.941   1.805   4.990
 1000SOL    HW2 3900   3.899   1.846   4.838
 1001SOL     OW 3901   5.114   0.950   4.718
 1001SOL    HW1 3902   5.128   1.006   4.800
 1001SOL    HW2 3903   5.024   0.906   4.723
 1002SOL     OW 3904   0.182   1.102   0.244
 1002SOL    HW1 3905   0.086   1.127   0.256
 1002SOL    HW2 3906   0.223   1.159   0.173
 1003SOL     OW 3907   4.396   5.180   2.638
 1003SOL    HW1 3908   4.379   5.081   2.633
 1003SOL    HW2 3909   4.404   5.217   2.545
 1004SOL     OW 3910   6.002   6.026   0.055
 1004SOL    HW1 3911   6.095   6.000   0.030
 1004SOL    HW2 3912   6.003   6.114   0.103
 1005SOL     OW 3913   5.652   6.064   3.190
 1005SOL    HW1 3914   5.614   6.115   3.113
 1005SOL    HW2 3915   5.749   6.047   3.175
 1006SOL     OW 3916   1.593   5.314   0.391
 1006SOL    HW1 3917   1.556   5.307   0.299
 1006SOL    HW2 3918   1.692   5.300   0.389
 1007SOL     OW 3919   6.059   1.811   2.773
 1007SOL    HW1 3920   6.027   1.895   2.816
 1007SOL    HW2 3921   6.138   1.831   2.715
 1008SOL     OW 3922   3.295   1.886   5.499
 1008SOL    HW1 3923   3.203   1.859   5.468
 1008SOL    HW2 3924   3.345   1.804   5.526
 1009SOL     OW 3925   3.079   6.307   5.360
 1009SOL    HW1 3926   3.012   6.240   5.392
 1009SOL    HW2 3927   3.154   6.313   5.426
 1010SOL     OW 3928   5.227   6.616   5.719
 1010SOL    HW1 3929   5.238   6.526   5.761
 1010SOL    HW2 3930   5.229   6.686   5.790
 1011SOL     OW 3931   2.936   5.203   4.262
 1011SOL    HW1 3932   2.881   5.281   4.292
 1011SOL    HW2 3933   2.880   5.143   4.206
 1012SOL     OW 3934   3.489   6.184   1.284
 1012SOL    HW1 3935   3.460   6.195   1.379
 1012SOL    HW2 3936   3.552   6.259   1.260
 1013SOL     OW 3937   0.876   0.044   6.896
 1013SOL    HW1 3938   0.776   0.049   6.899
 1013SOL    HW2 3939   0.913   0.136   6.880
 1014SOL     OW 3940   5.828   0.136   6.537
 1014SOL    HW1 3941   5.885   0.215   6.515
 1014SOL    HW2 3942   5.767   0.116   6.461
 1015SOL     OW 3943   2.629   0.620   4.895
 1015SOL    HW1 3944   2.611   0.717   4.878
 1015SOL    HW2 3945   2.568   0.565   4.837
 1016SOL     OW 3946   4.325   3.301   1.006
 1016SOL    HW1 3947   4.321   3.401   1.016
 1016SOL    HW2 3948   4.294   3.258   1.091
 1017SOL     OW 3949   4.784   6.942   6.172
 1017SOL    HW1 3950   4.880   6.963   6.190
 1017SOL    HW2 3951   4.775   6.847   6.144
 1018SOL     OW 3952   1.153   1.587   1.557
 1018SOL    HW1 3953   1.176   1.508   1.614
 1018SOL    HW2 3954   1.171   1.565   1.461
 1019SOL     OW 3955   5.214   1.571   0.635
 1019SOL    HW1 3956   5.161   1.492   0.665
 1019SOL    HW2 3957   5.162   1.655   0.651
 1020SOL     OW 3958   4.028   1.934   1.473
 1020SOL    HW1 3959   3.951   1.915   1.533
 1020SOL    HW2 3960   4.094   1.993   1.520
 1021SOL     OW 3961   6.464   1.762   1.058
 1021SOL    HW1 3962   6.515   1.842   1.087
 1021SOL    HW2 3963   6.444   1.769   0.960
 1022SOL     OW 3964   3.371   3.133   0.372
 1022SOL    HW1 3965   3.353   3.046   0.419
 1022SOL    HW2 3966   3.469   3.150   0.372
 1023SOL     OW 3967   6.598   0.650   4.301
 1023SOL    HW1 3968   6.543   0.566   4.304
 1023SOL    HW2 3969   6.685   0.630   4.256
 1024SOL     OW 3970   6.444   2.384   3.579
 1024SOL    HW1 3971   6.422   2.373   3.676
 1024SOL    HW2 3972   6.541   2.407   3.569
 1025SOL     OW 3973   2.392   4.457   1.745
 1025SOL    HW1 3974   2.355   4.432   1.656
 1025SOL    HW2 3975   2.346   4.404   1.816
 1026SOL     OW 3976   0.728   2.838   6.558
 1026SOL    HW1 3977   0.688   2.813   6.470
 1026SOL    HW2 3978   0.676   2.794   6.632
 1027SOL     OW 3979   2.035   4.924   0.997
 1027SOL    HW1 3980   2.027   4.975   1.083
 1027SOL    HW2 3981   2.059   4.829   1.018
 1028SOL     OW 3982   0.303   5.378   6.852
 1028SOL    HW1 3983   0.364   5.430   6.913
 1028SOL    HW2 3984   0.247   5.316   6.907
 1029SOL     OW 3985   4.383   0.888   4.495
 1029SOL    HW1 3986   4.457   0.835   4.454
 1029SOL    HW2 3987   4.397   0.985   4.479
 1030SOL     OW 3988   4.463   4.956   4.855
 1030SOL    HW1 3989   4.399   4.881   4.868
 1030SOL    HW2 3990   4.414   5.036   4.819
 1031SOL     OW 3991   2.452   6.178   1.286
 1031SOL    HW1 3992   2.508   6.184   1.204
 1031SOL    HW2 3993   2.466   6.259   1.343
 1032SOL     OW 3994   1.338   2.174   5.322
 1032SOL    HW1 3995   1.275   2.186   5.399
 1032SOL    HW2 3996   1.422   2.130   5.354
 1033SOL     OW 3997   3.043   0.053   1.620
 1033SOL    HW1 3998   2.978   0.005   1.679
 1033SOL    HW2 3999   3.131   0.060   1.667
 1034SOL     OW 4000   0.087   5.746   2.423
 1034SOL    HW1 4001   0.126   5.813   2.359
 1034SOL    HW2 4002   0.010   5.788   2.471
 1035SOL     OW 4003   3.290   2.082   3.107
 1035SOL    HW1 4004   3.286   2.128   3.018
 1035SOL    HW2 4005   3.259   1.988   3.097
 1036SOL     OW 4006   4.895   6.930   6.609
 1036SOL    HW1 4007   4.875   6.900   6.702
 1036SOL    HW2 4008   4.839   7.010   6.586
 1037SOL     OW 4009   4.194   1.081   6.207
 1037SOL    HW1 4010   4.292   1.097   6.200
 1037SOL    HW2 4011   4.161   1.111   6.297
 1038SOL     OW 4012   2.697   2.033   5.121
 1038SOL    HW1 4013   2.763   2.087   5.173
 1038SOL    HW2 4014   2.633   1.989   5.184
 1039SOL     OW 4015   5.280   1.715   2.528
 1039SOL    HW1 4016   5.182   1.703   2.545
 1039SOL    HW2 4017   5.293   1.782   2.456
 1040SOL     OW 4018   5.910   4.600   4.634
 1040SOL    HW1 4019   5.998   4.575   4.675
 1040SOL    HW2 4020   5.922   4.620   4.537
 1041SOL     OW 4021   1.859   6.660   4.757
 1041SOL    HW1 4022   1.939   6.715   4.733
 1041SOL    HW2 4023   1.853   6.652   4.857
 1042SOL     OW 4024   4.755   4.405   0.755
 1042SOL    HW1 4025   4.805   4.488   0.728
 1042SOL    HW2 4026   4.657   4.421   0.745
 1043SOL     OW 4027   4.176   0.233   6.363
 1043SOL    HW1 4028   4.263   0.279   6.380
 1043SOL    HW2 4029   4.154   0.238   6.265
 1044SOL     OW 4030   3.497   4.134   4.047
 1044SOL    HW1 4031   3.518   4.181   3.960
 1044SOL    HW2 4032   3.552   4.051   4.053
 1045SOL     OW 4033   2.127   1.549   2.303
 1045SOL    HW1 4034   2.182   1.476   2.343
 1045SOL    HW2 4035   2.048   1.568   2.362
 1046SOL     OW 4036   2.832   1.029   2.277
 1046SOL    HW1 4037   2.848   0.934   2.251
 1046SOL    HW2 4038   2.789   1.032   2.367
 1047SOL     OW 4039   0.033   6.731   1.915
 1047SOL    HW1 4040   0.000   6.642   1.947
 1047SOL    HW2 4041   0.020   6.799   1.987
 1048SOL     OW 4042   6.996   3.860   4.868
 1048SOL    HW1 4043   7.002   3.776   4.813
 1048SOL    HW2 4044   0.040   3.928   4.833
 1049SOL     OW 4045   0.089   3.567   5.415
 1049SOL    HW1 4046   0.128   3.624   5.342
 1049SOL    HW2 4047   0.031   3.497   5.374
 1050SOL     OW 4048   3.022   0.640   1.273
 1050SOL    HW1 4049   3.056   0.734   1.268
 1050SOL    HW2 4050   2.951   0.627   1.204
 1051SOL     OW 4051   4.892   4.047   1.997
 1051SOL    HW1 4052   4.852   4.043   2.088
 1051SOL    HW2 4053   4.890   3.955   1.956
 1052SOL     OW 4054   2.981   6.983   4.007
 1052SOL    HW1 4055   2.978   6.992   4.107
 1052SOL    HW2 4056   2.890   6.958   3.974
 1053SOL     OW 4057   3.355   5.395   3.021
 1053SOL    HW1 4058   3.299   5.370   3.100
 1053SOL    HW2 4059   3.310   5.469   2.971
 1054SOL     OW 4060   3.405   6.509   5.140
 1054SOL    HW1 4061   3.363   6.422   5.165
 1054SOL    HW2 4062   3.500   6.493   5.113
 1055SOL     OW 4063   3.859   4.948   4.564
 1055SOL    HW1 4064   3.821   4.981   4.650
 1055SOL    HW2 4065   3.933   4.884   4.583
 1056SOL     OW 4066   2.858   5.759   0.289
 1056SOL    HW1 4067   2.859   5.786   0.385
 1056SOL    HW2 4068   2.952   5.755   0.255
 1057SOL     OW 4069   3.620   3.793   1.659
 1057SOL    HW1 4070   3.545   3.821   1.599
 1057SOL    HW2 4071   3.697   3.855   1.647
 1058SOL     OW 4072   2.774   0.586   2.009
 1058SOL    HW1 4073   2.818   0.668   2.045
 1058SOL    HW2 4074   2.779   0.586   1.909
 1059SOL     OW 4075   4.197   6.955   0.879
 1059SOL    HW1 4076   4.250   6.913   0.952
 1059SOL    HW2 4077   4.213   6.907   0.793
 1060SOL     OW 4078   3.767   1.843   4.045
 1060SOL    HW1 4079   3.681   1.792   4.039
 1060SOL    HW2 4080   3.750   1.940   4.028
 1061SOL     OW 4081   2.531   5.438   1.372
 1061SOL    HW1 4082   2.498   5.469   1.461
 1061SOL    HW2 4083   2.481   5.484   1.299
 1062SOL     OW 4084   5.203   3.956   4.806
 1062SOL    HW1 4085   5.153   3.921   4.727
 1062SOL    HW2 4086   5.141   4.010   4.863
 1063SOL     OW 4087   4.093   2.360   6.099
 1063SOL    HW1 4088   4.084   2.382   6.197
 1063SOL    HW2 4089   4.023   2.294   6.074
 1064SOL     OW 4090   0.728   3.370   2.981
 1064SOL    HW1 4091   0.661   3.305   3.017
 1064SOL    HW2 4092   0.684   3.426   2.910
 1065SOL     OW 4093   4.015   5.381   6.840
 1065SOL    HW1 4094   4.021   5.281   6.842
 1065SOL    HW2 4095   4.051   5.418   6.926
 1066SOL     OW 4096   5.431   0.112   3.371
 1066SOL    HW1 4097   5.448   0.181   3.300
 1066SOL    HW2 4098   5.493   0.127   3.448
 1067SOL     OW 4099   3.493   4.014   0.447
 1067SOL    HW1 4100   3.427   3.940   0.431
 1067SOL    HW2 4101   3.471   4.060   0.533
 1068SOL     OW 4102   1.164   5.446   2.122
 1068SOL    HW1 4103   1.232   5.481   2.186
 1068SOL    HW2 4104   1.200   5.365   2.076
 1069SOL     OW 4105   3.835   3.527   2.757
 1069SOL    HW1 4106   3.862   3.576   2.674
 1069SOL    HW2 4107   3.771   3.583   2.809
 1070SOL     OW 4108   1.630   6.315   0.413
 1070SOL    HW1 4109   1.697   6.346   0.345
 1070SOL    HW2 4110   1.678   6.266   0.486
 1071SOL     OW 4111   4.628   5.809   3.508
 1071SOL    HW1 4112   4.662   5.824   3.600
 1071SOL    HW2 4113   4.703   5.781   3.449
 1072SOL     OW 4114   4.191   5.457   3.620
 1072SOL    HW1 4115   4.115   5.522   3.616
 1072SOL    HW2 4116   4.181   5.388   3.549
 1073SOL     OW 4117   2.934   6.114   3.370
 1073SOL    HW1 4118   2.935   6.181   3.295
 1073SOL    HW2 4119   2.850   6.062   3.366
 1074SOL     OW 4120   2.234   4.978   3.662
 1074SOL    HW1 4121   2.301   4.909   3.691
 1074SOL    HW2 4122   2.180   5.007   3.741
 1075SOL     OW 4123   0.697   4.555   2.757
 1075SOL    HW1 4124   0.645   4.482   2.713
 1075SOL    HW2 4125   0.698   4.540   2.856
 1076SOL     OW 4126   5.566   3.634   3.235
 1076SOL    HW1 4127   5.490   3.699   3.230
 1076SOL    HW2 4128   5.540   3.558   3.295
 1077SOL     OW 4129   3.856   0.952   2.069
 1077SOL    HW1 4130   3.760   0.936   2.046
 1077SOL    HW2 4131   3.886   0.887   2.139
 1078SOL     OW 4132   6.555   2.599   2.064
 1078SOL    HW1 4133   6.493   2.566   1.992
 1078SOL    HW2 4134   6.506   2.605   2.151
 1079SOL     OW 4135   2.244   4.648   3.047
 1079SOL    HW1 4136   2.236   4.747   3.063
 1079SOL    HW2 4137   2.229   4.599   3.132
 1080SOL     OW 4138   2.343   5.189   3.928
 1080SOL    HW1 4139   2.310   5.225   3.841
 1080SOL    HW2 4140   2.442   5.203   3.935
 1081SOL     OW 4141   1.274   0.336   0.697
 1081SOL    HW1 4142   1.180   0.337   0.731
 1081SOL    HW2 4143   1.331   0.395   0.754
 1082SOL     OW 4144   1.953   0.432   1.331
 1082SOL    HW1 4145   1.966   0.351   1.274
 1082SOL    HW2 4146   1.916   0.507   1.276
 1083SOL     OW 4147   3.783   3.205   1.625
 1083SOL    HW1 4148   3.766   3.290   1.676
 1083SOL    HW2 4149   3.877   3.175   1.643
 1084SOL     OW 4150   6.105   4.124   1.496
 1084SOL    HW1 4151   6.132   4.136   1.400
 1084SOL    HW2 4152   6.007   4.105   1.501
 1085SOL     OW 4153   1.842   5.538   3.892
 1085SOL    HW1 4154   1.742   5.536   3.889
 1085SOL    HW2 4155   1.872   5.620   3.940
 1086SOL     OW 4156   2.613   5.997   2.459
 1086SOL    HW1 4157   2.669   6.000   2.376
 1086SOL    HW2 4158   2.546   6.072   2.457
 1087SOL     OW 4159   3.677   3.172   5.095
 1087SOL    HW1 4160   3.588   3.151   5.136
 1087SOL    HW2 4161   3.681   3.268   5.070
 1088SOL     OW 4162   0.066   5.049   2.400
 1088SOL    HW1 4163   0.159   5.061   2.365
 1088SOL    HW2 4164   0.006   5.018   2.326
 1089SOL     OW 4165   6.944   0.783   3.337
 1089SOL    HW1 4166   6.917   0.688   3.323
 1089SOL    HW2 4167   6.940   0.832   3.249
 1090SOL     OW 4168   2.877   2.266   6.647
 1090SOL    HW1 4169   2.975   2.249   6.651
 1090SOL    HW2 4170   2.832   2.218   6.723
 1091SOL     OW 4171   1.467   2.212   6.006
 1091SOL    HW1 4172   1.371   2.192   6.027
 1091SOL    HW2 4173   1.490   2.303   6.040
 1092SOL     OW 4174   3.063   4.815   1.484
 1092SOL    HW1 4175   3.067   4.857   1.393
 1092SOL    HW2 4176   3.037   4.719   1.475
 1093SOL     OW 4177   0.214   1.987   1.453
 1093SOL    HW1 4178   0.163   2.050   1.393
 1093SOL    HW2 4179   0.179   1.894   1.439
 1094SOL     OW 4180   0.864   5.854   2.639
 1094SOL    HW1 4181   0.813   5.776   2.676
 1094SOL    HW2 4182   0.802   5.915   2.590
 1095SOL     OW 4183   1.362   2.917   5.764
 1095SOL    HW1 4184   1.427   2.852   5.803
 1095SOL    HW2 4185   1.403   2.962   5.685
 1096SOL     OW 4186   3.913   2.953   2.291
 1096SOL    HW1 4187   3.849   2.880   2.265
 1096SOL    HW2 4188   3.928   3.013   2.212
 1097SOL     OW 4189   2.891   5.208   5.529
 1097SOL    HW1 4190   2.984   5.218   5.493
 1097SOL    HW2 4191   2.877   5.275   5.602
 1098SOL     OW 4192   2.790   0.866   2.973
 1098SOL    HW1 4193   2.782   0.952   3.023
 1098SOL    HW2 4194   2.812   0.885   2.877
 1099SOL     OW 4195   3.049   0.324   2.305
 1099SOL    HW1 4196   2.982   0.310   2.233
 1099SOL    HW2 4197   3.058   0.422   2.323
 1100SOL     OW 4198   6.757   0.877   0.620
 1100SOL    HW1 4199   6.730   0.781   0.622
 1100SOL    HW2 4200   6.677   0.935   0.606
 1101SOL     OW 4201   5.895   4.535   0.980
 1101SOL    HW1 4202   5.895   4.586   1.065
 1101SOL    HW2 4203   5.865   4.441   0.997
 1102SOL     OW 4204   7.018   4.323   4.046
 1102SOL    HW1 4205   0.039   4.411   4.072
 1102SOL    HW2 4206   6.986   4.327   3.952
 1103SOL     OW 4207   0.877   2.502   6.882
 1103SOL    HW1 4208   0.941   2.518   6.807
 1103SOL    HW2 4209   0.800   2.446   6.849
 1104SOL     OW 4210   2.889   5.299   5.927
 1104SOL    HW1 4211   2.842   5.319   5.841
 1104SOL    HW2 4212   2.821   5.281   5.998
 1105SOL     OW 4213   3.859   6.103   0.565
 1105SOL    HW1 4214   3.801   6.166   0.513
 1105SOL    HW2 4215   3.811   6.016   0.579
 1106SOL     OW 4216   0.858   1.876   6.919
 1106SOL    HW1 4217   0.805   1.850   7.000
 1106SOL    HW2 4218   0.820   1.831   6.838
 1107SOL     OW 4219   6.604   6.972   1.107
 1107SOL    HW1 4220   6.685   6.915   1.090
 1107SOL    HW2 4221   6.604   7.002   1.203
 1108SOL     OW 4222   0.973   1.127   0.206
 1108SOL    HW1 4223   1.035   1.185   0.153
 1108SOL    HW2 4224   1.025   1.078   0.276
 1109SOL     OW 4225   3.877   1.428   3.341
 1109SOL    HW1 4226   3.871   1.373   3.424
 1109SOL    HW2 4227   3.965   1.413   3.297
 1110SOL     OW 4228   3.759   3.294   3.059
 1110SOL    HW1 4229   3.677   3.254   3.018
 1110SOL    HW2 4230   3.738   3.325   3.152
 1111SOL     OW 4231   3.747   6.788   6.769
 1111SOL    HW1 4232   3.801   6.750   6.845
 1111SOL    HW2 4233   3.721   6.882   6.790
 1112SOL     OW 4234   0.703   1.380   2.544
 1112SOL    HW1 4235   0.718   1.467   2.591
 1112SOL    HW2 4236   0.644   1.321   2.600
 1113SOL     OW 4237   0.067   4.589   1.979
 1113SOL    HW1 4238   0.055   4.491   1.991
 1113SOL    HW2 4239   0.018   4.620   1.898
 1114SOL     OW 4240   5.752   1.004   5.788
 1114SOL    HW1 4241   5.661   0.999   5.830
 1114SOL    HW2 4242   5.766   1.094   5.748
 1115SOL     OW 4243   2.132   4.843   0.514
 1115SOL    HW1 4244   2.173   4.828   0.604
 1115SOL    HW2 4245   2.138   4.758   0.461
 1116SOL     OW 4246   3.188   6.449   6.308
 1116SOL    HW1 4247   3.280   6.422   6.336
 1116SOL    HW2 4248   3.192   6.494   6.219
 1117SOL     OW 4249   2.877   2.803   0.596
 1117SOL    HW1 4250   2.809   2.870   0.567
 1117SOL    HW2 4251   2.916   2.758   0.516
 1118SOL     OW 4252   1.570   2.303   1.039
 1118SOL    HW1 4253   1.559   2.207   1.066
 1118SOL    HW2 4254   1.656   2.313   0.989
 1119SOL     OW 4255   3.133   3.147   3.861
 1119SOL    HW1 4256   3.178   3.234   3.842
 1119SOL    HW2 4257   3.037   3.163   3.883
 1120SOL     OW 4258   3.438   1.113   3.361
 1120SOL    HW1 4259   3.376   1.057   3.416
 1120SOL    HW2 4260   3.385   1.181   3.310
 1121SOL     OW 4261   4.754   4.342   3.075
 1121SOL    HW1 4262   4.656   4.356   3.060
 1121SOL    HW2 4263   4.805   4.416   3.032
 1122SOL     OW 4264   4.902   4.957   6.866
 1122SOL    HW1 4265   4.824   4.896   6.856
 1122SOL    HW2 4266   4.895   5.007   6.952
 1123SOL     OW 4267   3.366   0.538   2.269
 1123SOL    HW1 4268   3.323   0.577   2.187
 1123SOL    HW2 4269   3.390   0.443   2.252
 1124SOL     OW 4270   2.552   4.997   3.477
 1124SOL    HW1 4271   2.471   5.007   3.535
 1124SOL    HW2 4272   2.542   4.917   3.419
 1125SOL     OW 4273   3.283   4.439   5.434
 1125SOL    HW1 4274   3.193   4.425   5.394
 1125SOL    HW2 4275   3.275   4.441   5.534
 1126SOL     OW 4276   6.285   0.204   2.002
 1126SOL    HW1 4277   6.363   0.263   2.022
 1126SOL    HW2 4278   6.216   0.216   2.074
 1127SOL     OW 4279   2.529   5.443   5.620
 1127SOL    HW1 4280   2.470   5.425   5.698
 1127SOL    HW2 4281   2.495   5.521   5.568
 1128SOL     OW 4282   2.566   1.985   5.361
 1128SOL    HW1 4283   2.568   2.084   5.353
 1128SOL    HW2 4284   2.488   1.957   5.417
 1129SOL     OW 4285   4.253   5.460   6.448
 1129SOL    HW1 4286   4.330   5.496   6.395
 1129SOL    HW2 4287   4.272   5.365   6.472
 1130SOL     OW 4288   1.169   5.125   5.288
 1130SOL    HW1 4289   1.113   5.044   5.272
 1130SOL    HW2 4290   1.157   5.156   5.382
 1131SOL     OW 4291   0.309   3.970   5.799
 1131SOL    HW1 4292   0.318   3.949   5.702
 1131SOL    HW2 4293   0.277   3.888   5.848
 1132SOL     OW 4294   5.307   6.810   5.097
 1132SOL    HW1 4295   5.336   6.864   5.176
 1132SOL    HW2 4296   5.387   6.782   5.044
 1133SOL     OW 4297   6.302   1.596   6.922
 1133SOL    HW1 4298   6.386   1.651   6.925
 1133SOL    HW2 4299   6.324   1.500   6.942
 1134SOL     OW 4300   0.349   3.362   5.348
 1134SOL    HW1 4301   0.318   3.415   5.270
 1134SOL    HW2 4302   0.344   3.418   5.431
 1135SOL     OW 4303   6.989   1.850   4.157
 1135SOL    HW1 4304   0.007   1.760   4.137
 1135SOL    HW2 4305   6.917   1.841   4.226
 1136SOL     OW 4306   3.700   5.527   3.865
 1136SOL    HW1 4307   3.730   5.432   3.864
 1136SOL    HW2 4308   3.667   5.550   3.957
 1137SOL     OW 4309   0.838   0.286   6.681
 1137SOL    HW1 4310   0.761   0.230   6.714
 1137SOL    HW2 4311   0.872   0.344   6.755
 1138SOL     OW 4312   1.145   2.480   5.888
 1138SOL    HW1 4313   1.190   2.542   5.953
 1138SOL    HW2 4314   1.161   2.512   5.795
 1139SOL     OW 4315   0.341   6.853   2.758
 1139SOL    HW1 4316   0.244   6.876   2.746
 1139SOL    HW2 4317   0.349   6.774   2.819
 1140SOL     OW 4318   4.348   2.064   3.181
 1140SOL    HW1 4319   4.320   2.001   3.254
 1140SOL    HW2 4320   4.273   2.073   3.115
 1141SOL     OW 4321   0.277   6.888   5.980
 1141SOL    HW1 4322   0.371   6.864   6.004
 1141SOL    HW2 4323   0.217   6.809   5.995
 1142SOL     OW 4324   6.155   0.295   5.411
 1142SOL    HW1 4325   6.222   0.224   5.434
 1142SOL    HW2 4326   6.149   0.305   5.312
 1143SOL     OW 4327   5.254   2.978   1.659
 1143SOL    HW1 4328   5.171   3.029   1.678
 1143SOL    HW2 4329   5.272   2.979   1.560
 1144SOL     OW 4330   1.261   6.810   4.536
 1144SOL    HW1 4331   1.223   6.830   4.446
 1144SOL    HW2 4332   1.321   6.884   4.565
 1145SOL     OW 4333   2.738   5.036   5.026
 1145SOL    HW1 4334   2.648   5.002   5.053
 1145SOL    HW2 4335   2.806   4.964   5.040
 1146SOL     OW 4336   5.895   2.032   1.956
 1146SOL    HW1 4337   5.913   2.013   1.859
 1146SOL    HW2 4338   5.804   1.999   1.979
 1147SOL     OW 4339   6.772   4.439   1.989
 1147SOL    HW1 4340   6.789   4.405   2.081
 1147SOL    HW2 4341   6.683   4.406   1.957
 1148SOL     OW 4342   5.979   6.972   6.402
 1148SOL    HW1 4343   6.061   0.005   6.425
 1148SOL    HW2 4344   5.911   6.984   6.473
 1149SOL     OW 4345   4.944   3.526   2.966
 1149SOL    HW1 4346   4.902   3.613   2.992
 1149SOL    HW2 4347   4.936   3.462   3.042
 1150SOL     OW 4348   2.469   6.107   5.364
 1150SOL    HW1 4349   2.438   6.196   5.333
 1150SOL    HW2 4350   2.397   6.039   5.348
 1151SOL     OW 4351   2.316   5.448   0.076
 1151SOL    HW1 4352   2.352   5.421   0.166
 1151SOL    HW2 4353   2.293   5.367   0.024
 1152SOL     OW 4354   6.587   0.948   3.486
 1152SOL    HW1 4355   6.525   0.900   3.547
 1152SOL    HW2 4356   6.536   1.018   3.435
 1153SOL     OW 4357   2.302   4.396   2.662
 1153SOL    HW1 4358   2.240   4.468   2.692
 1153SOL    HW2 4359   2.347   4.424   2.577
 1154SOL     OW 4360   1.480   4.166   2.095
 1154SOL    HW1 4361   1.504   4.219   2.176
 1154SOL    HW2 4362   1.442   4.227   2.025
 1155SOL     OW 4363   4.985   1.055   2.022
 1155SOL    HW1 4364   5.044   1.036   1.944
 1155SOL    HW2 4365   4.924   1.132   2.001
 1156SOL     OW 4366   2.491   0.614   4.503
 1156SOL    HW1 4367   2.553   0.543   4.468
 1156SOL    HW2 4368   2.404   0.609   4.454
 1157SOL     OW 4369   1.683   3.399   3.908
 1157SOL    HW1 4370   1.745   3.424   3.833
 1157SOL    HW2 4371   1.734   3.395   3.993
 1158SOL     OW 4372   4.873   5.515   5.263
 1158SOL    HW1 4373   4.830   5.532   5.174
 1158SOL    HW2 4374   4.921   5.597   5.293
 1159SOL     OW 4375   6.295   4.166   2.799
 1159SOL    HW1 4376   6.218   4.105   2.782
 1159SOL    HW2 4377   6.323   4.160   2.895
 1160SOL     OW 4378   2.589   2.570   1.769
 1160SOL    HW1 4379   2.584   2.517   1.853
 1160SOL    HW2 4380   2.550   2.518   1.693
 1161SOL     OW 4381   4.069   1.037   3.378
 1161SOL    HW1 4382   4.136   1.111   3.371
 1161SOL    HW2 4383   3.991   1.068   3.433
 1162SOL     OW 4384   3.452   5.301   1.758
 1162SOL    HW1 4385   3.536   5.247   1.753
 1162SOL    HW2 4386   3.466   5.390   1.714
 1163SOL     OW 4387   4.851   6.468   2.910
 1163SOL    HW1 4388   4.932   6.466   2.968
 1163SOL    HW2 4389   4.830   6.562   2.885
 1164SOL     OW 4390   6.614   4.533   4.216
 1164SOL    HW1 4391   6.595   4.436   4.232
 1164SOL    HW2 4392   6.671   4.543   4.135
 1165SOL     OW 4393   0.563   5.341   1.770
 1165SOL    HW1 4394   0.609   5.402   1.833
 1165SOL    HW2 4395   0.598   5.355   1.677
 1166SOL     OW 4396   3.539   0.707   6.208
 1166SOL    HW1 4397   3.484   0.631   6.243
 1166SOL    HW2 4398   3.600   0.740   6.280
 1167SOL     OW 4399   4.680   1.460   5.386
 1167SOL    HW1 4400   4.775   1.471   5.357
 1167SOL    HW2 4401   4.673   1.382   5.448
 1168SOL     OW 4402   5.548   0.976   4.005
 1168SOL    HW1 4403   5.559   0.892   3.952
 1168SOL    HW2 4404   5.545   1.054   3.942
 1169SOL     OW 4405   2.123   2.273   1.002
 1169SOL    HW1 4406   2.146   2.301   0.909
 1169SOL    HW2 4407   2.200   2.291   1.063
 1170SOL     OW 4408   2.349   0.880   1.699
 1170SOL    HW1 4409   2.371   0.785   1.722
 1170SOL    HW2 4410   2.415   0.915   1.632
 1171SOL     OW 4411   4.475   0.440   1.026
 1171SOL    HW1 4412   4.400   0.397   1.076
 1171SOL    HW2 4413   4.537   0.370   0.991
 1172SOL     OW 4414   3.636   3.306   5.760
 1172SOL    HW1 4415   3.701   3.303   5.684
 1172SOL    HW2 4416   3.668   3.371   5.829
 1173SOL     OW 4417   5.587   5.837   6.745
 1173SOL    HW1 4418   5.647   5.787   6.682
 1173SOL    HW2 4419   5.627   5.926   6.765
 1174SOL     OW 4420   3.694   5.809   6.814
 1174SOL    HW1 4421   3.608   5.814   6.763
 1174SOL    HW2 4422   3.769   5.789   6.751
 1175SOL     OW 4423   0.312   5.317   4.713
 1175SOL    HW1 4424   0.269   5.406   4.696
 1175SOL    HW2 4425   0.248   5.244   4.689
 1176SOL     OW 4426   6.549   3.536   1.872
 1176SOL    HW1 4427   6.564   3.622   1.824
 1176SOL    HW2 4428   6.637   3.495   1.897
 1177SOL     OW 4429   6.753   3.061   5.701
 1177SOL    HW1 4430   6.669   3.106   5.671
 1177SOL    HW2 4431   6.732   2.995   5.773
 1178SOL     OW 4432   4.446   5.300   2.385
 1178SOL    HW1 4433   4.360   5.342   2.353
 1178SOL    HW2 4434   4.523   5.354   2.353
 1179SOL     OW 4435   1.613   5.375   6.212
 1179SOL    HW1 4436   1.526   5.360   6.259
 1179SOL    HW2 4437   1.630   5.474   6.204
 1180SOL     OW 4438   2.154   0.877   4.285
 1180SOL    HW1 4439   2.058   0.870   4.260
 1180SOL    HW2 4440   2.198   0.949   4.232
 1181SOL     OW 4441   1.338   4.065   2.376
 1181SOL    HW1 4442   1.422   4.120   2.378
 1181SOL    HW2 4443   1.275   4.103   2.309
 1182SOL     OW 4444   0.146   3.604   4.045
 1182SOL    HW1 4445   0.181   3.533   4.107
 1182SOL    HW2 4446   0.077   3.565   3.985
 1183SOL     OW 4447   4.080   6.031   1.106
 1183SOL    HW1 4448   4.017   6.010   1.032
 1183SOL    HW2 4449   4.174   6.017   1.076
 1184SOL     OW 4450   3.809   2.971   6.853
 1184SOL    HW1 4451   3.889   3.010   6.898
 1184SOL    HW2 4452   3.727   2.995   6.904
 1185SOL     OW 4453   3.280   1.487   6.867
 1185SOL    HW1 4454   3.220   1.422   6.915
 1185SOL    HW2 4455   3.226   1.566   6.838
 1186SOL     OW 4456   3.932   0.367   5.017
 1186SOL    HW1 4457   3.992   0.402   4.945
 1186SOL    HW2 4458   3.906   0.273   4.996
 1187SOL     OW 4459   0.324   2.190   4.747
 1187SOL    HW1 4460   0.271   2.112   4.782
 1187SOL    HW2 4461   0.262   2.263   4.719
 1188SOL     OW 4462   1.875   1.056   5.870
 1188SOL    HW1 4463   1.828   0.968   5.873
 1188SOL    HW2 4464   1.845   1.112   5.947
 1189SOL     OW 4465   0.539   0.950   1.260
 1189SOL    HW1 4466   0.598   0.913   1.332
 1189SOL    HW2 4467   0.469   0.884   1.236
 1190SOL     OW 4468   3.394   6.282   1.825
 1190SOL    HW1 4469   3.472   6.338   1.856
 1190SOL    HW2 4470   3.310   6.334   1.836
 1191SOL     OW 4471   1.961   4.129   1.777
 1191SOL    HW1 4472   1.960   4.029   1.774
 1191SOL    HW2 4473   1.915   4.166   1.697
 1192SOL     OW 4474   3.454   5.618   2.564
 1192SOL    HW1 4475   3.520   5.625   2.489
 1192SOL    HW2 4476   3.463   5.697   2.623
 1193SOL     OW 4477   3.052   2.176   3.560
 1193SOL    HW1 4478   3.062   2.258   3.617
 1193SOL    HW2 4479   3.132   2.166   3.501
 1194SOL     OW 4480   6.655   2.488   2.900
 1194SOL    HW1 4481   6.728   2.431   2.864
 1194SOL    HW2 4482   6.606   2.531   2.824
 1195SOL     OW 4483   3.700   0.268   6.769
 1195SOL    HW1 4484   3.785   0.225   6.738
 1195SOL    HW2 4485   3.680   0.237   6.862
 1196SOL     OW 4486   1.482   5.573   3.120
 1196SOL    HW1 4487   1.514   5.479   3.109
 1196SOL    HW2 4488   1.395   5.572   3.169
 1197SOL     OW 4489   3.384   5.013   0.105
 1197SOL    HW1 4490   3.479   5.039   0.085
 1197SOL    HW2 4491   3.377   4.914   0.111
 1198SOL     OW 4492   3.438   0.904   3.071
 1198SOL    HW1 4493   3.379   0.950   3.004
 1198SOL    HW2 4494   3.521   0.959   3.085
 1199SOL     OW 4495   3.562   3.923   4.264
 1199SOL    HW1 4496   3.607   3.895   4.179
 1199SOL    HW2 4497   3.607   4.004   4.300
 1200SOL     OW 4498   4.839   3.923   1.511
 1200SOL    HW1 4499   4.793   3.963   1.590
 1200SOL    HW2 4500   4.896   3.847   1.541
 1201SOL     OW 4501   2.004   1.943   5.340
 1201SOL    HW1 4502   2.018   1.846   5.360
 1201SOL    HW2 4503   1.909   1.958   5.312
 1202SOL     OW 4504   6.137   6.704   4.309
 1202SOL    HW1 4505   6.158   6.632   4.243
 1202SOL    HW2 4506   6.141   6.793   4.264
 1203SOL     OW 4507   5.834   0.240   2.055
 1203SOL    HW1 4508   5.880   0.269   1.971
 1203SOL    HW2 4509   5.849   0.308   2.127
 1204SOL     OW 4510   2.445   6.900   0.304
 1204SOL    HW1 4511   2.472   6.975   0.364
 1204SOL    HW2 4512   2.373   6.846   0.347
 1205SOL     OW 4513   0.720   2.938   6.241
 1205SOL    HW1 4514   0.661   3.009   6.280
 1205SOL    HW2 4515   0.706   2.934   6.142
 1206SOL     OW 4516   6.265   1.224   5.735
 1206SOL    HW1 4517   6.173   1.233   5.696
 1206SOL    HW2 4518   6.278   1.130   5.766
 1207SOL     OW 4519   6.402   5.778   6.226
 1207SOL    HW1 4520   6.434   5.771   6.132
 1207SOL    HW2 4521   6.381   5.874   6.247
 1208SOL     OW 4522   3.455   3.633   2.960
 1208SOL    HW1 4523   3.526   3.612   3.027
 1208SOL    HW2 4524   3.383   3.565   2.964
 1209SOL     OW 4525   0.147   3.350   4.923
 1209SOL    HW1 4526   0.223   3.288   4.941
 1209SOL    HW2 4527   0.070   3.298   4.886
 1210SOL     OW 4528   2.622   0.149   3.759
 1210SOL    HW1 4529   2.674   0.233   3.778
 1210SOL    HW2 4530   2.557   0.132   3.833
 1211SOL     OW 4531   0.085   3.616   3.436
 1211SOL    HW1 4532   0.155   3.566   3.488
 1211SOL    HW2 4533   0.112   3.712   3.428
 1212SOL     OW 4534   1.081   4.440   3.314
 1212SOL    HW1 4535   1.036   4.511   3.260
 1212SOL    HW2 4536   1.175   4.466   3.332
 1213SOL     OW 4537   6.362   3.417   5.270
 1213SOL    HW1 4538   6.445   3.428   5.215
 1213SOL    HW2 4539   6.339   3.504   5.313
 1214SOL     OW 4540   0.468   1.891   1.079
 1214SOL    HW1 4541   0.496   1.805   1.035
 1214SOL    HW2 4542   0.519   1.967   1.039
 1215SOL     OW 4543   0.888   6.038   2.074
 1215SOL    HW1 4544   0.907   6.135   2.053
 1215SOL    HW2 4545   0.844   5.996   1.994
 1216SOL     OW 4546   2.237   6.848   1.159
 1216SOL    HW1 4547   2.283   6.930   1.193
 1216SOL    HW2 4548   2.214   6.861   1.062
 1217SOL     OW 4549   1.466   2.867   3.228
 1217SOL    HW1 4550   1.537   2.796   3.238
 1217SOL    HW2 4551   1.510   2.956   3.216
 1218SOL     OW 4552   6.921   4.205   3.491
 1218SOL    HW1 4553   6.925   4.290   3.438
 1218SOL    HW2 4554   6.967   4.218   3.579
 1219SOL     OW 4555   1.799   6.017   3.119
 1219SOL    HW1 4556   1.886   5.995   3.164
 1219SOL    HW2 4557   1.761   5.934   3.079
 1220SOL     OW 4558   6.695   4.765   2.884
 1220SOL    HW1 4559   6.613   4.724   2.844
 1220SOL    HW2 4560   6.716   4.719   2.970
 1221SOL     OW 4561   4.960   4.754   6.437
 1221SOL    HW1 4562   4.902   4.707   6.504
 1221SOL    HW2 4563   4.941   4.852   6.440
 1222SOL     OW 4564   6.831   5.107   1.012
 1222SOL    HW1 4565   6.733   5.121   1.018
 1222SOL    HW2 4566   6.850   5.014   0.981
 1223SOL     OW 4567   0.511   4.655   4.604
 1223SOL    HW1 4568   0.472   4.587   4.542
 1223SOL    HW2 4569   0.493   4.627   4.699
 1224SOL     OW 4570   4.094   4.939   1.516
 1224SOL    HW1 4571   4.103   4.841   1.495
 1224SOL    HW2 4572   4.181   4.973   1.554
 1225SOL     OW 4573   5.114   1.483   6.439
 1225SOL    HW1 4574   5.211   1.462   6.442
 1225SOL    HW2 4575   5.076   1.479   6.532
 1226SOL     OW 4576   5.954   5.554   0.542
 1226SOL    HW1 4577   5.946   5.519   0.449
 1226SOL    HW2 4578   6.049   5.579   0.561
 1227SOL     OW 4579   6.174   4.602   0.494
 1227SOL    HW1 4580   6.265   4.609   0.453
 1227SOL    HW2 4581   6.175   4.534   0.567
 1228SOL     OW 4582   4.033   3.932   4.912
 1228SOL    HW1 4583   4.022   3.893   4.821
 1228SOL    HW2 4584   4.083   4.018   4.906
 1229SOL     OW 4585   2.126   5.315   1.935
 1229SOL    HW1 4586   2.088   5.356   2.018
 1229SOL    HW2 4587   2.156   5.222   1.955
 1230SOL     OW 4588   5.373   4.761   6.895
 1230SOL    HW1 4589   5.313   4.840   6.910
 1230SOL    HW2 4590   5.450   4.765   6.959
 1231SOL     OW 4591   1.642   0.361   1.033
 1231SOL    HW1 4592   1.587   0.381   0.952
 1231SOL    HW2 4593   1.658   0.262   1.040
 1232SOL     OW 4594   2.500   1.409   5.786
 1232SOL    HW1 4595   2.510   1.351   5.867
 1232SOL    HW2 4596   2.471   1.501   5.814
 1233SOL     OW 4597   0.236   5.562   4.619
 1233SOL    HW1 4598   0.319   5.599   4.576
 1233SOL    HW2 4599   0.161   5.563   4.552
 1234SOL     OW 4600   0.064   4.378   4.982
 1234SOL    HW1 4601   0.114   4.389   5.068
 1234SOL    HW2 4602   0.057   4.281   4.961
 1235SOL     OW 4603   6.341   5.426   0.233
 1235SOL    HW1 4604   6.275   5.352   0.219
 1235SOL    HW2 4605   6.311   5.508   0.184
 1236SOL     OW 4606   0.476   0.541   2.769
 1236SOL    HW1 4607   0.533   0.489   2.833
 1236SOL    HW2 4608   0.521   0.627   2.747
 1237SOL     OW 4609   0.683   0.667   4.585
 1237SOL    HW1 4610   0.647   0.691   4.495
 1237SOL    HW2 4611   0.607   0.661   4.651
 1238SOL     OW 4612   0.685   1.233   4.085
 1238SOL    HW1 4613   0.677   1.331   4.103
 1238SOL    HW2 4614   0.719   1.219   3.992
 1239SOL     OW 4615   5.033   4.888   3.631
 1239SOL    HW1 4616   5.070   4.919   3.719
 1239SOL    HW2 4617   4.963   4.951   3.600
 1240SOL     OW 4618   0.898   4.280   1.544
 1240SOL    HW1 4619   0.934   4.316   1.459
 1240SOL    HW2 4620   0.801   4.303   1.552
 1241SOL     OW 4621   3.895   5.550   6.508
 1241SOL    HW1 4622   3.833   5.472   6.502
 1241SOL    HW2 4623   3.964   5.543   6.436
 1242SOL     OW 4624   2.387   5.591   0.839
 1242SOL    HW1 4625   2.443   5.649   0.899
 1242SOL    HW2 4626   2.435   5.576   0.752
 1243SOL     OW 4627   0.623   4.236   3.762
 1243SOL    HW1 4628   0.699   4.265   3.705
 1243SOL    HW2 4629   0.657   4.210   3.853
 1244SOL     OW 4630   6.742   7.014   4.559
 1244SOL    HW1 4631   6.768   0.090   4.561
 1244SOL    HW2 4632   6.643   7.006   4.569
 1245SOL     OW 4633   4.382   0.115   1.617
 1245SOL    HW1 4634   4.373   0.015   1.610
 1245SOL    HW2 4635   4.434   0.149   1.538
 1246SOL     OW 4636   4.976   2.609   2.294
 1246SOL    HW1 4637   5.038   2.619   2.372
 1246SOL    HW2 4638   4.883   2.591   2.327
 1247SOL     OW 4639   4.874   6.438   2.646
 1247SOL    HW1 4640   4.789   6.483   2.618
 1247SOL    HW2 4641   4.871   6.417   2.744
 1248SOL     OW 4642   6.785   0.549   5.058
 1248SOL    HW1 4643   6.821   0.465   5.098
 1248SOL    HW2 4644   6.792   0.623   5.124
 1249SOL     OW 4645   6.172   6.609   6.934
 1249SOL    HW1 4646   6.196   6.671   6.860
 1249SOL    HW2 4647   6.254   6.582   6.984
 1250SOL     OW 4648   0.483   4.269   4.847
 1250SOL    HW1 4649   0.436   4.262   4.759
 1250SOL    HW2 4650   0.554   4.339   4.841
 1251SOL     OW 4651   2.280   0.844   3.323
 1251SOL    HW1 4652   2.249   0.939   3.321
 1251SOL    HW2 4653   2.218   0.788   3.268
 1252SOL     OW 4654   2.416   5.062   6.248
 1252SOL    HW1 4655   2.395   5.129   6.319
 1252SOL    HW2 4656   2.515   5.054   6.237
 1253SOL     OW 4657   3.227   5.347   0.792
 1253SOL    HW1 4658   3.202   5.367   0.697
 1253SOL    HW2 4659   3.257   5.252   0.799
 1254SOL     OW 4660   6.858   0.933   3.808
 1254SOL    HW1 4661   6.857   0.846   3.857
 1254SOL    HW2 4662   6.853   0.916   3.709
 1255SOL     OW 4663   6.044   1.874   6.401
 1255SOL    HW1 4664   6.048   1.900   6.305
 1255SOL    HW2 4665   6.134   1.841   6.430
 1256SOL     OW 4666   6.867   5.993   6.134
 1256SOL    HW1 4667   6.906   6.003   6.043
 1256SOL    HW2 4668   6.918   5.922   6.184
 1257SOL     OW 4669   0.269   6.350   2.368
 1257SOL    HW1 4670   0.236   6.389   2.454
 1257SOL    HW2 4671   0.260   6.418   2.295
 1258SOL     OW 4672   5.092   5.892   6.356
 1258SOL    HW1 4673   5.085   5.887   6.456
 1258SOL    HW2 4674   5.153   5.821   6.323
 1259SOL     OW 4675   6.231   6.660   4.559
 1259SOL    HW1 4676   6.191   6.659   4.467
 1259SOL    HW2 4677   6.216   6.571   4.603
 1260SOL     OW 4678   3.180   1.056   0.953
 1260SOL    HW1 4679   3.190   1.154   0.971
 1260SOL    HW2 4680   3.139   1.011   1.032
 1261SOL     OW 4681   0.673   4.464   4.827
 1261SOL    HW1 4682   0.685   4.509   4.915
 1261SOL    HW2 4683   0.763   4.438   4.791
 1262SOL     OW 4684   4.183   6.635   1.201
 1262SOL    HW1 4685   4.201   6.726   1.237
 1262SOL    HW2 4686   4.095   6.602   1.236
 1263SOL     OW 4687   6.402   1.509   1.139
 1263SOL    HW1 4688   6.438   1.593   1.100
 1263SOL    HW2 4689   6.467   1.474   1.207
 1264SOL     OW 4690   5.591   2.869   5.068
 1264SOL    HW1 4691   5.582   2.821   4.981
 1264SOL    HW2 4692   5.529   2.828   5.135
 1265SOL     OW 4693   5.650   5.112   4.419
 1265SOL    HW1 4694   5.684   5.181   4.355
 1265SOL    HW2 4695   5.705   5.029   4.412
 1266SOL     OW 4696   2.471   0.668   3.853
 1266SOL    HW1 4697   2.568   0.670   3.827
 1266SOL    HW2 4698   2.415   0.675   3.770
 1267SOL     OW 4699   0.416   4.848   2.186
 1267SOL    HW1 4700   0.324   4.877   2.160
 1267SOL    HW2 4701   0.479   4.865   2.110
 1268SOL     OW 4702   6.458   4.736   6.902
 1268SOL    HW1 4703   6.472   4.765   6.997
 1268SOL    HW2 4704   6.449   4.636   6.899
 1269SOL     OW 4705   1.272   4.055   6.101
 1269SOL    HW1 4706   1.252   4.103   6.016
 1269SOL    HW2 4707   1.365   4.019   6.099
 1270SOL     OW 4708   1.790   2.549   3.815
 1270SOL    HW1 4709   1.840   2.553   3.902
 1270SOL    HW2 4710   1.740   2.463   3.810
 1271SOL     OW 4711   5.500   3.626   2.929
 1271SOL    HW1 4712   5.403   3.636   2.907
 1271SOL    HW2 4713   5.513   3.638   3.028
 1272SOL     OW 4714   5.760   6.624   0.362
 1272SOL    HW1 4715   5.733   6.692   0.293
 1272SOL    HW2 4716   5.809   6.549   0.318
 1273SOL     OW 4717   2.718   6.844   4.768
 1273SOL    HW1 4718   2.765   6.808   4.849
 1273SOL    HW2 4719   2.760   6.804   4.686
 1274SOL     OW 4720   5.056   2.472   2.068
 1274SOL    HW1 4721   4.984   2.501   2.131
 1274SOL    HW2 4722   5.106   2.552   2.034
 1275SOL     OW 4723   3.548   1.014   3.883
 1275SOL    HW1 4724   3.588   1.078   3.949
 1275SOL    HW2 4725   3.466   1.055   3.843
 1276SOL     OW 4726   5.248   6.527   3.383
 1276SOL    HW1 4727   5.295   6.468   3.317
 1276SOL    HW2 4728   5.191   6.593   3.334
 1277SOL     OW 4729   0.709   1.859   4.465
 1277SOL    HW1 4730   0.614   1.846   4.493
 1277SOL    HW2 4731   0.767   1.864   4.546
 1278SOL     OW 4732   3.023   1.618   4.815
 1278SOL    HW1 4733   2.933   1.653   4.789
 1278SOL    HW2 4734   3.048   1.542   4.755
 1279SOL     OW 4735   1.715   4.813   0.567
 1279SOL    HW1 4736   1.642   4.846   0.626
 1279SOL    HW2 4737   1.789   4.880   0.563
 1280SOL     OW 4738   1.344   5.908   2.999
 1280SOL    HW1 4739   1.365   5.956   2.914
 1280SOL    HW2 4740   1.371   5.964   3.077
 1281SOL     OW 4741   0.792   6.434   3.924
 1281SOL    HW1 4742   0.869   6.385   3.884
 1281SOL    HW2 4743   0.713   6.374   3.929
 1282SOL     OW 4744   1.822   6.600   2.537
 1282SOL    HW1 4745   1.743   6.616   2.478
 1282SOL    HW2 4746   1.792   6.561   2.624
 1283SOL     OW 4747   5.287   4.165   5.296
 1283SOL    HW1 4748   5.200   4.204   5.266
 1283SOL    HW2 4749   5.308   4.083   5.242
 1284SOL     OW 4750   2.785   2.077   3.115
 1284SOL    HW1 4751   2.762   2.143   3.187
 1284SOL    HW2 4752   2.856   2.115   3.056
 1285SOL     OW 4753   5.919   2.183   5.670
 1285SOL    HW1 4754   5.931   2.148   5.763
 1285SOL    HW2 4755   5.991   2.147   5.611
 1286SOL     OW 4756   5.586   5.773   0.731
 1286SOL    HW1 4757   5.661   5.760   0.797
 1286SOL    HW2 4758   5.616   5.743   0.641
 1287SOL     OW 4759   6.108   3.301   6.121
 1287SOL    HW1 4760   6.164   3.361   6.179
 1287SOL    HW2 4761   6.165   3.263   6.048
 1288SOL     OW 4762   0.017   3.215   3.594
 1288SOL    HW1 4763   0.078   3.273   3.648
 1288SOL    HW2 4764   6.962   3.183   3.651
 1289SOL     OW 4765   0.457   5.510   2.812
 1289SOL    HW1 4766   0.383   5.450   2.781
 1289SOL    HW2 4767   0.542   5.457   2.815
 1290SOL     OW 4768   6.411   6.969   1.983
 1290SOL    HW1 4769   6.320   6.939   2.011
 1290SOL    HW2 4770   6.403   0.023   1.916
 1291SOL     OW 4771   1.887   5.820   1.517
 1291SOL    HW1 4772   1.865   5.799   1.422
 1291SOL    HW2 4773   1.974   5.778   1.542
 1292SOL     OW 4774   1.713   6.536   0.841
 1292SOL    HW1 4775   1.708   6.635   0.828
 1292SOL    HW2 4776   1.677   6.490   0.761
 1293SOL     OW 4777   6.166   1.386   6.630
 1293SOL    HW1 4778   6.102   1.462   6.645
 1293SOL    HW2 4779   6.127   1.323   6.563
 1294SOL     OW 4780   0.584   1.804   3.983
 1294SOL    HW1 4781   0.505   1.812   4.044
 1294SOL    HW2 4782   0.666   1.836   4.030
 1295SOL     OW 4783   5.131   4.511   0.545
 1295SOL    HW1 4784   5.065   4.578   0.579
 1295SOL    HW2 4785   5.187   4.552   0.474
 1296SOL     OW 4786   3.511   1.542   0.622
 1296SOL    HW1 4787   3.480   1.635   0.642
 1296SOL    HW2 4788   3.435   1.478   0.631
 1297SOL     OW 4789   5.927   0.818   6.170
 1297SOL    HW1 4790   5.933   0.776   6.260
 1297SOL    HW2 4791   5.832   0.840   6.149
 1298SOL     OW 4792   6.185   2.916   3.292
 1298SOL    HW1 4793   6.236   2.967   3.222
 1298SOL    HW2 4794   6.231   2.829   3.310
 1299SOL     OW 4795   1.668   3.726   4.731
 1299SOL    HW1 4796   1.680   3.719   4.632
 1299SOL    HW2 4797   1.651   3.822   4.755
 1300SOL     OW 4798   3.580   2.943   2.947
 1300SOL    HW1 4799   3.521   3.007   2.996
 1300SOL    HW2 4800   3.575   2.853   2.990
 1301SOL     OW 4801   0.947   1.030   1.668
 1301SOL    HW1 4802   0.884   1.074   1.731
 1301SOL    HW2 4803   0.919   0.935   1.653
 1302SOL     OW 4804   2.912   5.982   5.995
 1302SOL    HW1 4805   2.881   6.027   5.911
 1302SOL    HW2 4806   2.999   6.022   6.024
 1303SOL     OW 4807   3.069   0.355   1.187
 1303SOL    HW1 4808   2.975   0.343   1.155
 1303SOL    HW2 4809   3.073   0.336   1.285
 1304SOL     OW 4810   3.519   0.817   5.954
 1304SOL    HW1 4811   3.523   0.773   6.044
 1304SOL    HW2 4812   3.610   0.852   5.930
 1305SOL     OW 4813   5.885   6.676   4.494
 1305SOL    HW1 4814   5.791   6.675   4.459
 1305SOL    HW2 4815   5.948   6.691   4.418
 1306SOL     OW 4816   1.633   5.317   3.627
 1306SOL    HW1 4817   1.627   5.363   3.715
 1306SOL    HW2 4818   1.673   5.226   3.638
 1307SOL     OW 4819   1.261   1.210   5.146
 1307SOL    HW1 4820   1.193   1.221   5.218
 1307SOL    HW2 4821   1.268   1.113   5.120
 1308SOL     OW 4822   4.406   6.467   3.005
 1308SOL    HW1 4823   4.323   6.413   2.998
 1308SOL    HW2 4824   4.437   6.470   3.100
 1309SOL     OW 4825   6.575   3.430   4.082
 1309SOL    HW1 4826   6.644   3.500   4.063
 1309SOL    HW2 4827   6.619   3.352   4.126
 1310SOL     OW 4828   5.611   3.656   5.687
 1310SOL    HW1 4829   5.667   3.732   5.651
 1310SOL    HW2 4830   5.581   3.679   5.780
 1311SOL     OW 4831   4.650   4.707   0.323
 1311SOL    HW1 4832   4.652   4.610   0.345
 1311SOL    HW2 4833   4.698   4.723   0.237
 1312SOL     OW 4834   6.836   1.252   1.840
 1312SOL    HW1 4835   6.783   1.174   1.871
 1312SOL    HW2 4836   6.934   1.231   1.847
 1313SOL     OW 4837   3.776   5.294   4.755
 1313SOL    HW1 4838   3.769   5.197   4.775
 1313SOL    HW2 4839   3.799   5.307   4.658
 1314SOL     OW 4840   0.155   0.986   6.074
 1314SOL    HW1 4841   0.092   0.909   6.062
 1314SOL    HW2 4842   0.182   0.993   6.170
 1315SOL     OW 4843   1.891   6.768   4.122
 1315SOL    HW1 4844   1.838   6.849   4.099
 1315SOL    HW2 4845   1.862   6.732   4.210
 1316SOL     OW 4846   3.261   6.042   3.888
 1316SOL    HW1 4847   3.322   6.092   3.949
 1316SOL    HW2 4848   3.282   5.944   3.892
 1317SOL     OW 4849   6.957   3.062   4.153
 1317SOL    HW1 4850   7.008   3.042   4.236
 1317SOL    HW2 4851   7.012   3.118   4.092
 1318SOL     OW 4852   0.868   6.824   2.260
 1318SOL    HW1 4853   0.957   6.796   2.224
 1318SOL    HW2 4854   0.855   6.922   2.244
 1319SOL     OW 4855   0.648   6.366   0.845
 1319SOL    HW1 4856   0.559   6.385   0.803
 1319SOL    HW2 4857   0.708   6.445   0.832
 1320SOL     OW 4858   5.253   5.381   5.388
 1320SOL    HW1 4859   5.160   5.344   5.394
 1320SOL    HW2 4860   5.317   5.306   5.376
 1321SOL     OW 4861   3.383   1.369   0.953
 1321SOL    HW1 4862   3.443   1.436   0.997
 1321SOL    HW2 4863   3.292   1.372   0.995
 1322SOL     OW 4864   4.894   1.037   6.387
 1322SOL    HW1 4865   4.989   1.065   6.377
 1322SOL    HW2 4866   4.834   1.107   6.349
 1323SOL     OW 4867   6.442   0.889   4.292
 1323SOL    HW1 4868   6.417   0.863   4.199
 1323SOL    HW2 4869   6.476   0.809   4.341
 1324SOL     OW 4870   1.006   2.377   0.308
 1324SOL    HW1 4871   1.035   2.311   0.239
 1324SOL    HW2 4872   1.023   2.339   0.399
 1325SOL     OW 4873   4.515   4.986   4.023
 1325SOL    HW1 4874   4.443   4.954   3.961
 1325SOL    HW2 4875   4.605   4.965   3.983
 1326SOL     OW 4876   5.431   3.955   4.394
 1326SOL    HW1 4877   5.527   3.972   4.413
 1326SOL    HW2 4878   5.419   3.940   4.296
 1327SOL     OW 4879   2.778   6.207   3.908
 1327SOL    HW1 4880   2.752   6.304   3.906
 1327SOL    HW2 4881   2.811   6.180   3.818
 1328SOL     OW 4882   2.321   1.744   1.450
 1328SOL    HW1 4883   2.406   1.795   1.468
 1328SOL    HW2 4884   2.290   1.701   1.535
 1329SOL     OW 4885   1.539   5.787   1.465
 1329SOL    HW1 4886   1.473   5.788   1.540
 1329SOL    HW2 4887   1.529   5.702   1.413
 1330SOL     OW 4888   5.242   6.654   1.575
 1330SOL    HW1 4889   5.179   6.708   1.632
 1330SOL    HW2 4890   5.320   6.626   1.630
 1331SOL     OW 4891   0.621   2.157   1.727
 1331SOL    HW1 4892   0.709   2.192   1.694
 1331SOL    HW2 4893   0.590   2.084   1.666
 1332SOL     OW 4894   4.745   2.075   0.796
 1332SOL    HW1 4895   4.819   2.133   0.830
 1332SOL    HW2 4896   4.692   2.124   0.728
 1333SOL     OW 4897   4.025   3.321   5.654
 1333SOL    HW1 4898   3.996   3.354   5.564
 1333SOL    HW2 4899   4.083   3.240   5.643
 1334SOL     OW 4900   1.749   3.144   4.504
 1334SOL    HW1 4901   1.825   3.207   4.518
 1334SOL    HW2 4902   1.674   3.167   4.566
 1335SOL     OW 4903   1.729   5.121   3.968
 1335SOL    HW1 4904   1.766   5.100   3.878
 1335SOL    HW2 4905   1.763   5.055   4.035
 1336SOL     OW 4906   0.179   6.428   5.113
 1336SOL    HW1 4907   0.244   6.416   5.037
 1336SOL    HW2 4908   0.155   6.525   5.121
 1337SOL     OW 4909   3.358   7.000   6.519
 1337SOL    HW1 4910   3.376   0.048   6.447
 1337SOL    HW2 4911   3.263   7.007   6.548
 1338SOL     OW 4912   3.953   4.961   0.772
 1338SOL    HW1 4913   4.016   4.883   0.766
 1338SOL    HW2 4914   3.862   4.929   0.798
 1339SOL     OW 4915   6.979   3.949   6.488
 1339SOL    HW1 4916   6.940   3.999   6.565
 1339SOL    HW2 4917   6.934   3.860   6.479
 1340SOL     OW 4918   3.025   1.888   6.164
 1340SOL    HW1 4919   3.095   1.821   6.141
 1340SOL    HW2 4920   2.947   1.877   6.102
 1341SOL     OW 4921   5.551   1.667   4.319
 1341SOL    HW1 4922   5.591   1.750   4.360
 1341SOL    HW2 4923   5.524   1.604   4.392
 1342SOL     OW 4924   0.353   6.949   0.496
 1342SOL    HW1 4925   0.269   6.948   0.550
 1342SOL    HW2 4926   0.378   6.856   0.471
 1343SOL     OW 4927   3.339   6.054   3.313
 1343SOL    HW1 4928   3.258   6.029   3.365
 1343SOL    HW2 4929   3.421   6.026   3.363
 1344SOL     OW 4930   4.810   1.813   2.314
 1344SOL    HW1 4931   4.867   1.868   2.253
 1344SOL    HW2 4932   4.771   1.736   2.264
 1345SOL     OW 4933   6.315   5.880   2.344
 1345SOL    HW1 4934   6.375   5.951   2.307
 1345SOL    HW2 4935   6.321   5.798   2.288
 1346SOL     OW 4936   6.738   1.841   3.170
 1346SOL    HW1 4937   6.723   1.842   3.071
 1346SOL    HW2 4938   6.687   1.917   3.211
 1347SOL     OW 4939   4.271   1.306   3.715
 1347SOL    HW1 4940   4.251   1.259   3.801
 1347SOL    HW2 4941   4.332   1.249   3.660
 1348SOL     OW 4942   5.155   6.236   4.675
 1348SOL    HW1 4943   5.148   6.194   4.765
 1348SOL    HW2 4944   5.246   6.219   4.636
 1349SOL     OW 4945   5.203   2.004   0.110
 1349SOL    HW1 4946   5.290   2.046   0.081
 1349SOL    HW2 4947   5.194   2.011   0.209
 1350SOL     OW 4948   3.453   1.405   4.349
 1350SOL    HW1 4949   3.393   1.477   4.382
 1350SOL    HW2 4950   3.416   1.366   4.264
 1351SOL     OW 4951   1.313   1.532   3.734
 1351SOL    HW1 4952   1.291   1.581   3.819
 1351SOL    HW2 4953   1.378   1.586   3.681
 1352SOL     OW 4954   1.264   5.997   4.499
 1352SOL    HW1 4955   1.181   5.958   4.540
 1352SOL    HW2 4956   1.341   5.983   4.561
 1353SOL     OW 4957   2.716   3.213   5.904
 1353SOL    HW1 4958   2.798   3.269   5.911
 1353SOL    HW2 4959   2.694   3.199   5.807
 1354SOL     OW 4960   0.111   6.725   6.943
 1354SOL    HW1 4961   0.190   6.685   6.988
 1354SOL    HW2 4962   0.057   6.777   7.009
 1355SOL     OW 4963   4.827   3.227   0.435
 1355SOL    HW1 4964   4.865   3.320   0.435
 1355SOL    HW2 4965   4.899   3.162   0.462
 1356SOL     OW 4966   3.657   2.820   2.283
 1356SOL    HW1 4967   3.583   2.852   2.223
 1356SOL    HW2 4968   3.683   2.727   2.256
 1357SOL     OW 4969   3.545   2.235   5.571
 1357SOL    HW1 4970   3.571   2.226   5.667
 1357SOL    HW2 4971   3.491   2.319   5.559
 1358SOL     OW 4972   1.772   3.271   5.554
 1358SOL    HW1 4973   1.759   3.293   5.651
 1358SOL    HW2 4974   1.828   3.342   5.511
 1359SOL     OW 4975   0.733   1.808   6.682
 1359SOL    HW1 4976   0.808   1.751   6.648
 1359SOL    HW2 4977   0.655   1.750   6.706
 1360SOL     OW 4978   3.361   3.274   4.481
 1360SOL    HW1 4979   3.345   3.357   4.428
 1360SOL    HW2 4980   3.313   3.280   4.568
 1361SOL     OW 4981   1.177   6.481   0.788
 1361SOL    HW1 4982   1.262   6.430   0.799
 1361SOL    HW2 4983   1.173   6.520   0.695
 1362SOL     OW 4984   3.568   1.276   6.736
 1362SOL    HW1 4985   3.632   1.353   6.734
 1362SOL    HW2 4986   3.521   1.275   6.825
 1363SOL     OW 4987   6.601   6.585   1.189
 1363SOL    HW1 4988   6.519   6.633   1.157
 1363SOL    HW2 4989   6.682   6.623   1.144
 1364SOL     OW 4990   1.084   3.215   0.852
 1364SOL    HW1 4991   1.123   3.123   0.861
 1364SOL    HW2 4992   1.007   3.225   0.915
 1365SOL     OW 4993   1.288   3.292   6.311
 1365SOL    HW1 4994   1.318   3.263   6.402
 1365SOL    HW2 4995   1.228   3.371   6.319
 1366SOL     OW 4996   3.649   1.016   1.525
 1366SOL    HW1 4997   3.591   0.936   1.535
 1366SOL    HW2 4998   3.631   1.060   1.438
 1367SOL     OW 4999   1.483   6.941   4.355
 1367SOL    HW1 5000   1.460   6.849   4.326
 1367SOL    HW2 5001   1.511   6.995   4.276
 1368SOL     OW 5002   1.578   6.363   4.691
 1368SOL    HW1 5003   1.652   6.357   4.758
 1368SOL    HW2 5004   1.506   6.424   4.725
 1369SOL     OW 5005   2.256   5.589   3.358
 1369SOL    HW1 5006   2.264   5.598   3.259
 1369SOL    HW2 5007   2.276   5.495   3.385
 1370SOL     OW 5008   0.300   3.042   2.837
 1370SOL    HW1 5009   0.381   3.029   2.894
 1370SOL    HW2 5010   0.275   2.955   2.794
 1371SOL     OW 5011   6.000   1.585   6.628
 1371SOL    HW1 5012   5.994   1.676   6.668
 1371SOL    HW2 5013   5.917   1.565   6.577
 1372SOL     OW 5014   5.165   2.762   2.163
 1372SOL    HW1 5015   5.130   2.836   2.105
 1372SOL    HW2 5016   5.089   2.715   2.207
 1373SOL     OW 5017   4.600   2.722   1.574
 1373SOL    HW1 5018   4.588   2.814   1.537
 1373SOL    HW2 5019   4.550   2.657   1.517
 1374SOL     OW 5020   3.865   3.968   3.402
 1374SOL    HW1 5021   3.786   3.923   3.361
 1374SOL    HW2 5022   3.841   3.997   3.495
 1375SOL     OW 5023   5.361   3.935   5.186
 1375SOL    HW1 5024   5.373   3.857   5.247
 1375SOL    HW2 5025   5.372   3.905   5.091
 1376SOL     OW 5026   3.005   4.632   6.132
 1376SOL    HW1 5027   2.960   4.593   6.212
 1376SOL    HW2 5028   3.004   4.732   6.138
 1377SOL     OW 5029   0.978   2.026   3.528
 1377SOL    HW1 5030   0.880   2.040   3.518
 1377SOL    HW2 5031   1.009   1.961   3.458
 1378SOL     OW 5032   4.579   2.478   4.194
 1378SOL    HW1 5033   4.664   2.453   4.241
 1378SOL    HW2 5034   4.592   2.564   4.145
 1379SOL     OW 5035   4.880   5.730   6.246
 1379SOL    HW1 5036   4.814   5.748   6.172
 1379SOL    HW2 5037   4.957   5.794   6.238
 1380SOL     OW 5038   0.242   6.255   4.106
 1380SOL    HW1 5039   0.188   6.199   4.043
 1380SOL    HW2 5040   0.280   6.333   4.057
 1381SOL     OW 5041   6.849   2.618   6.140
 1381SOL    HW1 5042   6.924   2.637   6.204
 1381SOL    HW2 5043   6.886   2.608   6.048
 1382SOL     OW 5044   4.194   2.301   5.737
 1382SOL    HW1 5045   4.097   2.278   5.727
 1382SOL    HW2 5046   4.237   2.238   5.802
 1383SOL     OW 5047   5.610   0.635   0.728
 1383SOL    HW1 5048   5.618   0.599   0.635
 1383SOL    HW2 5049   5.647   0.728   0.731
 1384SOL     OW 5050   5.700   2.367   2.443
 1384SOL    HW1 5051   5.741   2.292   2.391
 1384SOL    HW2 5052   5.717   2.454   2.396
 1385SOL     OW 5053   6.628   6.588   1.814
 1385SOL    HW1 5054   6.709   6.531   1.829
 1385SOL    HW2 5055   6.611   6.644   1.894
 1386SOL     OW 5056   2.047   0.344   4.131
 1386SOL    HW1 5057   2.001   0.426   4.164
 1386SOL    HW2 5058   1.993   0.263   4.155
 1387SOL     OW 5059   0.951   5.721   1.819
 1387SOL    HW1 5060   0.934   5.662   1.898
 1387SOL    HW2 5061   0.876   5.786   1.808
 1388SOL     OW 5062   6.740   0.997   1.913
 1388SOL    HW1 5063   6.775   0.961   1.826
 1388SOL    HW2 5064   6.728   0.921   1.978
 1389SOL     OW 5065   6.428   1.156   1.630
 1389SOL    HW1 5066   6.395   1.140   1.723
 1389SOL    HW2 5067   6.503   1.222   1.632
 1390SOL     OW 5068   1.089   1.449   4.142
 1390SOL    HW1 5069   1.012   1.428   4.203
 1390SOL    HW2 5070   1.114   1.367   4.090
 1391SOL     OW 5071   0.778   2.932   3.283
 1391SOL    HW1 5072   0.799   2.870   3.359
 1391SOL    HW2 5073   0.771   2.879   3.198
 1392SOL     OW 5074   5.533   5.223   4.078
 1392SOL    HW1 5075   5.506   5.131   4.047
 1392SOL    HW2 5076   5.553   5.280   3.999
 1393SOL     OW 5077   3.643   5.073   6.982
 1393SOL    HW1 5078   3.624   5.120   6.895
 1393SOL    HW2 5079   3.648   5.140   0.036
 1394SOL     OW 5080   1.107   6.563   6.756
 1394SOL    HW1 5081   1.088   6.611   6.670
 1394SOL    HW2 5082   1.177   6.613   6.806
 1395SOL     OW 5083   3.882   4.622   6.388
 1395SOL    HW1 5084   3.937   4.600   6.469
 1395SOL    HW2 5085   3.924   4.580   6.307
 1396SOL     OW 5086   5.002   5.802   3.444
 1396SOL    HW1 5087   4.924   5.807   3.382
 1396SOL    HW2 5088   4.986   5.730   3.512
 1397SOL     OW 5089   5.479   6.364   5.186
 1397SOL    HW1 5090   5.407   6.327   5.127
 1397SOL    HW2 5091   5.466   6.330   5.279
 1398SOL     OW 5092   1.588   0.147   5.264
 1398SOL    HW1 5093   1.517   0.191   5.320
 1398SOL    HW2 5094   1.654   0.102   5.325
 1399SOL     OW 5095   3.286   5.193   2.534
 1399SOL    HW1 5096   3.269   5.095   2.527
 1399SOL    HW2 5097   3.297   5.232   2.443
 1400SOL     OW 5098   1.181   0.034   3.502
 1400SOL    HW1 5099   1.266   7.018   3.538
 1400SOL    HW2 5100   1.200   0.106   3.435
 1401SOL     OW 5101   6.389   2.152   4.060
 1401SOL    HW1 5102   6.410   2.089   3.985
 1401SOL    HW2 5103   6.296   2.134   4.093
 1402SOL     OW 5104   5.604   2.575   6.829
 1402SOL    HW1 5105   5.654   2.570   6.915
 1402SOL    HW2 5106   5.506   2.588   6.849
 1403SOL     OW 5107   3.496   0.521   1.970
 1403SOL    HW1 5108   3.502   0.507   1.871
 1403SOL    HW2 5109   3.400   0.527   1.997
 1404SOL     OW 5110   4.419   1.192   0.280
 1404SOL    HW1 5111   4.444   1.117   0.219
 1404SOL    HW2 5112   4.492   1.206   0.347
 1405SOL     OW 5113   3.729   2.838   1.103
 1405SOL    HW1 5114   3.714   2.741   1.087
 1405SOL    HW2 5115   3.827   2.858   1.096
 1406SOL     OW 5116   0.794   3.506   2.165
 1406SOL    HW1 5117   0.867   3.574   2.159
 1406SOL    HW2 5118   0.830   3.423   2.207
 1407SOL     OW 5119   0.076   2.675   2.396
 1407SOL    HW1 5120   0.104   2.651   2.303
 1407SOL    HW2 5121   0.004   2.613   2.427
 1408SOL     OW 5122   6.349   5.407   6.308
 1408SOL    HW1 5123   6.294   5.450   6.236
 1408SOL    HW2 5124   6.442   5.442   6.303
 1409SOL     OW 5125   0.438   1.452   4.267
 1409SOL    HW1 5126   0.452   1.440   4.366
 1409SOL    HW2 5127   0.428   1.363   4.224
 1410SOL     OW 5128   6.532   1.767   6.905
 1410SOL    HW1 5129   6.534   1.867   6.897
 1410SOL    HW2 5130   6.575   1.726   6.824
 1411SOL     OW 5131   1.869   1.189   1.264
 1411SOL    HW1 5132   1.874   1.098   1.304
 1411SOL    HW2 5133   1.957   1.236   1.276
 1412SOL     OW 5134   1.832   2.479   0.226
 1412SOL    HW1 5135   1.768   2.541   0.272
 1412SOL    HW2 5136   1.788   2.392   0.208
 1413SOL     OW 5137   3.328   0.261   3.444
 1413SOL    HW1 5138   3.319   0.188   3.513
 1413SOL    HW2 5139   3.351   0.347   3.490
 1414SOL     OW 5140   1.633   1.143   2.350
 1414SOL    HW1 5141   1.550   1.134   2.295
 1414SOL    HW2 5142   1.671   1.235   2.336
 1415SOL     OW 5143   5.712   6.757   5.013
 1415SOL    HW1 5144   5.677   6.666   5.034
 1415SOL    HW2 5145   5.720   6.769   4.914
 1416SOL     OW 5146   4.641   5.386   3.455
 1416SOL    HW1 5147   4.577   5.378   3.379
 1416SOL    HW2 5148   4.591   5.408   3.539
 1417SOL     OW 5149   3.763   2.586   5.770
 1417SOL    HW1 5150   3.828   2.555   5.840
 1417SOL    HW2 5151   3.769   2.524   5.691
 1418SOL     OW 5152   3.093   4.022   3.605
 1418SOL    HW1 5153   3.132   4.095   3.661
 1418SOL    HW2 5154   3.116   4.038   3.509
 1419SOL     OW 5155   3.500   6.845   3.611
 1419SOL    HW1 5156   3.456   6.801   3.690
 1419SOL    HW2 5157   3.471   6.940   3.606
 1420SOL     OW 5158   0.843   6.304   2.921
 1420SOL    HW1 5159   0.823   6.345   2.832
 1420SOL    HW2 5160   0.812   6.365   2.994
 1421SOL     OW 5161   4.022   0.852   2.743
 1421SOL    HW1 5162   3.932   0.845   2.700
 1421SOL    HW2 5163   4.013   0.897   2.832
 1422SOL     OW 5164   2.454   6.341   0.857
 1422SOL    HW1 5165   2.415   6.433   0.860
 1422SOL    HW2 5166   2.387   6.278   0.817
 1423SOL     OW 5167   5.318   1.136   2.258
 1423SOL    HW1 5168   5.255   1.195   2.309
 1423SOL    HW2 5169   5.308   1.155   2.160
 1424SOL     OW 5170   6.898   5.483   2.626
 1424SOL    HW1 5171   6.872   5.532   2.543
 1424SOL    HW2 5172   6.962   5.538   2.679
 1425SOL     OW 5173   2.219   0.519   4.667
 1425SOL    HW1 5174   2.190   0.484   4.578
 1425SOL    HW2 5175   2.175   0.608   4.684
 1426SOL     OW 5176   1.641   1.537   5.944
 1426SOL    HW1 5177   1.673   1.549   5.850
 1426SOL    HW2 5178   1.551   1.580   5.954
 1427SOL     OW 5179   5.220   2.054   6.043
 1427SOL    HW1 5180   5.130   2.067   6.002
 1427SOL    HW2 5181   5.244   2.137   6.095
 1428SOL     OW 5182   5.426   0.871   0.573
 1428SOL    HW1 5183   5.506   0.922   0.605
 1428SOL    HW2 5184   5.434   0.775   0.602
 1429SOL     OW 5185   5.641   5.850   0.268
 1429SOL    HW1 5186   5.569   5.838   0.337
 1429SOL    HW2 5187   5.600   5.861   0.178
 1430SOL     OW 5188   3.149   4.946   2.499
 1430SOL    HW1 5189   3.087   4.874   2.528
 1430SOL    HW2 5190   3.173   4.934   2.403
 1431SOL     OW 5191   1.834   0.028   0.903
 1431SOL    HW1 5192   1.898   0.039   0.826
 1431SOL    HW2 5193   1.851   6.960   0.947
 1432SOL     OW 5194   3.318   0.068   1.688
 1432SOL    HW1 5195   3.382   7.011   1.679
 1432SOL    HW2 5196   3.335   0.115   1.775
 1433SOL     OW 5197   5.173   6.974   3.571
 1433SOL    HW1 5198   5.222   0.025   3.520
 1433SOL    HW2 5199   5.230   6.941   3.646
 1434SOL     OW 5200   1.139   1.088   5.414
 1434SOL    HW1 5201   1.170   1.178   5.446
 1434SOL    HW2 5202   1.108   1.034   5.493
 1435SOL     OW 5203   6.700   2.537   3.667
 1435SOL    HW1 5204   6.676   2.614   3.725
 1435SOL    HW2 5205   6.692   2.564   3.571
 1436SOL     OW 5206   5.093   3.389   1.219
 1436SOL    HW1 5207   5.083   3.465   1.283
 1436SOL    HW2 5208   5.159   3.414   1.148
 1437SOL     OW 5209   4.525   0.829   2.787
 1437SOL    HW1 5210   4.430   0.849   2.809
 1437SOL    HW2 5211   4.530   0.746   2.732
 1438SOL     OW 5212   2.407   0.177   2.313
 1438SOL    HW1 5213   2.373   0.089   2.280
 1438SOL    HW2 5214   2.500   0.166   2.348
 1439SOL     OW 5215   0.548   5.742   1.613
 1439SOL    HW1 5216   0.525   5.714   1.706
 1439SOL    HW2 5217   0.498   5.685   1.547
 1440SOL     OW 5218   2.300   2.720   1.557
 1440SOL    HW1 5219   2.341   2.783   1.491
 1440SOL    HW2 5220   2.334   2.627   1.540
 1441SOL     OW 5221   4.895   5.941   6.611
 1441SOL    HW1 5222   4.880   6.011   6.542
 1441SOL    HW2 5223   4.809   5.918   6.656
 1442SOL     OW 5224   5.239   6.125   1.366
 1442SOL    HW1 5225   5.194   6.152   1.452
 1442SOL    HW2 5226   5.238   6.026   1.358
 1443SOL     OW 5227   6.774   2.970   2.040
 1443SOL    HW1 5228   6.781   2.990   1.943
 1443SOL    HW2 5229   6.682   2.937   2.061
 1444SOL     OW 5230   0.320   6.157   5.578
 1444SOL    HW1 5231   0.308   6.213   5.496
 1444SOL    HW2 5232   0.414   6.166   5.612
 1445SOL     OW 5233   0.540   2.303   1.041
 1445SOL    HW1 5234   0.474   2.312   1.115
 1445SOL    HW2 5235   0.498   2.331   0.955
 1446SOL     OW 5236   6.734   5.257   1.268
 1446SOL    HW1 5237   6.645   5.217   1.245
 1446SOL    HW2 5238   6.739   5.350   1.231
 1447SOL     OW 5239   0.051   6.575   4.274
 1447SOL    HW1 5240   0.149   6.557   4.260
 1447SOL    HW2 5241   0.040   6.648   4.341
 1448SOL     OW 5242   1.512   1.297   5.676
 1448SOL    HW1 5243   1.501   1.286   5.577
 1448SOL    HW2 5244   1.599   1.343   5.694
 1449SOL     OW 5245   1.631   2.907   2.928
 1449SOL    HW1 5246   1.722   2.865   2.933
 1449SOL    HW2 5247   1.641   3.005   2.910
 1450SOL     OW 5248   3.272   1.823   3.044
 1450SOL    HW1 5249   3.263   1.817   2.945
 1450SOL    HW2 5250   3.363   1.793   3.072
 1451SOL     OW 5251   3.956   1.747   2.677
 1451SOL    HW1 5252   3.971   1.830   2.623
 1451SOL    HW2 5253   3.867   1.708   2.653
 1452SOL     OW 5254   4.180   2.833   5.647
 1452SOL    HW1 5255   4.196   2.737   5.672
 1452SOL    HW2 5256   4.084   2.845   5.624
 1453SOL     OW 5257   1.272   3.535   5.249
 1453SOL    HW1 5258   1.201   3.599   5.277
 1453SOL    HW2 5259   1.351   3.545   5.308
 1454SOL     OW 5260   3.028   2.120   2.490
 1454SOL    HW1 5261   3.121   2.154   2.474
 1454SOL    HW2 5262   3.026   2.021   2.474
 1455SOL     OW 5263   0.280   5.470   2.097
 1455SOL    HW1 5264   0.380   5.463   2.090
 1455SOL    HW2 5265   0.254   5.471   2.194
 1456SOL     OW 5266   6.752   5.585   4.152
 1456SOL    HW1 5267   6.795   5.591   4.062
 1456SOL    HW2 5268   6.653   5.587   4.142
 1457SOL     OW 5269   0.994   5.408   5.367
 1457SOL    HW1 5270   1.028   5.329   5.418
 1457SOL    HW2 5271   1.054   5.426   5.289
 1458SOL     OW 5272   6.534   5.187   4.880
 1458SOL    HW1 5273   6.536   5.275   4.834
 1458SOL    HW2 5274   6.461   5.131   4.842
 1459SOL     OW 5275   6.412   6.268   5.087
 1459SOL    HW1 5276   6.382   6.308   5.173
 1459SOL    HW2 5277   6.362   6.183   5.071
 1460SOL     OW 5278   1.657   5.746   4.729
 1460SOL    HW1 5279   1.592   5.741   4.653
 1460SOL    HW2 5280   1.663   5.841   4.761
 1461SOL     OW 5281   5.838   3.666   3.603
 1461SOL    HW1 5282   5.923   3.718   3.597
 1461SOL    HW2 5283   5.836   3.614   3.688
 1462SOL     OW 5284   0.633   1.570   2.344
 1462SOL    HW1 5285   0.641   1.546   2.247
 1462SOL    HW2 5286   0.671   1.497   2.400
 1463SOL     OW 5287   1.433   4.691   6.925
 1463SOL    HW1 5288   1.503   4.653   6.985
 1463SOL    HW2 5289   1.402   4.779   6.961
 1464SOL     OW 5290   0.904   4.559   5.297
 1464SOL    HW1 5291   0.979   4.493   5.303
 1464SOL    HW2 5292   0.879   4.573   5.201
 1465SOL     OW 5293   1.553   2.741   5.866
 1465SOL    HW1 5294   1.571   2.647   5.836
 1465SOL    HW2 5295   1.544   2.744   5.965
 1466SOL     OW 5296   5.931   0.825   2.715
 1466SOL    HW1 5297   5.836   0.799   2.698
 1466SOL    HW2 5298   5.993   0.757   2.676
 1467SOL     OW 5299   0.236   0.194   3.693
 1467SOL    HW1 5300   0.291   0.146   3.624
 1467SOL    HW2 5301   0.241   0.145   3.780
 1468SOL     OW 5302   3.440   6.600   3.434
 1468SOL    HW1 5303   3.455   6.690   3.475
 1468SOL    HW2 5304   3.342   6.581   3.431
 1469SOL     OW 5305   5.758   4.434   3.274
 1469SOL    HW1 5306   5.689   4.440   3.347
 1469SOL    HW2 5307   5.727   4.370   3.205
 1470SOL     OW 5308   6.622   1.954   2.253
 1470SOL    HW1 5309   6.558   2.002   2.312
 1470SOL    HW2 5310   6.697   2.016   2.227
 1471SOL     OW 5311   4.987   6.984   0.040
 1471SOL    HW1 5312   4.913   6.930   0.080
 1471SOL    HW2 5313   4.954   0.056   0.020
 1472SOL     OW 5314   2.429   0.663   6.438
 1472SOL    HW1 5315   2.379   0.750   6.445
 1472SOL    HW2 5316   2.393   0.611   6.360
 1473SOL     OW 5317   1.829   5.444   3.431
 1473SOL    HW1 5318   1.887   5.456   3.511
 1473SOL    HW2 5319   1.757   5.377   3.451
 1474SOL     OW 5320   1.624   3.734   1.810
 1474SOL    HW1 5321   1.628   3.831   1.789
 1474SOL    HW2 5322   1.682   3.714   1.889
 1475SOL     OW 5323   6.212   0.089   6.462
 1475SOL    HW1 5324   6.287   0.062   6.401
 1475SOL    HW2 5325   6.247   0.152   6.531
 1476SOL     OW 5326   5.445   0.319   6.831
 1476SOL    HW1 5327   5.420   0.352   6.740
 1476SOL    HW2 5328   5.400   0.231   6.848
 1477SOL     OW 5329   3.288   4.021   1.855
 1477SOL    HW1 5330   3.367   3.963   1.876
 1477SOL    HW2 5331   3.204   3.973   1.881
 1478SOL     OW 5332   5.167   4.174   6.182
 1478SOL    HW1 5333   5.256   4.130   6.188
 1478SOL    HW2 5334   5.152   4.230   6.263
 1479SOL     OW 5335   4.727   4.722   1.340
 1479SOL    HW1 5336   4.747   4.777   1.420
 1479SOL    HW2 5337   4.793   4.647   1.334
 1480SOL     OW 5338   3.042   1.733   3.996
 1480SOL    HW1 5339   3.040   1.654   4.058
 1480SOL    HW2 5340   2.957   1.785   4.007
 1481SOL     OW 5341   4.370   1.810   5.699
 1481SOL    HW1 5342   4.337   1.880   5.636
 1481SOL    HW2 5343   4.462   1.835   5.731
 1482SOL     OW 5344   6.578   1.543   1.892
 1482SOL    HW1 5345   6.481   1.560   1.873
 1482SOL    HW2 5346   6.615   1.481   1.822
 1483SOL     OW 5347   6.356   6.390   0.058
 1483SOL    HW1 5348   6.362   6.404   0.156
 1483SOL    HW2 5349   6.442   6.350   0.024
 1484SOL     OW 5350   3.050   6.024   4.730
 1484SOL    HW1 5351   3.007   5.964   4.797
 1484SOL    HW2 5352   3.141   5.989   4.707
 1485SOL     OW 5353   5.075   3.866   3.479
 1485SOL    HW1 5354   5.009   3.901   3.546
 1485SOL    HW2 5355   5.154   3.828   3.528
 1486SOL     OW 5356   6.003   6.362   4.119
 1486SOL    HW1 5357   6.008   6.276   4.068
 1486SOL    HW2 5358   6.003   6.342   4.217
 1487SOL     OW 5359   5.756   0.899   6.996
 1487SOL    HW1 5360   5.663   0.899   6.961
 1487SOL    HW2 5361   5.797   0.809   6.984
 1488SOL     OW 5362   6.877   2.772   2.821
 1488SOL    HW1 5363   6.798   2.781   2.882
 1488SOL    HW2 5364   6.940   2.848   2.838
 1489SOL     OW 5365   3.268   5.523   0.070
 1489SOL    HW1 5366   3.228   5.436   0.097
 1489SOL    HW2 5367   3.210   5.598   0.101
 1490SOL     OW 5368   5.959   2.828   2.397
 1490SOL    HW1 5369   5.979   2.816   2.300
 1490SOL    HW2 5370   5.939   2.925   2.415
 1491SOL     OW 5371   5.382   2.788   4.506
 1491SOL    HW1 5372   5.402   2.873   4.457
 1491SOL    HW2 5373   5.305   2.804   4.569
 1492SOL     OW 5374   1.348   2.380   2.083
 1492SOL    HW1 5375   1.435   2.397   2.130
 1492SOL    HW2 5376   1.366   2.352   1.989
 1493SOL     OW 5377   5.855   2.332   6.307
 1493SOL    HW1 5378   5.888   2.264   6.372
 1493SOL    HW2 5379   5.835   2.417   6.354
 1494SOL     OW 5380   1.390   4.010   6.578
 1494SOL    HW1 5381   1.300   3.965   6.583
 1494SOL    HW2 5382   1.399   4.057   6.490
 1495SOL     OW 5383   6.304   4.297   3.808
 1495SOL    HW1 5384   6.265   4.368   3.866
 1495SOL    HW2 5385   6.322   4.215   3.862
 1496SOL     OW 5386   6.617   6.020   5.414
 1496SOL    HW1 5387   6.671   6.019   5.331
 1496SOL    HW2 5388   6.675   5.996   5.492
 1497SOL     OW 5389   4.484   2.304   2.887
 1497SOL    HW1 5390   4.503   2.402   2.877
 1497SOL    HW2 5391   4.405   2.280   2.829
 1498SOL     OW 5392   3.492   4.503   0.861
 1498SOL    HW1 5393   3.493   4.581   0.798
 1498SOL    HW2 5394   3.398   4.474   0.877
 1499SOL     OW 5395   0.981   3.874   4.126
 1499SOL    HW1 5396   0.926   3.844   4.048
 1499SOL    HW2 5397   0.921   3.896   4.203
 1500SOL     OW 5398   2.298   5.634   1.933
 1500SOL    HW1 5399   2.301   5.583   2.019
 1500SOL    HW2 5400   2.390   5.642   1.895
 1501SOL     OW 5401   5.510   1.181   1.262
 1501SOL    HW1 5402   5.415   1.185   1.294
 1501SOL    HW2 5403   5.572   1.184   1.341
 1502SOL     OW 5404   0.490   6.114   6.249
 1502SOL    HW1 5405   0.436   6.103   6.332
 1502SOL    HW2 5406   0.431   6.101   6.169
 1503SOL     OW 5407   6.551   5.520   1.751
 1503SOL    HW1 5408   6.646   5.550   1.738
 1503SOL    HW2 5409   6.491   5.600   1.754
 1504SOL     OW 5410   1.745   0.347   3.437
 1504SOL    HW1 5411   1.808   0.271   3.425
 1504SOL    HW2 5412   1.785   0.413   3.501
 1505SOL     OW 5413   6.724   4.754   4.956
 1505SOL    HW1 5414   6.783   4.824   4.997
 1505SOL    HW2 5415   6.735   4.668   5.006
 1506SOL     OW 5416   1.191   0.932   1.031
 1506SOL    HW1 5417   1.290   0.936   1.044
 1506SOL    HW2 5418   1.147   1.001   1.089
 1507SOL     OW 5419   2.462   2.054   3.702
 1507SOL    HW1 5420   2.427   2.054   3.795
 1507SOL    HW2 5421   2.448   2.144   3.661
 1508SOL     OW 5422   1.530   0.845   2.145
 1508SOL    HW1 5423   1.541   0.762   2.089
 1508SOL    HW2 5424   1.618   0.891   2.153
 1509SOL     OW 5425   4.239   1.441   4.336
 1509SOL    HW1 5426   4.179   1.521   4.346
 1509SOL    HW2 5427   4.210   1.369   4.399
 1510SOL     OW 5428   2.806   6.738   5.037
 1510SOL    HW1 5429   2.886   6.731   5.097
 1510SOL    HW2 5430   2.729   6.689   5.077
 1511SOL     OW 5431   3.784   4.287   5.641
 1511SOL    HW1 5432   3.797   4.190   5.663
 1511SOL    HW2 5433   3.695   4.317   5.674
 1512SOL     OW 5434   5.409   6.345   0.753
 1512SOL    HW1 5435   5.360   6.359   0.839
 1512SOL    HW2 5436   5.352   6.375   0.677
 1513SOL     OW 5437   3.206   0.247   5.595
 1513SOL    HW1 5438   3.161   0.182   5.657
 1513SOL    HW2 5439   3.305   0.238   5.603
 1514SOL     OW 5440   2.983   1.726   0.115
 1514SOL    HW1 5441   3.045   1.794   0.153
 1514SOL    HW2 5442   2.972   1.650   0.180
 1515SOL     OW 5443   3.518   1.240   2.392
 1515SOL    HW1 5444   3.557   1.301   2.461
 1515SOL    HW2 5445   3.497   1.292   2.309
 1516SOL     OW 5446   6.531   6.806   6.416
 1516SOL    HW1 5447   6.518   6.891   6.365
 1516SOL    HW2 5448   6.629   6.786   6.424
 1517SOL     OW 5449   2.426   6.241   2.976
 1517SOL    HW1 5450   2.520   6.234   3.010
 1517SOL    HW2 5451   2.364   6.255   3.054
 1518SOL     OW 5452   1.263   2.673   6.938
 1518SOL    HW1 5453   1.177   2.653   6.984
 1518SOL    HW2 5454   1.256   2.759   6.889
 1519SOL     OW 5455   0.583   4.262   6.597
 1519SOL    HW1 5456   0.505   4.227   6.649
 1519SOL    HW2 5457   0.632   4.330   6.652
 1520SOL     OW 5458   0.023   6.702   3.599
 1520SOL    HW1 5459   0.068   6.690   3.510
 1520SOL    HW2 5460   6.962   6.643   3.604
 1521SOL     OW 5461   1.959   4.712   6.791
 1521SOL    HW1 5462   1.973   4.810   6.781
 1521SOL    HW2 5463   2.007   4.663   6.718
 1522SOL     OW 5464   6.013   6.676   3.756
 1522SOL    HW1 5465   6.101   6.720   3.770
 1522SOL    HW2 5466   5.952   6.736   3.704
 1523SOL     OW 5467   2.655   6.446   0.397
 1523SOL    HW1 5468   2.614   6.511   0.333
 1523SOL    HW2 5469   2.751   6.432   0.374
 1524SOL     OW 5470   1.863   2.532   4.675
 1524SOL    HW1 5471   1.906   2.561   4.761
 1524SOL    HW2 5472   1.877   2.602   4.605
 1525SOL     OW 5473   6.186   4.184   0.021
 1525SOL    HW1 5474   6.188   4.092   7.002
 1525SOL    HW2 5475   6.278   4.211   0.049
 1526SOL     OW 5476   0.698   1.549   1.179
 1526SOL    HW1 5477   0.628   1.530   1.248
 1526SOL    HW2 5478   0.653   1.567   1.091
 1527SOL     OW 5479   4.993   1.062   4.131
 1527SOL    HW1 5480   5.077   1.115   4.127
 1527SOL    HW2 5481   4.915   1.124   4.138
 1528SOL     OW 5482   4.107   3.423   2.555
 1528SOL    HW1 5483   4.166   3.445   2.477
 1528SOL    HW2 5484   4.012   3.420   2.524
 1529SOL     OW 5485   4.111   0.815   5.277
 1529SOL    HW1 5486   4.046   0.855   5.212
 1529SOL    HW2 5487   4.096   0.855   5.367
 1530SOL     OW 5488   2.787   0.143   1.725
 1530SOL    HW1 5489   2.720   0.155   1.798
 1530SOL    HW2 5490   2.744   0.164   1.637
 1531SOL     OW 5491   5.604   6.065   4.259
 1531SOL    HW1 5492   5.568   6.156   4.238
 1531SOL    HW2 5493   5.617   6.013   4.175
 1532SOL     OW 5494   2.593   5.316   2.334
 1532SOL    HW1 5495   2.679   5.281   2.370
 1532SOL    HW2 5496   2.520   5.298   2.400
 1533SOL     OW 5497   5.607   6.627   1.185
 1533SOL    HW1 5498   5.541   6.613   1.259
 1533SOL    HW2 5499   5.698   6.599   1.216
 1534SOL     OW 5500   2.140   4.584   6.593
 1534SOL    HW1 5501   2.094   4.498   6.571
 1534SOL    HW2 5502   2.124   4.650   6.519
 1535SOL     OW 5503   4.946   4.660   3.485
 1535SOL    HW1 5504   4.994   4.735   3.530
 1535SOL    HW2 5505   5.009   4.612   3.424
 1536SOL     OW 5506   4.275   4.075   6.289
 1536SOL    HW1 5507   4.294   4.080   6.191
 1536SOL    HW2 5508   4.341   4.013   6.333
 1537SOL     OW 5509   3.349   5.587   2.274
 1537SOL    HW1 5510   3.362   5.672   2.326
 1537SOL    HW2 5511   3.419   5.521   2.301
 1538SOL     OW 5512   2.301   1.041   0.296
 1538SOL    HW1 5513   2.293   1.108   0.222
 1538SOL    HW2 5514   2.370   1.072   0.361
 1539SOL     OW 5515   0.049   2.972   0.818
 1539SOL    HW1 5516   7.009   2.901   0.781
 1539SOL    HW2 5517   0.112   2.931   0.883
 1540SOL     OW 5518   3.791   5.782   3.825
 1540SOL    HW1 5519   3.814   5.836   3.906
 1540SOL    HW2 5520   3.767   5.689   3.853
 1541SOL     OW 5521   4.837   2.435   5.450
 1541SOL    HW1 5522   4.780   2.484   5.384
 1541SOL    HW2 5523   4.871   2.350   5.409
 1542SOL     OW 5524   0.508   4.738   2.609
 1542SOL    HW1 5525   0.434   4.712   2.547
 1542SOL    HW2 5526   0.560   4.657   2.637
 1543SOL     OW 5527   3.555   5.419   1.148
 1543SOL    HW1 5528   3.472   5.450   1.102
 1543SOL    HW2 5529   3.606   5.358   1.087
 1544SOL     OW 5530   4.112   3.326   4.062
 1544SOL    HW1 5531   4.110   3.259   3.988
 1544SOL    HW2 5532   4.122   3.279   4.150
 1545SOL     OW 5533   6.040   5.314   1.117
 1545SOL    HW1 5534   6.130   5.337   1.154
 1545SOL    HW2 5535   5.975   5.387   1.139
 1546SOL     OW 5536   6.523   6.271   5.506
 1546SOL    HW1 5537   6.517   6.228   5.596
 1546SOL    HW2 5538   6.599   6.232   5.455
 1547SOL     OW 5539   1.741   3.081   6.345
 1547SOL    HW1 5540   1.831   3.117   6.319
 1547SOL    HW2 5541   1.670   3.139   6.306
 1548SOL     OW 5542   6.549   2.248   0.126
 1548SOL    HW1 5543   6.547   2.262   0.027
 1548SOL    HW2 5544   6.460   2.214   0.157
 1549SOL     OW 5545   5.221   0.582   4.180
 1549SOL    HW1 5546   5.203   0.521   4.103
 1549SOL    HW2 5547   5.246   0.672   4.146
 1550SOL     OW 5548   2.976   3.841   4.349
 1550SOL    HW1 5549   2.911   3.776   4.388
 1550SOL    HW2 5550   3.045   3.791   4.297
 1551SOL     OW 5551   6.863   5.179   6.057
 1551SOL    HW1 5552   6.908   5.107   6.110
 1551SOL    HW2 5553   6.813   5.239   6.119
 1552SOL     OW 5554   1.941   3.906   1.381
 1552SOL    HW1 5555   1.930   3.818   1.335
 1552SOL    HW2 5556   2.038   3.928   1.386
 1553SOL     OW 5557   1.655   2.153   5.482
 1553SOL    HW1 5558   1.748   2.151   5.517
 1553SOL    HW2 5559   1.631   2.247   5.456
 1554SOL     OW 5560   4.580   1.993   3.544
 1554SOL    HW1 5561   4.590   2.065   3.475
 1554SOL    HW2 5562   4.658   1.931   3.540
 1555SOL     OW 5563   5.841   4.841   5.066
 1555SOL    HW1 5564   5.741   4.851   5.065
 1555SOL    HW2 5565   5.880   4.912   5.125
 1556SOL     OW 5566   1.601   0.879   5.905
 1556SOL    HW1 5567   1.571   0.953   5.844
 1556SOL    HW2 5568   1.598   0.911   6.000
 1557SOL     OW 5569   1.108   1.910   6.017
 1557SOL    HW1 5570   1.200   1.918   6.057
 1557SOL    HW2 5571   1.102   1.824   5.966
 1558SOL     OW 5572   6.485   0.105   4.616
 1558SOL    HW1 5573   6.427   0.164   4.671
 1558SOL    HW2 5574   6.450   0.011   4.621
 1559SOL     OW 5575   1.457   1.098   6.227
 1559SOL    HW1 5576   1.433   1.118   6.322
 1559SOL    HW2 5577   1.466   1.184   6.177
 1560SOL     OW 5578   0.095   0.459   0.712
 1560SOL    HW1 5579   0.051   0.489   0.628
 1560SOL    HW2 5580   0.170   0.521   0.735
 1561SOL     OW 5581   5.804   6.259   1.511
 1561SOL    HW1 5582   5.793   6.160   1.504
 1561SOL    HW2 5583   5.892   6.280   1.554
 1562SOL     OW 5584   5.573   6.919   4.450
 1562SOL    HW1 5585   5.615   6.974   4.377
 1562SOL    HW2 5586   5.600   6.823   4.438
 1563SOL     OW 5587   3.170   0.218   6.306
 1563SOL    HW1 5588   3.138   0.310   6.285
 1563SOL    HW2 5589   3.149   0.157   6.230
 1564SOL     OW 5590   1.414   2.679   2.952
 1564SOL    HW1 5591   1.507   2.709   2.932
 1564SOL    HW2 5592   1.352   2.757   2.948
 1565SOL     OW 5593   6.195   4.815   0.995
 1565SOL    HW1 5594   6.115   4.859   1.037
 1565SOL    HW2 5595   6.172   4.786   0.902
 1566SOL     OW 5596   5.966   4.653   2.482
 1566SOL    HW1 5597   6.036   4.584   2.461
 1566SOL    HW2 5598   5.984   4.735   2.427
 1567SOL     OW 5599   6.956   5.838   5.660
 1567SOL    HW1 5600   6.933   5.789   5.744
 1567SOL    HW2 5601   0.010   5.790   5.613
 1568SOL     OW 5602   0.394   6.464   0.712
 1568SOL    HW1 5603   0.355   6.420   0.793
 1568SOL    HW2 5604   0.334   6.448   0.634
 1569SOL     OW 5605   3.027   5.705   5.493
 1569SOL    HW1 5606   3.113   5.728   5.448
 1569SOL    HW2 5607   2.978   5.638   5.438
 1570SOL     OW 5608   2.849   1.948   2.088
 1570SOL    HW1 5609   2.839   1.977   2.183
 1570SOL    HW2 5610   2.798   2.011   2.029
 1571SOL     OW 5611   0.117   2.919   6.900
 1571SOL    HW1 5612   0.194   2.862   6.872
 1571SOL    HW2 5613   0.041   2.905   6.837
 1572SOL     OW 5614   0.237   5.488   3.595
 1572SOL    HW1 5615   0.278   5.440   3.672
 1572SOL    HW2 5616   0.231   5.426   3.517
 1573SOL     OW 5617   4.443   0.116   0.221
 1573SOL    HW1 5618   4.459   0.214   0.225
 1573SOL    HW2 5619   4.501   0.070   0.289
 1574SOL     OW 5620   5.272   3.973   1.418
 1574SOL    HW1 5621   5.279   4.059   1.368
 1574SOL    HW2 5622   5.206   3.913   1.372
 1575SOL     OW 5623   3.628   2.268   0.330
 1575SOL    HW1 5624   3.588   2.345   0.280
 1575SOL    HW2 5625   3.658   2.198   0.265
 1576SOL     OW 5626   6.284   5.409   3.290
 1576SOL    HW1 5627   6.202   5.354   3.273
 1576SOL    HW2 5628   6.339   5.366   3.362
 1577SOL     OW 5629   1.435   0.496   0.859
 1577SOL    HW1 5630   1.392   0.523   0.945
 1577SOL    HW2 5631   1.499   0.567   0.830
 1578SOL     OW 5632   5.998   5.980   4.608
 1578SOL    HW1 5633   5.976   5.911   4.677
 1578SOL    HW2 5634   6.016   5.935   4.521
 1579SOL     OW 5635   0.188   0.878   3.307
 1579SOL    HW1 5636   0.092   0.864   3.329
 1579SOL    HW2 5637   0.224   0.955   3.359
 1580SOL     OW 5638   3.341   4.161   5.569
 1580SOL    HW1 5639   3.401   4.164   5.489
 1580SOL    HW2 5640   3.246   4.169   5.540
 1581SOL     OW 5641   6.219   3.064   4.436
 1581SOL    HW1 5642   6.193   3.154   4.403
 1581SOL    HW2 5643   6.240   3.068   4.534
 1582SOL     OW 5644   6.347   6.630   3.891
 1582SOL    HW1 5645   6.335   6.565   3.816
 1582SOL    HW2 5646   6.305   6.593   3.974
 1583SOL     OW 5647   2.158   3.044   1.372
 1583SOL    HW1 5648   2.092   3.077   1.440
 1583SOL    HW2 5649   2.185   3.120   1.313
 1584SOL     OW 5650   2.374   0.141   6.468
 1584SOL    HW1 5651   2.442   0.167   6.399
 1584SOL    HW2 5652   2.397   0.050   6.503
 1585SOL     OW 5653   5.613   1.231   6.373
 1585SOL    HW1 5654   5.658   1.255   6.287
 1585SOL    HW2 5655   5.534   1.172   6.354
 1586SOL     OW 5656   4.113   3.315   3.082
 1586SOL    HW1 5657   4.076   3.359   3.164
 1586SOL    HW2 5658   4.118   3.216   3.097
 1587SOL     OW 5659   1.677   6.819   5.865
 1587SOL    HW1 5660   1.751   6.759   5.896
 1587SOL    HW2 5661   1.716   6.898   5.818
 1588SOL     OW 5662   6.351   4.305   0.461
 1588SOL    HW1 5663   6.423   4.293   0.528
 1588SOL    HW2 5664   6.388   4.346   0.378
 1589SOL     OW 5665   5.265   4.732   3.106
 1589SOL    HW1 5666   5.221   4.665   3.047
 1589SOL    HW2 5667   5.320   4.684   3.175
 1590SOL     OW 5668   2.351   6.030   4.449
 1590SOL    HW1 5669   2.321   6.042   4.355
 1590SOL    HW2 5670   2.411   5.950   4.455
 1591SOL     OW 5671   2.217   3.229   0.311
 1591SOL    HW1 5672   2.129   3.184   0.326
 1591SOL    HW2 5673   2.205   3.304   0.246
 1592SOL     OW 5674   3.808   3.642   3.949
 1592SOL    HW1 5675   3.877   3.695   3.900
 1592SOL    HW2 5676   3.849   3.598   4.028
 1593SOL     OW 5677   1.402   4.338   4.149
 1593SOL    HW1 5678   1.457   4.258   4.127
 1593SOL    HW2 5679   1.441   4.385   4.228
 1594SOL     OW 5680   0.557   5.457   2.087
 1594SOL    HW1 5681   0.645   5.422   2.056
 1594SOL    HW2 5682   0.563   5.555   2.103
 1595SOL     OW 5683   6.322   3.378   4.792
 1595SOL    HW1 5684   6.256   3.348   4.861
 1595SOL    HW2 5685   6.413   3.383   4.833
 1596SOL     OW 5686   3.306   5.260   6.815
 1596SOL    HW1 5687   3.291   5.348   6.860
 1596SOL    HW2 5688   3.249   5.190   6.859
 1597SOL     OW 5689   2.538   6.531   1.150
 1597SOL    HW1 5690   2.592   6.450   1.175
 1597SOL    HW2 5691   2.596   6.594   1.097
 1598SOL     OW 5692   6.871   5.866   1.770
 1598SOL    HW1 5693   6.922   5.893   1.852
 1598SOL    HW2 5694   6.929   5.878   1.689
 1599SOL     OW 5695   2.884   5.518   0.433
 1599SOL    HW1 5696   2.827   5.594   0.398
 1599SOL    HW2 5697   2.885   5.445   0.365
 1600SOL     OW 5698   3.394   1.699   4.691
 1600SOL    HW1 5699   3.324   1.766   4.717
 1600SOL    HW2 5700   3.370   1.610   4.728
 1601SOL     OW 5701   1.665   5.431   4.672
 1601SOL    HW1 5702   1.661   5.500   4.744
 1601SOL    HW2 5703   1.734   5.363   4.694
 1602SOL     OW 5704   6.950   3.226   1.726
 1602SOL    HW1 5705   7.001   3.179   1.653
 1602SOL    HW2 5706   7.011   3.240   1.805
 1603SOL     OW 5707   6.139   6.695   0.716
 1603SOL    HW1 5708   6.217   6.689   0.654
 1603SOL    HW2 5709   6.060   6.732   0.666
 1604SOL     OW 5710   0.950   5.212   4.608
 1604SOL    HW1 5711   0.958   5.138   4.541
 1604SOL    HW2 5712   0.930   5.173   4.698
 1605SOL     OW 5713   4.871   5.234   2.307
 1605SOL    HW1 5714   4.848   5.158   2.368
 1605SOL    HW2 5715   4.900   5.197   2.218
 1606SOL     OW 5716   6.114   5.565   4.860
 1606SOL    HW1 5717   6.111   5.526   4.952
 1606SOL    HW2 5718   6.080   5.497   4.795
 1607SOL     OW 5719   5.411   3.656   1.665
 1607SOL    HW1 5720   5.486   3.651   1.730
 1607SOL    HW2 5721   5.382   3.752   1.656
 1608SOL     OW 5722   2.319   0.116   0.965
 1608SOL    HW1 5723   2.385   0.085   0.896
 1608SOL    HW2 5724   2.352   0.090   1.056
 1609SOL     OW 5725   5.660   1.614   5.500
 1609SOL    HW1 5726   5.712   1.689   5.540
 1609SOL    HW2 5727   5.562   1.635   5.504
 1610SOL     OW 5728   4.467   6.483   3.263
 1610SOL    HW1 5729   4.389   6.542   3.280
 1610SOL    HW2 5730   4.551   6.538   3.261
 1611SOL     OW 5731   4.157   3.765   1.773
 1611SOL    HW1 5732   4.163   3.844   1.712
 1611SOL    HW2 5733   4.109   3.792   1.857
 1612SOL     OW 5734   3.122   0.508   4.585
 1612SOL    HW1 5735   3.081   0.468   4.503
 1612SOL    HW2 5736   3.174   0.590   4.560
 1613SOL     OW 5737   2.439   0.373   1.700
 1613SOL    HW1 5738   2.394   0.307   1.761
 1613SOL    HW2 5739   2.375   0.400   1.628
 1614SOL     OW 5740   6.797   2.050   5.277
 1614SOL    HW1 5741   6.719   2.019   5.332
 1614SOL    HW2 5742   6.869   1.982   5.280
 1615SOL     OW 5743   6.730   5.531   5.810
 1615SOL    HW1 5744   6.803   5.490   5.755
 1615SOL    HW2 5745   6.767   5.609   5.861
 1616SOL     OW 5746   2.395   1.862   6.148
 1616SOL    HW1 5747   2.337   1.941   6.169
 1616SOL    HW2 5748   2.434   1.872   6.057
 1617SOL     OW 5749   3.254   0.971   3.522
 1617SOL    HW1 5750   3.162   1.009   3.511
 1617SOL    HW2 5751   3.274   0.909   3.446
 1618SOL     OW 5752   5.174   2.983   1.994
 1618SOL    HW1 5753   5.258   2.964   1.943
 1618SOL    HW2 5754   5.125   3.059   1.951
 1619SOL     OW 5755   1.575   2.875   4.885
 1619SOL    HW1 5756   1.628   2.960   4.877
 1619SOL    HW2 5757   1.504   2.887   4.954
 1620SOL     OW 5758   3.242   5.913   1.432
 1620SOL    HW1 5759   3.258   6.012   1.433
 1620SOL    HW2 5760   3.157   5.893   1.481
 1621SOL     OW 5761   2.083   2.302   1.475
 1621SOL    HW1 5762   2.096   2.375   1.542
 1621SOL    HW2 5763   2.172   2.262   1.451
 1622SOL     OW 5764   2.187   2.544   5.545
 1622SOL    HW1 5765   2.259   2.601   5.506
 1622SOL    HW2 5766   2.141   2.494   5.472
 1623SOL     OW 5767   2.353   2.091   4.496
 1623SOL    HW1 5768   2.439   2.063   4.540
 1623SOL    HW2 5769   2.279   2.031   4.526
 1624SOL     OW 5770   2.021   0.462   0.230
 1624SOL    HW1 5771   1.998   0.518   0.309
 1624SOL    HW2 5772   2.068   0.378   0.261
 1625SOL     OW 5773   1.340   6.984   1.213
 1625SOL    HW1 5774   1.346   7.003   1.116
 1625SOL    HW2 5775   1.244   6.968   1.238
 1626SOL     OW 5776   2.361   3.212   6.263
 1626SOL    HW1 5777   2.332   3.297   6.221
 1626SOL    HW2 5778   2.448   3.183   6.224
 1627SOL     OW 5779   4.725   4.194   3.301
 1627SOL    HW1 5780   4.779   4.111   3.308
 1627SOL    HW2 5781   4.748   4.242   3.216
 1628SOL     OW 5782   3.828   3.353   0.098
 1628SOL    HW1 5783   3.769   3.390   0.026
 1628SOL    HW2 5784   3.790   3.268   0.133
 1629SOL     OW 5785   2.573   2.302   3.014
 1629SOL    HW1 5786   2.601   2.353   2.932
 1629SOL    HW2 5787   2.582   2.204   2.995
 1630SOL     OW 5788   5.634   4.618   3.830
 1630SOL    HW1 5789   5.574   4.636   3.907
 1630SOL    HW2 5790   5.679   4.703   3.802
 1631SOL     OW 5791   1.123   0.686   5.947
 1631SOL    HW1 5792   1.114   0.624   6.025
 1631SOL    HW2 5793   1.217   0.683   5.913
 1632SOL     OW 5794   3.897   6.723   7.012
 1632SOL    HW1 5795   3.911   6.794   0.061
 1632SOL    HW2 5796   3.965   6.650   0.005
 1633SOL     OW 5797   6.594   3.828   2.747
 1633SOL    HW1 5798   6.557   3.900   2.688
 1633SOL    HW2 5799   6.531   3.751   2.748
 1634SOL     OW 5800   3.553   1.128   0.977
 1634SOL    HW1 5801   3.537   1.206   0.917
 1634SOL    HW2 5802   3.651   1.110   0.985
 1635SOL     OW 5803   1.618   3.969   3.382
 1635SOL    HW1 5804   1.640   3.939   3.475
 1635SOL    HW2 5805   1.553   3.905   3.341
 1636SOL     OW 5806   2.668   6.305   0.647
 1636SOL    HW1 5807   2.657   6.337   0.553
 1636SOL    HW2 5808   2.578   6.290   0.688
 1637SOL     OW 5809   0.987   2.775   2.522
 1637SOL    HW1 5810   1.065   2.823   2.561
 1637SOL    HW2 5811   0.938   2.837   2.460
 1638SOL     OW 5812   0.975   2.267   5.866
 1638SOL    HW1 5813   0.886   2.281   5.910
 1638SOL    HW2 5814   1.033   2.347   5.881
 1639SOL     OW 5815   4.074   5.033   2.813
 1639SOL    HW1 5816   4.109   4.986   2.732
 1639SOL    HW2 5817   4.127   5.117   2.828
 1640SOL     OW 5818   5.536   6.970   0.526
 1640SOL    HW1 5819   5.553   0.044   0.495
 1640SOL    HW2 5820   5.565   6.906   0.455
 1641SOL     OW 5821   6.092   2.714   4.597
 1641SOL    HW1 5822   6.015   2.741   4.654
 1641SOL    HW2 5823   6.170   2.774   4.616
 1642SOL     OW 5824   0.633   2.203   1.392
 1642SOL    HW1 5825   0.708   2.253   1.435
 1642SOL    HW2 5826   0.664   2.164   1.306
 1643SOL     OW 5827   3.895   6.995   5.802
 1643SOL    HW1 5828   3.981   7.007   5.754
 1643SOL    HW2 5829   3.819   7.003   5.738
 1644SOL     OW 5830   4.090   1.212   0.892
 1644SOL    HW1 5831   4.063   1.222   0.796
 1644SOL    HW2 5832   4.181   1.169   0.896
 1645SOL     OW 5833   2.473   5.610   5.932
 1645SOL    HW1 5834   2.550   5.596   5.995
 1645SOL    HW2 5835   2.390   5.627   5.985
 1646SOL     OW 5836   2.407   3.362   0.423
 1646SOL    HW1 5837   2.476   3.411   0.370
 1646SOL    HW2 5838   2.342   3.318   0.361
 1647SOL     OW 5839   5.986   3.494   2.139
 1647SOL    HW1 5840   6.044   3.424   2.096
 1647SOL    HW2 5841   5.965   3.467   2.233
 1648SOL     OW 5842   2.933   0.781   3.409
 1648SOL    HW1 5843   2.955   0.865   3.458
 1648SOL    HW2 5844   2.964   0.702   3.462
 1649SOL     OW 5845   2.529   0.439   4.012
 1649SOL    HW1 5846   2.457   0.371   4.007
 1649SOL    HW2 5847   2.498   0.524   3.968
 1650SOL     OW 5848   2.994   0.421   4.302
 1650SOL    HW1 5849   2.906   0.446   4.341
 1650SOL    HW2 5850   3.052   0.502   4.294
 1651SOL     OW 5851   1.548   6.798   2.532
 1651SOL    HW1 5852   1.542   6.897   2.549
 1651SOL    HW2 5853   1.461   6.755   2.556
 1652SOL     OW 5854   3.644   3.535   1.535
 1652SOL    HW1 5855   3.685   3.468   1.597
 1652SOL    HW2 5856   3.622   3.618   1.586
 1653SOL     OW 5857   1.034   4.425   1.330
 1653SOL    HW1 5858   1.006   4.377   1.247
 1653SOL    HW2 5859   1.006   4.521   1.325
 1654SOL     OW 5860   1.012   2.271   4.234
 1654SOL    HW1 5861   1.053   2.361   4.220
 1654SOL    HW2 5862   0.920   2.270   4.195
 1655SOL     OW 5863   4.331   4.223   5.328
 1655SOL    HW1 5864   4.296   4.256   5.416
 1655SOL    HW2 5865   4.325   4.297   5.260
 1656SOL     OW 5866   0.356   3.188   2.202
 1656SOL    HW1 5867   0.346   3.100   2.156
 1656SOL    HW2 5868   0.267   3.232   2.210
 1657SOL     OW 5869   1.087   0.932   5.636
 1657SOL    HW1 5870   1.063   0.835   5.625
 1657SOL    HW2 5871   1.135   0.945   5.723
 1658SOL     OW 5872   5.974   6.766   2.843
 1658SOL    HW1 5873   6.061   6.804   2.813
 1658SOL    HW2 5874   5.933   6.712   2.770
 1659SOL     OW 5875   5.412   2.734   6.491
 1659SOL    HW1 5876   5.452   2.823   6.470
 1659SOL    HW2 5877   5.383   2.732   6.586
 1660SOL     OW 5878   2.221   5.609   3.670
 1660SOL    HW1 5879   2.219   5.552   3.752
 1660SOL    HW2 5880   2.257   5.555   3.593
 1661SOL     OW 5881   2.537   0.832   3.237
 1661SOL    HW1 5882   2.561   0.741   3.202
 1661SOL    HW2 5883   2.438   0.837   3.250
 1662SOL     OW 5884   0.128   0.961   3.620
 1662SOL    HW1 5885   0.194   1.010   3.563
 1662SOL    HW2 5886   0.036   0.975   3.583
 1663SOL     OW 5887   1.490   0.249   3.380
 1663SOL    HW1 5888   1.451   0.279   3.293
 1663SOL    HW2 5889   1.577   0.297   3.395
 1664SOL     OW 5890   1.734   5.507   4.413
 1664SOL    HW1 5891   1.682   5.448   4.350
 1664SOL    HW2 5892   1.712   5.483   4.507
 1665SOL     OW 5893   0.062   1.316   3.958
 1665SOL    HW1 5894   6.982   1.322   3.953
 1665SOL    HW2 5895   0.095   1.370   4.035
 1666SOL     OW 5896   5.501   2.463   6.430
 1666SOL    HW1 5897   5.472   2.558   6.431
 1666SOL    HW2 5898   5.560   2.444   6.508
 1667SOL     OW 5899   6.963   0.510   1.125
 1667SOL    HW1 5900   6.955   0.417   1.158
 1667SOL    HW2 5901   6.926   0.516   1.032
 1668SOL     OW 5902   2.484   0.422   4.723
 1668SOL    HW1 5903   2.392   0.462   4.719
 1668SOL    HW2 5904   2.520   0.411   4.631
 1669SOL     OW 5905   5.376   6.138   6.212
 1669SOL    HW1 5906   5.288   6.092   6.201
 1669SOL    HW2 5907   5.445   6.071   6.236
 1670SOL     OW 5908   6.975   3.335   6.204
 1670SOL    HW1 5909   0.042   3.300   6.240
 1670SOL    HW2 5910   6.920   3.259   6.169
 1671SOL     OW 5911   5.853   5.064   0.795
 1671SOL    HW1 5912   5.814   4.972   0.803
 1671SOL    HW2 5913   5.845   5.111   0.883
 1672SOL     OW 5914   2.000   4.347   2.493
 1672SOL    HW1 5915   2.096   4.371   2.508
 1672SOL    HW2 5916   1.994   4.285   2.415
 1673SOL     OW 5917   6.480   3.015   3.286
 1673SOL    HW1 5918   6.385   3.039   3.262
 1673SOL    HW2 5919   6.531   2.995   3.203
 1674SOL     OW 5920   2.598   5.675   0.401
 1674SOL    HW1 5921   2.578   5.755   0.458
 1674SOL    HW2 5922   2.631   5.706   0.312
 1675SOL     OW 5923   4.815   1.921   6.059
 1675SOL    HW1 5924   4.838   1.826   6.078
 1675SOL    HW2 5925   4.762   1.958   6.135
 1676SOL     OW 5926   2.904   1.969   3.676
 1676SOL    HW1 5927   2.937   2.057   3.642
 1676SOL    HW2 5928   2.981   1.914   3.706
 1677SOL     OW 5929   5.416   0.161   5.888
 1677SOL    HW1 5930   5.471   0.200   5.814
 1677SOL    HW2 5931   5.328   0.208   5.891
 1678SOL     OW 5932   4.949   6.371   2.353
 1678SOL    HW1 5933   4.933   6.457   2.305
 1678SOL    HW2 5934   4.929   6.383   2.450
 1679SOL     OW 5935   6.514   4.798   0.157
 1679SOL    HW1 5936   6.592   4.738   0.145
 1679SOL    HW2 5937   6.462   4.771   0.239
 1680SOL     OW 5938   0.138   2.180   5.577
 1680SOL    HW1 5939   0.173   2.199   5.670
 1680SOL    HW2 5940   0.150   2.262   5.521
 1681SOL     OW 5941   4.438   5.482   0.342
 1681SOL    HW1 5942   4.467   5.429   0.421
 1681SOL    HW2 5943   4.517   5.503   0.285
 1682SOL     OW 5944   0.185   2.828   6.030
 1682SOL    HW1 5945   0.232   2.741   6.009
 1682SOL    HW2 5946   0.119   2.848   5.958
 1683SOL     OW 5947   5.626   5.292   5.386
 1683SOL    HW1 5948   5.622   5.381   5.431
 1683SOL    HW2 5949   5.597   5.220   5.449
 1684SOL     OW 5950   0.464   0.054   4.433
 1684SOL    HW1 5951   0.556   0.035   4.399
 1684SOL    HW2 5952   0.436   7.002   4.496
 1685SOL     OW 5953   1.114   1.938   0.318
 1685SOL    HW1 5954   1.118   2.025   0.268
 1685SOL    HW2 5955   1.028   1.932   0.368
 1686SOL     OW 5956   1.540   6.734   6.104
 1686SOL    HW1 5957   1.536   6.634   6.096
 1686SOL    HW2 5958   1.604   6.771   6.036
 1687SOL     OW 5959   3.015   6.553   2.258
 1687SOL    HW1 5960   2.957   6.502   2.321
 1687SOL    HW2 5961   3.102   6.505   2.246
 1688SOL     OW 5962   0.533   1.543   3.869
 1688SOL    HW1 5963   0.594   1.510   3.797
 1688SOL    HW2 5964   0.548   1.641   3.884
 1689SOL     OW 5965   2.273   1.597   1.684
 1689SOL    HW1 5966   2.295   1.500   1.690
 1689SOL    HW2 5967   2.329   1.648   1.749
 1690SOL     OW 5968   1.079   2.309   0.564
 1690SOL    HW1 5969   1.049   2.284   0.656
 1690SOL    HW2 5970   1.122   2.399   0.567
 1691SOL     OW 5971   4.614   4.319   3.789
 1691SOL    HW1 5972   4.671   4.291   3.866
 1691SOL    HW2 5973   4.650   4.278   3.705
 1692SOL     OW 5974   0.955   6.676   3.850
 1692SOL    HW1 5975   0.874   6.623   3.826
 1692SOL    HW2 5976   1.022   6.616   3.895
 1693SOL     OW 5977   3.831   2.089   4.344
 1693SOL    HW1 5978   3.846   2.134   4.432
 1693SOL    HW2 5979   3.912   2.100   4.286
 1694SOL     OW 5980   6.368   6.007   5.043
 1694SOL    HW1 5981   6.383   5.968   4.953
 1694SOL    HW2 5982   6.395   5.942   5.113
 1695SOL     OW 5983   3.991   1.457   6.327
 1695SOL    HW1 5984   4.051   1.536   6.342
 1695SOL    HW2 5985   3.932   1.444   6.406
 1696SOL     OW 5986   3.547   5.629   1.990
 1696SOL    HW1 5987   3.543   5.724   2.020
 1696SOL    HW2 5988   3.474   5.612   1.924
 1697SOL     OW 5989   1.574   1.690   2.126
 1697SOL    HW1 5990   1.508   1.763   2.109
 1697SOL    HW2 5991   1.565   1.659   2.221
 1698SOL     OW 5992   4.849   1.683   6.994
 1698SOL    HW1 5993   4.753   1.659   6.982
 1698SOL    HW2 5994   4.866   1.706   0.070
 1699SOL     OW 5995   2.370   4.645   1.414
 1699SOL    HW1 5996   2.365   4.546   1.402
 1699SOL    HW2 5997   2.438   4.667   1.484
 1700SOL     OW 5998   5.769   2.854   4.302
 1700SOL    HW1 5999   5.773   2.754   4.301
 1700SOL    HW2 6000   5.862   2.891   4.302
 1701SOL     OW 6001   5.862   2.673   4.879
 1701SOL    HW1 6002   5.804   2.608   4.929
 1701SOL    HW2 6003   5.813   2.707   4.799
 1702SOL     OW 6004   5.135   2.687   1.521
 1702SOL    HW1 6005   5.040   2.700   1.549
 1702SOL    HW2 6006   5.168   2.769   1.475
 1703SOL     OW 6007   2.390   3.813   1.186
 1703SOL    HW1 6008   2.383   3.768   1.275
 1703SOL    HW2 6009   2.300   3.850   1.160
 1704SOL     OW 6010   0.280   1.657   2.231
 1704SOL    HW1 6011   0.255   1.753   2.219
 1704SOL    HW2 6012   0.273   1.609   2.144
 1705SOL     OW 6013   4.130   3.468   2.808
 1705SOL    HW1 6014   4.225   3.450   2.833
 1705SOL    HW2 6015   4.114   3.439   2.714
 1706SOL     OW 6016   2.550   0.831   6.141
 1706SOL    HW1 6017   2.599   0.746   6.159
 1706SOL    HW2 6018   2.454   0.811   6.123
 1707SOL     OW 6019   5.106   1.567   2.193
 1707SOL    HW1 6020   5.030   1.505   2.176
 1707SOL    HW2 6021   5.072   1.661   2.196
 1708SOL     OW 6022   0.607   4.373   1.524
 1708SOL    HW1 6023   0.531   4.311   1.545
 1708SOL    HW2 6024   0.589   4.463   1.565
 1709SOL     OW 6025   3.259   5.436   3.306
 1709SOL    HW1 6026   3.222   5.444   3.399
 1709SOL    HW2 6027   3.345   5.486   3.300
 1710SOL     OW 6028   6.452   4.670   4.844
 1710SOL    HW1 6029   6.550   4.683   4.862
 1710SOL    HW2 6030   6.438   4.580   4.802
 1711SOL     OW 6031   0.653   4.484   5.588
 1711SOL    HW1 6032   0.565   4.513   5.626
 1711SOL    HW2 6033   0.688   4.406   5.640
 1712SOL     OW 6034   1.534   4.413   2.220
 1712SOL    HW1 6035   1.611   4.450   2.169
 1712SOL    HW2 6036   1.500   4.481   2.285
 1713SOL     OW 6037   2.928   3.403   0.967
 1713SOL    HW1 6038   2.990   3.443   1.034
 1713SOL    HW2 6039   2.847   3.461   0.957
 1714SOL     OW 6040   4.454   1.099   1.676
 1714SOL    HW1 6041   4.501   1.031   1.731
 1714SOL    HW2 6042   4.408   1.054   1.599
 1715SOL     OW 6043   0.953   3.507   3.201
 1715SOL    HW1 6044   1.007   3.475   3.279
 1715SOL    HW2 6045   0.964   3.442   3.125
 1716SOL     OW 6046   6.971   6.935   6.768
 1716SOL    HW1 6047   6.924   6.930   6.856
 1716SOL    HW2 6048   6.974   6.843   6.727
 1717SOL     OW 6049   2.978   0.720   6.776
 1717SOL    HW1 6050   2.984   0.750   6.872
 1717SOL    HW2 6051   3.047   0.768   6.722
 1718SOL     OW 6052   1.956   4.137   5.538
 1718SOL    HW1 6053   1.991   4.157   5.446
 1718SOL    HW2 6054   1.942   4.039   5.548
 1719SOL     OW 6055   2.141   3.122   0.813
 1719SOL    HW1 6056   2.167   3.138   0.717
 1719SOL    HW2 6057   2.223   3.104   0.867
 1720SOL     OW 6058   0.187   2.242   2.153
 1720SOL    HW1 6059   0.279   2.281   2.165
 1720SOL    HW2 6060   0.186   2.184   2.072
 1721SOL     OW 6061   1.043   5.907   4.145
 1721SOL    HW1 6062   1.109   5.933   4.215
 1721SOL    HW2 6063   1.090   5.894   4.058
 1722SOL     OW 6064   5.384   7.010   1.731
 1722SOL    HW1 6065   5.315   0.005   1.801
 1722SOL    HW2 6066   5.340   7.000   1.642
 1723SOL     OW 6067   5.921   1.248   3.185
 1723SOL    HW1 6068   5.872   1.335   3.177
 1723SOL    HW2 6069   5.901   1.192   3.104
 1724SOL     OW 6070   4.547   0.641   0.450
 1724SOL    HW1 6071   4.597   0.638   0.364
 1724SOL    HW2 6072   4.458   0.686   0.436
 1725SOL     OW 6073   3.562   5.950   2.055
 1725SOL    HW1 6074   3.636   6.017   2.049
 1725SOL    HW2 6075   3.519   5.955   2.145
 1726SOL     OW 6076   6.048   4.229   4.757
 1726SOL    HW1 6077   6.076   4.314   4.802
 1726SOL    HW2 6078   5.949   4.228   4.747
 1727SOL     OW 6079   2.476   4.688   6.241
 1727SOL    HW1 6080   2.395   4.696   6.184
 1727SOL    HW2 6081   2.453   4.640   6.326
 1728SOL     OW 6082   4.931   5.525   3.839
 1728SOL    HW1 6083   4.841   5.526   3.882
 1728SOL    HW2 6084   4.982   5.607   3.866
 1729SOL     OW 6085   0.600   3.227   2.298
 1729SOL    HW1 6086   0.504   3.216   2.271
 1729SOL    HW2 6087   0.609   3.308   2.356
 1730SOL     OW 6088   4.581   2.120   4.875
 1730SOL    HW1 6089   4.652   2.050   4.881
 1730SOL    HW2 6090   4.497   2.079   4.841
 1731SOL     OW 6091   0.676   6.769   6.572
 1731SOL    HW1 6092   0.630   6.730   6.492
 1731SOL    HW2 6093   0.613   6.830   6.620
 1732SOL     OW 6094   0.955   4.381   0.153
 1732SOL    HW1 6095   1.033   4.425   0.198
 1732SOL    HW2 6096   0.988   4.302   0.100
 1733SOL     OW 6097   1.400   4.490   6.500
 1733SOL    HW1 6098   1.319   4.436   6.522
 1733SOL    HW2 6099   1.481   4.432   6.506
 1734SOL     OW 6100   5.586   4.307   0.651
 1734SOL    HW1 6101   5.487   4.292   0.643
 1734SOL    HW2 6102   5.632   4.268   0.572
 1735SOL     OW 6103   4.793   5.341   6.919
 1735SOL    HW1 6104   4.850   5.392   6.855
 1735SOL    HW2 6105   4.719   5.400   6.953
 1736SOL     OW 6106   3.627   3.149   0.484
 1736SOL    HW1 6107   3.655   3.238   0.519
 1736SOL    HW2 6108   3.628   3.082   0.558
 1737SOL     OW 6109   0.875   5.933   3.022
 1737SOL    HW1 6110   0.957   5.875   3.024
 1737SOL    HW2 6111   0.897   6.022   3.061
 1738SOL     OW 6112   0.870   1.371   2.242
 1738SOL    HW1 6113   0.882   1.409   2.334
 1738SOL    HW2 6114   0.914   1.431   2.175
 1739SOL     OW 6115   4.128   1.909   6.582
 1739SOL    HW1 6116   4.222   1.906   6.615
 1739SOL    HW2 6117   4.088   1.998   6.603
 1740SOL     OW 6118   0.600   2.038   6.562
 1740SOL    HW1 6119   0.653   1.961   6.595
 1740SOL    HW2 6120   0.657   2.120   6.559
 1741SOL     OW 6121   0.676   0.745   2.683
 1741SOL    HW1 6122   0.686   0.826   2.742
 1741SOL    HW2 6123   0.754   0.684   2.696
 1742SOL     OW 6124   6.311   6.034   4.046
 1742SOL    HW1 6125   6.302   6.127   4.011
 1742SOL    HW2 6126   6.221   5.997   4.067
 1743SOL     OW 6127   4.316   1.039   0.504
 1743SOL    HW1 6128   4.358   1.059   0.416
 1743SOL    HW2 6129   4.311   1.123   0.559
 1744SOL     OW 6130   3.910   6.223   1.538
 1744SOL    HW1 6131   3.953   6.148   1.586
 1744SOL    HW2 6132   3.966   6.249   1.459
 1745SOL     OW 6133   0.313   2.283   5.154
 1745SOL    HW1 6134   0.395   2.340   5.157
 1745SOL    HW2 6135   0.336   2.189   5.178
 1746SOL     OW 6136   2.874   0.927   6.384
 1746SOL    HW1 6137   2.804   0.858   6.397
 1746SOL    HW2 6138   2.930   0.933   6.467
 1747SOL     OW 6139   3.916   0.041   4.850
 1747SOL    HW1 6140   3.915   0.099   4.769
 1747SOL    HW2 6141   4.010   0.013   4.870
 1748SOL     OW 6142   6.110   1.015   2.052
 1748SOL    HW1 6143   6.086   1.070   2.132
 1748SOL    HW2 6144   6.152   0.929   2.083
 1749SOL     OW 6145   5.115   0.297   6.577
 1749SOL    HW1 6146   5.124   0.203   6.546
 1749SOL    HW2 6147   5.092   0.298   6.674
 1750SOL     OW 6148   3.402   0.542   2.920
 1750SOL    HW1 6149   3.422   0.611   2.989
 1750SOL    HW2 6150   3.483   0.527   2.863
 1751SOL     OW 6151   1.871   5.669   4.231
 1751SOL    HW1 6152   1.795   5.685   4.169
 1751SOL    HW2 6153   1.841   5.613   4.308
 1752SOL     OW 6154   6.788   1.903   6.235
 1752SOL    HW1 6155   6.840   1.911   6.321
 1752SOL    HW2 6156   6.821   1.972   6.170
 1753SOL     OW 6157   2.076   6.580   2.217
 1753SOL    HW1 6158   1.992   6.630   2.196
 1753SOL    HW2 6159   2.072   6.548   2.312
 1754SOL     OW 6160   3.204   3.176   3.459
 1754SOL    HW1 6161   3.145   3.163   3.379
 1754SOL    HW2 6162   3.168   3.249   3.517
 1755SOL     OW 6163   6.827   4.151   6.953
 1755SOL    HW1 6164   6.823   4.251   6.964
 1755SOL    HW2 6165   6.863   4.110   0.016
 1756SOL     OW 6166   5.850   4.452   5.168
 1756SOL    HW1 6167   5.872   4.378   5.231
 1756SOL    HW2 6168   5.934   4.501   5.144
 1757SOL     OW 6169   3.760   0.592   5.035
 1757SOL    HW1 6170   3.818   0.511   5.024
 1757SOL    HW2 6171   3.813   0.674   5.012
 1758SOL     OW 6172   2.849   1.604   3.412
 1758SOL    HW1 6173   2.810   1.569   3.498
 1758SOL    HW2 6174   2.877   1.699   3.425
 1759SOL     OW 6175   6.768   6.247   6.081
 1759SOL    HW1 6176   6.675   6.269   6.110
 1759SOL    HW2 6177   6.789   6.152   6.102
 1760SOL     OW 6178   4.619   6.327   2.914
 1760SOL    HW1 6179   4.545   6.384   2.951
 1760SOL    HW2 6180   4.706   6.376   2.921
 1761SOL     OW 6181   5.708   3.318   1.446
 1761SOL    HW1 6182   5.735   3.400   1.396
 1761SOL    HW2 6183   5.720   3.238   1.387
 1762SOL     OW 6184   5.888   3.084   0.499
 1762SOL    HW1 6185   5.968   3.129   0.458
 1762SOL    HW2 6186   5.829   3.049   0.426
 1763SOL     OW 6187   2.261   2.618   4.495
 1763SOL    HW1 6188   2.254   2.520   4.511
 1763SOL    HW2 6189   2.343   2.653   4.540
 1764SOL     OW 6190   6.660   3.788   3.219
 1764SOL    HW1 6191   6.738   3.726   3.230
 1764SOL    HW2 6192   6.584   3.756   3.275
 1765SOL     OW 6193   1.432   3.263   5.989
 1765SOL    HW1 6194   1.346   3.222   6.017
 1765SOL    HW2 6195   1.424   3.363   5.993
 1766SOL     OW 6196   5.615   3.882   5.358
 1766SOL    HW1 6197   5.552   3.826   5.304
 1766SOL    HW2 6198   5.709   3.855   5.339
 1767SOL     OW 6199   6.865   5.027   1.345
 1767SOL    HW1 6200   6.848   4.949   1.285
 1767SOL    HW2 6201   6.808   5.104   1.316
 1768SOL     OW 6202   5.987   0.041   2.932
 1768SOL    HW1 6203   5.992   0.133   2.893
 1768SOL    HW2 6204   5.992   6.993   2.859
 1769SOL     OW 6205   4.584   0.962   3.733
 1769SOL    HW1 6206   4.663   0.929   3.785
 1769SOL    HW2 6207   4.569   0.901   3.655
 1770SOL     OW 6208   3.446   5.829   5.453
 1770SOL    HW1 6209   3.448   5.914   5.506
 1770SOL    HW2 6210   3.366   5.830   5.393
 1771SOL     OW 6211   4.931   5.760   0.030
 1771SOL    HW1 6212   4.993   5.824   7.005
 1771SOL    HW2 6213   4.972   5.728   0.115
 1772SOL     OW 6214   2.277   5.815   2.709
 1772SOL    HW1 6215   2.212   5.886   2.683
 1772SOL    HW2 6216   2.369   5.855   2.716
 1773SOL     OW 6217   1.737   6.821   0.270
 1773SOL    HW1 6218   1.732   6.741   0.329
 1773SOL    HW2 6219   1.722   6.794   0.175
 1774SOL     OW 6220   2.573   5.064   1.770
 1774SOL    HW1 6221   2.630   5.065   1.688
 1774SOL    HW2 6222   2.615   5.003   1.838
 1775SOL     OW 6223   0.789   5.342   0.642
 1775SOL    HW1 6224   0.829   5.276   0.578
 1775SOL    HW2 6225   0.861   5.401   0.677
 1776SOL     OW 6226   3.293   5.438   4.941
 1776SOL    HW1 6227   3.263   5.441   5.036
 1776SOL    HW2 6228   3.215   5.459   4.881
 1777SOL     OW 6229   4.363   5.867   6.679
 1777SOL    HW1 6230   4.361   5.788   6.740
 1777SOL    HW2 6231   4.301   5.852   6.602
 1778SOL     OW 6232   0.487   3.270   6.020
 1778SOL    HW1 6233   0.581   3.241   5.999
 1778SOL    HW2 6234   0.430   3.190   6.035
 1779SOL     OW 6235   3.976   6.586   5.175
 1779SOL    HW1 6236   3.975   6.651   5.251
 1779SOL    HW2 6237   4.005   6.633   5.092
 1780SOL     OW 6238   4.233   2.100   6.944
 1780SOL    HW1 6239   4.166   2.033   6.976
 1780SOL    HW2 6240   4.323   2.056   6.936
 1781SOL     OW 6241   1.878   5.843   3.427
 1781SOL    HW1 6242   1.957   5.902   3.440
 1781SOL    HW2 6243   1.838   5.821   3.516
 1782SOL     OW 6244   3.151   1.473   4.554
 1782SOL    HW1 6245   3.139   1.568   4.525
 1782SOL    HW2 6246   3.195   1.472   4.645
 1783SOL     OW 6247   2.149   5.866   0.395
 1783SOL    HW1 6248   2.120   5.800   0.464
 1783SOL    HW2 6249   2.247   5.880   0.401
 1784SOL     OW 6250   1.616   6.633   6.522
 1784SOL    HW1 6251   1.650   6.542   6.544
 1784SOL    HW2 6252   1.578   6.675   6.605
 1785SOL     OW 6253   6.816   5.314   2.867
 1785SOL    HW1 6254   6.838   5.382   2.797
 1785SOL    HW2 6255   6.819   5.358   2.957
 1786SOL     OW 6256   3.828   2.520   1.544
 1786SOL    HW1 6257   3.772   2.545   1.622
 1786SOL    HW2 6258   3.846   2.601   1.488
 1787SOL     OW 6259   3.617   0.408   5.385
 1787SOL    HW1 6260   3.567   0.351   5.451
 1787SOL    HW2 6261   3.711   0.375   5.377
 1788SOL     OW 6262   1.662   5.008   5.084
 1788SOL    HW1 6263   1.704   5.094   5.056
 1788SOL    HW2 6264   1.607   4.971   5.009
 1789SOL     OW 6265   5.362   6.456   0.303
 1789SOL    HW1 6266   5.454   6.445   0.341
 1789SOL    HW2 6267   5.360   6.538   0.246
 1790SOL     OW 6268   1.945   6.763   2.763
 1790SOL    HW1 6269   1.967   6.857   2.737
 1790SOL    HW2 6270   1.873   6.728   2.704
 1791SOL     OW 6271   0.701   6.591   3.710
 1791SOL    HW1 6272   0.720   6.534   3.790
 1791SOL    HW2 6273   0.603   6.599   3.697
 1792SOL     OW 6274   0.997   3.345   4.494
 1792SOL    HW1 6275   0.945   3.390   4.566
 1792SOL    HW2 6276   1.080   3.305   4.532
 1793SOL     OW 6277   0.268   0.412   4.136
 1793SOL    HW1 6278   0.351   0.458   4.104
 1793SOL    HW2 6279   0.293   0.336   4.196
 1794SOL     OW 6280   4.684   5.958   6.117
 1794SOL    HW1 6281   4.664   5.882   6.179
 1794SOL    HW2 6282   4.669   6.045   6.165
 1795SOL     OW 6283   1.177   3.407   0.073
 1795SOL    HW1 6284   1.097   3.464   0.088
 1795SOL    HW2 6285   1.203   3.362   0.158
 1796SOL     OW 6286   3.985   0.160   5.404
 1796SOL    HW1 6287   3.947   0.245   5.440
 1796SOL    HW2 6288   3.919   0.117   5.342
 1797SOL     OW 6289   0.137   1.253   1.806
 1797SOL    HW1 6290   0.168   1.179   1.865
 1797SOL    HW2 6291   0.215   1.290   1.755
 1798SOL     OW 6292   6.142   1.375   2.972
 1798SOL    HW1 6293   6.057   1.342   2.929
 1798SOL    HW2 6294   6.146   1.344   3.067
 1799SOL     OW 6295   2.446   0.262   0.343
 1799SOL    HW1 6296   2.459   0.249   0.245
 1799SOL    HW2 6297   2.387   0.342   0.359
 1800SOL     OW 6298   2.919   4.800   2.146
 1800SOL    HW1 6299   2.898   4.719   2.092
 1800SOL    HW2 6300   2.835   4.833   2.190
 1801SOL     OW 6301   5.606   6.439   0.472
 1801SOL    HW1 6302   5.643   6.522   0.430
 1801SOL    HW2 6303   5.658   6.417   0.555
 1802SOL     OW 6304   6.120   5.403   4.365
 1802SOL    HW1 6305   6.212   5.387   4.400
 1802SOL    HW2 6306   6.125   5.452   4.278
 1803SOL     OW 6307   6.421   4.644   0.426
 1803SOL    HW1 6308   6.510   4.599   0.425
 1803SOL    HW2 6309   6.426   4.728   0.479
 1804SOL     OW 6310   3.227   3.844   5.975
 1804SOL    HW1 6311   3.249   3.891   5.889
 1804SOL    HW2 6312   3.168   3.903   6.030
 1805SOL     OW 6313   6.408   3.006   6.845
 1805SOL    HW1 6314   6.321   3.013   6.894
 1805SOL    HW2 6315   6.459   2.927   6.880
 1806SOL     OW 6316   6.718   6.638   0.134
 1806SOL    HW1 6317   6.805   6.649   0.183
 1806SOL    HW2 6318   6.731   6.573   0.059
 1807SOL     OW 6319   6.776   1.681   5.678
 1807SOL    HW1 6320   6.727   1.597   5.702
 1807SOL    HW2 6321   6.871   1.659   5.656
 1808SOL     OW 6322   2.466   4.849   4.076
 1808SOL    HW1 6323   2.381   4.857   4.128
 1808SOL    HW2 6324   2.526   4.925   4.099
 1809SOL     OW 6325   3.767   0.344   6.413
 1809SOL    HW1 6326   3.771   0.347   6.313
 1809SOL    HW2 6327   3.672   0.339   6.442
 1810SOL     OW 6328   2.916   6.605   2.964
 1810SOL    HW1 6329   2.864   6.656   2.895
 1810SOL    HW2 6330   3.011   6.637   2.964
 1811SOL     OW 6331   5.757   5.557   3.127
 1811SOL    HW1 6332   5.716   5.532   3.214
 1811SOL    HW2 6333   5.806   5.478   3.089
 1812SOL     OW 6334   4.466   5.059   5.177
 1812SOL    HW1 6335   4.464   5.158   5.174
 1812SOL    HW2 6336   4.407   5.021   5.106
 1813SOL     OW 6337   6.863   6.229   5.476
 1813SOL    HW1 6338   6.950   6.188   5.504
 1813SOL    HW2 6339   6.862   6.325   5.502
 1814SOL     OW 6340   4.901   0.493   2.588
 1814SOL    HW1 6341   4.891   0.540   2.500
 1814SOL    HW2 6342   4.877   0.556   2.662
 1815SOL     OW 6343   0.132   1.520   2.999
 1815SOL    HW1 6344   0.136   1.619   2.989
 1815SOL    HW2 6345   0.161   1.477   2.913
 1816SOL     OW 6346   1.208   5.453   0.599
 1816SOL    HW1 6347   1.195   5.539   0.550
 1816SOL    HW2 6348   1.175   5.377   0.543
 1817SOL     OW 6349   1.359   4.611   1.790
 1817SOL    HW1 6350   1.428   4.682   1.778
 1817SOL    HW2 6351   1.269   4.654   1.803
 1818SOL     OW 6352   0.722   1.526   2.862
 1818SOL    HW1 6353   0.624   1.530   2.844
 1818SOL    HW2 6354   0.771   1.572   2.788
 1819SOL     OW 6355   1.219   4.089   3.003
 1819SOL    HW1 6356   1.220   4.003   3.054
 1819SOL    HW2 6357   1.236   4.071   2.906
 1820SOL     OW 6358   5.568   6.201   2.952
 1820SOL    HW1 6359   5.577   6.300   2.962
 1820SOL    HW2 6360   5.501   6.180   2.881
 1821SOL     OW 6361   1.453   1.963   3.043
 1821SOL    HW1 6362   1.397   1.934   2.966
 1821SOL    HW2 6363   1.410   2.042   3.088
 1822SOL     OW 6364   3.324   3.579   2.075
 1822SOL    HW1 6365   3.395   3.600   2.142
 1822SOL    HW2 6366   3.322   3.480   2.059
 1823SOL     OW 6367   4.218   0.184   2.348
 1823SOL    HW1 6368   4.209   0.182   2.448
 1823SOL    HW2 6369   4.232   0.091   2.314
 1824SOL     OW 6370   4.835   1.470   1.836
 1824SOL    HW1 6371   4.787   1.550   1.871
 1824SOL    HW2 6372   4.896   1.498   1.761
 1825SOL     OW 6373   0.810   6.952   1.902
 1825SOL    HW1 6374   0.861   0.011   1.868
 1825SOL    HW2 6375   0.770   6.902   1.825
 1826SOL     OW 6376   2.761   5.726   6.256
 1826SOL    HW1 6377   2.757   5.703   6.159
 1826SOL    HW2 6378   2.844   5.687   6.296
 1827SOL     OW 6379   5.549   0.380   0.713
 1827SOL    HW1 6380   5.560   0.478   0.725
 1827SOL    HW2 6381   5.638   0.338   0.694
 1828SOL     OW 6382   2.689   2.949   0.454
 1828SOL    HW1 6383   2.611   2.898   0.417
 1828SOL    HW2 6384   2.661   3.044   0.471
 1829SOL     OW 6385   5.562   5.312   2.416
 1829SOL    HW1 6386   5.626   5.381   2.381
 1829SOL    HW2 6387   5.559   5.317   2.516
 1830SOL     OW 6388   4.733   6.864   4.618
 1830SOL    HW1 6389   4.763   6.811   4.539
 1830SOL    HW2 6390   4.734   6.805   4.699
 1831SOL     OW 6391   5.154   1.339   3.153
 1831SOL    HW1 6392   5.110   1.372   3.069
 1831SOL    HW2 6393   5.192   1.416   3.203
 1832SOL     OW 6394   5.289   2.815   6.722
 1832SOL    HW1 6395   5.195   2.828   6.690
 1832SOL    HW2 6396   5.292   2.736   6.784
 1833SOL     OW 6397   5.660   1.930   6.203
 1833SOL    HW1 6398   5.694   1.937   6.296
 1833SOL    HW2 6399   5.736   1.938   6.139
 1834SOL     OW 6400   2.422   4.288   0.025
 1834SOL    HW1 6401   2.466   4.223   6.982
 1834SOL    HW2 6402   2.346   4.243   0.071
 1835SOL     OW 6403   1.868   5.018   0.272
 1835SOL    HW1 6404   1.865   5.023   0.371
 1835SOL    HW2 6405   1.921   5.094   0.235
 1836SOL     OW 6406   0.880   6.732   0.319
 1836SOL    HW1 6407   0.865   6.728   0.418
 1836SOL    HW2 6408   0.924   6.647   0.289
 1837SOL     OW 6409   0.627   2.803   4.288
 1837SOL    HW1 6410   0.566   2.730   4.320
 1837SOL    HW2 6411   0.597   2.835   4.199
 1838SOL     OW 6412   0.510   2.610   4.481
 1838SOL    HW1 6413   0.530   2.512   4.476
 1838SOL    HW2 6414   0.521   2.642   4.575
 1839SOL     OW 6415   1.028   1.392   6.798
 1839SOL    HW1 6416   1.050   1.304   6.756
 1839SOL    HW2 6417   0.930   1.397   6.816
 1840SOL     OW 6418   1.216   5.279   1.493
 1840SOL    HW1 6419   1.235   5.377   1.496
 1840SOL    HW2 6420   1.158   5.254   1.571
 1841SOL     OW 6421   1.971   2.971   3.826
 1841SOL    HW1 6422   2.047   3.035   3.815
 1841SOL    HW2 6423   1.989   2.911   3.904
 1842SOL     OW 6424   1.337   5.957   6.197
 1842SOL    HW1 6425   1.293   5.929   6.283
 1842SOL    HW2 6426   1.387   5.879   6.158
 1843SOL     OW 6427   4.505   2.149   5.449
 1843SOL    HW1 6428   4.494   2.183   5.356
 1843SOL    HW2 6429   4.565   2.210   5.501
 1844SOL     OW 6430   5.502   4.984   3.895
 1844SOL    HW1 6431   5.481   4.891   3.925
 1844SOL    HW2 6432   5.436   5.012   3.826
 1845SOL     OW 6433   4.950   6.629   0.855
 1845SOL    HW1 6434   4.887   6.705   0.871
 1845SOL    HW2 6435   5.031   6.662   0.807
 1846SOL     OW 6436   3.786   1.594   5.724
 1846SOL    HW1 6437   3.810   1.503   5.691
 1846SOL    HW2 6438   3.862   1.633   5.776
 1847SOL     OW 6439   1.500   6.136   6.025
 1847SOL    HW1 6440   1.495   6.155   5.927
 1847SOL    HW2 6441   1.431   6.068   6.050
 1848SOL     OW 6442   1.952   1.155   4.022
 1848SOL    HW1 6443   1.936   1.197   3.932
 1848SOL    HW2 6444   2.021   1.083   4.013
 1849SOL     OW 6445   2.261   0.784   6.120
 1849SOL    HW1 6446   2.207   0.868   6.124
 1849SOL    HW2 6447   2.229   0.727   6.045
 1850SOL     OW 6448   5.419   1.783   1.713
 1850SOL    HW1 6449   5.454   1.832   1.633
 1850SOL    HW2 6450   5.481   1.796   1.790
 1851SOL     OW 6451   6.962   4.527   2.570
 1851SOL    HW1 6452   6.945   4.613   2.617
 1851SOL    HW2 6453   6.917   4.528   2.481
 1852SOL     OW 6454   5.553   1.601   5.760
 1852SOL    HW1 6455   5.544   1.698   5.785
 1852SOL    HW2 6456   5.623   1.592   5.690
 1853SOL     OW 6457   1.424   4.668   0.595
 1853SOL    HW1 6458   1.478   4.584   0.584
 1853SOL    HW2 6459   1.432   4.700   0.689
 1854SOL     OW 6460   2.676   5.062   4.170
 1854SOL    HW1 6461   2.706   4.978   4.215
 1854SOL    HW2 6462   2.608   5.108   4.227
 1855SOL     OW 6463   6.439   4.646   1.334
 1855SOL    HW1 6464   6.378   4.671   1.409
 1855SOL    HW2 6465   6.533   4.645   1.367
 1856SOL     OW 6466   5.722   3.037   0.293
 1856SOL    HW1 6467   5.761   3.065   0.205
 1856SOL    HW2 6468   5.622   3.035   0.285
 1857SOL     OW 6469   5.589   1.295   3.261
 1857SOL    HW1 6470   5.663   1.334   3.206
 1857SOL    HW2 6471   5.559   1.363   3.328
 1858SOL     OW 6472   5.062   4.501   2.474
 1858SOL    HW1 6473   5.072   4.549   2.561
 1858SOL    HW2 6474   5.145   4.513   2.420
 1859SOL     OW 6475   5.890   1.995   3.281
 1859SOL    HW1 6476   5.875   2.038   3.370
 1859SOL    HW2 6477   5.984   2.011   3.252
 1860SOL     OW 6478   3.829   2.175   5.075
 1860SOL    HW1 6479   3.928   2.185   5.063
 1860SOL    HW2 6480   3.800   2.226   5.156
 1861SOL     OW 6481   5.365   6.260   2.266
 1861SOL    HW1 6482   5.278   6.237   2.223
 1861SOL    HW2 6483   5.440   6.220   2.214
 1862SOL     OW 6484   2.906   2.253   0.699
 1862SOL    HW1 6485   2.929   2.286   0.608
 1862SOL    HW2 6486   2.808   2.233   0.705
 1863SOL     OW 6487   2.005   1.578   1.268
 1863SOL    HW1 6488   1.908   1.573   1.292
 1863SOL    HW2 6489   2.044   1.664   1.302
 1864SOL     OW 6490   0.437   6.593   3.264
 1864SOL    HW1 6491   0.456   6.499   3.294
 1864SOL    HW2 6492   0.461   6.603   3.168
 1865SOL     OW 6493   5.165   3.436   6.349
 1865SOL    HW1 6494   5.189   3.530   6.324
 1865SOL    HW2 6495   5.149   3.383   6.266
 1866SOL     OW 6496   5.622   5.508   1.513
 1866SOL    HW1 6497   5.620   5.504   1.613
 1866SOL    HW2 6498   5.715   5.489   1.481
 1867SOL     OW 6499   1.420   4.401   6.147
 1867SOL    HW1 6500   1.424   4.489   6.100
 1867SOL    HW2 6501   1.327   4.385   6.181
 1868SOL     OW 6502   6.696   4.238   5.381
 1868SOL    HW1 6503   6.659   4.226   5.289
 1868SOL    HW2 6504   6.793   4.212   5.381
 1869SOL     OW 6505   5.405   1.251   4.646
 1869SOL    HW1 6506   5.479   1.285   4.587
 1869SOL    HW2 6507   5.353   1.181   4.597
 1870SOL     OW 6508   2.168   3.994   4.835
 1870SOL    HW1 6509   2.238   4.002   4.905
 1870SOL    HW2 6510   2.145   3.897   4.822
 1871SOL     OW 6511   1.845   0.615   1.159
 1871SOL    HW1 6512   1.884   0.703   1.131
 1871SOL    HW2 6513   1.829   0.559   1.078
 1872SOL     OW 6514   1.620   5.834   6.371
 1872SOL    HW1 6515   1.593   5.903   6.438
 1872SOL    HW2 6516   1.692   5.871   6.312
 1873SOL     OW 6517   5.150   6.722   6.617
 1873SOL    HW1 6518   5.103   6.641   6.580
 1873SOL    HW2 6519   5.131   6.730   6.715
 1874SOL     OW 6520   0.654   3.693   2.672
 1874SOL    HW1 6521   0.689   3.702   2.578
 1874SOL    HW2 6522   0.648   3.784   2.714
 1875SOL     OW 6523   0.374   6.787   2.133
 1875SOL    HW1 6524   0.311   6.806   2.058
 1875SOL    HW2 6525   0.468   6.801   2.103
 1876SOL     OW 6526   2.035   6.270   4.224
 1876SOL    HW1 6527   2.035   6.231   4.316
 1876SOL    HW2 6528   1.974   6.216   4.166
 1877SOL     OW 6529   0.532   0.225   4.009
 1877SOL    HW1 6530   0.464   0.195   4.076
 1877SOL    HW2 6531   0.501   0.310   3.965
 1878SOL     OW 6532   6.623   2.913   6.031
 1878SOL    HW1 6533   6.543   2.861   6.060
 1878SOL    HW2 6534   6.603   3.011   6.038
 1879SOL     OW 6535   1.898   5.305   5.861
 1879SOL    HW1 6536   1.891   5.384   5.922
 1879SOL    HW2 6537   1.957   5.327   5.783
 1880SOL     OW 6538   6.365   0.359   4.232
 1880SOL    HW1 6539   6.361   0.374   4.330
 1880SOL    HW2 6540   6.327   0.438   4.184
 1881SOL     OW 6541   0.116   2.173   6.697
 1881SOL    HW1 6542   0.107   2.272   6.694
 1881SOL    HW2 6543   0.182   2.143   6.628
 1882SOL     OW 6544   1.080   6.874   0.202
 1882SOL    HW1 6545   1.010   6.845   0.267
 1882SOL    HW2 6546   1.042   6.878   0.110
 1883SOL     OW 6547   0.258   1.849   4.008
 1883SOL    HW1 6548   0.274   1.819   4.102
 1883SOL    HW2 6549   0.203   1.932   4.009
 1884SOL     OW 6550   5.775   2.328   1.466
 1884SOL    HW1 6551   5.760   2.297   1.372
 1884SOL    HW2 6552   5.699   2.387   1.494
 1885SOL     OW 6553   3.317   1.453   4.771
 1885SOL    HW1 6554   3.395   1.398   4.739
 1885SOL    HW2 6555   3.286   1.418   4.860
 1886SOL     OW 6556   0.532   6.189   3.641
 1886SOL    HW1 6557   0.534   6.090   3.650
 1886SOL    HW2 6558   0.618   6.221   3.601
 1887SOL     OW 6559   2.572   5.402   6.481
 1887SOL    HW1 6560   2.556   5.498   6.457
 1887SOL    HW2 6561   2.655   5.395   6.536
 1888SOL     OW 6562   2.161   0.057   3.065
 1888SOL    HW1 6563   2.153   0.088   3.160
 1888SOL    HW2 6564   2.235   0.107   3.020
 1889SOL     OW 6565   0.390   3.456   2.547
 1889SOL    HW1 6566   0.315   3.406   2.591
 1889SOL    HW2 6567   0.370   3.466   2.449
 1890SOL     OW 6568   1.330   6.054   4.855
 1890SOL    HW1 6569   1.404   6.075   4.791
 1890SOL    HW2 6570   1.273   5.981   4.818
 1891SOL     OW 6571   3.975   3.429   3.282
 1891SOL    HW1 6572   4.004   3.498   3.349
 1891SOL    HW2 6573   3.890   3.387   3.312
 1892SOL     OW 6574   0.099   0.386   2.848
 1892SOL    HW1 6575   0.169   0.374   2.918
 1892SOL    HW2 6576   0.010   0.398   2.892
 1893SOL     OW 6577   4.071   3.178   4.284
 1893SOL    HW1 6578   3.992   3.118   4.275
 1893SOL    HW2 6579   4.099   3.183   4.380
 1894SOL     OW 6580   3.371   2.967   4.427
 1894SOL    HW1 6581   3.362   3.067   4.429
 1894SOL    HW2 6582   3.346   2.933   4.336
 1895SOL     OW 6583   0.878   6.298   1.253
 1895SOL    HW1 6584   0.792   6.336   1.219
 1895SOL    HW2 6585   0.942   6.288   1.176
 1896SOL     OW 6586   5.790   3.072   1.298
 1896SOL    HW1 6587   5.770   3.070   1.200
 1896SOL    HW2 6588   5.823   2.982   1.328
 1897SOL     OW 6589   2.196   4.571   3.305
 1897SOL    HW1 6590   2.134   4.528   3.370
 1897SOL    HW2 6591   2.264   4.504   3.274
 1898SOL     OW 6592   1.725   6.111   2.420
 1898SOL    HW1 6593   1.810   6.130   2.371
 1898SOL    HW2 6594   1.656   6.080   2.355
 1899SOL     OW 6595   0.097   0.920   1.946
 1899SOL    HW1 6596   0.056   0.930   2.037
 1899SOL    HW2 6597   0.027   0.888   1.882
 1900SOL     OW 6598   2.989   6.239   6.360
 1900SOL    HW1 6599   3.064   6.305   6.371
 1900SOL    HW2 6600   3.026   6.146   6.364
 1901SOL     OW 6601   3.826   2.934   2.815
 1901SOL    HW1 6602   3.751   2.950   2.880
 1901SOL    HW2 6603   3.789   2.931   2.723
 1902SOL     OW 6604   1.325   6.814   5.356
 1902SOL    HW1 6605   1.251   6.803   5.422
 1902SOL    HW2 6606   1.290   6.795   5.264
 1903SOL     OW 6607   1.280   1.632   3.993
 1903SOL    HW1 6608   1.228   1.578   4.058
 1903SOL    HW2 6609   1.250   1.727   3.995
 1904SOL     OW 6610   5.888   5.694   1.699
 1904SOL    HW1 6611   5.813   5.752   1.728
 1904SOL    HW2 6612   5.918   5.636   1.775
 1905SOL     OW 6613   0.633   3.147   3.935
 1905SOL    HW1 6614   0.617   3.213   4.007
 1905SOL    HW2 6615   0.705   3.180   3.874
 1906SOL     OW 6616   0.666   6.007   3.964
 1906SOL    HW1 6617   0.669   6.105   3.942
 1906SOL    HW2 6618   0.572   5.982   3.989
 1907SOL     OW 6619   6.068   2.970   0.831
 1907SOL    HW1 6620   6.072   2.898   0.762
 1907SOL    HW2 6621   6.158   3.014   0.839
 1908SOL     OW 6622   3.925   0.749   1.889
 1908SOL    HW1 6623   3.850   0.724   1.951
 1908SOL    HW2 6624   3.958   0.840   1.913
 1909SOL     OW 6625   6.215   5.222   5.329
 1909SOL    HW1 6626   6.165   5.137   5.320
 1909SOL    HW2 6627   6.305   5.213   5.285
 1910SOL     OW 6628   0.276   5.930   5.393
 1910SOL    HW1 6629   0.310   5.961   5.304
 1910SOL    HW2 6630   0.307   5.993   5.464
 1911SOL     OW 6631   5.881   6.601   3.985
 1911SOL    HW1 6632   5.931   6.529   4.033
 1911SOL    HW2 6633   5.940   6.639   3.913
 1912SOL     OW 6634   3.354   4.942   2.063
 1912SOL    HW1 6635   3.336   4.971   1.969
 1912SOL    HW2 6636   3.432   4.880   2.065
 1913SOL     OW 6637   3.109   4.158   6.342
 1913SOL    HW1 6638   3.141   4.066   6.364
 1913SOL    HW2 6639   3.178   4.226   6.369
 1914SOL     OW 6640   4.199   3.982   0.483
 1914SOL    HW1 6641   4.105   3.971   0.515
 1914SOL    HW2 6642   4.235   4.070   0.514
 1915SOL     OW 6643   3.893   2.286   0.197
 1915SOL    HW1 6644   3.887   2.309   0.294
 1915SOL    HW2 6645   3.901   2.187   0.187
 1916SOL     OW 6646   3.676   1.410   2.552
 1916SOL    HW1 6647   3.680   1.506   2.525
 1916SOL    HW2 6648   3.769   1.373   2.557
 1917SOL     OW 6649   2.658   3.687   1.468
 1917SOL    HW1 6650   2.672   3.610   1.530
 1917SOL    HW2 6651   2.725   3.759   1.489
 1918SOL     OW 6652   5.114   2.731   4.289
 1918SOL    HW1 6653   5.189   2.687   4.239
 1918SOL    HW2 6654   5.106   2.826   4.261
 1919SOL     OW 6655   6.655   1.480   6.469
 1919SOL    HW1 6656   6.710   1.404   6.503
 1919SOL    HW2 6657   6.559   1.452   6.465
 1920SOL     OW 6658   4.723   3.746   0.825
 1920SOL    HW1 6659   4.659   3.809   0.870
 1920SOL    HW2 6660   4.766   3.793   0.748
 1921SOL     OW 6661   3.147   2.221   6.682
 1921SOL    HW1 6662   3.180   2.128   6.700
 1921SOL    HW2 6663   3.217   2.287   6.708
 1922SOL     OW 6664   3.782   3.592   4.732
 1922SOL    HW1 6665   3.683   3.603   4.731
 1922SOL    HW2 6666   3.806   3.498   4.708
 1923SOL     OW 6667   3.157   0.662   3.942
 1923SOL    HW1 6668   3.235   0.600   3.936
 1923SOL    HW2 6669   3.162   0.730   3.868
 1924SOL     OW 6670   5.414   0.862   1.098
 1924SOL    HW1 6671   5.325   0.848   1.141
 1924SOL    HW2 6672   5.459   0.774   1.084
 1925SOL     OW 6673   1.392   4.352   1.162
 1925SOL    HW1 6674   1.333   4.411   1.106
 1925SOL    HW2 6675   1.359   4.258   1.156
 1926SOL     OW 6676   3.071   6.724   1.873
 1926SOL    HW1 6677   3.005   6.718   1.948
 1926SOL    HW2 6678   3.022   6.728   1.785
 1927SOL     OW 6679   1.890   5.083   0.819
 1927SOL    HW1 6680   1.938   5.016   0.877
 1927SOL    HW2 6681   1.804   5.108   0.862
 1928SOL     OW 6682   0.457   4.400   2.823
 1928SOL    HW1 6683   0.455   4.443   2.913
 1928SOL    HW2 6684   0.367   4.405   2.781
 1929SOL     OW 6685   3.582   0.458   3.286
 1929SOL    HW1 6686   3.559   0.538   3.231
 1929SOL    HW2 6687   3.533   0.378   3.251
 1930SOL     OW 6688   3.635   3.555   0.043
 1930SOL    HW1 6689   3.629   3.545   0.142
 1930SOL    HW2 6690   3.561   3.613   0.010
 1931SOL     OW 6691   6.409   3.744   3.774
 1931SOL    HW1 6692   6.324   3.782   3.811
 1931SOL    HW2 6693   6.411   3.645   3.791
 1932SOL     OW 6694   4.738   0.775   1.839
 1932SOL    HW1 6695   4.647   0.812   1.824
 1932SOL    HW2 6696   4.806   0.828   1.788
 1933SOL     OW 6697   1.536   1.236   1.050
 1933SOL    HW1 6698   1.505   1.320   1.094
 1933SOL    HW2 6699   1.477   1.215   0.972
 1934SOL     OW 6700   6.374   0.464   6.908
 1934SOL    HW1 6701   6.405   0.522   6.982
 1934SOL    HW2 6702   6.290   0.417   6.934
 1935SOL     OW 6703   6.372   5.113   3.899
 1935SOL    HW1 6704   6.274   5.106   3.921
 1935SOL    HW2 6705   6.400   5.209   3.906
 1936SOL     OW 6706   5.390   3.398   6.538
 1936SOL    HW1 6707   5.302   3.411   6.491
 1936SOL    HW2 6708   5.422   3.305   6.524
 1937SOL     OW 6709   0.846   4.805   6.731
 1937SOL    HW1 6710   0.923   4.771   6.786
 1937SOL    HW2 6711   0.881   4.846   6.647
 1938SOL     OW 6712   6.602   1.691   6.657
 1938SOL    HW1 6713   6.633   1.607   6.613
 1938SOL    HW2 6714   6.508   1.710   6.630
 1939SOL     OW 6715   0.065   0.604   4.175
 1939SOL    HW1 6716   0.109   0.676   4.230
 1939SOL    HW2 6717   0.127   0.526   4.167
 1940SOL     OW 6718   1.236   5.533   1.472
 1940SOL    HW1 6719   1.182   5.616   1.485
 1940SOL    HW2 6720   1.332   5.558   1.455
 1941SOL     OW 6721   6.085   0.454   3.960
 1941SOL    HW1 6722   6.018   0.383   3.940
 1941SOL    HW2 6723   6.038   0.542   3.970
 1942SOL     OW 6724   0.669   5.847   1.963
 1942SOL    HW1 6725   0.621   5.786   1.901
 1942SOL    HW2 6726   0.656   5.942   1.934
 1943SOL     OW 6727   1.127   3.344   4.237
 1943SOL    HW1 6728   1.114   3.434   4.196
 1943SOL    HW2 6729   1.090   3.343   4.330
 1944SOL     OW 6730   0.410   3.677   3.834
 1944SOL    HW1 6731   0.375   3.685   3.928
 1944SOL    HW2 6732   0.431   3.769   3.799
 1945SOL     OW 6733   5.072   1.836   2.147
 1945SOL    HW1 6734   5.133   1.882   2.212
 1945SOL    HW2 6735   5.108   1.848   2.054
 1946SOL     OW 6736   5.939   5.159   6.792
 1946SOL    HW1 6737   5.856   5.194   6.748
 1946SOL    HW2 6738   5.962   5.070   6.753
 1947SOL     OW 6739   5.750   5.831   2.817
 1947SOL    HW1 6740   5.664   5.847   2.866
 1947SOL    HW2 6741   5.739   5.752   2.756
 1948SOL     OW 6742   5.369   3.416   3.343
 1948SOL    HW1 6743   5.343   3.351   3.271
 1948SOL    HW2 6744   5.296   3.422   3.411
 1949SOL     OW 6745   3.246   3.937   6.493
 1949SOL    HW1 6746   3.287   3.935   6.584
 1949SOL    HW2 6747   3.312   3.974   6.428
 1950SOL     OW 6748   3.506   3.741   3.814
 1950SOL    HW1 6749   3.485   3.837   3.796
 1950SOL    HW2 6750   3.601   3.723   3.789
 1951SOL     OW 6751   0.400   5.186   6.216
 1951SOL    HW1 6752   0.372   5.273   6.174
 1951SOL    HW2 6753   0.486   5.156   6.175
 1952SOL     OW 6754   5.737   4.081   0.193
 1952SOL    HW1 6755   5.804   4.107   0.124
 1952SOL    HW2 6756   5.709   3.985   0.178
 1953SOL     OW 6757   0.692   1.178   6.568
 1953SOL    HW1 6758   0.674   1.132   6.654
 1953SOL    HW2 6759   0.715   1.111   6.498
 1954SOL     OW 6760   3.812   6.720   2.802
 1954SOL    HW1 6761   3.769   6.714   2.892
 1954SOL    HW2 6762   3.745   6.694   2.732
 1955SOL     OW 6763   6.646   3.685   3.939
 1955SOL    HW1 6764   6.700   3.757   3.983
 1955SOL    HW2 6765   6.610   3.719   3.852
 1956SOL     OW 6766   4.621   1.567   1.581
 1956SOL    HW1 6767   4.677   1.486   1.561
 1956SOL    HW2 6768   4.678   1.649   1.575
 1957SOL     OW 6769   6.933   2.825   4.459
 1957SOL    HW1 6770   6.907   2.748   4.518
 1957SOL    HW2 6771   7.009   2.875   4.502
 1958SOL     OW 6772   5.175   2.339   0.140
 1958SOL    HW1 6773   5.246   2.280   0.101
 1958SOL    HW2 6774   5.128   2.290   0.214
 1959SOL     OW 6775   1.709   1.510   6.257
 1959SOL    HW1 6776   1.700   1.517   6.158
 1959SOL    HW2 6777   1.719   1.414   6.283
 1960SOL     OW 6778   4.778   4.738   2.035
 1960SOL    HW1 6779   4.740   4.796   2.107
 1960SOL    HW2 6780   4.828   4.662   2.077
 1961SOL     OW 6781   0.274   4.052   4.147
 1961SOL    HW1 6782   0.360   4.001   4.148
 1961SOL    HW2 6783   0.293   4.148   4.128
 1962SOL     OW 6784   0.411   0.143   2.412
 1962SOL    HW1 6785   0.338   0.167   2.476
 1962SOL    HW2 6786   0.430   0.045   2.419
 1963SOL     OW 6787   0.757   1.364   6.767
 1963SOL    HW1 6788   0.740   1.340   6.863
 1963SOL    HW2 6789   0.720   1.293   6.708
 1964SOL     OW 6790   5.536   3.397   0.366
 1964SOL    HW1 6791   5.476   3.317   0.357
 1964SOL    HW2 6792   5.498   3.458   0.436
 1965SOL     OW 6793   5.247   4.897   4.868
 1965SOL    HW1 6794   5.233   4.898   4.968
 1965SOL    HW2 6795   5.264   4.803   4.839
 1966SOL     OW 6796   1.517   4.978   6.611
 1966SOL    HW1 6797   1.582   4.935   6.549
 1966SOL    HW2 6798   1.424   4.950   6.587
 1967SOL     OW 6799   6.422   2.426   4.417
 1967SOL    HW1 6800   6.514   2.454   4.446
 1967SOL    HW2 6801   6.407   2.455   4.323
 1968SOL     OW 6802   2.808   1.313   6.166
 1968SOL    HW1 6803   2.781   1.218   6.157
 1968SOL    HW2 6804   2.763   1.368   6.096
 1969SOL     OW 6805   0.001   6.507   1.571
 1969SOL    HW1 6806   7.001   6.505   1.473
 1969SOL    HW2 6807   7.013   6.601   1.604
 1970SOL     OW 6808   5.208   4.108   2.958
 1970SOL    HW1 6809   5.158   4.036   2.911
 1970SOL    HW2 6810   5.304   4.084   2.965
 1971SOL     OW 6811   1.332   5.474   4.438
 1971SOL    HW1 6812   1.333   5.555   4.380
 1971SOL    HW2 6813   1.269   5.488   4.515
 1972SOL     OW 6814   5.270   1.962   3.193
 1972SOL    HW1 6815   5.329   1.881   3.200
 1972SOL    HW2 6816   5.275   1.998   3.101
 1973SOL     OW 6817   4.496   2.426   6.986
 1973SOL    HW1 6818   4.512   2.438   6.888
 1973SOL    HW2 6819   4.471   2.514   0.007
 1974SOL     OW 6820   2.057   6.116   4.435
 1974SOL    HW1 6821   1.990   6.042   4.423
 1974SOL    HW2 6822   2.143   6.078   4.469
 1975SOL     OW 6823   1.933   2.678   2.316
 1975SOL    HW1 6824   1.981   2.684   2.228
 1975SOL    HW2 6825   1.962   2.597   2.365
 1976SOL     OW 6826   2.415   0.770   4.758
 1976SOL    HW1 6827   2.439   0.720   4.675
 1976SOL    HW2 6828   2.327   0.736   4.793
 1977SOL     OW 6829   1.152   4.528   0.270
 1977SOL    HW1 6830   1.211   4.477   0.333
 1977SOL    HW2 6831   1.114   4.608   0.316
 1978SOL     OW 6832   2.628   0.456   2.428
 1978SOL    HW1 6833   2.634   0.481   2.524
 1978SOL    HW2 6834   2.532   0.446   2.401
 1979SOL     OW 6835   5.397   3.276   0.040
 1979SOL    HW1 6836   5.347   3.284   0.126
 1979SOL    HW2 6837   5.435   3.184   0.032
 1980SOL     OW 6838   4.189   0.324   1.687
 1980SOL    HW1 6839   4.097   0.288   1.671
 1980SOL    HW2 6840   4.257   0.258   1.658
 1981SOL     OW 6841   4.467   2.512   1.812
 1981SOL    HW1 6842   4.368   2.520   1.820
 1981SOL    HW2 6843   4.508   2.603   1.817
 1982SOL     OW 6844   2.056   2.300   6.852
 1982SOL    HW1 6845   2.121   2.375   6.858
 1982SOL    HW2 6846   2.024   2.276   6.943
 1983SOL     OW 6847   6.709   2.208   1.453
 1983SOL    HW1 6848   6.716   2.117   1.413
 1983SOL    HW2 6849   6.707   2.201   1.553
 1984SOL     OW 6850   4.604   3.333   5.917
 1984SOL    HW1 6851   4.520   3.284   5.894
 1984SOL    HW2 6852   4.637   3.381   5.836
 1985SOL     OW 6853   5.368   5.711   4.508
 1985SOL    HW1 6854   5.288   5.770   4.504
 1985SOL    HW2 6855   5.339   5.616   4.517
 1986SOL     OW 6856   3.014   3.223   3.240
 1986SOL    HW1 6857   3.004   3.296   3.172
 1986SOL    HW2 6858   3.060   3.145   3.197
 1987SOL     OW 6859   1.905   1.502   1.998
 1987SOL    HW1 6860   1.967   1.502   1.919
 1987SOL    HW2 6861   1.957   1.481   2.081
 1988SOL     OW 6862   1.174   1.682   3.011
 1988SOL    HW1 6863   1.083   1.643   2.998
 1988SOL    HW2 6864   1.199   1.676   3.107
 1989SOL     OW 6865   3.501   5.579   3.691
 1989SOL    HW1 6866   3.586   5.562   3.741
 1989SOL    HW2 6867   3.487   5.507   3.623
 1990SOL     OW 6868   4.073   6.590   0.646
 1990SOL    HW1 6869   4.147   6.533   0.683
 1990SOL    HW2 6870   4.104   6.685   0.639
 1991SOL     OW 6871   2.854   5.289   2.459
 1991SOL    HW1 6872   2.925   5.352   2.429
 1991SOL    HW2 6873   2.856   5.206   2.402
 1992SOL     OW 6874   0.919   7.007   3.490
 1992SOL    HW1 6875   1.019   7.010   3.486
 1992SOL    HW2 6876   0.889   6.913   3.508
 1993SOL     OW 6877   1.393   1.043   1.849
 1993SOL    HW1 6878   1.462   0.971   1.856
 1993SOL    HW2 6879   1.438   1.131   1.835
 1994SOL     OW 6880   2.794   3.309   1.876
 1994SOL    HW1 6881   2.798   3.241   1.803
 1994SOL    HW2 6882   2.709   3.299   1.928
 1995SOL     OW 6883   5.945   0.704   3.910
 1995SOL    HW1 6884   5.931   0.798   3.880
 1995SOL    HW2 6885   5.948   0.700   4.009
 1996SOL     OW 6886   4.939   0.400   1.468
 1996SOL    HW1 6887   4.939   0.400   1.368
 1996SOL    HW2 6888   4.849   0.430   1.501
 1997SOL     OW 6889   2.880   1.821   3.088
 1997SOL    HW1 6890   2.936   1.785   3.163
 1997SOL    HW2 6891   2.842   1.909   3.113
 1998SOL     OW 6892   2.363   3.495   1.219
 1998SOL    HW1 6893   2.449   3.452   1.192
 1998SOL    HW2 6894   2.378   3.552   1.300
 1999SOL     OW 6895   0.924   6.832   5.833
 1999SOL    HW1 6896   0.941   6.823   5.735
 1999SOL    HW2 6897   0.923   6.741   5.875
 2000SOL     OW 6898   4.668   3.944   6.548
 2000SOL    HW1 6899   4.739   3.907   6.488
 2000SOL    HW2 6900   4.605   3.871   6.574
 2001SOL     OW 6901   1.391   1.786   0.695
 2001SOL    HW1 6902   1.466   1.799   0.761
 2001SOL    HW2 6903   1.337   1.707   0.722
 2002SOL     OW 6904   6.193   4.623   6.518
 2002SOL    HW1 6905   6.213   4.657   6.609
 2002SOL    HW2 6906   6.095   4.601   6.511
 2003SOL     OW 6907   6.751   5.740   1.147
 2003SOL    HW1 6908   6.691   5.817   1.129
 2003SOL    HW2 6909   6.778   5.741   1.244
 2004SOL     OW 6910   3.424   0.779   2.374
 2004SOL    HW1 6911   3.401   0.791   2.470
 2004SOL    HW2 6912   3.417   0.683   2.349
 2005SOL     OW 6913   1.888   6.322   0.100
 2005SOL    HW1 6914   1.919   6.325   0.195
 2005SOL    HW2 6915   1.918   6.236   0.058
 2006SOL     OW 6916   6.008   6.913   1.905
 2006SOL    HW1 6917   6.021   6.815   1.918
 2006SOL    HW2 6918   5.941   6.946   1.972
 2007SOL     OW 6919   5.615   5.562   5.537
 2007SOL    HW1 6920   5.627   5.545   5.634
 2007SOL    HW2 6921   5.700   5.599   5.499
 2008SOL     OW 6922   2.213   3.111   2.740
 2008SOL    HW1 6923   2.290   3.164   2.706
 2008SOL    HW2 6924   2.185   3.044   2.670
 2009SOL     OW 6925   6.031   0.617   3.650
 2009SOL    HW1 6926   6.001   0.627   3.745
 2009SOL    HW2 6927   6.111   0.558   3.647
 2010SOL     OW 6928   6.855   1.414   1.479
 2010SOL    HW1 6929   6.817   1.489   1.425
 2010SOL    HW2 6930   6.908   1.451   1.555
 2011SOL     OW 6931   1.124   0.471   5.091
 2011SOL    HW1 6932   1.105   0.533   5.015
 2011SOL    HW2 6933   1.069   0.388   5.080
 2012SOL     OW 6934   6.838   2.124   0.460
 2012SOL    HW1 6935   6.829   2.033   0.498
 2012SOL    HW2 6936   6.813   2.122   0.363
 2013SOL     OW 6937   0.501   2.387   1.797
 2013SOL    HW1 6938   0.551   2.469   1.767
 2013SOL    HW2 6939   0.551   2.306   1.768
 2014SOL     OW 6940   3.846   1.880   3.686
 2014SOL    HW1 6941   3.898   1.802   3.720
 2014SOL    HW2 6942   3.909   1.946   3.645
 2015SOL     OW 6943   3.663   6.336   1.554
 2015SOL    HW1 6944   3.675   6.431   1.584
 2015SOL    HW2 6945   3.753   6.293   1.543
 2016SOL     OW 6946   2.132   0.794   4.701
 2016SOL    HW1 6947   2.139   0.839   4.790
 2016SOL    HW2 6948   2.041   0.809   4.662
 2017SOL     OW 6949   1.641   6.844   4.774
 2017SOL    HW1 6950   1.664   6.897   4.692
 2017SOL    HW2 6951   1.710   6.773   4.788
 2018SOL     OW 6952   0.298   1.004   4.544
 2018SOL    HW1 6953   0.318   0.965   4.634
 2018SOL    HW2 6954   0.379   1.051   4.509
 2019SOL     OW 6955   0.629   5.081   6.970
 2019SOL    HW1 6956   0.610   4.984   6.954
 2019SOL    HW2 6957   0.589   5.136   6.897
 2020SOL     OW 6958   2.045   6.896   1.627
 2020SOL    HW1 6959   2.045   6.848   1.715
 2020SOL    HW2 6960   2.127   6.954   1.621
 2021SOL     OW 6961   0.245   5.316   3.385
 2021SOL    HW1 6962   0.257   5.236   3.444
 2021SOL    HW2 6963   0.283   5.296   3.295
 2022SOL     OW 6964   2.243   2.904   4.020
 2022SOL    HW1 6965   2.179   2.828   4.031
 2022SOL    HW2 6966   2.257   2.949   4.108
 2023SOL     OW 6967   0.547   5.834   6.562
 2023SOL    HW1 6968   0.591   5.844   6.473
 2023SOL    HW2 6969   0.600   5.883   6.631
 2024SOL     OW 6970   6.442   6.450   3.479
 2024SOL    HW1 6971   6.532   6.490   3.458
 2024SOL    HW2 6972   6.453   6.352   3.497
 2025SOL     OW 6973   1.874   0.478   4.626
 2025SOL    HW1 6974   1.872   0.442   4.719
 2025SOL    HW2 6975   1.781   0.494   4.594
 2026SOL     OW 6976   1.474   6.722   5.714
 2026SOL    HW1 6977   1.462   6.796   5.648
 2026SOL    HW2 6978   1.556   6.738   5.769
 2027SOL     OW 6979   6.411   6.861   2.916
 2027SOL    HW1 6980   6.393   6.763   2.903
 2027SOL    HW2 6981   6.468   6.874   2.997
 2028SOL     OW 6982   1.982   5.836   4.908
 2028SOL    HW1 6983   1.895   5.869   4.946
 2028SOL    HW2 6984   1.973   5.829   4.808
 2029SOL     OW 6985   6.777   2.130   0.201
 2029SOL    HW1 6986   6.854   2.153   0.141
 2029SOL    HW2 6987   6.702   2.193   0.185
 2030SOL     OW 6988   1.829   6.252   2.750
 2030SOL    HW1 6989   1.755   6.226   2.811
 2030SOL    HW2 6990   1.813   6.214   2.659
 2031SOL     OW 6991   6.676   0.368   4.875
 2031SOL    HW1 6992   6.581   0.370   4.908
 2031SOL    HW2 6993   6.730   0.435   4.924
 2032SOL     OW 6994   2.795   3.035   6.351
 2032SOL    HW1 6995   2.718   3.078   6.303
 2032SOL    HW2 6996   2.797   2.938   6.330
 2033SOL     OW 6997   2.847   0.137   1.411
 2033SOL    HW1 6998   2.934   0.124   1.459
 2033SOL    HW2 6999   2.803   0.220   1.445
 2034SOL     OW 7000   0.825   3.617   4.633
 2034SOL    HW1 7001   0.767   3.658   4.703
 2034SOL    HW2 7002   0.881   3.546   4.674
 2035SOL     OW 7003   4.777   5.809   3.292
 2035SOL    HW1 7004   4.813   5.846   3.206
 2035SOL    HW2 7005   4.677   5.809   3.290
 2036SOL     OW 7006   6.973   3.118   5.912
 2036SOL    HW1 7007   6.899   3.128   5.979
 2036SOL    HW2 7008   6.982   3.202   5.859
 2037SOL     OW 7009   1.256   2.422   6.817
 2037SOL    HW1 7010   1.253   2.505   6.872
 2037SOL    HW2 7011   1.230   2.344   6.873
 2038SOL     OW 7012   1.711   0.597   5.944
 2038SOL    HW1 7013   1.657   0.681   5.941
 2038SOL    HW2 7014   1.735   0.576   6.039
 2039SOL     OW 7015   5.319   6.044   4.139
 2039SOL    HW1 7016   5.354   5.950   4.145
 2039SOL    HW2 7017   5.366   6.093   4.066
 2040SOL     OW 7018   2.784   1.600   0.757
 2040SOL    HW1 7019   2.820   1.685   0.796
 2040SOL    HW2 7020   2.685   1.600   0.762
 2041SOL     OW 7021   2.925   0.272   0.212
 2041SOL    HW1 7022   2.931   0.274   0.113
 2041SOL    HW2 7023   2.881   0.186   0.241
 2042SOL     OW 7024   6.868   0.154   4.805
 2042SOL    HW1 7025   6.810   0.100   4.865
 2042SOL    HW2 7026   6.826   0.244   4.790
 2043SOL     OW 7027   1.326   3.403   0.311
 2043SOL    HW1 7028   1.394   3.426   0.241
 2043SOL    HW2 7029   1.320   3.476   0.378
 2044SOL     OW 7030   3.728   0.742   2.398
 2044SOL    HW1 7031   3.635   0.711   2.417
 2044SOL    HW2 7032   3.749   0.822   2.453
 2045SOL     OW 7033   1.965   5.658   3.204
 2045SOL    HW1 7034   2.047   5.612   3.237
 2045SOL    HW2 7035   1.928   5.716   3.277
 2046SOL     OW 7036   0.504   2.267   5.852
 2046SOL    HW1 7037   0.587   2.262   5.908
 2046SOL    HW2 7038   0.430   2.306   5.907
 2047SOL     OW 7039   7.003   0.154   2.055
 2047SOL    HW1 7040   6.911   0.147   2.018
 2047SOL    HW2 7041   0.045   0.190   1.984
 2048SOL     OW 7042   1.870   1.243   3.773
 2048SOL    HW1 7043   1.859   1.150   3.737
 2048SOL    HW2 7044   1.940   1.290   3.720
 2049SOL     OW 7045   4.279   1.990   5.495
 2049SOL    HW1 7046   4.270   1.935   5.412
 2049SOL    HW2 7047   4.351   2.058   5.483
 2050SOL     OW 7048   0.206   1.505   2.465
 2050SOL    HW1 7049   0.249   1.420   2.435
 2050SOL    HW2 7050   0.219   1.576   2.396
 2051SOL     OW 7051   3.561   0.098   6.334
 2051SOL    HW1 7052   3.540   0.167   6.403
 2051SOL    HW2 7053   3.612   0.023   6.376
 2052SOL     OW 7054   0.428   4.423   0.678
 2052SOL    HW1 7055   0.481   4.345   0.645
 2052SOL    HW2 7056   0.428   4.424   0.778
 2053SOL     OW 7057   4.619   5.349   1.680
 2053SOL    HW1 7058   4.599   5.259   1.719
 2053SOL    HW2 7059   4.702   5.386   1.722
 2054SOL     OW 7060   2.988   3.780   3.708
 2054SOL    HW1 7061   2.971   3.791   3.806
 2054SOL    HW2 7062   3.017   3.867   3.669
 2055SOL     OW 7063   3.340   3.274   5.574
 2055SOL    HW1 7064   3.400   3.195   5.584
 2055SOL    HW2 7065   3.329   3.296   5.477
 2056SOL     OW 7066   2.456   5.604   2.321
 2056SOL    HW1 7067   2.497   5.522   2.283
 2056SOL    HW2 7068   2.512   5.636   2.398
 2057SOL     OW 7069   6.337   3.120   4.152
 2057SOL    HW1 7070   6.362   3.216   4.142
 2057SOL    HW2 7071   6.250   3.103   4.106
 2058SOL     OW 7072   5.513   0.555   3.405
 2058SOL    HW1 7073   5.428   0.564   3.457
 2058SOL    HW2 7074   5.589   0.535   3.467
 2059SOL     OW 7075   2.742   1.082   6.031
 2059SOL    HW1 7076   2.797   1.092   5.948
 2059SOL    HW2 7077   2.731   0.985   6.052
 2060SOL     OW 7078   1.344   2.262   6.348
 2060SOL    HW1 7079   1.330   2.195   6.422
 2060SOL    HW2 7080   1.436   2.251   6.311
 2061SOL     OW 7081   2.294   2.867   3.759
 2061SOL    HW1 7082   2.248   2.874   3.847
 2061SOL    HW2 7083   2.391   2.846   3.774
 2062SOL     OW 7084   5.027   5.275   3.811
 2062SOL    HW1 7085   4.952   5.209   3.798
 2062SOL    HW2 7086   4.992   5.368   3.797
 2063SOL     OW 7087   1.189   1.675   4.481
 2063SOL    HW1 7088   1.101   1.705   4.444
 2063SOL    HW2 7089   1.252   1.753   4.481
 2064SOL     OW 7090   0.605   3.656   4.444
 2064SOL    HW1 7091   0.531   3.595   4.472
 2064SOL    HW2 7092   0.685   3.641   4.502
 2065SOL     OW 7093   3.507   3.889   5.880
 2065SOL    HW1 7094   3.446   3.950   5.830
 2065SOL    HW2 7095   3.467   3.798   5.883
 2066SOL     OW 7096   2.263   2.341   4.539
 2066SOL    HW1 7097   2.170   2.342   4.576
 2066SOL    HW2 7098   2.297   2.247   4.536
 2067SOL     OW 7099   6.488   4.655   2.728
 2067SOL    HW1 7100   6.389   4.672   2.727
 2067SOL    HW2 7101   6.533   4.717   2.663
 2068SOL     OW 7102   3.162   6.807   4.566
 2068SOL    HW1 7103   3.224   6.885   4.555
 2068SOL    HW2 7104   3.099   6.825   4.642
 2069SOL     OW 7105   5.587   2.127   2.905
 2069SOL    HW1 7106   5.670   2.179   2.887
 2069SOL    HW2 7107   5.594   2.082   2.994
 2070SOL     OW 7108   0.250   5.426   1.634
 2070SOL    HW1 7109   0.303   5.342   1.632
 2070SOL    HW2 7110   0.202   5.433   1.722
 2071SOL     OW 7111   6.767   2.297   3.789
 2071SOL    HW1 7112   6.769   2.376   3.728
 2071SOL    HW2 7113   6.706   2.315   3.866
 2072SOL     OW 7114   5.000   3.154   5.963
 2072SOL    HW1 7115   5.001   3.183   5.867
 2072SOL    HW2 7116   4.950   3.067   5.970
 2073SOL     OW 7117   3.404   5.549   6.850
 2073SOL    HW1 7118   3.374   5.544   6.945
 2073SOL    HW2 7119   3.503   5.539   6.845
 2074SOL     OW 7120   3.627   4.648   5.314
 2074SOL    HW1 7121   3.587   4.637   5.405
 2074SOL    HW2 7122   3.618   4.744   5.285
 2075SOL     OW 7123   5.166   0.798   1.204
 2075SOL    HW1 7124   5.173   0.699   1.190
 2075SOL    HW2 7125   5.082   0.820   1.252
 2076SOL     OW 7126   0.011   0.308   4.012
 2076SOL    HW1 7127   7.013   0.366   3.933
 2076SOL    HW2 7128   0.102   0.328   4.048
 2077SOL     OW 7129   0.866   4.102   0.741
 2077SOL    HW1 7130   0.839   4.023   0.796
 2077SOL    HW2 7131   0.958   4.086   0.705
 2078SOL     OW 7132   0.853   2.258   0.036
 2078SOL    HW1 7133   0.806   2.334   0.081
 2078SOL    HW2 7134   0.808   2.172   0.060
 2079SOL     OW 7135   5.145   2.022   3.593
 2079SOL    HW1 7136   5.113   2.089   3.660
 2079SOL    HW2 7137   5.218   2.062   3.538
 2080SOL     OW 7138   2.167   2.923   5.257
 2080SOL    HW1 7139   2.161   2.960   5.350
 2080SOL    HW2 7140   2.240   2.970   5.208
 2081SOL     OW 7141   0.323   5.956   3.076
 2081SOL    HW1 7142   0.409   5.960   3.025
 2081SOL    HW2 7143   0.337   5.991   3.169
 2082SOL     OW 7144   6.629   6.180   3.848
 2082SOL    HW1 7145   6.692   6.112   3.810
 2082SOL    HW2 7146   6.591   6.145   3.934
 2083SOL     OW 7147   1.110   5.764   3.073
 2083SOL    HW1 7148   1.100   5.830   3.148
 2083SOL    HW2 7149   1.183   5.794   3.012
 2084SOL     OW 7150   5.572   2.512   1.549
 2084SOL    HW1 7151   5.490   2.478   1.596
 2084SOL    HW2 7152   5.552   2.601   1.509
 2085SOL     OW 7153   6.556   5.185   6.883
 2085SOL    HW1 7154   6.556   5.139   6.794
 2085SOL    HW2 7155   6.483   5.148   6.940
 2086SOL     OW 7156   5.280   0.820   5.527
 2086SOL    HW1 7157   5.183   0.802   5.512
 2086SOL    HW2 7158   5.332   0.736   5.513
 2087SOL     OW 7159   4.758   1.217   6.149
 2087SOL    HW1 7160   4.837   1.179   6.101
 2087SOL    HW2 7161   4.720   1.293   6.096
 2088SOL     OW 7162   0.443   3.370   5.615
 2088SOL    HW1 7163   0.411   3.290   5.667
 2088SOL    HW2 7164   0.535   3.353   5.580
 2089SOL     OW 7165   2.929   4.954   4.491
 2089SOL    HW1 7166   2.974   4.905   4.565
 2089SOL    HW2 7167   2.915   5.050   4.518
 2090SOL     OW 7168   4.873   2.380   6.234
 2090SOL    HW1 7169   4.913   2.320   6.303
 2090SOL    HW2 7170   4.851   2.327   6.152
 2091SOL     OW 7171   5.556   6.947   0.847
 2091SOL    HW1 7172   5.466   6.918   0.881
 2091SOL    HW2 7173   5.545   6.989   0.757
 2092SOL     OW 7174   3.979   3.084   2.508
 2092SOL    HW1 7175   3.977   3.018   2.433
 2092SOL    HW2 7176   3.885   3.104   2.538
 2093SOL     OW 7177   4.487   7.012   6.794
 2093SOL    HW1 7178   4.433   6.942   6.747
 2093SOL    HW2 7179   4.445   0.013   6.883
 2094SOL     OW 7180   4.338   2.933   1.521
 2094SOL    HW1 7181   4.346   2.833   1.523
 2094SOL    HW2 7182   4.291   2.960   1.437
 2095SOL     OW 7183   4.479   5.432   3.654
 2095SOL    HW1 7184   4.515   5.484   3.732
 2095SOL    HW2 7185   4.387   5.463   3.633
 2096SOL     OW 7186   4.184   0.232   2.637
 2096SOL    HW1 7187   4.196   0.313   2.695
 2096SOL    HW2 7188   4.154   0.155   2.694
 2097SOL     OW 7189   2.574   5.622   5.236
 2097SOL    HW1 7190   2.495   5.631   5.175
 2097SOL    HW2 7191   2.601   5.526   5.242
 2098SOL     OW 7192   2.007   0.074   4.104
 2098SOL    HW1 7193   2.081   0.007   4.104
 2098SOL    HW2 7194   1.920   0.029   4.087
 2099SOL     OW 7195   4.447   1.538   0.220
 2099SOL    HW1 7196   4.466   1.473   0.146
 2099SOL    HW2 7197   4.455   1.492   0.308
 2100SOL     OW 7198   4.570   0.141   0.911
 2100SOL    HW1 7199   4.482   0.128   0.864
 2100SOL    HW2 7200   4.638   0.078   0.874
 2101SOL     OW 7201   1.300   0.056   2.677
 2101SOL    HW1 7202   1.400   0.059   2.671
 2101SOL    HW2 7203   1.262   0.044   2.585
 2102SOL     OW 7204   4.094   3.233   2.287
 2102SOL    HW1 7205   4.064   3.170   2.215
 2102SOL    HW2 7206   4.098   3.184   2.374
 2103SOL     OW 7207   1.818   0.060   1.624
 2103SOL    HW1 7208   1.907   0.014   1.623
 2103SOL    HW2 7209   1.831   0.158   1.613
 2104SOL     OW 7210   0.929   3.964   2.375
 2104SOL    HW1 7211   0.956   3.950   2.280
 2104SOL    HW2 7212   1.009   3.984   2.430
 2105SOL     OW 7213   5.153   6.201   4.993
 2105SOL    HW1 7214   5.158   6.245   5.083
 2105SOL    HW2 7215   5.138   6.103   5.005
 2106SOL     OW 7216   3.563   3.032   0.739
 2106SOL    HW1 7217   3.487   3.089   0.771
 2106SOL    HW2 7218   3.536   2.936   0.738
 2107SOL     OW 7219   6.045   4.657   5.083
 2107SOL    HW1 7220   6.131   4.700   5.055
 2107SOL    HW2 7221   5.970   4.723   5.071
 2108SOL     OW 7222   4.206   6.364   5.691
 2108SOL    HW1 7223   4.271   6.361   5.767
 2108SOL    HW2 7224   4.211   6.453   5.646
 2109SOL     OW 7225   2.413   5.838   2.178
 2109SOL    HW1 7226   2.414   5.738   2.178
 2109SOL    HW2 7227   2.470   5.872   2.252
 2110SOL     OW 7228   3.992   5.644   0.152
 2110SOL    HW1 7229   4.090   5.636   0.131
 2110SOL    HW2 7230   3.979   5.655   0.250
 2111SOL     OW 7231   0.727   2.467   0.215
 2111SOL    HW1 7232   0.756   2.377   0.248
 2111SOL    HW2 7233   0.724   2.531   0.292
 2112SOL     OW 7234   0.580   0.641   6.485
 2112SOL    HW1 7235   0.487   0.632   6.522
 2112SOL    HW2 7236   0.590   0.581   6.406
 2113SOL     OW 7237   6.426   1.841   4.235
 2113SOL    HW1 7238   6.425   1.886   4.324
 2113SOL    HW2 7239   6.333   1.812   4.212
 2114SOL     OW 7240   3.311   0.666   5.540
 2114SOL    HW1 7241   3.249   0.595   5.574
 2114SOL    HW2 7242   3.262   0.753   5.535
 2115SOL     OW 7243   6.917   6.845   4.060
 2115SOL    HW1 7244   6.936   6.930   4.011
 2115SOL    HW2 7245   6.835   6.857   4.116
 2116SOL     OW 7246   2.127   7.006   6.107
 2116SOL    HW1 7247   2.190   6.930   6.121
 2116SOL    HW2 7248   2.085   0.011   6.194
 2117SOL     OW 7249   5.724   2.931   1.032
 2117SOL    HW1 7250   5.726   3.012   0.973
 2117SOL    HW2 7251   5.732   2.849   0.975
 2118SOL     OW 7252   0.136   3.353   2.238
 2118SOL    HW1 7253   0.094   3.295   2.308
 2118SOL    HW2 7254   0.172   3.436   2.282
 2119SOL     OW 7255   2.274   2.502   6.995
 2119SOL    HW1 7256   2.372   2.505   6.977
 2119SOL    HW2 7257   2.253   2.423   0.033
 2120SOL     OW 7258   6.166   1.566   0.591
 2120SOL    HW1 7259   6.085   1.558   0.649
 2120SOL    HW2 7260   6.210   1.477   0.583
 2121SOL     OW 7261   2.695   5.686   2.011
 2121SOL    HW1 7262   2.711   5.629   2.091
 2121SOL    HW2 7263   2.778   5.737   1.989
 2122SOL     OW 7264   0.563   1.190   5.014
 2122SOL    HW1 7265   0.488   1.253   5.035
 2122SOL    HW2 7266   0.611   1.166   5.098
 2123SOL     OW 7267   1.135   4.284   3.547
 2123SOL    HW1 7268   1.151   4.358   3.614
 2123SOL    HW2 7269   1.110   4.324   3.459
 2124SOL     OW 7270   5.202   3.666   6.199
 2124SOL    HW1 7271   5.252   3.753   6.197
 2124SOL    HW2 7272   5.260   3.594   6.162
 2125SOL     OW 7273   2.357   5.365   5.830
 2125SOL    HW1 7274   2.386   5.408   5.915
 2125SOL    HW2 7275   2.361   5.265   5.839
 2126SOL     OW 7276   2.745   5.549   2.229
 2126SOL    HW1 7277   2.673   5.481   2.241
 2126SOL    HW2 7278   2.831   5.514   2.268
 2127SOL     OW 7279   1.511   3.905   4.352
 2127SOL    HW1 7280   1.435   3.893   4.288
 2127SOL    HW2 7281   1.562   3.988   4.328
 2128SOL     OW 7282   5.256   2.707   0.643
 2128SOL    HW1 7283   5.330   2.710   0.710
 2128SOL    HW2 7284   5.251   2.794   0.594
 2129SOL     OW 7285   5.846   4.370   4.302
 2129SOL    HW1 7286   5.839   4.414   4.213
 2129SOL    HW2 7287   5.883   4.278   4.291
 2130SOL     OW 7288   2.322   0.286   2.928
 2130SOL    HW1 7289   2.327   0.351   2.853
 2130SOL    HW2 7290   2.413   0.269   2.966
 2131SOL     OW 7291   5.711   0.040   6.765
 2131SOL    HW1 7292   5.611   0.043   6.776
 2131SOL    HW2 7293   5.734   0.060   6.670
 2132SOL     OW 7294   2.980   1.526   0.301
 2132SOL    HW1 7295   2.923   1.444   0.289
 2132SOL    HW2 7296   3.063   1.501   0.351
 2133SOL     OW 7297   3.892   3.349   2.011
 2133SOL    HW1 7298   3.944   3.416   1.958
 2133SOL    HW2 7299   3.950   3.269   2.030
 2134SOL     OW 7300   2.611   0.330   4.967
 2134SOL    HW1 7301   2.599   0.231   4.960
 2134SOL    HW2 7302   2.590   0.372   4.879
 2135SOL     OW 7303   0.357   6.002   4.608
 2135SOL    HW1 7304   0.348   6.063   4.529
 2135SOL    HW2 7305   0.320   6.047   4.689
 2136SOL     OW 7306   0.467   4.904   3.563
 2136SOL    HW1 7307   0.483   4.925   3.466
 2136SOL    HW2 7308   0.554   4.897   3.611
 2137SOL     OW 7309   0.109   0.477   4.890
 2137SOL    HW1 7310   0.082   0.516   4.978
 2137SOL    HW2 7311   0.130   0.551   4.826
 2138SOL     OW 7312   1.232   2.205   0.211
 2138SOL    HW1 7313   1.290   2.150   0.152
 2138SOL    HW2 7314   1.285   2.238   0.289
 2139SOL     OW 7315   3.760   6.289   4.497
 2139SOL    HW1 7316   3.764   6.342   4.582
 2139SOL    HW2 7317   3.717   6.345   4.425
 2140SOL     OW 7318   1.386   5.402   3.467
 2140SOL    HW1 7319   1.427   5.356   3.389
 2140SOL    HW2 7320   1.457   5.428   3.532
 2141SOL     OW 7321   6.649   0.449   6.823
 2141SOL    HW1 7322   6.667   0.408   6.913
 2141SOL    HW2 7323   6.561   0.496   6.825
 2142SOL     OW 7324   3.765   0.890   3.372
 2142SOL    HW1 7325   3.811   0.942   3.445
 2142SOL    HW2 7326   3.825   0.816   3.341
 2143SOL     OW 7327   3.701   5.774   0.488
 2143SOL    HW1 7328   3.612   5.729   0.481
 2143SOL    HW2 7329   3.749   5.739   0.569
 2144SOL     OW 7330   0.934   1.308   1.825
 2144SOL    HW1 7331   0.931   1.406   1.807
 2144SOL    HW2 7332   1.025   1.283   1.859
 2145SOL     OW 7333   2.532   6.073   3.631
 2145SOL    HW1 7334   2.483   6.142   3.684
 2145SOL    HW2 7335   2.475   5.991   3.623
 2146SOL     OW 7336   3.290   2.063   1.258
 2146SOL    HW1 7337   3.222   2.035   1.325
 2146SOL    HW2 7338   3.371   2.099   1.305
 2147SOL     OW 7339   6.875   0.499   3.795
 2147SOL    HW1 7340   6.919   0.571   3.848
 2147SOL    HW2 7341   6.935   0.472   3.720
 2148SOL     OW 7342   6.534   4.053   3.106
 2148SOL    HW1 7343   6.597   3.977   3.118
 2148SOL    HW2 7344   6.577   4.124   3.050
 2149SOL     OW 7345   2.404   1.030   2.467
 2149SOL    HW1 7346   2.340   1.065   2.535
 2149SOL    HW2 7347   2.403   1.089   2.386
 2150SOL     OW 7348   5.340   0.902   2.790
 2150SOL    HW1 7349   5.253   0.939   2.821
 2150SOL    HW2 7350   5.389   0.971   2.738
 2151SOL     OW 7351   4.471   4.532   5.738
 2151SOL    HW1 7352   4.566   4.555   5.717
 2151SOL    HW2 7353   4.441   4.456   5.680
 2152SOL     OW 7354   6.888   6.379   3.073
 2152SOL    HW1 7355   6.905   6.289   3.113
 2152SOL    HW2 7356   6.850   6.367   2.981
 2153SOL     OW 7357   4.334   1.706   3.955
 2153SOL    HW1 7358   4.369   1.789   3.999
 2153SOL    HW2 7359   4.258   1.730   3.895
 2154SOL     OW 7360   4.831   0.035   4.099
 2154SOL    HW1 7361   4.835   6.984   4.029
 2154SOL    HW2 7362   4.739   0.072   4.104
 2155SOL     OW 7363   5.679   4.185   0.866
 2155SOL    HW1 7364   5.727   4.126   0.801
 2155SOL    HW2 7365   5.626   4.254   0.816
 2156SOL     OW 7366   5.787   5.943   2.327
 2156SOL    HW1 7367   5.880   5.979   2.314
 2156SOL    HW2 7368   5.791   5.856   2.375
 2157SOL     OW 7369   5.204   1.612   3.847
 2157SOL    HW1 7370   5.177   1.541   3.782
 2157SOL    HW2 7371   5.140   1.614   3.923
 2158SOL     OW 7372   3.937   0.957   3.687
 2158SOL    HW1 7373   3.851   0.905   3.695
 2158SOL    HW2 7374   3.930   1.041   3.741
 2159SOL     OW 7375   2.453   1.628   4.945
 2159SOL    HW1 7376   2.552   1.636   4.941
 2159SOL    HW2 7377   2.428   1.551   5.004
 2160SOL     OW 7378   2.337   3.938   0.800
 2160SOL    HW1 7379   2.337   3.861   0.864
 2160SOL    HW2 7380   2.247   3.947   0.758
 2161SOL     OW 7381   4.600   2.378   2.536
 2161SOL    HW1 7382   4.593   2.437   2.617
 2161SOL    HW2 7383   4.522   2.315   2.533
 2162SOL     OW 7384   2.317   1.847   2.508
 2162SOL    HW1 7385   2.243   1.875   2.447
 2162SOL    HW2 7386   2.387   1.800   2.456
 2163SOL     OW 7387   4.654   1.322   1.001
 2163SOL    HW1 7388   4.570   1.368   0.972
 2163SOL    HW2 7389   4.684   1.359   1.089
 2164SOL     OW 7390   6.575   0.523   1.639
 2164SOL    HW1 7391   6.638   0.597   1.613
 2164SOL    HW2 7392   6.574   0.513   1.738
 2165SOL     OW 7393   1.921   0.476   2.219
 2165SOL    HW1 7394   2.000   0.503   2.164
 2165SOL    HW2 7395   1.867   0.556   2.243
 2166SOL     OW 7396   5.566   2.742   4.820
 2166SOL    HW1 7397   5.612   2.689   4.748
 2166SOL    HW2 7398   5.476   2.702   4.839
 2167SOL     OW 7399   3.544   1.495   1.359
 2167SOL    HW1 7400   3.481   1.422   1.385
 2167SOL    HW2 7401   3.633   1.479   1.403
 2168SOL     OW 7402   5.292   6.774   4.705
 2168SOL    HW1 7403   5.324   6.857   4.660
 2168SOL    HW2 7404   5.208   6.795   4.757
 2169SOL     OW 7405   5.052   1.755   5.719
 2169SOL    HW1 7406   4.953   1.761   5.734
 2169SOL    HW2 7407   5.072   1.678   5.660
 2170SOL     OW 7408   4.902   5.595   4.537
 2170SOL    HW1 7409   4.945   5.593   4.627
 2170SOL    HW2 7410   4.891   5.502   4.502
 2171SOL     OW 7411   0.491   2.930   0.416
 2171SOL    HW1 7412   0.478   2.935   0.317
 2171SOL    HW2 7413   0.402   2.924   0.461
 2172SOL     OW 7414   2.668   0.419   2.724
 2172SOL    HW1 7415   2.711   0.486   2.784
 2172SOL    HW2 7416   2.699   0.327   2.749
 2173SOL     OW 7417   4.399   1.931   4.503
 2173SOL    HW1 7418   4.317   1.971   4.463
 2173SOL    HW2 7419   4.474   1.934   4.437
 2174SOL     OW 7420   0.747   6.155   5.455
 2174SOL    HW1 7421   0.731   6.211   5.374
 2174SOL    HW2 7422   0.776   6.063   5.427
 2175SOL     OW 7423   1.184   0.080   6.749
 2175SOL    HW1 7424   1.283   0.092   6.738
 2175SOL    HW2 7425   1.161   0.077   6.846
 2176SOL     OW 7426   2.225   2.794   2.099
 2176SOL    HW1 7427   2.208   2.784   2.001
 2176SOL    HW2 7428   2.198   2.886   2.128
 2177SOL     OW 7429   0.976   1.528   2.046
 2177SOL    HW1 7430   0.969   1.561   1.952
 2177SOL    HW2 7431   1.068   1.493   2.062
 2178SOL     OW 7432   6.878   6.265   0.250
 2178SOL    HW1 7433   6.910   6.253   0.344
 2178SOL    HW2 7434   6.797   6.208   0.235
 2179SOL     OW 7435   2.217   4.045   4.184
 2179SOL    HW1 7436   2.313   4.044   4.212
 2179SOL    HW2 7437   2.202   3.973   4.116
 2180SOL     OW 7438   3.175   3.037   3.124
 2180SOL    HW1 7439   3.239   2.984   3.179
 2180SOL    HW2 7440   3.213   3.054   3.034
 2181SOL     OW 7441   3.234   6.788   0.866
 2181SOL    HW1 7442   3.184   6.848   0.805
 2181SOL    HW2 7443   3.331   6.787   0.841
 2182SOL     OW 7444   4.362   3.752   0.525
 2182SOL    HW1 7445   4.333   3.847   0.515
 2182SOL    HW2 7446   4.457   3.742   0.496
 2183SOL     OW 7447   4.841   2.968   1.665
 2183SOL    HW1 7448   4.865   3.051   1.614
 2183SOL    HW2 7449   4.786   2.992   1.745
 2184SOL     OW 7450   4.607   2.766   6.291
 2184SOL    HW1 7451   4.547   2.719   6.226
 2184SOL    HW2 7452   4.676   2.703   6.325
 2185SOL     OW 7453   6.936   6.669   2.260
 2185SOL    HW1 7454   6.956   6.691   2.356
 2185SOL    HW2 7455   6.996   6.723   2.201
 2186SOL     OW 7456   0.058   4.419   3.075
 2186SOL    HW1 7457   6.992   4.423   3.125
 2186SOL    HW2 7458   0.046   4.367   2.991
 2187SOL     OW 7459   6.306   0.298   6.612
 2187SOL    HW1 7460   6.293   0.386   6.566
 2187SOL    HW2 7461   6.399   0.292   6.647
 2188SOL     OW 7462   4.635   2.679   3.598
 2188SOL    HW1 7463   4.592   2.614   3.536
 2188SOL    HW2 7464   4.735   2.673   3.589
 2189SOL     OW 7465   3.877   6.331   6.652
 2189SOL    HW1 7466   3.820   6.410   6.631
 2189SOL    HW2 7467   3.960   6.360   6.699
 2190SOL     OW 7468   5.810   3.551   1.327
 2190SOL    HW1 7469   5.838   3.616   1.398
 2190SOL    HW2 7470   5.777   3.601   1.247
 2191SOL     OW 7471   3.514   0.345   0.228
 2191SOL    HW1 7472   3.608   0.377   0.217
 2191SOL    HW2 7473   3.501   0.313   0.322
 2192SOL     OW 7474   4.212   6.545   1.610
 2192SOL    HW1 7475   4.197   6.446   1.609
 2192SOL    HW2 7476   4.291   6.567   1.553
 2193SOL     OW 7477   0.225   6.152   4.798
 2193SOL    HW1 7478   0.166   6.164   4.878
 2193SOL    HW2 7479   0.177   6.181   4.716
 2194SOL     OW 7480   2.398   6.864   2.642
 2194SOL    HW1 7481   2.318   6.824   2.687
 2194SOL    HW2 7482   2.472   6.876   2.709
 2195SOL     OW 7483   0.341   5.025   2.655
 2195SOL    HW1 7484   0.290   4.953   2.701
 2195SOL    HW2 7485   0.312   5.030   2.559
 2196SOL     OW 7486   4.513   4.007   0.521
 2196SOL    HW1 7487   4.502   4.062   0.603
 2196SOL    HW2 7488   4.595   3.951   0.529
 2197SOL     OW 7489   5.096   3.580   0.212
 2197SOL    HW1 7490   5.173   3.561   0.272
 2197SOL    HW2 7491   5.087   3.679   0.200
 2198SOL     OW 7492   0.627   4.553   6.494
 2198SOL    HW1 7493   0.594   4.643   6.523
 2198SOL    HW2 7494   0.725   4.558   6.474
 2199SOL     OW 7495   3.954   1.948   3.320
 2199SOL    HW1 7496   3.920   2.038   3.291
 2199SOL    HW2 7497   3.877   1.888   3.340
 2200SOL     OW 7498   4.331   0.074   3.999
 2200SOL    HW1 7499   4.244   0.118   3.974
 2200SOL    HW2 7500   4.362   0.017   3.923
 2201SOL     OW 7501   5.195   4.891   4.288
 2201SOL    HW1 7502   5.115   4.932   4.332
 2201SOL    HW2 7503   5.270   4.958   4.284
 2202SOL     OW 7504   4.972   5.872   4.109
 2202SOL    HW1 7505   4.875   5.897   4.099
 2202SOL    HW2 7506   5.018   5.943   4.163
 2203SOL     OW 7507   2.213   1.432   2.737
 2203SOL    HW1 7508   2.179   1.403   2.827
 2203SOL    HW2 7509   2.207   1.531   2.730
 2204SOL     OW 7510   3.337   2.453   1.220
 2204SOL    HW1 7511   3.348   2.356   1.237
 2204SOL    HW2 7512   3.410   2.486   1.160
 2205SOL     OW 7513   3.219   0.573   2.050
 2205SOL    HW1 7514   3.193   0.657   2.002
 2205SOL    HW2 7515   3.147   0.504   2.038
 2206SOL     OW 7516   1.727   4.192   0.271
 2206SOL    HW1 7517   1.810   4.206   0.325
 2206SOL    HW2 7518   1.734   4.243   0.185
 2207SOL     OW 7519   6.257   4.446   5.200
 2207SOL    HW1 7520   6.264   4.533   5.247
 2207SOL    HW2 7521   6.163   4.411   5.207
 2208SOL     OW 7522   6.308   5.067   1.883
 2208SOL    HW1 7523   6.362   5.015   1.818
 2208SOL    HW2 7524   6.288   5.011   1.963
 2209SOL     OW 7525   6.612   0.014   1.746
 2209SOL    HW1 7526   6.513   0.016   1.728
 2209SOL    HW2 7527   6.634   6.951   1.798
 2210SOL     OW 7528   2.317   4.359   3.640
 2210SOL    HW1 7529   2.266   4.433   3.684
 2210SOL    HW2 7530   2.402   4.395   3.601
 2211SOL     OW 7531   5.662   0.402   5.886
 2211SOL    HW1 7532   5.695   0.311   5.861
 2211SOL    HW2 7533   5.706   0.470   5.828
 2212SOL     OW 7534   2.357   6.233   6.100
 2212SOL    HW1 7535   2.268   6.244   6.056
 2212SOL    HW2 7536   2.350   6.165   6.173
 2213SOL     OW 7537   4.864   1.288   3.468
 2213SOL    HW1 7538   4.856   1.352   3.545
 2213SOL    HW2 7539   4.775   1.279   3.423
 2214SOL     OW 7540   4.085   0.357   4.169
 2214SOL    HW1 7541   4.117   0.452   4.168
 2214SOL    HW2 7542   4.115   0.311   4.086
 2215SOL     OW 7543   5.772   2.280   6.061
 2215SOL    HW1 7544   5.791   2.291   6.158
 2215SOL    HW2 7545   5.684   2.321   6.039
 2216SOL     OW 7546   3.397   1.575   2.524
 2216SOL    HW1 7547   3.440   1.552   2.437
 2216SOL    HW2 7548   3.353   1.494   2.562
 2217SOL     OW 7549   2.778   0.083   0.946
 2217SOL    HW1 7550   2.780   0.151   1.018
 2217SOL    HW2 7551   2.776   7.011   0.986
 2218SOL     OW 7552   6.553   0.996   2.288
 2218SOL    HW1 7553   6.535   0.909   2.242
 2218SOL    HW2 7554   6.570   1.067   2.219
 2219SOL     OW 7555   2.369   1.932   3.081
 2219SOL    HW1 7556   2.444   1.966   3.023
 2219SOL    HW2 7557   2.283   1.969   3.048
 2220SOL     OW 7558   2.045   6.185   2.948
 2220SOL    HW1 7559   1.984   6.258   2.917
 2220SOL    HW2 7560   2.026   6.101   2.897
 2221SOL     OW 7561   0.048   6.698   4.860
 2221SOL    HW1 7562   6.986   6.750   4.838
 2221SOL    HW2 7563   0.069   6.706   4.957
 2222SOL     OW 7564   5.835   5.658   3.992
 2222SOL    HW1 7565   5.827   5.677   4.090
 2222SOL    HW2 7566   5.749   5.619   3.959
 2223SOL     OW 7567   6.652   6.531   2.470
 2223SOL    HW1 7568   6.564   6.531   2.422
 2223SOL    HW2 7569   6.676   6.625   2.497
 2224SOL     OW 7570   1.018   5.727   1.557
 2224SOL    HW1 7571   1.068   5.814   1.553
 2224SOL    HW2 7572   0.970   5.719   1.644
 2225SOL     OW 7573   0.525   4.329   0.119
 2225SOL    HW1 7574   0.446   4.386   0.099
 2225SOL    HW2 7575   0.494   4.238   0.147
 2226SOL     OW 7576   3.622   3.853   3.311
 2226SOL    HW1 7577   3.650   3.777   3.254
 2226SOL    HW2 7578   3.526   3.841   3.339
 2227SOL     OW 7579   2.281   2.252   5.199
 2227SOL    HW1 7580   2.338   2.262   5.118
 2227SOL    HW2 7581   2.289   2.159   5.234
 2228SOL     OW 7582   1.568   4.500   4.681
 2228SOL    HW1 7583   1.653   4.451   4.699
 2228SOL    HW2 7584   1.492   4.451   4.723
 2229SOL     OW 7585   5.691   5.576   2.706
 2229SOL    HW1 7586   5.595   5.578   2.678
 2229SOL    HW2 7587   5.714   5.486   2.743
 2230SOL     OW 7588   1.830   5.546   2.788
 2230SOL    HW1 7589   1.823   5.645   2.800
 2230SOL    HW2 7590   1.838   5.502   2.877
 2231SOL     OW 7591   2.143   5.710   0.679
 2231SOL    HW1 7592   2.235   5.728   0.713
 2231SOL    HW2 7593   2.140   5.618   0.639
 2232SOL     OW 7594   5.799   2.151   3.506
 2232SOL    HW1 7595   5.886   2.135   3.553
 2232SOL    HW2 7596   5.736   2.199   3.568
 2233SOL     OW 7597   3.189   1.461   0.500
 2233SOL    HW1 7598   3.173   1.439   0.596
 2233SOL    HW2 7599   3.227   1.554   0.493
 2234SOL     OW 7600   4.562   2.244   1.263
 2234SOL    HW1 7601   4.652   2.280   1.240
 2234SOL    HW2 7602   4.551   2.153   1.223
 2235SOL     OW 7603   1.850   2.926   2.195
 2235SOL    HW1 7604   1.758   2.942   2.160
 2235SOL    HW2 7605   1.851   2.842   2.249
 2236SOL     OW 7606   1.081   3.825   5.313
 2236SOL    HW1 7607   1.093   3.905   5.371
 2236SOL    HW2 7608   1.084   3.853   5.217
 2237SOL     OW 7609   5.955   2.834   3.150
 2237SOL    HW1 7610   5.877   2.817   3.210
 2237SOL    HW2 7611   6.033   2.864   3.205
 2238SOL     OW 7612   5.386   6.298   0.070
 2238SOL    HW1 7613   5.385   6.358   0.150
 2238SOL    HW2 7614   5.429   6.345   7.014
 2239SOL     OW 7615   0.020   5.845   1.576
 2239SOL    HW1 7616   0.054   5.939   1.570
 2239SOL    HW2 7617   0.095   5.784   1.599
 2240SOL     OW 7618   7.000   3.681   1.249
 2240SOL    HW1 7619   0.021   3.695   1.159
 2240SOL    HW2 7620   7.001   3.767   1.300
 2241SOL     OW 7621   0.778   0.181   3.783
 2241SOL    HW1 7622   0.700   0.119   3.779
 2241SOL    HW2 7623   0.861   0.129   3.801
 2242SOL     OW 7624   2.102   1.632   3.227
 2242SOL    HW1 7625   2.192   1.669   3.206
 2242SOL    HW2 7626   2.031   1.693   3.192
 2243SOL     OW 7627   1.595   0.501   4.553
 2243SOL    HW1 7628   1.579   0.413   4.597
 2243SOL    HW2 7629   1.604   0.488   4.454
 2244SOL     OW 7630   3.495   0.316   4.621
 2244SOL    HW1 7631   3.472   0.377   4.697
 2244SOL    HW2 7632   3.412   0.292   4.571
 2245SOL     OW 7633   0.888   2.581   1.726
 2245SOL    HW1 7634   0.978   2.542   1.745
 2245SOL    HW2 7635   0.828   2.570   1.806
 2246SOL     OW 7636   0.832   3.944   4.918
 2246SOL    HW1 7637   0.782   3.859   4.903
 2246SOL    HW2 7638   0.930   3.924   4.923
 2247SOL     OW 7639   1.943   2.476   4.047
 2247SOL    HW1 7640   1.917   2.380   4.037
 2247SOL    HW2 7641   2.008   2.485   4.123
 2248SOL     OW 7642   5.546   3.762   5.939
 2248SOL    HW1 7643   5.453   3.745   5.971
 2248SOL    HW2 7644   5.580   3.847   5.978
 2249SOL     OW 7645   5.667   5.750   4.869
 2249SOL    HW1 7646   5.766   5.755   4.879
 2249SOL    HW2 7647   5.644   5.747   4.771
 2250SOL     OW 7648   4.452   4.565   1.944
 2250SOL    HW1 7649   4.469   4.468   1.960
 2250SOL    HW2 7650   4.373   4.576   1.884
 2251SOL     OW 7651   0.716   1.107   5.242
 2251SOL    HW1 7652   0.805   1.075   5.210
 2251SOL    HW2 7653   0.718   1.116   5.342
 2252SOL     OW 7654   3.453   1.568   6.704
 2252SOL    HW1 7655   3.485   1.663   6.714
 2252SOL    HW2 7656   3.380   1.551   6.770
 2253SOL     OW 7657   0.863   3.882   1.043
 2253SOL    HW1 7658   0.797   3.948   1.079
 2253SOL    HW2 7659   0.955   3.919   1.053
 2254SOL     OW 7660   1.800   5.137   6.186
 2254SOL    HW1 7661   1.768   5.230   6.172
 2254SOL    HW2 7662   1.865   5.112   6.113
 2255SOL     OW 7663   6.854   3.738   6.298
 2255SOL    HW1 7664   6.766   3.712   6.337
 2255SOL    HW2 7665   6.841   3.773   6.205
 2256SOL     OW 7666   3.125   5.603   2.140
 2256SOL    HW1 7667   3.212   5.582   2.184
 2256SOL    HW2 7668   3.137   5.679   2.077
 2257SOL     OW 7669   0.966   4.701   5.945
 2257SOL    HW1 7670   0.968   4.643   6.027
 2257SOL    HW2 7671   0.873   4.706   5.911
 2258SOL     OW 7672   2.296   6.730   5.704
 2258SOL    HW1 7673   2.215   6.687   5.663
 2258SOL    HW2 7674   2.271   6.820   5.740
 2259SOL     OW 7675   6.045   1.501   6.254
 2259SOL    HW1 7676   6.016   1.422   6.201
 2259SOL    HW2 7677   5.964   1.554   6.282
 2260SOL     OW 7678   4.646   3.000   0.623
 2260SOL    HW1 7679   4.609   3.047   0.543
 2260SOL    HW2 7680   4.688   3.067   0.685
 2261SOL     OW 7681   2.310   0.055   5.051
 2261SOL    HW1 7682   2.386   0.008   5.095
 2261SOL    HW2 7683   2.320   0.153   5.062
 2262SOL     OW 7684   2.645   1.622   4.096
 2262SOL    HW1 7685   2.594   1.665   4.022
 2262SOL    HW2 7686   2.585   1.558   4.145
 2263SOL     OW 7687   0.397   4.551   5.647
 2263SOL    HW1 7688   0.354   4.616   5.709
 2263SOL    HW2 7689   0.332   4.525   5.576
 2264SOL     OW 7690   3.465   3.196   3.936
 2264SOL    HW1 7691   3.546   3.253   3.951
 2264SOL    HW2 7692   3.393   3.252   3.896
 2265SOL     OW 7693   0.761   5.951   4.222
 2265SOL    HW1 7694   0.731   5.983   4.132
 2265SOL    HW2 7695   0.861   5.940   4.222
 2266SOL     OW 7696   6.990   0.802   5.433
 2266SOL    HW1 7697   0.021   0.729   5.479
 2266SOL    HW2 7698   7.011   0.890   5.476
 2267SOL     OW 7699   6.095   1.723   5.197
 2267SOL    HW1 7700   6.142   1.657   5.256
 2267SOL    HW2 7701   5.998   1.700   5.191
 2268SOL     OW 7702   0.548   0.099   0.097
 2268SOL    HW1 7703   0.519   0.113   0.191
 2268SOL    HW2 7704   0.587   0.184   0.061
 2269SOL     OW 7705   6.745   6.329   2.836
 2269SOL    HW1 7706   6.689   6.290   2.763
 2269SOL    HW2 7707   6.707   6.416   2.865
 2270SOL     OW 7708   3.628   2.893   3.674
 2270SOL    HW1 7709   3.536   2.902   3.637
 2270SOL    HW2 7710   3.624   2.893   3.774
 2271SOL     OW 7711   1.679   3.822   2.571
 2271SOL    HW1 7712   1.592   3.861   2.540
 2271SOL    HW2 7713   1.722   3.771   2.496
 2272SOL     OW 7714   4.903   0.768   5.875
 2272SOL    HW1 7715   4.896   0.675   5.838
 2272SOL    HW2 7716   4.953   0.826   5.811
 2273SOL     OW 7717   0.330   1.086   1.950
 2273SOL    HW1 7718   0.259   1.015   1.956
 2273SOL    HW2 7719   0.384   1.086   2.034
 2274SOL     OW 7720   6.930   5.054   2.882
 2274SOL    HW1 7721   6.939   5.032   2.785
 2274SOL    HW2 7722   6.881   5.141   2.891
 2275SOL     OW 7723   4.648   6.225   3.732
 2275SOL    HW1 7724   4.656   6.246   3.634
 2275SOL    HW2 7725   4.620   6.307   3.782
 2276SOL     OW 7726   3.606   6.254   3.003
 2276SOL    HW1 7727   3.544   6.177   3.018
 2276SOL    HW2 7728   3.622   6.266   2.905
 2277SOL     OW 7729   3.683   2.991   2.581
 2277SOL    HW1 7730   3.600   3.043   2.559
 2277SOL    HW2 7731   3.707   2.932   2.505
 2278SOL     OW 7732   3.948   4.837   1.081
 2278SOL    HW1 7733   4.010   4.767   1.115
 2278SOL    HW2 7734   3.959   4.847   0.982
 2279SOL     OW 7735   5.519   4.124   5.469
 2279SOL    HW1 7736   5.447   4.146   5.404
 2279SOL    HW2 7737   5.547   4.029   5.459
 2280SOL     OW 7738   5.514   0.886   6.195
 2280SOL    HW1 7739   5.573   0.953   6.149
 2280SOL    HW2 7740   5.565   0.843   6.270
 2281SOL     OW 7741   2.170   0.442   0.544
 2281SOL    HW1 7742   2.213   0.453   0.454
 2281SOL    HW2 7743   2.228   0.484   0.614
 2282SOL     OW 7744   3.914   0.284   2.559
 2282SOL    HW1 7745   4.009   0.257   2.572
 2282SOL    HW2 7746   3.901   0.319   2.466
 2283SOL     OW 7747   0.826   3.143   0.923
 2283SOL    HW1 7748   0.831   3.241   0.941
 2283SOL    HW2 7749   0.819   3.093   1.010
 2284SOL     OW 7750   1.952   2.922   0.818
 2284SOL    HW1 7751   2.020   2.989   0.848
 2284SOL    HW2 7752   1.930   2.861   0.894
 2285SOL     OW 7753   2.420   2.935   0.356
 2285SOL    HW1 7754   2.325   2.967   0.352
 2285SOL    HW2 7755   2.430   2.854   0.297
 2286SOL     OW 7756   6.485   5.858   3.884
 2286SOL    HW1 7757   6.461   5.926   3.954
 2286SOL    HW2 7758   6.408   5.846   3.822
 2287SOL     OW 7759   2.491   1.611   0.772
 2287SOL    HW1 7760   2.436   1.693   0.790
 2287SOL    HW2 7761   2.465   1.573   0.683
 2288SOL     OW 7762   2.933   5.828   4.100
 2288SOL    HW1 7763   2.940   5.923   4.130
 2288SOL    HW2 7764   3.024   5.792   4.078
 2289SOL     OW 7765   4.058   0.049   6.116
 2289SOL    HW1 7766   4.034   0.133   6.069
 2289SOL    HW2 7767   3.984   7.003   6.106
 2290SOL     OW 7768   2.136   3.348   5.774
 2290SOL    HW1 7769   2.184   3.282   5.832
 2290SOL    HW2 7770   2.043   3.361   5.808
 2291SOL     OW 7771   3.337   2.131   0.283
 2291SOL    HW1 7772   3.332   2.137   0.383
 2291SOL    HW2 7773   3.273   2.196   0.242
 2292SOL     OW 7774   4.944   2.080   3.054
 2292SOL    HW1 7775   4.845   2.069   3.043
 2292SOL    HW2 7776   4.989   1.992   3.037
 2293SOL     OW 7777   0.490   0.858   0.179
 2293SOL    HW1 7778   0.586   0.832   0.191
 2293SOL    HW2 7779   0.458   0.903   0.262
 2294SOL     OW 7780   6.734   2.134   5.582
 2294SOL    HW1 7781   6.830   2.109   5.578
 2294SOL    HW2 7782   6.713   2.198   5.508
 2295SOL     OW 7783   5.703   5.350   0.270
 2295SOL    HW1 7784   5.754   5.302   0.198
 2295SOL    HW2 7785   5.676   5.286   0.341
 2296SOL     OW 7786   3.689   5.837   4.497
 2296SOL    HW1 7787   3.682   5.827   4.597
 2296SOL    HW2 7788   3.763   5.780   4.463
 2297SOL     OW 7789   6.338   2.685   0.066
 2297SOL    HW1 7790   6.266   2.751   0.085
 2297SOL    HW2 7791   6.416   2.732   0.025
 2298SOL     OW 7792   2.495   3.383   5.408
 2298SOL    HW1 7793   2.465   3.478   5.404
 2298SOL    HW2 7794   2.587   3.375   5.368
 2299SOL     OW 7795   6.324   3.068   4.692
 2299SOL    HW1 7796   6.408   3.015   4.687
 2299SOL    HW2 7797   6.347   3.165   4.704
 2300SOL     OW 7798   4.459   0.523   3.315
 2300SOL    HW1 7799   4.460   0.559   3.222
 2300SOL    HW2 7800   4.505   0.434   3.316
 2301SOL     OW 7801   4.340   3.195   5.910
 2301SOL    HW1 7802   4.284   3.168   5.988
 2301SOL    HW2 7803   4.333   3.127   5.838
 2302SOL     OW 7804   0.105   2.962   4.599
 2302SOL    HW1 7805   0.204   2.959   4.585
 2302SOL    HW2 7806   0.085   2.973   4.696
 2303SOL     OW 7807   2.629   1.888   6.444
 2303SOL    HW1 7808   2.548   1.915   6.496
 2303SOL    HW2 7809   2.612   1.801   6.399
 2304SOL     OW 7810   4.001   7.017   3.502
 2304SOL    HW1 7811   3.904   6.997   3.487
 2304SOL    HW2 7812   4.040   0.032   3.417
 2305SOL     OW 7813   2.575   6.226   4.801
 2305SOL    HW1 7814   2.644   6.188   4.739
 2305SOL    HW2 7815   2.529   6.152   4.849
 2306SOL     OW 7816   0.633   4.923   5.398
 2306SOL    HW1 7817   0.668   4.830   5.413
 2306SOL    HW2 7818   0.635   4.974   5.484
 2307SOL     OW 7819   5.971   3.907   5.056
 2307SOL    HW1 7820   5.917   3.922   4.973
 2307SOL    HW2 7821   6.052   3.965   5.055
 2308SOL     OW 7822   1.370   6.284   2.990
 2308SOL    HW1 7823   1.412   6.371   2.963
 2308SOL    HW2 7824   1.277   6.279   2.954
 2309SOL     OW 7825   2.117   0.937   4.953
 2309SOL    HW1 7826   2.022   0.929   4.982
 2309SOL    HW2 7827   2.140   1.034   4.941
 2310SOL     OW 7828   5.054   6.042   0.241
 2310SOL    HW1 7829   5.126   6.041   0.311
 2310SOL    HW2 7830   5.095   6.054   0.151
 2311SOL     OW 7831   2.475   5.512   0.598
 2311SOL    HW1 7832   2.432   5.423   0.582
 2311SOL    HW2 7833   2.502   5.552   0.511
 2312SOL     OW 7834   2.544   4.736   2.379
 2312SOL    HW1 7835   2.580   4.709   2.290
 2312SOL    HW2 7836   2.518   4.833   2.375
 2313SOL     OW 7837   4.956   5.502   1.483
 2313SOL    HW1 7838   4.896   5.581   1.489
 2313SOL    HW2 7839   4.996   5.484   1.573
 2314SOL     OW 7840   2.199   4.217   2.823
 2314SOL    HW1 7841   2.227   4.122   2.833
 2314SOL    HW2 7842   2.261   4.264   2.760
 2315SOL     OW 7843   3.574   1.804   6.620
 2315SOL    HW1 7844   3.646   1.857   6.665
 2315SOL    HW2 7845   3.613   1.754   6.543
 2316SOL     OW 7846   6.020   4.437   1.316
 2316SOL    HW1 7847   5.941   4.432   1.255
 2316SOL    HW2 7848   6.090   4.371   1.285
 2317SOL     OW 7849   0.116   6.357   3.428
 2317SOL    HW1 7850   0.145   6.447   3.394
 2317SOL    HW2 7851   0.017   6.348   3.417
 2318SOL     OW 7852   6.789   1.618   3.335
 2318SOL    HW1 7853   6.697   1.611   3.374
 2318SOL    HW2 7854   6.808   1.714   3.313
 2319SOL     OW 7855   0.992   5.559   2.952
 2319SOL    HW1 7856   1.006   5.569   2.854
 2319SOL    HW2 7857   1.028   5.640   3.000
 2320SOL     OW 7858   6.867   4.671   3.218
 2320SOL    HW1 7859   6.770   4.696   3.219
 2320SOL    HW2 7860   6.913   4.720   3.143
 2321SOL     OW 7861   3.093   4.934   4.056
 2321SOL    HW1 7862   3.003   4.902   4.026
 2321SOL    HW2 7863   3.109   5.026   4.021
 2322SOL     OW 7864   2.147   1.916   4.506
 2322SOL    HW1 7865   2.140   1.833   4.562
 2322SOL    HW2 7866   2.117   1.896   4.413
 2323SOL     OW 7867   5.569   3.831   1.395
 2323SOL    HW1 7868   5.482   3.877   1.411
 2323SOL    HW2 7869   5.564   3.779   1.310
 2324SOL     OW 7870   0.637   5.574   4.086
 2324SOL    HW1 7871   0.544   5.547   4.062
 2324SOL    HW2 7872   0.639   5.610   4.179
 2325SOL     OW 7873   6.312   2.148   0.749
 2325SOL    HW1 7874   6.225   2.125   0.705
 2325SOL    HW2 7875   6.295   2.171   0.845
 2326SOL     OW 7876   0.401   5.582   0.257
 2326SOL    HW1 7877   0.378   5.583   0.159
 2326SOL    HW2 7878   0.379   5.492   0.295
 2327SOL     OW 7879   5.043   1.832   3.022
 2327SOL    HW1 7880   5.131   1.785   3.029
 2327SOL    HW2 7881   4.968   1.766   3.030
 2328SOL     OW 7882   6.086   5.097   4.047
 2328SOL    HW1 7883   6.056   5.011   4.004
 2328SOL    HW2 7884   6.050   5.102   4.140
 2329SOL     OW 7885   1.631   6.490   3.407
 2329SOL    HW1 7886   1.677   6.527   3.327
 2329SOL    HW2 7887   1.671   6.401   3.430
 2330SOL     OW 7888   2.085   4.267   0.415
 2330SOL    HW1 7889   2.050   4.354   0.382
 2330SOL    HW2 7890   2.160   4.283   0.479
 2331SOL     OW 7891   1.864   4.825   5.059
 2331SOL    HW1 7892   1.810   4.901   5.094
 2331SOL    HW2 7893   1.802   4.754   5.025
 2332SOL     OW 7894   6.620   3.504   6.217
 2332SOL    HW1 7895   6.547   3.476   6.279
 2332SOL    HW2 7896   6.694   3.437   6.220
 2333SOL     OW 7897   2.246   4.396   3.987
 2333SOL    HW1 7898   2.330   4.370   3.941
 2333SOL    HW2 7899   2.222   4.490   3.963
 2334SOL     OW 7900   2.664   0.080   5.851
 2334SOL    HW1 7901   2.648   0.051   5.946
 2334SOL    HW2 7902   2.606   0.027   5.789
 2335SOL     OW 7903   4.778   4.111   4.390
 2335SOL    HW1 7904   4.740   4.172   4.320
 2335SOL    HW2 7905   4.787   4.160   4.476
 2336SOL     OW 7906   4.746   1.244   5.577
 2336SOL    HW1 7907   4.687   1.195   5.641
 2336SOL    HW2 7908   4.780   1.327   5.621
 2337SOL     OW 7909   5.637   0.796   5.132
 2337SOL    HW1 7910   5.651   0.719   5.070
 2337SOL    HW2 7911   5.574   0.862   5.090
 2338SOL     OW 7912   1.600   6.929   6.876
 2338SOL    HW1 7913   1.667   6.986   6.829
 2338SOL    HW2 7914   1.537   6.890   6.809
 2339SOL     OW 7915   3.607   4.615   6.309
 2339SOL    HW1 7916   3.519   4.642   6.347
 2339SOL    HW2 7917   3.681   4.657   6.362
 2340SOL     OW 7918   4.089   4.906   4.090
 2340SOL    HW1 7919   3.992   4.886   4.105
 2340SOL    HW2 7920   4.120   4.860   4.007
 2341SOL     OW 7921   0.196   3.706   5.881
 2341SOL    HW1 7922   0.190   3.637   5.809
 2341SOL    HW2 7923   0.132   3.683   5.955
 2342SOL     OW 7924   5.481   0.861   5.841
 2342SOL    HW1 7925   5.479   0.856   5.741
 2342SOL    HW2 7926   5.400   0.816   5.878
 2343SOL     OW 7927   1.280   5.920   2.036
 2343SOL    HW1 7928   1.249   5.851   1.970
 2343SOL    HW2 7929   1.247   5.896   2.127
 2344SOL     OW 7930   2.198   0.790   2.874
 2344SOL    HW1 7931   2.165   0.882   2.855
 2344SOL    HW2 7932   2.266   0.764   2.805
 2345SOL     OW 7933   1.155   2.445   2.260
 2345SOL    HW1 7934   1.201   2.417   2.345
 2345SOL    HW2 7935   1.203   2.405   2.182
 2346SOL     OW 7936   4.948   3.219   5.169
 2346SOL    HW1 7937   4.977   3.301   5.120
 2346SOL    HW2 7938   5.003   3.141   5.139
 2347SOL     OW 7939   1.661   4.096   0.788
 2347SOL    HW1 7940   1.756   4.123   0.804
 2347SOL    HW2 7941   1.648   4.077   0.690
 2348SOL     OW 7942   3.136   0.251   1.451
 2348SOL    HW1 7943   3.224   0.231   1.407
 2348SOL    HW2 7944   3.118   0.183   1.522
 2349SOL     OW 7945   5.785   3.002   7.006
 2349SOL    HW1 7946   5.794   3.095   6.971
 2349SOL    HW2 7947   5.771   2.939   6.930
 2350SOL     OW 7948   2.480   5.777   5.740
 2350SOL    HW1 7949   2.429   5.727   5.671
 2350SOL    HW2 7950   2.483   5.724   5.825
 2351SOL     OW 7951   1.879   5.137   3.313
 2351SOL    HW1 7952   1.948   5.152   3.242
 2351SOL    HW2 7953   1.921   5.147   3.403
 2352SOL     OW 7954   6.090   5.680   6.625
 2352SOL    HW1 7955   6.173   5.626   6.623
 2352SOL    HW2 7956   6.015   5.625   6.663
 2353SOL     OW 7957   3.292   2.870   6.092
 2353SOL    HW1 7958   3.204   2.901   6.055
 2353SOL    HW2 7959   3.330   2.941   6.151
 2354SOL     OW 7960   3.524   1.844   2.145
 2354SOL    HW1 7961   3.450   1.832   2.212
 2354SOL    HW2 7962   3.572   1.758   2.132
 2355SOL     OW 7963   0.036   1.404   2.128
 2355SOL    HW1 7964   0.066   1.330   2.188
 2355SOL    HW2 7965   0.102   1.413   2.053
 2356SOL     OW 7966   3.468   4.917   3.843
 2356SOL    HW1 7967   3.560   4.878   3.847
 2356SOL    HW2 7968   3.427   4.916   3.934
 2357SOL     OW 7969   1.041   5.696   1.105
 2357SOL    HW1 7970   0.967   5.698   1.173
 2357SOL    HW2 7971   1.092   5.610   1.114
 2358SOL     OW 7972   2.292   0.639   5.637
 2358SOL    HW1 7973   2.219   0.574   5.617
 2358SOL    HW2 7974   2.381   0.594   5.626
 2359SOL     OW 7975   3.412   2.647   5.971
 2359SOL    HW1 7976   3.339   2.581   5.953
 2359SOL    HW2 7977   3.372   2.730   6.010
 2360SOL     OW 7978   3.134   4.856   1.205
 2360SOL    HW1 7979   3.053   4.802   1.183
 2360SOL    HW2 7980   3.216   4.800   1.193
 2361SOL     OW 7981   3.652   4.949   1.376
 2361SOL    HW1 7982   3.571   5.007   1.387
 2361SOL    HW2 7983   3.721   4.999   1.323
 2362SOL     OW 7984   2.804   4.845   4.265
 2362SOL    HW1 7985   2.848   4.880   4.348
 2362SOL    HW2 7986   2.752   4.762   4.287
 2363SOL     OW 7987   2.558   3.977   1.309
 2363SOL    HW1 7988   2.607   3.935   1.385
 2363SOL    HW2 7989   2.497   3.909   1.267
 2364SOL     OW 7990   4.861   0.921   2.654
 2364SOL    HW1 7991   4.958   0.940   2.639
 2364SOL    HW2 7992   4.810   1.007   2.656
 2365SOL     OW 7993   6.060   4.016   2.821
 2365SOL    HW1 7994   6.000   4.022   2.901
 2365SOL    HW2 7995   6.066   3.921   2.790
 2366SOL     OW 7996   3.508   5.347   5.304
 2366SOL    HW1 7997   3.497   5.442   5.273
 2366SOL    HW2 7998   3.579   5.303   5.250
 2367SOL     OW 7999   6.039   4.387   5.476
 2367SOL    HW1 8000   5.988   4.329   5.412
 2367SOL    HW2 8001   6.101   4.330   5.530
 2368SOL     OW 8002   5.212   1.105   5.440
 2368SOL    HW1 8003   5.213   1.031   5.506
 2368SOL    HW2 8004   5.282   1.172   5.463
 2369SOL     OW 8005   4.048   1.839   4.084
 2369SOL    HW1 8006   3.948   1.846   4.082
 2369SOL    HW2 8007   4.086   1.877   3.999
 2370SOL     OW 8008   3.902   2.082   0.933
 2370SOL    HW1 8009   3.990   2.040   0.910
 2370SOL    HW2 8010   3.852   2.023   0.996
 2371SOL     OW 8011   2.739   6.780   2.820
 2371SOL    HW1 8012   2.737   6.867   2.870
 2371SOL    HW2 8013   2.702   6.793   2.728
 2372SOL     OW 8014   5.902   6.690   6.253
 2372SOL    HW1 8015   5.809   6.722   6.234
 2372SOL    HW2 8016   5.966   6.743   6.198
 2373SOL     OW 8017   6.436   3.928   5.708
 2373SOL    HW1 8018   6.400   3.971   5.791
 2373SOL    HW2 8019   6.392   3.839   5.694
 2374SOL     OW 8020   0.213   5.854   2.826
 2374SOL    HW1 8021   0.212   5.914   2.746
 2374SOL    HW2 8022   0.234   5.907   2.907
 2375SOL     OW 8023   1.760   0.091   4.617
 2375SOL    HW1 8024   1.791   0.055   4.529
 2375SOL    HW2 8025   1.832   0.083   4.685
 2376SOL     OW 8026   5.698   3.280   3.740
 2376SOL    HW1 8027   5.677   3.262   3.644
 2376SOL    HW2 8028   5.766   3.353   3.746
 2377SOL     OW 8029   3.635   4.645   5.982
 2377SOL    HW1 8030   3.658   4.550   5.959
 2377SOL    HW2 8031   3.634   4.656   6.081
 2378SOL     OW 8032   0.708   0.399   0.537
 2378SOL    HW1 8033   0.792   0.443   0.505
 2378SOL    HW2 8034   0.672   0.340   0.465
 2379SOL     OW 8035   0.653   4.784   2.298
 2379SOL    HW1 8036   0.683   4.692   2.320
 2379SOL    HW2 8037   0.556   4.782   2.273
 2380SOL     OW 8038   4.663   5.796   6.419
 2380SOL    HW1 8039   4.675   5.798   6.518
 2380SOL    HW2 8040   4.748   5.765   6.376
 2381SOL     OW 8041   2.128   3.884   3.984
 2381SOL    HW1 8042   2.142   3.922   3.893
 2381SOL    HW2 8043   2.134   3.785   3.980
 2382SOL     OW 8044   6.358   6.148   2.605
 2382SOL    HW1 8045   6.451   6.179   2.587
 2382SOL    HW2 8046   6.292   6.206   2.557
 2383SOL     OW 8047   5.413   4.067   6.192
 2383SOL    HW1 8048   5.474   4.116   6.129
 2383SOL    HW2 8049   5.456   4.062   6.282
 2384SOL     OW 8050   1.054   1.930   3.253
 2384SOL    HW1 8051   0.986   1.858   3.270
 2384SOL    HW2 8052   1.146   1.892   3.265
 2385SOL     OW 8053   0.429   0.870   1.007
 2385SOL    HW1 8054   0.385   0.780   1.002
 2385SOL    HW2 8055   0.526   0.861   0.984
 2386SOL     OW 8056   6.715   4.616   6.208
 2386SOL    HW1 8057   6.664   4.703   6.214
 2386SOL    HW2 8058   6.693   4.571   6.122
 2387SOL     OW 8059   6.946   0.457   3.072
 2387SOL    HW1 8060   6.911   0.490   3.159
 2387SOL    HW2 8061   6.922   0.360   3.060
 2388SOL     OW 8062   1.898   4.013   3.863
 2388SOL    HW1 8063   1.928   4.098   3.906
 2388SOL    HW2 8064   1.908   3.937   3.928
 2389SOL     OW 8065   3.654   0.287   2.752
 2389SOL    HW1 8066   3.571   0.316   2.704
 2389SOL    HW2 8067   3.704   0.221   2.696
 2390SOL     OW 8068   5.056   3.079   5.483
 2390SOL    HW1 8069   5.020   3.147   5.420
 2390SOL    HW2 8070   5.062   2.990   5.437
 2391SOL     OW 8071   2.598   3.925   6.229
 2391SOL    HW1 8072   2.682   3.876   6.253
 2391SOL    HW2 8073   2.601   3.950   6.133
 2392SOL     OW 8074   4.104   5.270   5.770
 2392SOL    HW1 8075   4.060   5.348   5.813
 2392SOL    HW2 8076   4.126   5.201   5.840
 2393SOL     OW 8077   4.375   4.580   0.146
 2393SOL    HW1 8078   4.350   4.498   0.196
 2393SOL    HW2 8079   4.452   4.560   0.085
 2394SOL     OW 8080   6.844   2.794   3.278
 2394SOL    HW1 8081   6.789   2.798   3.194
 2394SOL    HW2 8082   6.923   2.736   3.263
 2395SOL     OW 8083   1.184   2.304   3.760
 2395SOL    HW1 8084   1.089   2.330   3.781
 2395SOL    HW2 8085   1.201   2.314   3.662
 2396SOL     OW 8086   0.278   0.436   6.197
 2396SOL    HW1 8087   0.336   0.398   6.125
 2396SOL    HW2 8088   0.310   0.528   6.219
 2397SOL     OW 8089   2.127   4.615   5.980
 2397SOL    HW1 8090   2.052   4.586   5.921
 2397SOL    HW2 8091   2.205   4.643   5.924
 2398SOL     OW 8092   3.916   6.254   4.895
 2398SOL    HW1 8093   3.876   6.163   4.893
 2398SOL    HW2 8094   3.848   6.321   4.865
 2399SOL     OW 8095   3.109   1.675   2.506
 2399SOL    HW1 8096   3.038   1.679   2.435
 2399SOL    HW2 8097   3.183   1.615   2.475
 2400SOL     OW 8098   1.122   2.153   6.725
 2400SOL    HW1 8099   1.115   2.190   6.818
 2400SOL    HW2 8100   1.161   2.061   6.729
 2401SOL     OW 8101   1.208   6.753   1.085
 2401SOL    HW1 8102   1.288   6.701   1.114
 2401SOL    HW2 8103   1.235   6.818   1.014
 2402SOL     OW 8104   0.514   3.151   1.705
 2402SOL    HW1 8105   0.575   3.118   1.634
 2402SOL    HW2 8106   0.512   3.085   1.781
 2403SOL     OW 8107   3.035   4.340   5.311
 2403SOL    HW1 8108   2.989   4.252   5.308
 2403SOL    HW2 8109   2.981   4.408   5.261
 2404SOL     OW 8110   6.414   1.960   2.066
 2404SOL    HW1 8111   6.320   1.978   2.094
 2404SOL    HW2 8112   6.476   1.990   2.138
 2405SOL     OW 8113   2.640   3.203   0.564
 2405SOL    HW1 8114   2.634   3.215   0.663
 2405SOL    HW2 8115   2.568   3.258   0.520
 2406SOL     OW 8116   4.197   5.620   5.048
 2406SOL    HW1 8117   4.181   5.657   5.140
 2406SOL    HW2 8118   4.232   5.693   4.988
 2407SOL     OW 8119   2.115   1.915   3.464
 2407SOL    HW1 8120   2.193   1.933   3.404
 2407SOL    HW2 8121   2.140   1.846   3.532
 2408SOL     OW 8122   4.626   6.829   5.205
 2408SOL    HW1 8123   4.703   6.891   5.193
 2408SOL    HW2 8124   4.617   6.770   5.125
 2409SOL     OW 8125   1.071   3.149   6.638
 2409SOL    HW1 8126   1.043   3.217   6.707
 2409SOL    HW2 8127   1.171   3.147   6.632
 2410SOL     OW 8128   6.494   3.637   4.681
 2410SOL    HW1 8129   6.474   3.555   4.627
 2410SOL    HW2 8130   6.545   3.703   4.624
 2411SOL     OW 8131   3.020   1.511   0.868
 2411SOL    HW1 8132   2.923   1.513   0.844
 2411SOL    HW2 8133   3.045   1.597   0.912
 2412SOL     OW 8134   3.500   2.424   0.130
 2412SOL    HW1 8135   3.463   2.338   0.094
 2412SOL    HW2 8136   3.436   2.498   0.111
 2413SOL     OW 8137   6.653   3.687   6.039
 2413SOL    HW1 8138   6.640   3.638   6.125
 2413SOL    HW2 8139   6.566   3.693   5.990
 2414SOL     OW 8140   6.320   1.611   4.660
 2414SOL    HW1 8141   6.306   1.689   4.722
 2414SOL    HW2 8142   6.415   1.581   4.666
 2415SOL     OW 8143   3.196   4.004   5.278
 2415SOL    HW1 8144   3.231   4.094   5.252
 2415SOL    HW2 8145   3.103   4.013   5.314
 2416SOL     OW 8146   0.228   3.519   3.700
 2416SOL    HW1 8147   0.130   3.531   3.717
 2416SOL    HW2 8148   0.280   3.574   3.766
 2417SOL     OW 8149   3.503   2.690   1.570
 2417SOL    HW1 8150   3.493   2.763   1.502
 2417SOL    HW2 8151   3.423   2.630   1.566
 2418SOL     OW 8152   5.914   3.627   6.576
 2418SOL    HW1 8153   5.817   3.650   6.581
 2418SOL    HW2 8154   5.926   3.528   6.584
 2419SOL     OW 8155   3.593   0.862   2.807
 2419SOL    HW1 8156   3.626   0.776   2.847
 2419SOL    HW2 8157   3.667   0.905   2.755
 2420SOL     OW 8158   0.894   3.034   1.164
 2420SOL    HW1 8159   0.854   2.977   1.236
 2420SOL    HW2 8160   0.994   3.025   1.166
 2421SOL     OW 8161   2.860   0.248   3.076
 2421SOL    HW1 8162   2.901   0.322   3.023
 2421SOL    HW2 8163   2.853   0.275   3.172
 2422SOL     OW 8164   3.501   6.861   0.624
 2422SOL    HW1 8165   3.581   6.853   0.563
 2422SOL    HW2 8166   3.529   6.903   0.710
 2423SOL     OW 8167   3.747   5.027   4.812
 2423SOL    HW1 8168   3.654   5.007   4.841
 2423SOL    HW2 8169   3.812   4.985   4.875
 2424SOL     OW 8170   5.225   0.406   6.218
 2424SOL    HW1 8171   5.319   0.424   6.189
 2424SOL    HW2 8172   5.193   0.482   6.274
 2425SOL     OW 8173   4.735   5.252   4.810
 2425SOL    HW1 8174   4.829   5.271   4.781
 2425SOL    HW2 8175   4.736   5.182   4.882
 2426SOL     OW 8176   3.140   2.449   5.520
 2426SOL    HW1 8177   3.078   2.486   5.451
 2426SOL    HW2 8178   3.197   2.378   5.478
 2427SOL     OW 8179   4.469   1.965   6.944
 2427SOL    HW1 8180   4.519   2.036   6.992
 2427SOL    HW2 8181   4.502   1.875   6.973
 2428SOL     OW 8182   1.716   1.854   2.446
 2428SOL    HW1 8183   1.743   1.924   2.380
 2428SOL    HW2 8184   1.617   1.844   2.445
 2429SOL     OW 8185   5.181   5.843   1.614
 2429SOL    HW1 8186   5.104   5.819   1.673
 2429SOL    HW2 8187   5.193   5.942   1.614
 2430SOL     OW 8188   6.475   6.834   6.957
 2430SOL    HW1 8189   6.451   6.893   6.879
 2430SOL    HW2 8190   6.485   6.890   0.019
 2431SOL     OW 8191   1.721   2.281   1.266
 2431SOL    HW1 8192   1.807   2.331   1.257
 2431SOL    HW2 8193   1.661   2.304   1.189
 2432SOL     OW 8194   3.193   6.147   2.423
 2432SOL    HW1 8195   3.177   6.200   2.507
 2432SOL    HW2 8196   3.278   6.178   2.380
 2433SOL     OW 8197   0.683   4.469   4.074
 2433SOL    HW1 8198   0.672   4.556   4.123
 2433SOL    HW2 8199   0.753   4.480   4.003
 2434SOL     OW 8200   3.833   1.891   3.049
 2434SOL    HW1 8201   3.838   1.969   2.987
 2434SOL    HW2 8202   3.843   1.923   3.143
 2435SOL     OW 8203   5.659   6.799   6.173
 2435SOL    HW1 8204   5.638   6.889   6.134
 2435SOL    HW2 8205   5.591   6.733   6.142
 2436SOL     OW 8206   0.260   2.460   0.341
 2436SOL    HW1 8207   0.334   2.454   0.274
 2436SOL    HW2 8208   0.285   2.407   0.422
 2437SOL     OW 8209   1.256   4.859   1.485
 2437SOL    HW1 8210   1.191   4.867   1.560
 2437SOL    HW2 8211   1.256   4.764   1.451
 2438SOL     OW 8212   3.814   1.820   4.340
 2438SOL    HW1 8213   3.802   1.799   4.243
 2438SOL    HW2 8214   3.813   1.919   4.353
 2439SOL     OW 8215   0.391   5.783   6.773
 2439SOL    HW1 8216   0.439   5.785   6.686
 2439SOL    HW2 8217   0.427   5.855   6.832
 2440SOL     OW 8218   6.860   2.743   5.190
 2440SOL    HW1 8219   6.883   2.796   5.272
 2440SOL    HW2 8220   6.765   2.762   5.165
 2441SOL     OW 8221   6.678   0.341   0.064
 2441SOL    HW1 8222   6.672   0.246   0.034
 2441SOL    HW2 8223   6.649   0.347   0.159
 2442SOL     OW 8224   5.422   2.769   2.595
 2442SOL    HW1 8225   5.360   2.791   2.670
 2442SOL    HW2 8226   5.382   2.797   2.508
 2443SOL     OW 8227   0.442   3.013   0.817
 2443SOL    HW1 8228   0.454   3.072   0.737
 2443SOL    HW2 8229   0.511   2.941   0.815
 2444SOL     OW 8230   3.373   5.216   2.789
 2444SOL    HW1 8231   3.368   5.214   2.689
 2444SOL    HW2 8232   3.405   5.306   2.819
 2445SOL     OW 8233   0.573   1.850   1.371
 2445SOL    HW1 8234   0.543   1.754   1.363
 2445SOL    HW2 8235   0.558   1.897   1.284
 2446SOL     OW 8236   6.764   5.674   0.839
 2446SOL    HW1 8237   6.695   5.668   0.911
 2446SOL    HW2 8238   6.720   5.692   0.751
 2447SOL     OW 8239   2.260   6.804   6.909
 2447SOL    HW1 8240   2.350   6.829   6.875
 2447SOL    HW2 8241   2.204   6.768   6.835
 2448SOL     OW 8242   5.698   0.662   4.159
 2448SOL    HW1 8243   5.659   0.725   4.092
 2448SOL    HW2 8244   5.690   0.568   4.125
 2449SOL     OW 8245   2.132   3.835   1.117
 2449SOL    HW1 8246   2.161   3.792   1.031
 2449SOL    HW2 8247   2.036   3.812   1.135
 2450SOL     OW 8248   6.617   6.614   5.220
 2450SOL    HW1 8249   6.555   6.564   5.280
 2450SOL    HW2 8250   6.686   6.662   5.275
 2451SOL     OW 8251   1.791   6.776   6.985
 2451SOL    HW1 8252   1.757   6.847   6.924
 2451SOL    HW2 8253   1.742   6.691   6.968
 2452SOL     OW 8254   1.982   2.472   3.286
 2452SOL    HW1 8255   1.926   2.435   3.211
 2452SOL    HW2 8256   2.074   2.434   3.280
 2453SOL     OW 8257   1.081   2.254   6.228
 2453SOL    HW1 8258   1.161   2.259   6.288
 2453SOL    HW2 8259   1.111   2.241   6.133
 2454SOL     OW 8260   2.681   6.662   6.980
 2454SOL    HW1 8261   2.703   6.583   6.924
 2454SOL    HW2 8262   2.757   6.683   0.021
 2455SOL     OW 8263   4.935   2.047   0.164
 2455SOL    HW1 8264   5.018   2.041   0.220
 2455SOL    HW2 8265   4.956   2.090   0.076
 2456SOL     OW 8266   0.761   3.285   5.939
 2456SOL    HW1 8267   0.748   3.384   5.942
 2456SOL    HW2 8268   0.815   3.256   6.018
 2457SOL     OW 8269   5.141   1.680   5.972
 2457SOL    HW1 8270   5.121   1.702   5.877
 2457SOL    HW2 8271   5.057   1.686   6.027
 2458SOL     OW 8272   1.221   0.127   2.398
 2458SOL    HW1 8273   1.202   0.037   2.360
 2458SOL    HW2 8274   1.269   0.183   2.331
 2459SOL     OW 8275   1.673   6.399   1.351
 2459SOL    HW1 8276   1.652   6.394   1.253
 2459SOL    HW2 8277   1.692   6.307   1.385
 2460SOL     OW 8278   0.301   0.816   4.329
 2460SOL    HW1 8279   0.249   0.897   4.356
 2460SOL    HW2 8280   0.328   0.764   4.410
 2461SOL     OW 8281   2.581   1.448   3.091
 2461SOL    HW1 8282   2.515   1.497   3.148
 2461SOL    HW2 8283   2.673   1.459   3.127
 2462SOL     OW 8284   0.368   6.172   0.706
 2462SOL    HW1 8285   0.373   6.195   0.609
 2462SOL    HW2 8286   0.378   6.073   0.718
 2463SOL     OW 8287   6.915   6.933   0.771
 2463SOL    HW1 8288   6.841   6.969   0.715
 2463SOL    HW2 8289   6.903   6.963   0.866
 2464SOL     OW 8290   0.874   2.427   4.814
 2464SOL    HW1 8291   0.818   2.413   4.896
 2464SOL    HW2 8292   0.948   2.492   4.835
 2465SOL     OW 8293   6.583   1.448   0.133
 2465SOL    HW1 8294   6.636   1.425   0.052
 2465SOL    HW2 8295   6.496   1.398   0.131
 2466SOL     OW 8296   0.784   2.098   1.189
 2466SOL    HW1 8297   0.812   2.192   1.166
 2466SOL    HW2 8298   0.835   2.034   1.132
 2467SOL     OW 8299   5.290   2.256   5.165
 2467SOL    HW1 8300   5.211   2.228   5.111
 2467SOL    HW2 8301   5.323   2.345   5.133
 2468SOL     OW 8302   2.552   0.121   4.587
 2468SOL    HW1 8303   2.627   0.058   4.568
 2468SOL    HW2 8304   2.538   0.129   4.686
 2469SOL     OW 8305   2.865   1.696   6.318
 2469SOL    HW1 8306   2.907   1.769   6.263
 2469SOL    HW2 8307   2.936   1.632   6.347
 2470SOL     OW 8308   1.590   5.430   6.706
 2470SOL    HW1 8309   1.632   5.516   6.679
 2470SOL    HW2 8310   1.615   5.358   6.641
 2471SOL     OW 8311   3.215   5.623   2.936
 2471SOL    HW1 8312   3.267   5.665   2.862
 2471SOL    HW2 8313   3.118   5.619   2.912
 2472SOL     OW 8314   5.131   1.024   2.882
 2472SOL    HW1 8315   5.118   1.043   2.979
 2472SOL    HW2 8316   5.182   1.099   2.839
 2473SOL     OW 8317   0.807   4.072   4.675
 2473SOL    HW1 8318   0.882   4.021   4.633
 2473SOL    HW2 8319   0.794   4.040   4.769
 2474SOL     OW 8320   1.641   6.828   0.952
 2474SOL    HW1 8321   1.558   6.812   0.899
 2474SOL    HW2 8322   1.617   6.850   1.047
 2475SOL     OW 8323   5.566   1.904   0.646
 2475SOL    HW1 8324   5.534   1.810   0.651
 2475SOL    HW2 8325   5.666   1.906   0.652
 2476SOL     OW 8326   4.746   0.079   6.981
 2476SOL    HW1 8327   4.729   0.106   0.056
 2476SOL    HW2 8328   4.743   0.161   6.923
 2477SOL     OW 8329   3.425   1.522   3.532
 2477SOL    HW1 8330   3.444   1.619   3.544
 2477SOL    HW2 8331   3.429   1.476   3.621
 2478SOL     OW 8332   3.696   0.730   4.441
 2478SOL    HW1 8333   3.756   0.671   4.388
 2478SOL    HW2 8334   3.686   0.694   4.533
 2479SOL     OW 8335   5.969   4.429   1.596
 2479SOL    HW1 8336   5.974   4.459   1.501
 2479SOL    HW2 8337   6.052   4.377   1.619
 2480SOL     OW 8338   3.059   2.291   1.496
 2480SOL    HW1 8339   3.087   2.205   1.452
 2480SOL    HW2 8340   2.995   2.272   1.569
 2481SOL     OW 8341   3.047   6.907   2.289
 2481SOL    HW1 8342   3.054   6.865   2.199
 2481SOL    HW2 8343   3.038   6.835   2.359
 2482SOL     OW 8344   6.947   3.313   6.719
 2482SOL    HW1 8345   6.870   3.261   6.756
 2482SOL    HW2 8346   6.913   3.398   6.677
 2483SOL     OW 8347   2.356   2.247   1.471
 2483SOL    HW1 8348   2.345   2.213   1.565
 2483SOL    HW2 8349   2.387   2.173   1.412
 2484SOL     OW 8350   4.469   0.552   6.404
 2484SOL    HW1 8351   4.461   0.453   6.392
 2484SOL    HW2 8352   4.413   0.581   6.481
 2485SOL     OW 8353   0.407   1.733   6.578
 2485SOL    HW1 8354   0.409   1.809   6.643
 2485SOL    HW2 8355   0.486   1.673   6.594
 2486SOL     OW 8356   6.461   6.185   3.511
 2486SOL    HW1 8357   6.530   6.198   3.440
 2486SOL    HW2 8358   6.493   6.117   3.577
 2487SOL     OW 8359   4.301   6.367   0.258
 2487SOL    HW1 8360   4.234   6.296   0.234
 2487SOL    HW2 8361   4.384   6.354   0.204
 2488SOL     OW 8362   6.984   3.836   0.568
 2488SOL    HW1 8363   6.928   3.875   0.641
 2488SOL    HW2 8364   6.948   3.745   0.545
 2489SOL     OW 8365   6.427   5.478   4.905
 2489SOL    HW1 8366   6.394   5.457   4.997
 2489SOL    HW2 8367   6.387   5.414   4.840
 2490SOL     OW 8368   2.896   5.924   2.021
 2490SOL    HW1 8369   2.878   5.934   2.119
 2490SOL    HW2 8370   2.994   5.926   2.005
 2491SOL     OW 8371   4.001   4.738   1.788
 2491SOL    HW1 8372   3.961   4.828   1.771
 2491SOL    HW2 8373   3.938   4.667   1.756
 2492SOL     OW 8374   6.819   5.597   1.736
 2492SOL    HW1 8375   6.856   5.553   1.654
 2492SOL    HW2 8376   6.834   5.695   1.730
 2493SOL     OW 8377   6.020   6.148   0.753
 2493SOL    HW1 8378   6.031   6.150   0.654
 2493SOL    HW2 8379   5.977   6.233   0.784
 2494SOL     OW 8380   6.878   3.924   0.820
 2494SOL    HW1 8381   6.958   3.974   0.853
 2494SOL    HW2 8382   6.797   3.954   0.871
 2495SOL     OW 8383   6.720   3.124   2.270
 2495SOL    HW1 8384   6.727   3.036   2.318
 2495SOL    HW2 8385   6.776   3.120   2.187
 2496SOL     OW 8386   5.770   4.073   6.188
 2496SOL    HW1 8387   5.857   4.057   6.140
 2496SOL    HW2 8388   5.700   4.100   6.123
 2497SOL     OW 8389   0.512   0.021   3.788
 2497SOL    HW1 8390   0.509   0.071   3.875
 2497SOL    HW2 8391   0.475   6.949   3.801
 2498SOL     OW 8392   2.154   3.364   4.475
 2498SOL    HW1 8393   2.207   3.425   4.533
 2498SOL    HW2 8394   2.067   3.343   4.520
 2499SOL     OW 8395   6.203   3.527   1.801
 2499SOL    HW1 8396   6.264   3.523   1.723
 2499SOL    HW2 8397   6.255   3.546   1.884
 2500SOL     OW 8398   3.562   3.656   2.257
 2500SOL    HW1 8399   3.647   3.707   2.268
 2500SOL    HW2 8400   3.582   3.559   2.243
 2501SOL     OW 8401   6.374   5.497   5.172
 2501SOL    HW1 8402   6.416   5.583   5.201
 2501SOL    HW2 8403   6.444   5.425   5.170
 2502SOL     OW 8404   2.835   5.533   3.842
 2502SOL    HW1 8405   2.835   5.461   3.772
 2502SOL    HW2 8406   2.747   5.534   3.889
 2503SOL     OW 8407   2.434   0.201   5.398
 2503SOL    HW1 8408   2.447   0.214   5.300
 2503SOL    HW2 8409   2.348   0.243   5.426
 2504SOL     OW 8410   4.197   0.244   3.038
 2504SOL    HW1 8411   4.126   0.174   3.027
 2504SOL    HW2 8412   4.285   0.200   3.055
 2505SOL     OW 8413   5.674   4.696   4.305
 2505SOL    HW1 8414   5.750   4.644   4.267
 2505SOL    HW2 8415   5.706   4.785   4.338
 2506SOL     OW 8416   6.165   5.317   6.519
 2506SOL    HW1 8417   6.240   5.327   6.453
 2506SOL    HW2 8418   6.201   5.330   6.611
 2507SOL     OW 8419   6.233   3.675   3.402
 2507SOL    HW1 8420   6.265   3.581   3.391
 2507SOL    HW2 8421   6.158   3.692   3.339
 2508SOL     OW 8422   5.700   1.019   3.757
 2508SOL    HW1 8423   5.736   0.926   3.750
 2508SOL    HW2 8424   5.707   1.064   3.667
 2509SOL     OW 8425   0.041   2.827   6.240
 2509SOL    HW1 8426   0.100   2.885   6.296
 2509SOL    HW2 8427   0.084   2.811   6.151
 2510SOL     OW 8428   3.377   4.122   2.610
 2510SOL    HW1 8429   3.469   4.154   2.635
 2510SOL    HW2 8430   3.311   4.195   2.625
 2511SOL     OW 8431   2.291   0.958   4.528
 2511SOL    HW1 8432   2.263   0.922   4.439
 2511SOL    HW2 8433   2.253   0.900   4.600
 2512SOL     OW 8434   3.533   4.895   3.549
 2512SOL    HW1 8435   3.492   4.916   3.638
 2512SOL    HW2 8436   3.632   4.893   3.558
 2513SOL     OW 8437   1.733   5.637   6.531
 2513SOL    HW1 8438   1.695   5.705   6.467
 2513SOL    HW2 8439   1.811   5.591   6.488
 2514SOL     OW 8440   1.410   2.153   2.804
 2514SOL    HW1 8441   1.359   2.236   2.781
 2514SOL    HW2 8442   1.347   2.083   2.838
 2515SOL     OW 8443   6.752   1.822   1.081
 2515SOL    HW1 8444   6.718   1.909   1.116
 2515SOL    HW2 8445   6.800   1.838   0.994
 2516SOL     OW 8446   6.630   2.581   4.825
 2516SOL    HW1 8447   6.566   2.516   4.786
 2516SOL    HW2 8448   6.627   2.576   4.924
 2517SOL     OW 8449   0.095   1.447   4.497
 2517SOL    HW1 8450   0.060   1.508   4.568
 2517SOL    HW2 8451   0.104   1.354   4.535
 2518SOL     OW 8452   3.158   4.029   1.210
 2518SOL    HW1 8453   3.150   3.931   1.230
 2518SOL    HW2 8454   3.252   4.059   1.226
 2519SOL     OW 8455   0.926   1.203   0.603
 2519SOL    HW1 8456   0.850   1.268   0.604
 2519SOL    HW2 8457   0.890   1.110   0.611
 2520SOL     OW 8458   2.623   2.724   1.035
 2520SOL    HW1 8459   2.596   2.807   0.985
 2520SOL    HW2 8460   2.551   2.656   1.026
 2521SOL     OW 8461   5.173   0.492   5.261
 2521SOL    HW1 8462   5.110   0.438   5.205
 2521SOL    HW2 8463   5.121   0.545   5.328
 2522SOL     OW 8464   1.695   1.921   0.174
 2522SOL    HW1 8465   1.763   1.906   0.102
 2522SOL    HW2 8466   1.633   1.994   0.147
 2523SOL     OW 8467   0.907   5.465   5.660
 2523SOL    HW1 8468   0.885   5.410   5.580
 2523SOL    HW2 8469   0.865   5.556   5.651
 2524SOL     OW 8470   1.160   2.065   4.941
 2524SOL    HW1 8471   1.077   2.097   4.986
 2524SOL    HW2 8472   1.140   2.043   4.846
 2525SOL     OW 8473   6.459   2.515   6.025
 2525SOL    HW1 8474   6.502   2.525   6.114
 2525SOL    HW2 8475   6.371   2.563   6.025
 2526SOL     OW 8476   1.410   0.801   0.734
 2526SOL    HW1 8477   1.398   0.897   0.709
 2526SOL    HW2 8478   1.498   0.789   0.779
 2527SOL     OW 8479   3.986   5.103   6.868
 2527SOL    HW1 8480   4.015   5.008   6.879
 2527SOL    HW2 8481   3.935   5.113   6.783
 2528SOL     OW 8482   4.674   5.444   6.205
 2528SOL    HW1 8483   4.696   5.528   6.155
 2528SOL    HW2 8484   4.713   5.366   6.157
 2529SOL     OW 8485   0.079   5.837   5.149
 2529SOL    HW1 8486   0.051   5.910   5.211
 2529SOL    HW2 8487   0.071   5.749   5.195
 2530SOL     OW 8488   2.372   5.940   6.966
 2530SOL    HW1 8489   2.318   5.989   0.014
 2530SOL    HW2 8490   2.393   5.848   7.001
 2531SOL     OW 8491   0.427   4.397   6.093
 2531SOL    HW1 8492   0.448   4.352   6.180
 2531SOL    HW2 8493   0.330   4.390   6.074
 2532SOL     OW 8494   5.613   5.733   2.108
 2532SOL    HW1 8495   5.593   5.827   2.136
 2532SOL    HW2 8496   5.533   5.676   2.124
 2533SOL     OW 8497   4.384   0.786   3.796
 2533SOL    HW1 8498   4.451   0.860   3.785
 2533SOL    HW2 8499   4.310   0.798   3.730
 2534SOL     OW 8500   4.640   1.480   2.523
 2534SOL    HW1 8501   4.727   1.492   2.476
 2534SOL    HW2 8502   4.616   1.565   2.570
 2535SOL     OW 8503   3.647   3.081   6.314
 2535SOL    HW1 8504   3.549   3.066   6.328
 2535SOL    HW2 8505   3.666   3.179   6.318
 2536SOL     OW 8506   1.024   0.328   0.780
 2536SOL    HW1 8507   1.002   0.424   0.768
 2536SOL    HW2 8508   0.981   0.293   0.863
 2537SOL     OW 8509   4.141   6.437   4.881
 2537SOL    HW1 8510   4.059   6.448   4.825
 2537SOL    HW2 8511   4.122   6.372   4.954
 2538SOL     OW 8512   5.822   3.967   3.724
 2538SOL    HW1 8513   5.763   4.023   3.666
 2538SOL    HW2 8514   5.897   3.931   3.669
 2539SOL     OW 8515   4.949   2.147   5.367
 2539SOL    HW1 8516   4.890   2.108   5.297
 2539SOL    HW2 8517   5.043   2.116   5.352
 2540SOL     OW 8518   2.907   2.244   1.703
 2540SOL    HW1 8519   2.831   2.296   1.666
 2540SOL    HW2 8520   2.936   2.283   1.790
 2541SOL     OW 8521   3.245   0.032   3.589
 2541SOL    HW1 8522   3.247   7.019   3.495
 2541SOL    HW2 8523   3.167   0.093   3.602
 2542SOL     OW 8524   1.970   5.662   5.662
 2542SOL    HW1 8525   1.871   5.656   5.651
 2542SOL    HW2 8526   2.013   5.678   5.574
 2543SOL     OW 8527   0.652   1.004   3.866
 2543SOL    HW1 8528   0.648   1.016   3.767
 2543SOL    HW2 8529   0.561   1.018   3.906
 2544SOL     OW 8530   0.659   5.181   6.146
 2544SOL    HW1 8531   0.753   5.147   6.147
 2544SOL    HW2 8532   0.652   5.260   6.085
 2545SOL     OW 8533   2.560   5.629   3.135
 2545SOL    HW1 8534   2.541   5.707   3.194
 2545SOL    HW2 8535   2.494   5.626   3.060
 2546SOL     OW 8536   6.866   0.766   1.813
 2546SOL    HW1 8537   6.824   0.709   1.742
 2546SOL    HW2 8538   6.817   0.754   1.899
 2547SOL     OW 8539   0.566   3.648   5.549
 2547SOL    HW1 8540   0.548   3.556   5.586
 2547SOL    HW2 8541   0.533   3.653   5.455
 2548SOL     OW 8542   0.335   0.698   6.188
 2548SOL    HW1 8543   0.397   0.774   6.208
 2548SOL    HW2 8544   0.242   0.733   6.176
 2549SOL     OW 8545   5.564   2.557   2.692
 2549SOL    HW1 8546   5.654   2.544   2.650
 2549SOL    HW2 8547   5.525   2.644   2.661
 2550SOL     OW 8548   5.408   5.257   6.900
 2550SOL    HW1 8549   5.427   5.344   6.854
 2550SOL    HW2 8550   5.444   5.260   6.993
 2551SOL     OW 8551   1.201   4.998   6.500
 2551SOL    HW1 8552   1.242   5.088   6.514
 2551SOL    HW2 8553   1.110   4.996   6.542
 2552SOL     OW 8554   1.610   5.629   3.433
 2552SOL    HW1 8555   1.550   5.607   3.357
 2552SOL    HW2 8556   1.693   5.573   3.429
 2553SOL     OW 8557   4.567   3.178   0.445
 2553SOL    HW1 8558   4.549   3.189   0.348
 2553SOL    HW2 8559   4.663   3.197   0.464
 2554SOL     OW 8560   0.868   1.632   0.821
 2554SOL    HW1 8561   0.959   1.670   0.806
 2554SOL    HW2 8562   0.800   1.693   0.781
 2555SOL     OW 8563   0.156   0.007   6.430
 2555SOL    HW1 8564   0.095   6.981   6.366
 2555SOL    HW2 8565   0.249   0.008   6.392
 2556SOL     OW 8566   3.954   4.839   0.300
 2556SOL    HW1 8567   3.958   4.897   0.381
 2556SOL    HW2 8568   4.046   4.805   0.279
 2557SOL     OW 8569   1.909   4.537   6.990
 2557SOL    HW1 8570   1.941   4.607   6.925
 2557SOL    HW2 8571   1.821   4.566   0.008
 2558SOL     OW 8572   4.117   0.558   5.382
 2558SOL    HW1 8573   4.121   0.486   5.312
 2558SOL    HW2 8574   4.107   0.647   5.337
 2559SOL     OW 8575   0.464   4.901   4.860
 2559SOL    HW1 8576   0.438   4.993   4.890
 2559SOL    HW2 8577   0.550   4.906   4.809
 2560SOL     OW 8578   6.000   1.084   0.699
 2560SOL    HW1 8579   6.028   1.073   0.794
 2560SOL    HW2 8580   5.915   1.034   0.683
 2561SOL     OW 8581   3.207   5.734   4.112
 2561SOL    HW1 8582   3.256   5.758   4.028
 2561SOL    HW2 8583   3.164   5.645   4.102
 2562SOL     OW 8584   1.876   3.476   0.280
 2562SOL    HW1 8585   1.795   3.419   0.264
 2562SOL    HW2 8586   1.882   3.498   0.378
 2563SOL     OW 8587   1.677   0.651   2.017
 2563SOL    HW1 8588   1.760   0.685   1.974
 2563SOL    HW2 8589   1.607   0.636   1.947
 2564SOL     OW 8590   1.300   6.091   2.308
 2564SOL    HW1 8591   1.389   6.047   2.301
 2564SOL    HW2 8592   1.284   6.147   2.227
 2565SOL     OW 8593   0.809   0.378   1.441
 2565SOL    HW1 8594   0.850   0.288   1.424
 2565SOL    HW2 8595   0.731   0.392   1.380
 2566SOL     OW 8596   2.440   6.750   5.080
 2566SOL    HW1 8597   2.354   6.765   5.130
 2566SOL    HW2 8598   2.485   6.669   5.116
 2567SOL     OW 8599   0.989   0.578   0.711
 2567SOL    HW1 8600   0.903   0.598   0.758
 2567SOL    HW2 8601   1.057   0.647   0.735
 2568SOL     OW 8602   5.610   3.830   0.693
 2568SOL    HW1 8603   5.546   3.854   0.766
 2568SOL    HW2 8604   5.574   3.863   0.606
 2569SOL     OW 8605   2.471   0.776   2.433
 2569SOL    HW1 8606   2.422   0.852   2.475
 2569SOL    HW2 8607   2.430   0.754   2.345
 2570SOL     OW 8608   5.531   2.425   6.156
 2570SOL    HW1 8609   5.532   2.406   6.254
 2570SOL    HW2 8610   5.497   2.517   6.140
 2571SOL     OW 8611   1.231   3.870   4.595
 2571SOL    HW1 8612   1.246   3.804   4.669
 2571SOL    HW2 8613   1.319   3.892   4.553
 2572SOL     OW 8614   1.540   4.701   3.484
 2572SOL    HW1 8615   1.588   4.655   3.409
 2572SOL    HW2 8616   1.521   4.634   3.557
 2573SOL     OW 8617   1.759   0.242   6.696
 2573SOL    HW1 8618   1.770   0.249   6.795
 2573SOL    HW2 8619   1.793   0.325   6.652
 2574SOL     OW 8620   6.342   3.734   0.558
 2574SOL    HW1 8621   6.363   3.639   0.535
 2574SOL    HW2 8622   6.414   3.772   0.615
 2575SOL     OW 8623   0.515   6.401   6.083
 2575SOL    HW1 8624   0.525   6.482   6.025
 2575SOL    HW2 8625   0.524   6.318   6.028
 2576SOL     OW 8626   4.697   6.854   5.469
 2576SOL    HW1 8627   4.674   6.839   5.373
 2576SOL    HW2 8628   4.766   6.786   5.497
 2577SOL     OW 8629   1.336   3.595   2.468
 2577SOL    HW1 8630   1.419   3.539   2.473
 2577SOL    HW2 8631   1.358   3.689   2.497
 2578SOL     OW 8632   4.208   1.820   1.897
 2578SOL    HW1 8633   4.268   1.899   1.884
 2578SOL    HW2 8634   4.228   1.751   1.827
 2579SOL     OW 8635   0.272   6.325   3.079
 2579SOL    HW1 8636   0.258   6.242   3.134
 2579SOL    HW2 8637   0.354   6.315   3.023
 2580SOL     OW 8638   2.954   2.084   5.427
 2580SOL    HW1 8639   3.019   2.082   5.351
 2580SOL    HW2 8640   2.888   2.158   5.413
 2581SOL     OW 8641   3.469   0.234   5.729
 2581SOL    HW1 8642   3.420   0.156   5.769
 2581SOL    HW2 8643   3.462   0.312   5.790
 2582SOL     OW 8644   6.925   3.596   0.826
 2582SOL    HW1 8645   7.007   3.572   0.775
 2582SOL    HW2 8646   6.919   3.695   0.835
 2583SOL     OW 8647   5.281   0.614   0.859
 2583SOL    HW1 8648   5.374   0.599   0.894
 2583SOL    HW2 8649   5.280   0.597   0.761
 2584SOL     OW 8650   3.519   4.134   6.628
 2584SOL    HW1 8651   3.475   4.159   6.714
 2584SOL    HW2 8652   3.589   4.064   6.646
 2585SOL     OW 8653   2.589   5.421   0.265
 2585SOL    HW1 8654   2.596   5.473   0.350
 2585SOL    HW2 8655   2.655   5.346   0.266
 2586SOL     OW 8656   2.245   1.248   3.440
 2586SOL    HW1 8657   2.154   1.251   3.482
 2586SOL    HW2 8658   2.300   1.323   3.475
 2587SOL     OW 8659   5.641   1.243   4.512
 2587SOL    HW1 8660   5.729   1.237   4.559
 2587SOL    HW2 8661   5.604   1.152   4.497
 2588SOL     OW 8662   4.340   1.296   6.820
 2588SOL    HW1 8663   4.329   1.311   6.721
 2588SOL    HW2 8664   4.283   1.361   6.870
 2589SOL     OW 8665   1.932   6.417   0.371
 2589SOL    HW1 8666   1.994   6.451   0.300
 2589SOL    HW2 8667   1.984   6.362   0.437
 2590SOL     OW 8668   2.239   5.042   0.351
 2590SOL    HW1 8669   2.292   5.099   0.413
 2590SOL    HW2 8670   2.206   4.961   0.400
 2591SOL     OW 8671   5.080   6.132   3.307
 2591SOL    HW1 8672   5.105   6.077   3.387
 2591SOL    HW2 8673   5.057   6.225   3.336
 2592SOL     OW 8674   3.465   3.585   0.927
 2592SOL    HW1 8675   3.536   3.521   0.956
 2592SOL    HW2 8676   3.409   3.543   0.855
 2593SOL     OW 8677   3.377   4.558   6.640
 2593SOL    HW1 8678   3.405   4.623   6.569
 2593SOL    HW2 8679   3.369   4.606   6.728
 2594SOL     OW 8680   2.191   2.989   3.286
 2594SOL    HW1 8681   2.230   2.967   3.375
 2594SOL    HW2 8682   2.220   2.921   3.218
 2595SOL     OW 8683   1.720   1.160   2.828
 2595SOL    HW1 8684   1.682   1.105   2.753
 2595SOL    HW2 8685   1.759   1.244   2.792
 2596SOL     OW 8686   0.139   1.357   0.778
 2596SOL    HW1 8687   0.050   1.398   0.797
 2596SOL    HW2 8688   0.128   1.259   0.764
 2597SOL     OW 8689   6.273   6.009   0.642
 2597SOL    HW1 8690   6.326   6.084   0.682
 2597SOL    HW2 8691   6.219   5.965   0.713
 2598SOL     OW 8692   4.892   2.796   1.986
 2598SOL    HW1 8693   4.908   2.799   1.887
 2598SOL    HW2 8694   4.858   2.885   2.017
 2599SOL     OW 8695   2.581   5.740   2.526
 2599SOL    HW1 8696   2.557   5.728   2.622
 2599SOL    HW2 8697   2.591   5.838   2.507
 2600SOL     OW 8698   5.633   5.003   4.692
 2600SOL    HW1 8699   5.642   5.038   4.599
 2600SOL    HW2 8700   5.550   5.039   4.734
 2601SOL     OW 8701   6.795   1.200   3.760
 2601SOL    HW1 8702   6.743   1.236   3.838
 2601SOL    HW2 8703   6.815   1.103   3.775
 2602SOL     OW 8704   0.932   4.694   2.777
 2602SOL    HW1 8705   1.000   4.621   2.780
 2602SOL    HW2 8706   0.844   4.657   2.747
 2603SOL     OW 8707   1.550   5.908   1.986
 2603SOL    HW1 8708   1.534   5.809   1.985
 2603SOL    HW2 8709   1.463   5.956   1.990
 2604SOL     OW 8710   5.198   3.247   3.157
 2604SOL    HW1 8711   5.291   3.238   3.121
 2604SOL    HW2 8712   5.137   3.187   3.105
 2605SOL     OW 8713   1.358   2.265   0.833
 2605SOL    HW1 8714   1.377   2.353   0.790
 2605SOL    HW2 8715   1.428   2.245   0.901
 2606SOL     OW 8716   5.237   3.868   0.836
 2606SOL    HW1 8717   5.330   3.902   0.851
 2606SOL    HW2 8718   5.172   3.942   0.853
 2607SOL     OW 8719   2.477   2.846   1.807
 2607SOL    HW1 8720   2.389   2.821   1.848
 2607SOL    HW2 8721   2.516   2.767   1.761
 2608SOL     OW 8722   3.229   5.071   4.638
 2608SOL    HW1 8723   3.150   5.040   4.691
 2608SOL    HW2 8724   3.268   5.152   4.682
 2609SOL     OW 8725   0.224   1.693   1.344
 2609SOL    HW1 8726   0.174   1.607   1.330
 2609SOL    HW2 8727   0.221   1.748   1.260
 2610SOL     OW 8728   1.152   4.524   4.939
 2610SOL    HW1 8729   1.086   4.452   4.916
 2610SOL    HW2 8730   1.215   4.492   5.009
 2611SOL     OW 8731   5.520   0.978   5.476
 2611SOL    HW1 8732   5.424   0.948   5.477
 2611SOL    HW2 8733   5.580   0.898   5.474
 2612SOL     OW 8734   6.875   6.723   0.460
 2612SOL    HW1 8735   6.929   6.806   0.448
 2612SOL    HW2 8736   6.929   6.654   0.509
 2613SOL     OW 8737   1.575   6.788   0.585
 2613SOL    HW1 8738   1.506   6.781   0.657
 2613SOL    HW2 8739   1.640   6.860   0.608
 2614SOL     OW 8740   5.578   2.342   1.046
 2614SOL    HW1 8741   5.610   2.361   0.953
 2614SOL    HW2 8742   5.591   2.423   1.103
 2615SOL     OW 8743   1.079   3.360   6.824
 2615SOL    HW1 8744   1.128   3.417   6.758
 2615SOL    HW2 8745   1.123   3.368   6.914
 2616SOL     OW 8746   1.181   1.296   4.763
 2616SOL    HW1 8747   1.232   1.268   4.681
 2616SOL    HW2 8748   1.244   1.339   4.828
 2617SOL     OW 8749   5.199   0.427   0.213
 2617SOL    HW1 8750   5.212   0.481   0.296
 2617SOL    HW2 8751   5.264   0.458   0.143
 2618SOL     OW 8752   1.406   1.008   0.048
 2618SOL    HW1 8753   1.450   0.921   0.070
 2618SOL    HW2 8754   1.410   1.069   0.127
 2619SOL     OW 8755   4.751   1.217   2.737
 2619SOL    HW1 8756   4.673   1.270   2.705
 2619SOL    HW2 8757   4.727   1.171   2.823
 2620SOL     OW 8758   5.846   2.264   2.160
 2620SOL    HW1 8759   5.858   2.215   2.073
 2620SOL    HW2 8760   5.839   2.198   2.234
 2621SOL     OW 8761   2.614   6.770   1.362
 2621SOL    HW1 8762   2.653   6.851   1.318
 2621SOL    HW2 8763   2.687   6.710   1.394
 2622SOL     OW 8764   2.484   3.807   6.723
 2622SOL    HW1 8765   2.510   3.841   6.633
 2622SOL    HW2 8766   2.490   3.707   6.725
 2623SOL     OW 8767   6.960   1.627   3.741
 2623SOL    HW1 8768   7.011   1.675   3.669
 2623SOL    HW2 8769   7.009   1.637   3.828
 2624SOL     OW 8770   1.567   1.957   5.653
 2624SOL    HW1 8771   1.607   2.015   5.583
 2624SOL    HW2 8772   1.507   2.011   5.712
 2625SOL     OW 8773   3.241   5.253   6.229
 2625SOL    HW1 8774   3.260   5.232   6.325
 2625SOL    HW2 8775   3.255   5.350   6.212
 2626SOL     OW 8776   0.028   6.922   0.442
 2626SOL    HW1 8777   0.065   6.962   0.526
 2626SOL    HW2 8778   0.101   6.917   0.374
 2627SOL     OW 8779   2.336   0.206   5.757
 2627SOL    HW1 8780   2.432   0.229   5.745
 2627SOL    HW2 8781   2.285   0.232   5.675
 2628SOL     OW 8782   7.018   5.463   1.541
 2628SOL    HW1 8783   0.097   5.450   1.550
 2628SOL    HW2 8784   6.988   5.426   1.452
 2629SOL     OW 8785   3.048   3.768   2.885
 2629SOL    HW1 8786   3.020   3.797   2.976
 2629SOL    HW2 8787   2.986   3.697   2.852
 2630SOL     OW 8788   3.383   0.967   4.718
 2630SOL    HW1 8789   3.317   0.979   4.644
 2630SOL    HW2 8790   3.472   1.004   4.690
 2631SOL     OW 8791   4.681   6.037   0.715
 2631SOL    HW1 8792   4.641   6.037   0.807
 2631SOL    HW2 8793   4.626   6.093   0.655
 2632SOL     OW 8794   4.441   5.165   1.865
 2632SOL    HW1 8795   4.451   5.067   1.848
 2632SOL    HW2 8796   4.389   5.179   1.949
 2633SOL     OW 8797   0.045   2.881   5.764
 2633SOL    HW1 8798   7.016   2.968   5.774
 2633SOL    HW2 8799   0.110   2.889   5.689
 2634SOL     OW 8800   1.948   2.014   6.238
 2634SOL    HW1 8801   1.957   2.111   6.219
 2634SOL    HW2 8802   1.940   2.001   6.337
 2635SOL     OW 8803   3.789   5.265   3.195
 2635SOL    HW1 8804   3.869   5.252   3.137
 2635SOL    HW2 8805   3.708   5.227   3.149
 2636SOL     OW 8806   2.919   6.624   6.203
 2636SOL    HW1 8807   2.998   6.660   6.154
 2636SOL    HW2 8808   2.918   6.524   6.197
 2637SOL     OW 8809   0.402   1.907   2.947
 2637SOL    HW1 8810   0.324   1.940   3.001
 2637SOL    HW2 8811   0.388   1.930   2.851
 2638SOL     OW 8812   0.932   6.290   4.845
 2638SOL    HW1 8813   1.020   6.287   4.892
 2638SOL    HW2 8814   0.943   6.253   4.753
 2639SOL     OW 8815   5.008   5.506   4.834
 2639SOL    HW1 8816   5.023   5.412   4.803
 2639SOL    HW2 8817   5.083   5.535   4.893
 2640SOL     OW 8818   2.211   1.124   3.191
 2640SOL    HW1 8819   2.276   1.167   3.129
 2640SOL    HW2 8820   2.229   1.155   3.285
 2641SOL     OW 8821   5.406   2.253   0.372
 2641SOL    HW1 8822   5.387   2.319   0.444
 2641SOL    HW2 8823   5.504   2.232   0.372
 2642SOL     OW 8824   0.208   0.175   2.615
 2642SOL    HW1 8825   0.281   0.220   2.666
 2642SOL    HW2 8826   0.120   0.217   2.639
 2643SOL     OW 8827   1.875   4.264   4.298
 2643SOL    HW1 8828   1.914   4.309   4.217
 2643SOL    HW2 8829   1.936   4.189   4.326
 2644SOL     OW 8830   5.675   5.295   3.600
 2644SOL    HW1 8831   5.732   5.361   3.650
 2644SOL    HW2 8832   5.656   5.331   3.509
 2645SOL     OW 8833   4.479   5.603   2.728
 2645SOL    HW1 8834   4.552   5.627   2.664
 2645SOL    HW2 8835   4.395   5.650   2.702
 2646SOL     OW 8836   1.100   1.962   6.439
 2646SOL    HW1 8837   1.166   1.970   6.514
 2646SOL    HW2 8838   1.026   2.028   6.453
 2647SOL     OW 8839   4.545   0.177   2.964
 2647SOL    HW1 8840   4.593   0.109   3.020
 2647SOL    HW2 8841   4.589   0.184   2.875
 2648SOL     OW 8842   2.008   0.531   5.705
 2648SOL    HW1 8843   2.003   0.475   5.787
 2648SOL    HW2 8844   2.015   0.627   5.730
 2649SOL     OW 8845   5.991   1.686   3.581
 2649SOL    HW1 8846   6.031   1.614   3.525
 2649SOL    HW2 8847   6.058   1.759   3.594
 2650SOL     OW 8848   2.065   6.806   4.668
 2650SOL    HW1 8849   2.113   6.718   4.667
 2650SOL    HW2 8850   2.128   6.877   4.698
 2651SOL     OW 8851   3.403   1.308   3.129
 2651SOL    HW1 8852   3.496   1.329   3.157
 2651SOL    HW2 8853   3.377   1.369   3.054
 2652SOL     OW 8854   4.528   3.673   5.543
 2652SOL    HW1 8855   4.446   3.646   5.594
 2652SOL    HW2 8856   4.505   3.682   5.446
 2653SOL     OW 8857   2.226   6.294   7.007
 2653SOL    HW1 8858   2.134   6.263   6.982
 2653SOL    HW2 8859   2.269   6.228   0.049
 2654SOL     OW 8860   6.634   0.583   0.936
 2654SOL    HW1 8861   6.590   0.556   0.851
 2654SOL    HW2 8862   6.733   0.571   0.929
 2655SOL     OW 8863   4.928   6.860   3.484
 2655SOL    HW1 8864   5.007   6.885   3.540
 2655SOL    HW2 8865   4.901   6.766   3.503
 2656SOL     OW 8866   4.654   0.002   4.857
 2656SOL    HW1 8867   4.666   6.974   4.945
 2656SOL    HW2 8868   4.680   6.961   4.782
 2657SOL     OW 8869   1.830   3.444   6.413
 2657SOL    HW1 8870   1.868   3.497   6.338
 2657SOL    HW2 8871   1.739   3.479   6.436
 2658SOL     OW 8872   3.661   4.517   0.520
 2658SOL    HW1 8873   3.655   4.433   0.574
 2658SOL    HW2 8874   3.599   4.512   0.442
 2659SOL     OW 8875   0.560   2.049   5.380
 2659SOL    HW1 8876   0.499   2.009   5.311
 2659SOL    HW2 8877   0.506   2.078   5.459
 2660SOL     OW 8878   1.177   1.394   0.368
 2660SOL    HW1 8879   1.245   1.464   0.387
 2660SOL    HW2 8880   1.177   1.326   0.441
 2661SOL     OW 8881   2.125   0.922   0.877
 2661SOL    HW1 8882   2.045   0.878   0.838
 2661SOL    HW2 8883   2.115   1.021   0.870
 2662SOL     OW 8884   2.534   1.887   1.605
 2662SOL    HW1 8885   2.557   1.803   1.653
 2662SOL    HW2 8886   2.611   1.951   1.611
 2663SOL     OW 8887   3.693   0.564   0.692
 2663SOL    HW1 8888   3.756   0.494   0.728
 2663SOL    HW2 8889   3.611   0.519   0.657
 2664SOL     OW 8890   4.906   3.574   5.702
 2664SOL    HW1 8891   4.995   3.563   5.746
 2664SOL    HW2 8892   4.846   3.629   5.760
 2665SOL     OW 8893   1.193   3.211   4.624
 2665SOL    HW1 8894   1.287   3.235   4.599
 2665SOL    HW2 8895   1.186   3.112   4.634
 2666SOL     OW 8896   1.881   3.768   1.949
 2666SOL    HW1 8897   1.900   3.842   2.014
 2666SOL    HW2 8898   1.967   3.724   1.925
 2667SOL     OW 8899   6.008   2.411   4.635
 2667SOL    HW1 8900   6.059   2.497   4.633
 2667SOL    HW2 8901   5.989   2.386   4.730
 2668SOL     OW 8902   5.600   0.743   4.387
 2668SOL    HW1 8903   5.643   0.720   4.299
 2668SOL    HW2 8904   5.515   0.692   4.397
 2669SOL     OW 8905   2.490   1.311   2.080
 2669SOL    HW1 8906   2.551   1.359   2.017
 2669SOL    HW2 8907   2.466   1.371   2.156
 2670SOL     OW 8908   0.532   0.315   1.436
 2670SOL    HW1 8909   0.482   0.305   1.522
 2670SOL    HW2 8910   0.595   0.238   1.425
 2671SOL     OW 8911   5.658   4.460   6.117
 2671SOL    HW1 8912   5.727   4.415   6.175
 2671SOL    HW2 8913   5.680   4.445   6.021
 2672SOL     OW 8914   2.120   1.911   2.300
 2672SOL    HW1 8915   2.077   1.822   2.289
 2672SOL    HW2 8916   2.050   1.980   2.318
 2673SOL     OW 8917   3.508   0.154   2.941
 2673SOL    HW1 8918   3.516   0.184   3.037
 2673SOL    HW2 8919   3.592   0.178   2.892
 2674SOL     OW 8920   5.882   5.821   3.562
 2674SOL    HW1 8921   5.882   5.787   3.468
 2674SOL    HW2 8922   5.790   5.850   3.588
 2675SOL     OW 8923   4.786   1.292   3.965
 2675SOL    HW1 8924   4.714   1.223   3.976
 2675SOL    HW2 8925   4.764   1.371   4.022
 2676SOL     OW 8926   3.957   3.448   5.420
 2676SOL    HW1 8927   4.041   3.503   5.416
 2676SOL    HW2 8928   3.943   3.403   5.332
 2677SOL     OW 8929   1.681   5.947   0.981
 2677SOL    HW1 8930   1.767   5.949   1.031
 2677SOL    HW2 8931   1.669   5.856   0.939
 2678SOL     OW 8932   3.509   2.005   1.889
 2678SOL    HW1 8933   3.587   2.061   1.914
 2678SOL    HW2 8934   3.490   1.939   1.962
 2679SOL     OW 8935   2.074   3.346   2.306
 2679SOL    HW1 8936   2.138   3.283   2.349
 2679SOL    HW2 8937   2.048   3.311   2.216
 2680SOL     OW 8938   5.864   2.581   6.475
 2680SOL    HW1 8939   5.792   2.533   6.524
 2680SOL    HW2 8940   5.825   2.658   6.424
 2681SOL     OW 8941   2.536   2.518   3.465
 2681SOL    HW1 8942   2.605   2.525   3.537
 2681SOL    HW2 8943   2.553   2.437   3.409
 2682SOL     OW 8944   3.616   4.119   2.773
 2682SOL    HW1 8945   3.637   4.144   2.868
 2682SOL    HW2 8946   3.582   4.025   2.771
 2683SOL     OW 8947   1.736   3.293   1.342
 2683SOL    HW1 8948   1.688   3.317   1.427
 2683SOL    HW2 8949   1.676   3.234   1.287
 2684SOL     OW 8950   5.288   0.496   3.627
 2684SOL    HW1 8951   5.194   0.471   3.652
 2684SOL    HW2 8952   5.328   0.551   3.699
 2685SOL     OW 8953   1.848   6.487   5.722
 2685SOL    HW1 8954   1.815   6.471   5.815
 2685SOL    HW2 8955   1.811   6.573   5.687
 2686SOL     OW 8956   1.965   2.308   5.927
 2686SOL    HW1 8957   1.892   2.240   5.935
 2686SOL    HW2 8958   1.990   2.341   6.018
 2687SOL     OW 8959   3.676   2.579   1.764
 2687SOL    HW1 8960   3.599   2.617   1.713
 2687SOL    HW2 8961   3.655   2.484   1.791
 2688SOL     OW 8962   4.174   2.316   0.127
 2688SOL    HW1 8963   4.194   2.234   0.074
 2688SOL    HW2 8964   4.077   2.316   0.152
 2689SOL     OW 8965   6.909   3.948   2.374
 2689SOL    HW1 8966   6.956   4.028   2.337
 2689SOL    HW2 8967   6.814   3.973   2.394
 2690SOL     OW 8968   5.176   0.919   4.443
 2690SOL    HW1 8969   5.170   0.930   4.542
 2690SOL    HW2 8970   5.191   1.008   4.400
 2691SOL     OW 8971   5.948   3.777   4.084
 2691SOL    HW1 8972   5.940   3.861   4.031
 2691SOL    HW2 8973   5.869   3.719   4.067
 2692SOL     OW 8974   1.628   5.145   1.458
 2692SOL    HW1 8975   1.672   5.066   1.502
 2692SOL    HW2 8976   1.535   5.121   1.432
 2693SOL     OW 8977   0.457   5.937   2.323
 2693SOL    HW1 8978   0.550   5.948   2.358
 2693SOL    HW2 8979   0.394   5.923   2.400
 2694SOL     OW 8980   2.404   0.353   2.682
 2694SOL    HW1 8981   2.491   0.402   2.685
 2694SOL    HW2 8982   2.422   0.255   2.675
 2695SOL     OW 8983   6.508   5.900   3.427
 2695SOL    HW1 8984   6.504   5.973   3.360
 2695SOL    HW2 8985   6.561   5.823   3.390
 2696SOL     OW 8986   3.732   4.392   6.221
 2696SOL    HW1 8987   3.763   4.336   6.297
 2696SOL    HW2 8988   3.678   4.469   6.257
 2697SOL     OW 8989   4.193   2.172   0.364
 2697SOL    HW1 8990   4.198   2.245   0.296
 2697SOL    HW2 8991   4.143   2.204   0.444
 2698SOL     OW 8992   1.620   5.787   7.011
 2698SOL    HW1 8993   1.681   5.785   6.931
 2698SOL    HW2 8994   1.671   5.817   0.071
 2699SOL     OW 8995   2.821   6.740   2.481
 2699SOL    HW1 8996   2.731   6.700   2.497
 2699SOL    HW2 8997   2.874   6.680   2.421
 2700SOL     OW 8998   4.414   2.031   1.794
 2700SOL    HW1 8999   4.409   1.972   1.713
 2700SOL    HW2 9000   4.487   1.998   1.854
 2701SOL     OW 9001   5.342   3.622   5.556
 2701SOL    HW1 9002   5.329   3.706   5.609
 2701SOL    HW2 9003   5.385   3.553   5.614
 2702SOL     OW 9004   1.960   1.964   4.884
 2702SOL    HW1 9005   1.897   1.888   4.897
 2702SOL    HW2 9006   1.931   2.042   4.941
 2703SOL     OW 9007   2.270   6.140   1.620
 2703SOL    HW1 9008   2.334   6.070   1.589
 2703SOL    HW2 9009   2.276   6.220   1.560
 2704SOL     OW 9010   4.446   1.147   3.585
 2704SOL    HW1 9011   4.496   1.082   3.643
 2704SOL    HW2 9012   4.508   1.182   3.514
 2705SOL     OW 9013   0.933   6.855   5.550
 2705SOL    HW1 9014   1.003   6.785   5.534
 2705SOL    HW2 9015   0.968   6.944   5.521
 2706SOL     OW 9016   0.359   4.347   4.265
 2706SOL    HW1 9017   0.435   4.386   4.317
 2706SOL    HW2 9018   0.382   4.345   4.168
 2707SOL     OW 9019   4.331   1.075   3.089
 2707SOL    HW1 9020   4.391   1.137   3.139
 2707SOL    HW2 9021   4.262   1.039   3.152
 2708SOL     OW 9022   5.849   3.260   5.605
 2708SOL    HW1 9023   5.807   3.177   5.641
 2708SOL    HW2 9024   5.779   3.317   5.561
 2709SOL     OW 9025   5.296   1.075   5.824
 2709SOL    HW1 9026   5.378   1.019   5.839
 2709SOL    HW2 9027   5.323   1.170   5.811
 2710SOL     OW 9028   0.927   2.912   4.255
 2710SOL    HW1 9029   1.010   2.946   4.211
 2710SOL    HW2 9030   0.875   2.856   4.191
 2711SOL     OW 9031   4.829   1.026   1.740
 2711SOL    HW1 9032   4.915   1.064   1.707
 2711SOL    HW2 9033   4.771   1.003   1.662
 2712SOL     OW 9034   4.905   6.379   2.007
 2712SOL    HW1 9035   4.933   6.433   2.087
 2712SOL    HW2 9036   4.938   6.424   1.924
 2713SOL     OW 9037   3.666   4.926   5.207
 2713SOL    HW1 9038   3.608   4.977   5.144
 2713SOL    HW2 9039   3.760   4.923   5.172
 2714SOL     OW 9040   2.671   4.537   6.098
 2714SOL    HW1 9041   2.623   4.616   6.138
 2714SOL    HW2 9042   2.658   4.457   6.157
 2715SOL     OW 9043   4.356   6.626   0.294
 2715SOL    HW1 9044   4.436   6.663   0.342
 2715SOL    HW2 9045   4.354   6.527   0.305
 2716SOL     OW 9046   4.965   1.112   2.351
 2716SOL    HW1 9047   4.998   1.067   2.268
 2716SOL    HW2 9048   4.999   1.064   2.431
 2717SOL     OW 9049   0.710   1.843   2.212
 2717SOL    HW1 9050   0.659   1.879   2.290
 2717SOL    HW2 9051   0.659   1.860   2.128
 2718SOL     OW 9052   6.639   1.249   5.956
 2718SOL    HW1 9053   6.678   1.158   5.969
 2718SOL    HW2 9054   6.669   1.309   6.030
 2719SOL     OW 9055   1.051   4.739   3.722
 2719SOL    HW1 9056   1.023   4.739   3.626
 2719SOL    HW2 9057   1.055   4.833   3.756
 2720SOL     OW 9058   1.847   5.086   6.496
 2720SOL    HW1 9059   1.824   5.068   6.400
 2720SOL    HW2 9060   1.782   5.152   6.534
 2721SOL     OW 9061   2.344   6.034   3.866
 2721SOL    HW1 9062   2.358   5.936   3.850
 2721SOL    HW2 9063   2.412   6.067   3.931
 2722SOL     OW 9064   3.303   3.923   6.768
 2722SOL    HW1 9065   3.292   4.009   6.818
 2722SOL    HW2 9066   3.283   3.846   6.828
 2723SOL     OW 9067   4.261   5.462   0.547
 2723SOL    HW1 9068   4.172   5.437   0.510
 2723SOL    HW2 9069   4.325   5.479   0.472
 2724SOL     OW 9070   6.632   6.178   0.912
 2724SOL    HW1 9071   6.642   6.225   0.825
 2724SOL    HW2 9072   6.680   6.090   0.908
 2725SOL     OW 9073   6.216   4.736   2.690
 2725SOL    HW1 9074   6.137   4.782   2.732
 2725SOL    HW2 9075   6.191   4.704   2.599
 2726SOL     OW 9076   6.455   2.799   2.985
 2726SOL    HW1 9077   6.482   2.829   2.893
 2726SOL    HW2 9078   6.375   2.740   2.978
 2727SOL     OW 9079   1.569   4.982   4.188
 2727SOL    HW1 9080   1.612   4.891   4.188
 2727SOL    HW2 9081   1.552   5.011   4.282
 2728SOL     OW 9082   4.990   5.093   6.003
 2728SOL    HW1 9083   4.943   5.181   6.006
 2728SOL    HW2 9084   4.947   5.030   6.068
 2729SOL     OW 9085   0.332   0.401   0.466
 2729SOL    HW1 9086   0.341   0.376   0.563
 2729SOL    HW2 9087   0.306   0.497   0.459
 2730SOL     OW 9088   1.334   5.347   2.859
 2730SOL    HW1 9089   1.287   5.432   2.881
 2730SOL    HW2 9090   1.415   5.366   2.803
 2731SOL     OW 9091   4.138   3.650   5.329
 2731SOL    HW1 9092   4.231   3.620   5.308
 2731SOL    HW2 9093   4.117   3.733   5.276
 2732SOL     OW 9094   4.564   0.630   2.577
 2732SOL    HW1 9095   4.559   0.531   2.587
 2732SOL    HW2 9096   4.652   0.655   2.537
 2733SOL     OW 9097   0.791   0.144   0.635
 2733SOL    HW1 9098   0.818   0.235   0.666
 2733SOL    HW2 9099   0.868   0.081   0.647
 2734SOL     OW 9100   3.002   0.350   1.703
 2734SOL    HW1 9101   2.948   0.421   1.746
 2734SOL    HW2 9102   2.952   0.263   1.706
 2735SOL     OW 9103   0.829   2.383   2.534
 2735SOL    HW1 9104   0.928   2.392   2.547
 2735SOL    HW2 9105   0.788   2.474   2.531
 2736SOL     OW 9106   5.747   4.541   2.732
 2736SOL    HW1 9107   5.732   4.552   2.633
 2736SOL    HW2 9108   5.662   4.511   2.775
 2737SOL     OW 9109   2.452   0.151   6.163
 2737SOL    HW1 9110   2.465   0.057   6.131
 2737SOL    HW2 9111   2.363   0.185   6.130
 2738SOL     OW 9112   5.424   6.586   1.388
 2738SOL    HW1 9113   5.375   6.504   1.358
 2738SOL    HW2 9114   5.362   6.645   1.439
 2739SOL     OW 9115   0.643   5.399   1.527
 2739SOL    HW1 9116   0.737   5.391   1.560
 2739SOL    HW2 9117   0.634   5.481   1.470
 2740SOL     OW 9118   6.431   5.772   5.216
 2740SOL    HW1 9119   6.527   5.752   5.237
 2740SOL    HW2 9120   6.381   5.792   5.300
 2741SOL     OW 9121   0.609   0.155   6.788
 2741SOL    HW1 9122   0.560   0.076   6.751
 2741SOL    HW2 9123   0.544   0.230   6.803
 2742SOL     OW 9124   2.437   5.027   2.089
 2742SOL    HW1 9125   2.390   5.066   2.010
 2742SOL    HW2 9126   2.529   4.999   2.062
 2743SOL     OW 9127   5.866   2.072   2.595
 2743SOL    HW1 9128   5.871   2.136   2.672
 2743SOL    HW2 9129   5.802   1.998   2.617
 2744SOL     OW 9130   3.141   3.713   2.595
 2744SOL    HW1 9131   3.107   3.734   2.687
 2744SOL    HW2 9132   3.064   3.687   2.537
 2745SOL     OW 9133   0.696   6.211   6.930
 2745SOL    HW1 9134   0.699   6.260   6.844
 2745SOL    HW2 9135   0.786   6.210   6.972
 2746SOL     OW 9136   1.451   0.732   4.604
 2746SOL    HW1 9137   1.505   0.759   4.685
 2746SOL    HW2 9138   1.499   0.660   4.555
 2747SOL     OW 9139   4.793   4.791   0.091
 2747SOL    HW1 9140   4.885   4.766   0.059
 2747SOL    HW2 9141   4.729   4.785   0.014
 2748SOL     OW 9142   4.072   0.145   0.574
 2748SOL    HW1 9143   4.088   0.092   0.490
 2748SOL    HW2 9144   4.008   0.095   0.632
 2749SOL     OW 9145   3.640   0.652   0.026
 2749SOL    HW1 9146   3.702   0.674   6.971
 2749SOL    HW2 9147   3.553   0.621   7.009
 2750SOL     OW 9148   1.951   6.284   1.962
 2750SOL    HW1 9149   1.979   6.380   1.964
 2750SOL    HW2 9150   2.030   6.226   1.945
 2751SOL     OW 9151   6.393   5.195   1.536
 2751SOL    HW1 9152   6.347   5.244   1.610
 2751SOL    HW2 9153   6.434   5.112   1.572
 2752SOL     OW 9154   4.357   5.206   6.446
 2752SOL    HW1 9155   4.432   5.161   6.494
 2752SOL    HW2 9156   4.273   5.153   6.457
 2753SOL     OW 9157   4.823   4.944   6.160
 2753SOL    HW1 9158   4.844   4.975   6.253
 2753SOL    HW2 9159   4.736   4.895   6.161
 2754SOL     OW 9160   1.509   0.826   4.968
 2754SOL    HW1 9161   1.577   0.801   4.899
 2754SOL    HW2 9162   1.523   0.772   5.051
 2755SOL     OW 9163   3.416   0.260   2.331
 2755SOL    HW1 9164   3.464   0.218   2.254
 2755SOL    HW2 9165   3.337   0.204   2.355
 2756SOL     OW 9166   4.723   5.311   6.443
 2756SOL    HW1 9167   4.701   5.352   6.355
 2756SOL    HW2 9168   4.790   5.367   6.491
 2757SOL     OW 9169   0.805   4.871   0.430
 2757SOL    HW1 9170   0.742   4.824   0.368
 2757SOL    HW2 9171   0.785   4.843   0.524
 2758SOL     OW 9172   4.763   0.230   5.994
 2758SOL    HW1 9173   4.815   0.287   6.057
 2758SOL    HW2 9174   4.703   0.169   6.047
 2759SOL     OW 9175   4.711   4.908   3.817
 2759SOL    HW1 9176   4.664   4.891   3.731
 2759SOL    HW2 9177   4.734   5.005   3.824
 2760SOL     OW 9178   0.865   6.114   3.321
 2760SOL    HW1 9179   0.916   6.194   3.350
 2760SOL    HW2 9180   0.928   6.038   3.303
 2761SOL     OW 9181   2.332   4.986   4.985
 2761SOL    HW1 9182   2.415   5.012   4.934
 2761SOL    HW2 9183   2.327   5.040   5.069
 2762SOL     OW 9184   1.743   2.163   5.942
 2762SOL    HW1 9185   1.664   2.206   5.984
 2762SOL    HW2 9186   1.716   2.076   5.900
 2763SOL     OW 9187   5.314   6.778   1.994
 2763SOL    HW1 9188   5.258   6.852   1.956
 2763SOL    HW2 9189   5.257   6.720   2.051
 2764SOL     OW 9190   6.204   0.565   1.731
 2764SOL    HW1 9191   6.211   0.563   1.831
 2764SOL    HW2 9192   6.287   0.606   1.693
 2765SOL     OW 9193   5.443   1.718   3.726
 2765SOL    HW1 9194   5.423   1.753   3.634
 2765SOL    HW2 9195   5.359   1.683   3.767
 2766SOL     OW 9196   5.611   6.864   2.538
 2766SOL    HW1 9197   5.513   6.869   2.521
 2766SOL    HW2 9198   5.659   6.925   2.475
 2767SOL     OW 9199   6.525   4.142   5.163
 2767SOL    HW1 9200   6.480   4.075   5.222
 2767SOL    HW2 9201   6.569   4.096   5.087
 2768SOL     OW 9202   5.753   0.824   6.685
 2768SOL    HW1 9203   5.789   0.912   6.714
 2768SOL    HW2 9204   5.817   0.752   6.711
 2769SOL     OW 9205   1.106   4.046   1.023
 2769SOL    HW1 9206   1.177   4.047   1.094
 2769SOL    HW2 9207   1.148   4.032   0.934
 2770SOL     OW 9208   4.818   6.120   2.381
 2770SOL    HW1 9209   4.842   6.216   2.368
 2770SOL    HW2 9210   4.751   6.093   2.312
 2771SOL     OW 9211   4.659   0.298   1.556
 2771SOL    HW1 9212   4.642   0.229   1.627
 2771SOL    HW2 9213   4.616   0.384   1.582
 2772SOL     OW 9214   3.474   0.988   6.950
 2772SOL    HW1 9215   3.476   0.970   0.029
 2772SOL    HW2 9216   3.499   1.083   6.933
 2773SOL     OW 9217   3.194   4.262   1.353
 2773SOL    HW1 9218   3.181   4.216   1.440
 2773SOL    HW2 9219   3.151   4.210   1.279
 2774SOL     OW 9220   4.940   3.191   1.985
 2774SOL    HW1 9221   4.945   3.258   2.060
 2774SOL    HW2 9222   4.851   3.146   1.987
 2775SOL     OW 9223   0.145   6.999   2.428
 2775SOL    HW1 9224   0.123   0.067   2.385
 2775SOL    HW2 9225   0.182   7.015   2.519
 2776SOL     OW 9226   3.039   6.162   0.073
 2776SOL    HW1 9227   2.985   6.191   7.014
 2776SOL    HW2 9228   3.112   6.101   0.042
 2777SOL     OW 9229   1.572   2.430   4.238
 2777SOL    HW1 9230   1.634   2.419   4.316
 2777SOL    HW2 9231   1.584   2.520   4.198
 2778SOL     OW 9232   3.127   2.061   5.207
 2778SOL    HW1 9233   3.128   2.133   5.138
 2778SOL    HW2 9234   3.149   1.973   5.165
 2779SOL     OW 9235   6.205   0.950   0.615
 2779SOL    HW1 9236   6.133   1.010   0.651
 2779SOL    HW2 9237   6.215   0.871   0.674
 2780SOL     OW 9238   3.335   5.862   6.528
 2780SOL    HW1 9239   3.369   5.874   6.622
 2780SOL    HW2 9240   3.372   5.935   6.470
 2781SOL     OW 9241   5.276   3.941   6.481
 2781SOL    HW1 9242   5.360   3.890   6.463
 2781SOL    HW2 9243   5.296   4.039   6.479
 2782SOL     OW 9244   3.681   0.835   5.205
 2782SOL    HW1 9245   3.680   0.768   5.280
 2782SOL    HW2 9246   3.602   0.822   5.146
 2783SOL     OW 9247   0.343   3.978   5.140
 2783SOL    HW1 9248   0.261   3.948   5.189
 2783SOL    HW2 9249   0.363   4.073   5.163
 2784SOL     OW 9250   2.392   1.775   1.878
 2784SOL    HW1 9251   2.393   1.875   1.887
 2784SOL    HW2 9252   2.485   1.740   1.884
 2785SOL     OW 9253   6.300   2.168   2.318
 2785SOL    HW1 9254   6.250   2.161   2.232
 2785SOL    HW2 9255   6.249   2.120   2.390
 2786SOL     OW 9256   3.759   0.137   1.172
 2786SOL    HW1 9257   3.800   0.217   1.217
 2786SOL    HW2 9258   3.688   0.167   1.108
 2787SOL     OW 9259   1.784   4.019   5.813
 2787SOL    HW1 9260   1.813   4.047   5.722
 2787SOL    HW2 9261   1.824   4.081   5.881
 2788SOL     OW 9262   1.234   2.953   0.548
 2788SOL    HW1 9263   1.214   3.047   0.519
 2788SOL    HW2 9264   1.296   2.910   0.483
 2789SOL     OW 9265   0.399   3.279   3.639
 2789SOL    HW1 9266   0.377   3.239   3.550
 2789SOL    HW2 9267   0.349   3.365   3.651
 2790SOL     OW 9268   3.964   6.625   4.375
 2790SOL    HW1 9269   3.968   6.664   4.467
 2790SOL    HW2 9270   4.023   6.544   4.371
 2791SOL     OW 9271   1.552   3.448   2.450
 2791SOL    HW1 9272   1.526   3.375   2.513
 2791SOL    HW2 9273   1.585   3.408   2.365
 2792SOL     OW 9274   0.430   1.737   6.037
 2792SOL    HW1 9275   0.481   1.801   5.980
 2792SOL    HW2 9276   0.491   1.700   6.107
 2793SOL     OW 9277   4.668   0.885   4.154
 2793SOL    HW1 9278   4.665   0.847   4.247
 2793SOL    HW2 9279   4.671   0.810   4.088
 2794SOL     OW 9280   0.741   1.269   2.028
 2794SOL    HW1 9281   0.793   1.288   2.111
 2794SOL    HW2 9282   0.802   1.271   1.949
 2795SOL     OW 9283   0.739   3.817   0.797
 2795SOL    HW1 9284   0.769   3.856   0.884
 2795SOL    HW2 9285   0.640   3.801   0.800
 2796SOL     OW 9286   4.123   4.873   2.009
 2796SOL    HW1 9287   4.098   4.795   1.951
 2796SOL    HW2 9288   4.193   4.845   2.074
 2797SOL     OW 9289   4.878   4.143   5.321
 2797SOL    HW1 9290   4.824   4.158   5.404
 2797SOL    HW2 9291   4.923   4.228   5.295
 2798SOL     OW 9292   1.864   3.690   2.992
 2798SOL    HW1 9293   1.848   3.752   2.915
 2798SOL    HW2 9294   1.962   3.686   3.011
 2799SOL     OW 9295   6.846   5.758   5.912
 2799SOL    HW1 9296   6.869   5.737   6.007
 2799SOL    HW2 9297   6.844   5.857   5.898
 2800SOL     OW 9298   2.587   0.525   6.151
 2800SOL    HW1 9299   2.658   0.499   6.216
 2800SOL    HW2 9300   2.505   0.470   6.166
 2801SOL     OW 9301   3.862   5.223   2.036
 2801SOL    HW1 9302   3.789   5.225   2.104
 2801SOL    HW2 9303   3.881   5.128   2.010
 2802SOL     OW 9304   6.500   0.333   6.326
 2802SOL    HW1 9305   6.426   0.339   6.393
 2802SOL    HW2 9306   6.532   0.425   6.303
 2803SOL     OW 9307   3.032   5.829   4.938
 2803SOL    HW1 9308   3.082   5.763   4.994
 2803SOL    HW2 9309   2.940   5.840   4.975
 2804SOL     OW 9310   0.505   5.289   2.497
 2804SOL    HW1 9311   0.409   5.302   2.473
 2804SOL    HW2 9312   0.559   5.277   2.414
 2805SOL     OW 9313   6.652   4.125   6.538
 2805SOL    HW1 9314   6.734   4.090   6.582
 2805SOL    HW2 9315   6.633   4.071   6.456
 2806SOL     OW 9316   6.307   5.298   2.804
 2806SOL    HW1 9317   6.222   5.333   2.843
 2806SOL    HW2 9318   6.309   5.199   2.811
 2807SOL     OW 9319   3.801   4.947   3.583
 2807SOL    HW1 9320   3.875   4.886   3.558
 2807SOL    HW2 9321   3.802   5.027   3.523
 2808SOL     OW 9322   4.633   6.548   4.601
 2808SOL    HW1 9323   4.697   6.608   4.552
 2808SOL    HW2 9324   4.684   6.483   4.657
 2809SOL     OW 9325   5.562   2.396   0.141
 2809SOL    HW1 9326   5.492   2.361   0.079
 2809SOL    HW2 9327   5.587   2.325   0.207
 2810SOL     OW 9328   2.274   1.245   6.369
 2810SOL    HW1 9329   2.351   1.194   6.331
 2810SOL    HW2 9330   2.277   1.241   6.469
 2811SOL     OW 9331   0.510   0.520   4.047
 2811SOL    HW1 9332   0.539   0.595   4.106
 2811SOL    HW2 9333   0.518   0.548   3.951
 2812SOL     OW 9334   4.684   4.615   2.732
 2812SOL    HW1 9335   4.602   4.639   2.680
 2812SOL    HW2 9336   4.657   4.560   2.812
 2813SOL     OW 9337   6.169   1.680   5.999
 2813SOL    HW1 9338   6.240   1.667   6.067
 2813SOL    HW2 9339   6.204   1.734   5.922
 2814SOL     OW 9340   5.396   4.536   5.138
 2814SOL    HW1 9341   5.436   4.445   5.128
 2814SOL    HW2 9342   5.462   4.604   5.105
 2815SOL     OW 9343   1.400   1.150   4.128
 2815SOL    HW1 9344   1.387   1.067   4.074
 2815SOL    HW2 9345   1.311   1.193   4.144
 2816SOL     OW 9346   4.635   6.326   3.458
 2816SOL    HW1 9347   4.590   6.386   3.391
 2816SOL    HW2 9348   4.650   6.236   3.417
 2817SOL     OW 9349   1.159   1.486   1.320
 2817SOL    HW1 9350   1.062   1.477   1.298
 2817SOL    HW2 9351   1.205   1.400   1.300
 2818SOL     OW 9352   1.541   2.176   6.753
 2818SOL    HW1 9353   1.629   2.156   6.709
 2818SOL    HW2 9354   1.505   2.263   6.720
 2819SOL     OW 9355   6.544   3.292   1.601
 2819SOL    HW1 9356   6.496   3.279   1.688
 2819SOL    HW2 9357   6.622   3.353   1.615
 2820SOL     OW 9358   5.078   3.359   3.982
 2820SOL    HW1 9359   5.167   3.313   3.982
 2820SOL    HW2 9360   5.031   3.338   4.068
 2821SOL     OW 9361   1.358   3.467   2.891
 2821SOL    HW1 9362   1.432   3.503   2.834
 2821SOL    HW2 9363   1.270   3.494   2.853
 2822SOL     OW 9364   3.006   2.604   0.455
 2822SOL    HW1 9365   3.067   2.629   0.531
 2822SOL    HW2 9366   3.044   2.525   0.407
 2823SOL     OW 9367   1.175   0.380   4.258
 2823SOL    HW1 9368   1.076   0.396   4.257
 2823SOL    HW2 9369   1.217   0.429   4.181
 2824SOL     OW 9370   3.586   2.187   6.139
 2824SOL    HW1 9371   3.681   2.157   6.132
 2824SOL    HW2 9372   3.579   2.284   6.116
 2825SOL     OW 9373   5.848   5.698   0.911
 2825SOL    HW1 9374   5.838   5.659   1.003
 2825SOL    HW2 9375   5.901   5.783   0.917
 2826SOL     OW 9376   4.872   3.684   4.447
 2826SOL    HW1 9377   4.933   3.605   4.439
 2826SOL    HW2 9378   4.785   3.664   4.402
 2827SOL     OW 9379   0.113   6.681   5.996
 2827SOL    HW1 9380   0.016   6.707   5.994
 2827SOL    HW2 9381   0.140   6.660   6.089
 2828SOL     OW 9382   3.407   2.086   6.334
 2828SOL    HW1 9383   3.436   2.130   6.249
 2828SOL    HW2 9384   3.307   2.086   6.339
 2829SOL     OW 9385   2.895   1.203   6.898
 2829SOL    HW1 9386   2.836   1.130   6.865
 2829SOL    HW2 9387   2.949   1.239   6.822
 2830SOL     OW 9388   3.155   3.719   6.898
 2830SOL    HW1 9389   3.092   3.745   6.971
 2830SOL    HW2 9390   3.104   3.698   6.815
 2831SOL     OW 9391   6.612   6.632   3.950
 2831SOL    HW1 9392   6.519   6.659   3.927
 2831SOL    HW2 9393   6.633   6.659   4.044
 2832SOL     OW 9394   0.360   0.651   2.287
 2832SOL    HW1 9395   0.367   0.557   2.254
 2832SOL    HW2 9396   0.342   0.651   2.385
 2833SOL     OW 9397   5.975   3.104   2.438
 2833SOL    HW1 9398   6.060   3.143   2.402
 2833SOL    HW2 9399   5.902   3.113   2.370
 2834SOL     OW 9400   4.379   0.942   5.217
 2834SOL    HW1 9401   4.310   0.875   5.244
 2834SOL    HW2 9402   4.358   0.978   5.127
 2835SOL     OW 9403   6.185   6.370   3.320
 2835SOL    HW1 9404   6.187   6.325   3.230
 2835SOL    HW2 9405   6.272   6.357   3.366
 2836SOL     OW 9406   6.384   0.185   1.189
 2836SOL    HW1 9407   6.302   0.154   1.237
 2836SOL    HW2 9408   6.464   0.174   1.248
 2837SOL     OW 9409   5.864   2.718   3.961
 2837SOL    HW1 9410   5.883   2.787   3.891
 2837SOL    HW2 9411   5.793   2.656   3.929
 2838SOL     OW 9412   1.831   4.614   4.408
 2838SOL    HW1 9413   1.804   4.527   4.366
 2838SOL    HW2 9414   1.852   4.599   4.504
 2839SOL     OW 9415   5.037   3.052   0.510
 2839SOL    HW1 9416   4.997   3.001   0.586
 2839SOL    HW2 9417   5.085   2.989   0.449
 2840SOL     OW 9418   6.856   2.666   4.673
 2840SOL    HW1 9419   6.790   2.663   4.748
 2840SOL    HW2 9420   6.949   2.667   4.711
 2841SOL     OW 9421   0.199   6.009   0.105
 2841SOL    HW1 9422   0.119   5.956   0.079
 2841SOL    HW2 9423   0.269   5.949   0.144
 2842SOL     OW 9424   5.993   3.484   2.986
 2842SOL    HW1 9425   6.052   3.565   2.977
 2842SOL    HW2 9426   5.900   3.506   2.957
 2843SOL     OW 9427   4.178   0.838   3.633
 2843SOL    HW1 9428   4.088   0.873   3.659
 2843SOL    HW2 9429   4.191   0.850   3.535
 2844SOL     OW 9430   1.614   4.222   5.312
 2844SOL    HW1 9431   1.593   4.172   5.396
 2844SOL    HW2 9432   1.629   4.157   5.237
 2845SOL     OW 9433   0.574   3.697   6.160
 2845SOL    HW1 9434   0.603   3.660   6.249
 2845SOL    HW2 9435   0.530   3.625   6.107
 2846SOL     OW 9436   5.299   1.242   6.176
 2846SOL    HW1 9437   5.260   1.223   6.266
 2846SOL    HW2 9438   5.358   1.323   6.182
 2847SOL     OW 9439   4.213   4.889   4.347
 2847SOL    HW1 9440   4.166   4.887   4.259
 2847SOL    HW2 9441   4.173   4.822   4.408
 2848SOL     OW 9442   2.407   6.945   5.481
 2848SOL    HW1 9443   2.315   6.923   5.449
 2848SOL    HW2 9444   2.421   0.024   5.478
 2849SOL     OW 9445   2.004   2.801   1.457
 2849SOL    HW1 9446   2.040   2.874   1.400
 2849SOL    HW2 9447   2.072   2.727   1.464
 2850SOL     OW 9448   4.158   1.414   1.066
 2850SOL    HW1 9449   4.125   1.507   1.077
 2850SOL    HW2 9450   4.141   1.383   0.972
 2851SOL     OW 9451   2.888   5.707   5.740
 2851SOL    HW1 9452   2.833   5.790   5.728
 2851SOL    HW2 9453   2.954   5.700   5.665
 2852SOL     OW 9454   0.289   2.266   6.312
 2852SOL    HW1 9455   0.347   2.333   6.359
 2852SOL    HW2 9456   0.277   2.186   6.371
 2853SOL     OW 9457   3.791   2.838   1.530
 2853SOL    HW1 9458   3.715   2.793   1.484
 2853SOL    HW2 9459   3.844   2.889   1.463
 2854SOL     OW 9460   0.582   0.826   3.523
 2854SOL    HW1 9461   0.517   0.898   3.502
 2854SOL    HW2 9462   0.561   0.786   3.612
 2855SOL     OW 9463   3.338   1.659   4.188
 2855SOL    HW1 9464   3.401   1.677   4.264
 2855SOL    HW2 9465   3.263   1.724   4.190
 2856SOL     OW 9466   3.421   1.362   5.686
 2856SOL    HW1 9467   3.442   1.457   5.705
 2856SOL    HW2 9468   3.429   1.308   5.770
 2857SOL     OW 9469   3.942   3.080   3.978
 2857SOL    HW1 9470   3.905   3.150   4.038
 2857SOL    HW2 9471   3.987   3.009   4.032
 2858SOL     OW 9472   5.255   2.689   2.823
 2858SOL    HW1 9473   5.174   2.739   2.790
 2858SOL    HW2 9474   5.253   2.596   2.789
 2859SOL     OW 9475   5.323   5.753   6.785
 2859SOL    HW1 9476   5.405   5.805   6.807
 2859SOL    HW2 9477   5.294   5.701   6.864
 2860SOL     OW 9478   4.486   2.467   0.993
 2860SOL    HW1 9479   4.431   2.430   1.068
 2860SOL    HW2 9480   4.580   2.436   1.003
 2861SOL     OW 9481   4.457   4.549   6.124
 2861SOL    HW1 9482   4.382   4.526   6.185
 2861SOL    HW2 9483   4.421   4.594   6.043
 2862SOL     OW 9484   6.469   0.038   3.481
 2862SOL    HW1 9485   6.456   6.960   3.497
 2862SOL    HW2 9486   6.561   0.054   3.444
 2863SOL     OW 9487   6.170   0.297   6.990
 2863SOL    HW1 9488   6.131   0.274   6.901
 2863SOL    HW2 9489   6.226   0.221   0.003
 2864SOL     OW 9490   3.932   2.366   0.912
 2864SOL    HW1 9491   3.902   2.270   0.910
 2864SOL    HW2 9492   3.852   2.426   0.904
 2865SOL     OW 9493   4.897   5.091   5.140
 2865SOL    HW1 9494   4.815   5.096   5.082
 2865SOL    HW2 9495   4.978   5.104   5.084
 2866SOL     OW 9496   0.459   6.994   6.609
 2866SOL    HW1 9497   0.422   0.018   6.528
 2866SOL    HW2 9498   0.395   6.926   6.644
 2867SOL     OW 9499   6.371   3.956   4.390
 2867SOL    HW1 9500   6.391   3.871   4.341
 2867SOL    HW2 9501   6.291   4.001   4.348
 2868SOL     OW 9502   1.583   4.676   5.028
 2868SOL    HW1 9503   1.629   4.589   5.012
 2868SOL    HW2 9504   1.493   4.675   4.984
 2869SOL     OW 9505   5.866   1.395   2.165
 2869SOL    HW1 9506   5.887   1.425   2.072
 2869SOL    HW2 9507   5.922   1.316   2.188
 2870SOL     OW 9508   4.291   2.126   2.067
 2870SOL    HW1 9509   4.385   2.107   2.094
 2870SOL    HW2 9510   4.289   2.160   1.973
 2871SOL     OW 9511   1.423   1.696   5.876
 2871SOL    HW1 9512   1.375   1.719   5.791
 2871SOL    HW2 9513   1.400   1.763   5.946
 2872SOL     OW 9514   1.643   0.300   3.724
 2872SOL    HW1 9515   1.582   0.271   3.797
 2872SOL    HW2 9516   1.656   0.399   3.728
 2873SOL     OW 9517   6.353   5.630   2.206
 2873SOL    HW1 9518   6.276   5.611   2.145
 2873SOL    HW2 9519   6.432   5.576   2.178
 2874SOL     OW 9520   4.908   2.235   1.947
 2874SOL    HW1 9521   4.944   2.327   1.966
 2874SOL    HW2 9522   4.899   2.185   2.033
 2875SOL     OW 9523   3.209   4.860   0.856
 2875SOL    HW1 9524   3.126   4.805   0.873
 2875SOL    HW2 9525   3.268   4.812   0.792
 2876SOL     OW 9526   5.706   2.409   1.987
 2876SOL    HW1 9527   5.729   2.348   2.063
 2876SOL    HW2 9528   5.757   2.382   1.905
 2877SOL     OW 9529   1.472   3.599   5.445
 2877SOL    HW1 9530   1.474   3.697   5.468
 2877SOL    HW2 9531   1.445   3.547   5.526
 2878SOL     OW 9532   4.347   4.861   0.399
 2878SOL    HW1 9533   4.286   4.792   0.359
 2878SOL    HW2 9534   4.399   4.905   0.326
 2879SOL     OW 9535   5.073   4.168   6.690
 2879SOL    HW1 9536   5.127   4.230   6.633
 2879SOL    HW2 9537   5.042   4.217   6.772
 2880SOL     OW 9538   1.957   6.493   3.150
 2880SOL    HW1 9539   1.903   6.414   3.177
 2880SOL    HW2 9540   2.048   6.463   3.119
 2881SOL     OW 9541   0.041   0.339   0.056
 2881SOL    HW1 9542   0.103   0.299   0.124
 2881SOL    HW2 9543   0.052   0.292   6.988
 2882SOL     OW 9544   6.822   3.647   3.409
 2882SOL    HW1 9545   6.911   3.604   3.422
 2882SOL    HW2 9546   6.828   3.745   3.429
 2883SOL     OW 9547   3.651   6.622   2.079
 2883SOL    HW1 9548   3.710   6.703   2.085
 2883SOL    HW2 9549   3.570   6.644   2.025
 2884SOL     OW 9550   2.006   4.903   3.031
 2884SOL    HW1 9551   2.082   4.958   3.067
 2884SOL    HW2 9552   1.929   4.963   3.010
 2885SOL     OW 9553   1.131   2.107   4.668
 2885SOL    HW1 9554   1.131   2.088   4.570
 2885SOL    HW2 9555   1.222   2.137   4.696
 2886SOL     OW 9556   2.550   2.581   6.277
 2886SOL    HW1 9557   2.569   2.503   6.217
 2886SOL    HW2 9558   2.612   2.656   6.256
 2887SOL     OW 9559   2.817   1.415   5.267
 2887SOL    HW1 9560   2.873   1.369   5.336
 2887SOL    HW2 9561   2.876   1.453   5.196
 2888SOL     OW 9562   0.046   5.618   6.764
 2888SOL    HW1 9563   0.024   5.563   6.845
 2888SOL    HW2 9564   0.108   5.566   6.705
 2889SOL     OW 9565   1.147   0.768   0.815
 2889SOL    HW1 9566   1.234   0.760   0.768
 2889SOL    HW2 9567   1.157   0.826   0.896
 2890SOL     OW 9568   2.319   0.546   0.746
 2890SOL    HW1 9569   2.252   0.577   0.813
 2890SOL    HW2 9570   2.366   0.626   0.708
 2891SOL     OW 9571   2.934   4.857   5.071
 2891SOL    HW1 9572   2.896   4.766   5.090
 2891SOL    HW2 9573   3.004   4.879   5.138
 2892SOL     OW 9574   4.150   3.928   5.255
 2892SOL    HW1 9575   4.094   3.996   5.206
 2892SOL    HW2 9576   4.204   3.975   5.325
 2893SOL     OW 9577   3.329   0.703   4.843
 2893SOL    HW1 9578   3.354   0.781   4.785
 2893SOL    HW2 9579   3.241   0.720   4.885
 2894SOL     OW 9580   4.190   3.204   1.858
 2894SOL    HW1 9581   4.186   3.302   1.838
 2894SOL    HW2 9582   4.265   3.163   1.807
 2895SOL     OW 9583   3.667   2.912   0.349
 2895SOL    HW1 9584   3.644   3.007   0.371
 2895SOL    HW2 9585   3.607   2.850   0.401
 2896SOL     OW 9586   1.292   4.354   0.404
 2896SOL    HW1 9587   1.269   4.375   0.499
 2896SOL    HW2 9588   1.363   4.283   0.402
 2897SOL     OW 9589   0.447   6.878   3.332
 2897SOL    HW1 9590   0.486   6.916   3.248
 2897SOL    HW2 9591   0.459   6.778   3.333
 2898SOL     OW 9592   1.648   5.100   2.704
 2898SOL    HW1 9593   1.597   5.185   2.719
 2898SOL    HW2 9594   1.584   5.026   2.685
 2899SOL     OW 9595   5.548   0.621   1.016
 2899SOL    HW1 9596   5.615   0.588   1.081
 2899SOL    HW2 9597   5.592   0.636   0.927
 2900SOL     OW 9598   2.870   5.380   6.493
 2900SOL    HW1 9599   2.916   5.462   6.458
 2900SOL    HW2 9600   2.897   5.301   6.439
 2901SOL     OW 9601   3.064   6.659   1.367
 2901SOL    HW1 9602   3.144   6.702   1.408
 2901SOL    HW2 9603   3.066   6.674   1.268
 2902SOL     OW 9604   4.879   5.327   1.072
 2902SOL    HW1 9605   4.854   5.282   1.157
 2902SOL    HW2 9606   4.819   5.405   1.056
 2903SOL     OW 9607   3.043   2.582   1.703
 2903SOL    HW1 9608   3.004   2.530   1.779
 2903SOL    HW2 9609   3.142   2.570   1.702
 2904SOL     OW 9610   2.898   1.883   4.443
 2904SOL    HW1 9611   2.992   1.862   4.470
 2904SOL    HW2 9612   2.893   1.979   4.413
 2905SOL     OW 9613   0.783   2.059   1.922
 2905SOL    HW1 9614   0.723   2.091   1.849
 2905SOL    HW2 9615   0.734   2.058   2.009
 2906SOL     OW 9616   5.224   5.130   2.288
 2906SOL    HW1 9617   5.165   5.095   2.216
 2906SOL    HW2 9618   5.198   5.224   2.311
 2907SOL     OW 9619   5.696   0.560   5.008
 2907SOL    HW1 9620   5.737   0.478   5.048
 2907SOL    HW2 9621   5.690   0.549   4.909
 2908SOL     OW 9622   3.930   5.973   4.796
 2908SOL    HW1 9623   4.016   5.928   4.819
 2908SOL    HW2 9624   3.917   5.974   4.697
 2909SOL     OW 9625   2.311   6.370   5.639
 2909SOL    HW1 9626   2.234   6.426   5.609
 2909SOL    HW2 9627   2.380   6.368   5.567
 2910SOL     OW 9628   4.164   5.621   5.319
 2910SOL    HW1 9629   4.075   5.593   5.357
 2910SOL    HW2 9630   4.212   5.678   5.386
 2911SOL     OW 9631   2.416   4.386   3.296
 2911SOL    HW1 9632   2.453   4.406   3.205
 2911SOL    HW2 9633   2.358   4.305   3.292
 2912SOL     OW 9634   2.854   4.969   1.642
 2912SOL    HW1 9635   2.928   4.975   1.709
 2912SOL    HW2 9636   2.858   4.881   1.595
 2913SOL     OW 9637   0.660   2.887   1.673
 2913SOL    HW1 9638   0.591   2.831   1.627
 2913SOL    HW2 9639   0.751   2.852   1.651
 2914SOL     OW 9640   5.039   4.597   5.954
 2914SOL    HW1 9641   5.135   4.590   5.927
 2914SOL    HW2 9642   5.032   4.589   6.054
 2915SOL     OW 9643   4.811   1.659   3.045
 2915SOL    HW1 9644   4.767   1.675   3.133
 2915SOL    HW2 9645   4.742   1.651   2.973
 2916SOL     OW 9646   4.894   0.072   4.551
 2916SOL    HW1 9647   4.958   0.021   4.608
 2916SOL    HW2 9648   4.802   0.033   4.562
 2917SOL     OW 9649   4.019   0.289   2.093
 2917SOL    HW1 9650   4.024   0.368   2.031
 2917SOL    HW2 9651   4.100   0.232   2.081
 2918SOL     OW 9652   1.156   2.952   4.676
 2918SOL    HW1 9653   1.186   2.862   4.705
 2918SOL    HW2 9654   1.060   2.949   4.646
 2919SOL     OW 9655   5.571   5.552   0.071
 2919SOL    HW1 9656   5.537   5.494   0.146
 2919SOL    HW2 9657   5.656   5.596   0.099
 2920SOL     OW 9658   4.640   1.631   2.817
 2920SOL    HW1 9659   4.572   1.626   2.744
 2920SOL    HW2 9660   4.702   1.553   2.809
 2921SOL     OW 9661   6.485   1.640   0.601
 2921SOL    HW1 9662   6.401   1.621   0.551
 2921SOL    HW2 9663   6.519   1.554   0.641
 2922SOL     OW 9664   4.361   6.829   4.496
 2922SOL    HW1 9665   4.435   6.888   4.463
 2922SOL    HW2 9666   4.279   6.846   4.443
 2923SOL     OW 9667   0.435   4.553   6.792
 2923SOL    HW1 9668   0.505   4.527   6.725
 2923SOL    HW2 9669   0.360   4.599   6.746
 2924SOL     OW 9670   6.589   0.029   6.243
 2924SOL    HW1 9671   6.539   0.087   6.178
 2924SOL    HW2 9672   6.665   0.082   6.282
 2925SOL     OW 9673   6.181   4.524   0.083
 2925SOL    HW1 9674   6.154   4.428   0.092
 2925SOL    HW2 9675   6.258   4.531   0.019
 2926SOL     OW 9676   7.005   1.245   2.790
 2926SOL    HW1 9677   6.981   1.172   2.726
 2926SOL    HW2 9678   6.921   1.293   2.819
 2927SOL     OW 9679   0.232   3.297   2.691
 2927SOL    HW1 9680   0.174   3.245   2.628
 2927SOL    HW2 9681   0.268   3.237   2.761
 2928SOL     OW 9682   5.622   6.035   0.680
 2928SOL    HW1 9683   5.694   6.052   0.613
 2928SOL    HW2 9684   5.592   5.940   0.674
 2929SOL     OW 9685   0.772   0.206   5.144
 2929SOL    HW1 9686   0.690   0.233   5.094
 2929SOL    HW2 9687   0.771   0.248   5.235
 2930SOL     OW 9688   2.754   0.382   3.847
 2930SOL    HW1 9689   2.680   0.387   3.915
 2930SOL    HW2 9690   2.841   0.400   3.892
 2931SOL     OW 9691   4.595   4.817   6.422
 2931SOL    HW1 9692   4.600   4.904   6.472
 2931SOL    HW2 9693   4.602   4.741   6.487
 2932SOL     OW 9694   1.022   4.701   1.594
 2932SOL    HW1 9695   1.069   4.751   1.667
 2932SOL    HW2 9696   0.972   4.624   1.633
 2933SOL     OW 9697   4.850   2.237   3.496
 2933SOL    HW1 9698   4.760   2.260   3.458
 2933SOL    HW2 9699   4.843   2.152   3.547
 2934SOL     OW 9700   2.191   1.326   1.031
 2934SOL    HW1 9701   2.103   1.327   0.983
 2934SOL    HW2 9702   2.175   1.324   1.129
 2935SOL     OW 9703   6.942   1.230   1.194
 2935SOL    HW1 9704   6.871   1.284   1.148
 2935SOL    HW2 9705   6.900   1.174   1.266
 2936SOL     OW 9706   3.661   5.269   0.941
 2936SOL    HW1 9707   3.748   5.308   0.912
 2936SOL    HW2 9708   3.671   5.171   0.957
 2937SOL     OW 9709   2.651   4.506   0.044
 2937SOL    HW1 9710   2.606   4.578   7.011
 2937SOL    HW2 9711   2.587   4.431   0.059
 2938SOL     OW 9712   4.536   4.403   6.771
 2938SOL    HW1 9713   4.533   4.304   6.757
 2938SOL    HW2 9714   4.591   4.445   6.700
 2939SOL     OW 9715   6.954   6.471   5.597
 2939SOL    HW1 9716   7.019   6.544   5.578
 2939SOL    HW2 9717   6.992   6.410   5.667
 2940SOL     OW 9718   3.761   6.712   5.428
 2940SOL    HW1 9719   3.725   6.801   5.456
 2940SOL    HW2 9720   3.838   6.724   5.366
 2941SOL     OW 9721   3.981   1.640   5.157
 2941SOL    HW1 9722   3.889   1.676   5.138
 2941SOL    HW2 9723   3.977   1.580   5.237
 2942SOL     OW 9724   3.417   6.398   4.239
 2942SOL    HW1 9725   3.503   6.449   4.237
 2942SOL    HW2 9726   3.397   6.369   4.332
 2943SOL     OW 9727   5.711   4.802   2.734
 2943SOL    HW1 9728   5.723   4.703   2.742
 2943SOL    HW2 9729   5.801   4.846   2.739
 2944SOL     OW 9730   5.032   5.862   0.446
 2944SOL    HW1 9731   4.975   5.902   0.375
 2944SOL    HW2 9732   5.088   5.934   0.488
 2945SOL     OW 9733   2.896   3.369   4.514
 2945SOL    HW1 9734   2.936   3.354   4.605
 2945SOL    HW2 9735   2.813   3.314   4.505
 2946SOL     OW 9736   1.084   6.226   5.402
 2946SOL    HW1 9737   1.137   6.142   5.410
 2946SOL    HW2 9738   0.988   6.203   5.385
 2947SOL     OW 9739   6.986   5.361   6.881
 2947SOL    HW1 9740   6.907   5.321   6.928
 2947SOL    HW2 9741   0.048   5.308   6.901
 2948SOL     OW 9742   6.355   3.355   5.593
 2948SOL    HW1 9743   6.447   3.380   5.623
 2948SOL    HW2 9744   6.357   3.323   5.498
 2949SOL     OW 9745   0.587   6.787   0.283
 2949SOL    HW1 9746   0.680   6.766   0.253
 2949SOL    HW2 9747   0.542   6.844   0.214
 2950SOL     OW 9748   5.237   3.569   5.054
 2950SOL    HW1 9749   5.304   3.494   5.055
 2950SOL    HW2 9750   5.145   3.532   5.066
 2951SOL     OW 9751   5.826   0.593   0.196
 2951SOL    HW1 9752   5.784   0.626   0.112
 2951SOL    HW2 9753   5.913   0.640   0.211
 2952SOL     OW 9754   0.801   3.278   1.936
 2952SOL    HW1 9755   0.849   3.192   1.916
 2952SOL    HW2 9756   0.767   3.276   2.030
 2953SOL     OW 9757   5.811   1.854   2.201
 2953SOL    HW1 9758   5.883   1.787   2.218
 2953SOL    HW2 9759   5.758   1.827   2.120
 2954SOL     OW 9760   5.055   5.923   2.070
 2954SOL    HW1 9761   5.101   5.848   2.023
 2954SOL    HW2 9762   4.956   5.914   2.059
 2955SOL     OW 9763   6.062   1.930   1.081
 2955SOL    HW1 9764   6.016   1.869   1.016
 2955SOL    HW2 9765   6.141   1.883   1.120
 2956SOL     OW 9766   5.704   6.072   3.853
 2956SOL    HW1 9767   5.656   6.009   3.914
 2956SOL    HW2 9768   5.727   6.026   3.768
 2957SOL     OW 9769   1.510   4.754   1.577
 2957SOL    HW1 9770   1.416   4.755   1.541
 2957SOL    HW2 9771   1.547   4.662   1.569
 2958SOL     OW 9772   2.841   4.861   6.468
 2958SOL    HW1 9773   2.891   4.776   6.487
 2958SOL    HW2 9774   2.748   4.854   6.505
 2959SOL     OW 9775   3.564   4.860   0.303
 2959SOL    HW1 9776   3.533   4.952   0.328
 2959SOL    HW2 9777   3.648   4.867   0.249
 2960SOL     OW 9778   2.957   1.686   0.548
 2960SOL    HW1 9779   2.973   1.645   0.459
 2960SOL    HW2 9780   2.889   1.631   0.598
 2961SOL     OW 9781   5.528   1.328   4.236
 2961SOL    HW1 9782   5.605   1.381   4.202
 2961SOL    HW2 9783   5.552   1.285   4.323
 2962SOL     OW 9784   4.962   0.110   2.784
 2962SOL    HW1 9785   4.998   0.202   2.794
 2962SOL    HW2 9786   5.036   0.048   2.759
 2963SOL     OW 9787   2.166   3.178   5.015
 2963SOL    HW1 9788   2.145   3.251   5.080
 2963SOL    HW2 9789   2.250   3.131   5.044
 2964SOL     OW 9790   3.089   6.038   0.511
 2964SOL    HW1 9791   3.131   6.129   0.519
 2964SOL    HW2 9792   3.004   6.036   0.564
 2965SOL     OW 9793   0.539   3.104   6.359
 2965SOL    HW1 9794   0.568   3.200   6.359
 2965SOL    HW2 9795   0.488   3.085   6.443
 2966SOL     OW 9796   4.584   4.891   3.578
 2966SOL    HW1 9797   4.544   4.975   3.541
 2966SOL    HW2 9798   4.539   4.812   3.536
 2967SOL     OW 9799   5.950   2.523   4.124
 2967SOL    HW1 9800   5.931   2.597   4.060
 2967SOL    HW2 9801   6.005   2.559   4.200
 2968SOL     OW 9802   6.618   4.164   3.485
 2968SOL    HW1 9803   6.712   4.180   3.514
 2968SOL    HW2 9804   6.608   4.069   3.456
 2969SOL     OW 9805   3.682   1.629   4.836
 2969SOL    HW1 9806   3.675   1.658   4.741
 2969SOL    HW2 9807   3.716   1.706   4.891
 2970SOL     OW 9808   1.254   4.284   5.902
 2970SOL    HW1 9809   1.248   4.305   6.000
 2970SOL    HW2 9810   1.335   4.328   5.864
 2971SOL     OW 9811   5.757   3.620   2.072
 2971SOL    HW1 9812   5.698   3.557   2.020
 2971SOL    HW2 9813   5.841   3.573   2.099
 2972SOL     OW 9814   0.584   4.170   4.528
 2972SOL    HW1 9815   0.553   4.094   4.472
 2972SOL    HW2 9816   0.676   4.151   4.563
 2973SOL     OW 9817   6.151   0.215   3.769
 2973SOL    HW1 9818   6.071   0.271   3.747
 2973SOL    HW2 9819   6.168   0.218   3.867
 2974SOL     OW 9820   6.743   4.182   0.876
 2974SOL    HW1 9821   6.701   4.238   0.947
 2974SOL    HW2 9822   6.672   4.127   0.831
 2975SOL     OW 9823   6.290   1.535   3.944
 2975SOL    HW1 9824   6.306   1.488   3.858
 2975SOL    HW2 9825   6.353   1.613   3.952
 2976SOL     OW 9826   2.347   5.955   1.368
 2976SOL    HW1 9827   2.274   5.941   1.435
 2976SOL    HW2 9828   2.356   6.052   1.349
 2977SOL     OW 9829   3.082   6.890   3.740
 2977SOL    HW1 9830   3.086   6.911   3.837
 2977SOL    HW2 9831   3.167   6.919   3.696
 2978SOL     OW 9832   2.127   0.080   6.377
 2978SOL    HW1 9833   2.060   0.030   6.432
 2978SOL    HW2 9834   2.216   0.078   6.422
 2979SOL     OW 9835   3.012   1.334   3.113
 2979SOL    HW1 9836   2.948   1.410   3.121
 2979SOL    HW2 9837   3.009   1.279   3.197
 2980SOL     OW 9838   6.145   6.960   3.129
 2980SOL    HW1 9839   6.079   6.994   3.062
 2980SOL    HW2 9840   6.098   6.901   3.195
 2981SOL     OW 9841   1.776   1.841   6.101
 2981SOL    HW1 9842   1.817   1.922   6.142
 2981SOL    HW2 9843   1.751   1.861   6.006
 2982SOL     OW 9844   4.790   5.702   1.740
 2982SOL    HW1 9845   4.753   5.614   1.771
 2982SOL    HW2 9846   4.785   5.706   1.640
 2983SOL     OW 9847   0.254   1.182   2.544
 2983SOL    HW1 9848   0.329   1.208   2.482
 2983SOL    HW2 9849   0.290   1.167   2.636
 2984SOL     OW 9850   5.835   4.904   1.445
 2984SOL    HW1 9851   5.869   4.998   1.449
 2984SOL    HW2 9852   5.797   4.878   1.534
 2985SOL     OW 9853   6.317   2.472   3.218
 2985SOL    HW1 9854   6.296   2.504   3.311
 2985SOL    HW2 9855   6.231   2.456   3.169
 2986SOL     OW 9856   1.673   3.425   5.083
 2986SOL    HW1 9857   1.664   3.523   5.068
 2986SOL    HW2 9858   1.627   3.399   5.168
 2987SOL     OW 9859   5.154   1.813   5.005
 2987SOL    HW1 9860   5.203   1.748   5.063
 2987SOL    HW2 9861   5.217   1.885   4.976
 2988SOL     OW 9862   1.109   0.130   2.870
 2988SOL    HW1 9863   1.175   0.182   2.924
 2988SOL    HW2 9864   1.155   0.089   2.791
 2989SOL     OW 9865   6.554   5.325   0.727
 2989SOL    HW1 9866   6.575   5.350   0.632
 2989SOL    HW2 9867   6.492   5.393   0.766
 2990SOL     OW 9868   2.821   1.495   1.518
 2990SOL    HW1 9869   2.772   1.499   1.431
 2990SOL    HW2 9870   2.817   1.402   1.554
 2991SOL     OW 9871   6.699   4.434   6.771
 2991SOL    HW1 9872   6.637   4.359   6.793
 2991SOL    HW2 9873   6.680   4.468   6.679
 2992SOL     OW 9874   4.517   4.138   6.650
 2992SOL    HW1 9875   4.439   4.084   6.680
 2992SOL    HW2 9876   4.589   4.078   6.618
 2993SOL     OW 9877   1.260   4.466   7.005
 2993SOL    HW1 9878   1.308   4.551   6.983
 2993SOL    HW2 9879   1.188   4.485   0.053
 2994SOL     OW 9880   4.461   6.292   0.011
 2994SOL    HW1 9881   4.559   6.298   0.030
 2994SOL    HW2 9882   4.436   6.362   6.963
 2995SOL     OW 9883   2.630   0.865   5.766
 2995SOL    HW1 9884   2.548   0.914   5.797
 2995SOL    HW2 9885   2.627   0.771   5.800
 2996SOL     OW 9886   4.590   6.856   5.916
 2996SOL    HW1 9887   4.592   6.775   5.975
 2996SOL    HW2 9888   4.544   6.834   5.830
 2997SOL     OW 9889   4.032   5.710   0.456
 2997SOL    HW1 9890   4.086   5.733   0.537
 2997SOL    HW2 9891   4.028   5.790   0.395
 2998SOL     OW 9892   6.361   4.081   5.956
 2998SOL    HW1 9893   6.445   4.074   6.009
 2998SOL    HW2 9894   6.328   4.175   5.957
 2999SOL     OW 9895   2.310   1.343   1.776
 2999SOL    HW1 9896   2.409   1.354   1.792
 2999SOL    HW2 9897   2.261   1.361   1.861
 3000SOL     OW 9898   1.545   2.021   4.607
 3000SOL    HW1 9899   1.617   2.047   4.543
 3000SOL    HW2 9900   1.586   1.990   4.693
 3001SOL     OW 9901   4.918   6.094   5.757
 3001SOL    HW1 9902   4.912   6.023   5.686
 3001SOL    HW2 9903   4.889   6.181   5.719
 3002SOL     OW 9904   3.171   0.297   4.762
 3002SOL    HW1 9905   3.127   0.365   4.704
 3002SOL    HW2 9906   3.262   0.329   4.789
 3003SOL     OW 9907   1.384   0.133   5.611
 3003SOL    HW1 9908   1.439   0.051   5.597
 3003SOL    HW2 9909   1.373   0.180   5.523
 3004SOL     OW 9910   6.957   2.684   5.896
 3004SOL    HW1 9911   6.986   2.591   5.875
 3004SOL    HW2 9912   7.003   2.748   5.835
 3005SOL     OW 9913   5.030   2.098   0.564
 3005SOL    HW1 9914   5.010   2.165   0.635
 3005SOL    HW2 9915   4.955   2.032   0.558
 3006SOL     OW 9916   4.570   6.781   1.879
 3006SOL    HW1 9917   4.494   6.841   1.904
 3006SOL    HW2 9918   4.577   6.707   1.946
 3007SOL     OW 9919   5.923   5.438   1.820
 3007SOL    HW1 9920   5.987   5.363   1.837
 3007SOL    HW2 9921   5.829   5.404   1.824
 3008SOL     OW 9922   4.372   5.287   5.636
 3008SOL    HW1 9923   4.295   5.262   5.695
 3008SOL    HW2 9924   4.346   5.363   5.577
 3009SOL     OW 9925   1.194   0.539   2.710
 3009SOL    HW1 9926   1.175   0.455   2.660
 3009SOL    HW2 9927   1.177   0.618   2.651
 3010SOL     OW 9928   3.135   0.257   3.241
 3010SOL    HW1 9929   3.182   0.222   3.323
 3010SOL    HW2 9930   3.056   0.198   3.222
 3011SOL     OW 9931   5.322   0.272   0.602
 3011SOL    HW1 9932   5.414   0.296   0.632
 3011SOL    HW2 9933   5.311   0.172   0.604
 3012SOL     OW 9934   0.126   5.560   1.248
 3012SOL    HW1 9935   0.040   5.521   1.213
 3012SOL    HW2 9936   0.200   5.493   1.236
 3013SOL     OW 9937   5.696   4.797   1.642
 3013SOL    HW1 9938   5.762   4.744   1.695
 3013SOL    HW2 9939   5.619   4.823   1.701
 3014SOL     OW 9940   5.057   6.204   5.481
 3014SOL    HW1 9941   5.130   6.136   5.467
 3014SOL    HW2 9942   5.085   6.268   5.553
 3015SOL     OW 9943   2.660   1.170   0.101
 3015SOL    HW1 9944   2.731   1.171   0.030
 3015SOL    HW2 9945   2.694   1.216   0.183
 3016SOL     OW 9946   4.014   6.088   3.764
 3016SOL    HW1 9947   3.919   6.087   3.735
 3016SOL    HW2 9948   4.027   6.159   3.834
 3017SOL     OW 9949   0.654   6.025   1.543
 3017SOL    HW1 9950   0.593   5.947   1.529
 3017SOL    HW2 9951   0.738   5.995   1.588
 3018SOL     OW 9952   4.502   0.086   5.946
 3018SOL    HW1 9953   4.532   7.012   5.933
 3018SOL    HW2 9954   4.442   0.113   5.870
 3019SOL     OW 9955   4.731   0.603   1.464
 3019SOL    HW1 9956   4.713   0.575   1.370
 3019SOL    HW2 9957   4.670   0.553   1.526
 3020SOL     OW 9958   1.897   0.735   1.846
 3020SOL    HW1 9959   1.846   0.782   1.775
 3020SOL    HW2 9960   1.953   0.801   1.897
 3021SOL     OW 9961   4.119   0.759   6.638
 3021SOL    HW1 9962   4.136   0.760   6.539
 3021SOL    HW2 9963   4.099   0.666   6.668
 3022SOL     OW 9964   0.303   0.755   3.085
 3022SOL    HW1 9965   0.271   0.660   3.087
 3022SOL    HW2 9966   0.258   0.807   3.158
 3023SOL     OW 9967   5.594   0.307   1.651
 3023SOL    HW1 9968   5.645   0.391   1.674
 3023SOL    HW2 9969   5.574   0.306   1.553
 3024SOL     OW 9970   2.028   6.897   6.533
 3024SOL    HW1 9971   2.021   6.831   6.608
 3024SOL    HW2 9972   2.032   6.849   6.446
 3025SOL     OW 9973   1.785   2.191   1.726
 3025SOL    HW1 9974   1.810   2.263   1.791
 3025SOL    HW2 9975   1.867   2.142   1.697
 3026SOL     OW 9976   2.881   5.766   0.562
 3026SOL    HW1 9977   2.850   5.840   0.622
 3026SOL    HW2 9978   2.902   5.685   0.618
 3027SOL     OW 9979   1.439   1.935   3.736
 3027SOL    HW1 9980   1.339   1.939   3.724
 3027SOL    HW2 9981   1.470   1.841   3.724
 3028SOL     OW 9982   1.158   0.344   4.538
 3028SOL    HW1 9983   1.174   0.429   4.588
 3028SOL    HW2 9984   1.178   0.358   4.441
 3029SOL     OW 9985   6.182   5.014   5.874
 3029SOL    HW1 9986   6.230   5.047   5.793
 3029SOL    HW2 9987   6.117   4.943   5.849
 3030SOL     OW 9988   1.197   0.486   5.469
 3030SOL    HW1 9989   1.163   0.482   5.563
 3030SOL    HW2 9990   1.194   0.581   5.437
 3031SOL     OW 9991   0.108   5.792   6.334
 3031SOL    HW1 9992   0.186   5.758   6.386
 3031SOL    HW2 9993   0.029   5.732   6.348
 3032SOL     OW 9994   3.674   6.651   5.694
 3032SOL    HW1 9995   3.628   6.562   5.694
 3032SOL    HW2 9996   3.651   6.700   5.611
 3033SOL     OW 9997   4.869   4.804   5.890
 3033SOL    HW1 9998   4.848   4.855   5.973
 3033SOL    HW2 9999   4.923   4.723   5.913
 3034SOL     OW10000   2.805   6.756   4.485
 3034SOL    HW110001   2.745   6.676   4.487
 3034SOL    HW210002   2.869   6.748   4.408
 3035SOL     OW10003   6.167   0.023   0.056
 3035SOL    HW110004   6.093   0.013   0.122
 3035SOL    HW210005   6.158   6.974   7.004
 3036SOL     OW10006   0.527   5.072   5.605
 3036SOL    HW110007   0.482   5.053   5.692
 3036SOL    HW210008   0.538   5.170   5.593
 3037SOL     OW10009   5.228   6.573   6.341
 3037SOL    HW110010   5.326   6.562   6.352
 3037SOL    HW210011   5.206   6.671   6.333
 3038SOL     OW10012   6.102   5.814   5.771
 3038SOL    HW110013   6.049   5.827   5.855
 3038SOL    HW210014   6.107   5.717   5.749
 3039SOL     OW10015   0.517   5.378   0.640
 3039SOL    HW110016   0.615   5.362   0.623
 3039SOL    HW210017   0.466   5.359   0.556
 3040SOL     OW10018   2.859   0.939   0.222
 3040SOL    HW110019   2.957   0.930   0.209
 3040SOL    HW210020   2.811   0.907   0.140
 3041SOL     OW10021   1.621   2.279   6.317
 3041SOL    HW110022   1.671   2.193   6.321
 3041SOL    HW210023   1.641   2.325   6.230
 3042SOL     OW10024   5.972   0.354   0.981
 3042SOL    HW110025   5.970   0.454   0.987
 3042SOL    HW210026   6.014   0.327   0.894
 3043SOL     OW10027   0.321   5.392   6.580
 3043SOL    HW110028   0.251   5.328   6.549
 3043SOL    HW210029   0.314   5.404   6.679
 3044SOL     OW10030   2.491   3.268   6.561
 3044SOL    HW110031   2.518   3.172   6.557
 3044SOL    HW210032   2.459   3.297   6.471
 3045SOL     OW10033   4.779   2.654   4.808
 3045SOL    HW110034   4.762   2.627   4.713
 3045SOL    HW210035   4.729   2.593   4.869
 3046SOL     OW10036   2.045   2.321   6.174
 3046SOL    HW110037   2.143   2.310   6.160
 3046SOL    HW210038   2.029   2.380   6.253
 3047SOL     OW10039   6.994   5.201   1.844
 3047SOL    HW110040   0.039   5.128   1.822
 3047SOL    HW210041   6.909   5.161   1.880
 3048SOL     OW10042   3.376   2.955   1.876
 3048SOL    HW110043   3.461   2.967   1.825
 3048SOL    HW210044   3.298   2.962   1.813
 3049SOL     OW10045   0.879   0.368   1.041
 3049SOL    HW110046   0.836   0.441   0.987
 3049SOL    HW210047   0.929   0.407   1.117
 3050SOL     OW10048   1.582   0.647   4.001
 3050SOL    HW110049   1.578   0.734   4.050
 3050SOL    HW210050   1.670   0.603   4.018
 3051SOL     OW10051   2.636   4.981   5.814
 3051SOL    HW110052   2.563   4.947   5.874
 3051SOL    HW210053   2.598   5.045   5.747
 3052SOL     OW10054   5.111   6.578   2.620
 3052SOL    HW110055   5.174   6.533   2.557
 3052SOL    HW210056   5.030   6.521   2.633
 3053SOL     OW10057   4.047   7.009   1.866
 3053SOL    HW110058   4.049   6.918   1.827
 3053SOL    HW210059   4.031   7.003   1.965
 3054SOL     OW10060   1.875   4.321   5.714
 3054SOL    HW110061   1.926   4.407   5.710
 3054SOL    HW210062   1.916   4.254   5.652
 3055SOL     OW10063   6.365   6.650   2.742
 3055SOL    HW110064   6.300   6.575   2.730
 3055SOL    HW210065   6.395   6.683   2.653
 3056SOL     OW10066   5.828   0.712   2.174
 3056SOL    HW110067   5.866   0.795   2.216
 3056SOL    HW210068   5.733   0.729   2.149
 3057SOL     OW10069   6.439   5.301   2.533
 3057SOL    HW110070   6.413   5.394   2.505
 3057SOL    HW210071   6.377   5.270   2.605
 3058SOL     OW10072   5.836   6.510   1.348
 3058SOL    HW110073   5.768   6.558   1.403
 3058SOL    HW210074   5.833   6.412   1.370
 3059SOL     OW10075   2.466   2.272   6.443
 3059SOL    HW110076   2.412   2.327   6.379
 3059SOL    HW210077   2.468   2.318   6.532
 3060SOL     OW10078   0.338   6.437   6.293
 3060SOL    HW110079   0.278   6.359   6.314
 3060SOL    HW210080   0.394   6.415   6.213
 3061SOL     OW10081   0.708   0.698   6.089
 3061SOL    HW110082   0.631   0.686   6.026
 3061SOL    HW210083   0.767   0.772   6.056
 3062SOL     OW10084   3.176   4.973   6.352
 3062SOL    HW110085   3.221   5.040   6.412
 3062SOL    HW210086   3.239   4.947   6.278
 3063SOL     OW10087   2.585   5.749   1.030
 3063SOL    HW110088   2.663   5.723   1.086
 3063SOL    HW210089   2.538   5.827   1.073
 3064SOL     OW10090   0.417   4.793   3.015
 3064SOL    HW110091   0.415   4.807   3.114
 3064SOL    HW210092   0.434   4.880   2.969
 3065SOL     OW10093   2.885   1.754   1.544
 3065SOL    HW110094   2.862   1.658   1.529
 3065SOL    HW210095   2.936   1.763   1.629
 3066SOL     OW10096   5.436   5.031   0.743
 3066SOL    HW110097   5.460   4.937   0.766
 3066SOL    HW210098   5.517   5.089   0.752
 3067SOL     OW10099   4.296   6.914   3.015
 3067SOL    HW110100   4.216   6.879   3.063
 3067SOL    HW210101   4.359   6.956   3.080
 3068SOL     OW10102   6.532   4.641   6.557
 3068SOL    HW110103   6.433   4.637   6.542
 3068SOL    HW210104   6.578   4.579   6.493
 3069SOL     OW10105   1.338   4.510   3.354
 3069SOL    HW110106   1.386   4.500   3.441
 3069SOL    HW210107   1.397   4.482   3.279
 3070SOL     OW10108   4.447   1.968   3.952
 3070SOL    HW110109   4.502   2.047   3.979
 3070SOL    HW210110   4.363   1.998   3.909
 3071SOL     OW10111   5.754   0.436   3.466
 3071SOL    HW110112   5.816   0.472   3.396
 3071SOL    HW210113   5.788   0.348   3.499
 3072SOL     OW10114   0.216   0.684   1.539
 3072SOL    HW110115   0.182   0.626   1.465
 3072SOL    HW210116   0.177   0.776   1.531
 3073SOL     OW10117   2.238   1.966   4.903
 3073SOL    HW110118   2.282   1.948   4.991
 3073SOL    HW210119   2.139   1.956   4.913
 3074SOL     OW10120   4.705   3.962   5.874
 3074SOL    HW110121   4.720   3.917   5.786
 3074SOL    HW210122   4.711   4.061   5.862
 3075SOL     OW10123   0.328   5.796   0.977
 3075SOL    HW110124   0.236   5.804   1.016
 3075SOL    HW210125   0.349   5.700   0.959
 3076SOL     OW10126   0.766   0.800   5.202
 3076SOL    HW110127   0.837   0.867   5.224
 3076SOL    HW210128   0.689   0.812   5.264
 3077SOL     OW10129   4.698   4.614   3.321
 3077SOL    HW110130   4.686   4.579   3.228
 3077SOL    HW210131   4.795   4.628   3.340
 3078SOL     OW10132   1.838   2.994   0.176
 3078SOL    HW110133   1.795   2.952   0.097
 3078SOL    HW210134   1.860   2.923   0.243
 3079SOL     OW10135   5.445   2.923   5.992
 3079SOL    HW110136   5.463   2.883   5.902
 3079SOL    HW210137   5.474   3.019   5.992
 3080SOL     OW10138   5.945   6.689   2.085
 3080SOL    HW110139   5.857   6.669   2.042
 3080SOL    HW210140   6.006   6.610   2.074
 3081SOL     OW10141   1.422   4.655   5.996
 3081SOL    HW110142   1.409   4.639   5.899
 3081SOL    HW210143   1.393   4.748   6.019
 3082SOL     OW10144   3.613   0.080   2.184
 3082SOL    HW110145   3.555   0.008   2.223
 3082SOL    HW210146   3.706   0.071   2.218
 3083SOL     OW10147   3.859   0.100   2.276
 3083SOL    HW110148   3.923   0.159   2.227
 3083SOL    HW210149   3.898   0.073   2.364
 3084SOL     OW10150   4.290   6.174   4.265
 3084SOL    HW110151   4.382   6.179   4.304
 3084SOL    HW210152   4.233   6.116   4.323
 3085SOL     OW10153   0.972   5.060   2.506
 3085SOL    HW110154   1.006   4.984   2.560
 3085SOL    HW210155   1.040   5.086   2.437
 3086SOL     OW10156   6.195   1.308   4.423
 3086SOL    HW110157   6.105   1.268   4.406
 3086SOL    HW210158   6.264   1.236   4.417
 3087SOL     OW10159   5.828   4.113   1.524
 3087SOL    HW110160   5.796   4.202   1.493
 3087SOL    HW210161   5.784   4.089   1.611
 3088SOL     OW10162   2.998   3.820   6.524
 3088SOL    HW110163   3.093   3.851   6.521
 3088SOL    HW210164   2.993   3.731   6.570
 3089SOL     OW10165   3.699   1.692   1.642
 3089SOL    HW110166   3.760   1.632   1.694
 3089SOL    HW210167   3.743   1.780   1.627
 3090SOL     OW10168   6.147   1.798   0.744
 3090SOL    HW110169   6.173   1.702   0.731
 3090SOL    HW210170   6.091   1.806   0.826
 3091SOL     OW10171   2.310   6.127   0.184
 3091SOL    HW110172   2.382   6.143   0.251
 3091SOL    HW210173   2.221   6.129   0.230
 3092SOL     OW10174   3.782   5.080   0.355
 3092SOL    HW110175   3.844   5.103   0.430
 3092SOL    HW210176   3.688   5.077   0.389
 3093SOL     OW10177   4.985   0.002   3.298
 3093SOL    HW110178   4.955   6.994   3.389
 3093SOL    HW210179   5.043   0.083   3.305
 3094SOL     OW10180   3.747   5.478   4.940
 3094SOL    HW110181   3.769   5.424   4.859
 3094SOL    HW210182   3.659   5.524   4.926
 3095SOL     OW10183   1.866   5.284   5.132
 3095SOL    HW110184   1.860   5.281   5.231
 3095SOL    HW210185   1.777   5.308   5.093
 3096SOL     OW10186   0.639   1.458   5.447
 3096SOL    HW110187   0.572   1.471   5.374
 3096SOL    HW210188   0.729   1.439   5.407
 3097SOL     OW10189   1.997   0.593   6.993
 3097SOL    HW110190   2.012   0.682   0.016
 3097SOL    HW210191   1.997   0.522   0.044
 3098SOL     OW10192   4.149   2.531   0.798
 3098SOL    HW110193   4.053   2.503   0.802
 3098SOL    HW210194   4.183   2.546   0.891
 3099SOL     OW10195   1.487   5.861   5.355
 3099SOL    HW110196   1.459   5.928   5.286
 3099SOL    HW210197   1.534   5.785   5.310
 3100SOL     OW10198   6.612   6.807   6.067
 3100SOL    HW110199   6.519   6.783   6.042
 3100SOL    HW210200   6.610   6.883   6.133
 3101SOL     OW10201   3.471   0.486   1.275
 3101SOL    HW110202   3.444   0.577   1.306
 3101SOL    HW210203   3.406   0.453   1.207
 3102SOL     OW10204   1.029   5.868   0.140
 3102SOL    HW110205   1.029   5.788   0.201
 3102SOL    HW210206   0.942   5.871   0.091
 3103SOL     OW10207   4.270   4.399   1.685
 3103SOL    HW110208   4.334   4.342   1.737
 3103SOL    HW210209   4.204   4.341   1.637
 3104SOL     OW10210   5.589   5.602   3.904
 3104SOL    HW110211   5.550   5.510   3.902
 3104SOL    HW210212   5.541   5.660   3.838
 3105SOL     OW10213   5.972   5.735   3.796
 3105SOL    HW110214   5.926   5.778   3.718
 3105SOL    HW210215   5.905   5.716   3.868
 3106SOL     OW10216   6.921   3.228   4.799
 3106SOL    HW110217   6.974   3.145   4.815
 3106SOL    HW210218   6.864   3.248   4.879
 3107SOL     OW10219   2.730   6.947   3.922
 3107SOL    HW110220   2.682   0.001   3.875
 3107SOL    HW210221   2.679   6.862   3.911
 3108SOL     OW10222   2.154   0.478   2.781
 3108SOL    HW110223   2.114   0.391   2.808
 3108SOL    HW210224   2.147   0.544   2.856
 3109SOL     OW10225   4.494   5.552   3.213
 3109SOL    HW110226   4.515   5.605   3.296
 3109SOL    HW210227   4.553   5.583   3.139
 3110SOL     OW10228   0.933   2.832   1.583
 3110SOL    HW110229   0.966   2.810   1.675
 3110SOL    HW210230   0.992   2.787   1.516
 3111SOL     OW10231   0.589   4.920   2.009
 3111SOL    HW110232   0.650   4.925   2.089
 3111SOL    HW210233   0.584   4.825   1.978
 3112SOL     OW10234   2.921   3.409   5.890
 3112SOL    HW110235   2.926   3.482   5.822
 3112SOL    HW210236   3.005   3.354   5.887
 3113SOL     OW10237   4.139   6.378   4.394
 3113SOL    HW110238   4.203   6.332   4.333
 3113SOL    HW210239   4.173   6.375   4.488
 3114SOL     OW10240   5.160   5.439   0.675
 3114SOL    HW110241   5.081   5.386   0.645
 3114SOL    HW210242   5.141   5.480   0.764
 3115SOL     OW10243   3.121   2.943   2.115
 3115SOL    HW110244   3.135   2.910   2.022
 3115SOL    HW210245   3.159   2.877   2.180
 3116SOL     OW10246   0.157   1.306   6.853
 3116SOL    HW110247   0.094   1.340   6.923
 3116SOL    HW210248   0.194   1.383   6.801
 3117SOL     OW10249   3.700   4.088   5.930
 3117SOL    HW110250   3.782   4.031   5.925
 3117SOL    HW210251   3.629   4.050   5.870
 3118SOL     OW10252   6.171   5.277   6.897
 3118SOL    HW110253   6.101   5.235   6.839
 3118SOL    HW210254   6.126   5.322   6.975
 3119SOL     OW10255   2.279   4.229   6.775
 3119SOL    HW110256   2.337   4.245   6.695
 3119SOL    HW210257   2.260   4.132   6.783
 3120SOL     OW10258   2.576   5.206   6.833
 3120SOL    HW110259   2.553   5.302   6.850
 3120SOL    HW210260   2.498   5.148   6.858
 3121SOL     OW10261   0.382   5.935   3.734
 3121SOL    HW110262   0.355   6.026   3.704
 3121SOL    HW210263   0.438   5.892   3.662
 3122SOL     OW10264   3.330   5.610   1.464
 3122SOL    HW110265   3.248   5.627   1.409
 3122SOL    HW210266   3.305   5.607   1.561
 3123SOL     OW10267   3.522   6.992   4.420
 3123SOL    HW110268   3.567   6.940   4.492
 3123SOL    HW210269   3.570   6.979   4.333
 3124SOL     OW10270   3.584   6.901   5.859
 3124SOL    HW110271   3.487   6.924   5.854
 3124SOL    HW210272   3.605   6.833   5.788
 3125SOL     OW10273   6.991   1.977   6.419
 3125SOL    HW110274   0.008   2.066   6.392
 3125SOL    HW210275   0.040   1.907   6.404
 3126SOL     OW10276   3.899   6.247   6.400
 3126SOL    HW110277   3.802   6.241   6.376
 3126SOL    HW210278   3.907   6.282   6.494
 3127SOL     OW10279   1.060   1.110   4.518
 3127SOL    HW110280   1.156   1.091   4.542
 3127SOL    HW210281   1.000   1.052   4.573
 3128SOL     OW10282   1.452   0.837   1.040
 3128SOL    HW110283   1.396   0.755   1.049
 3128SOL    HW210284   1.530   0.818   0.980
 3129SOL     OW10285   0.931   3.179   3.251
 3129SOL    HW110286   0.968   3.170   3.344
 3129SOL    HW210287   0.876   3.098   3.229
 3130SOL     OW10288   2.564   5.329   3.127
 3130SOL    HW110289   2.660   5.305   3.119
 3130SOL    HW210290   2.555   5.428   3.138
 3131SOL     OW10291   0.501   2.920   4.071
 3131SOL    HW110292   0.519   2.825   4.044
 3131SOL    HW210293   0.542   2.982   4.004
 3132SOL     OW10294   5.074   3.885   5.832
 3132SOL    HW110295   5.000   3.842   5.885
 3132SOL    HW210296   5.045   3.976   5.803
 3133SOL     OW10297   2.304   1.825   3.704
 3133SOL    HW110298   2.391   1.778   3.717
 3133SOL    HW210299   2.319   1.913   3.660
 3134SOL     OW10300   5.935   2.778   2.108
 3134SOL    HW110301   5.857   2.777   2.046
 3134SOL    HW210302   5.994   2.700   2.089
 3135SOL     OW10303   1.243   1.916   2.803
 3135SOL    HW110304   1.167   1.877   2.855
 3135SOL    HW210305   1.260   1.861   2.721
 3136SOL     OW10306   5.939   0.656   4.878
 3136SOL    HW110307   6.003   0.730   4.861
 3136SOL    HW210308   5.863   0.689   4.934
 3137SOL     OW10309   0.430   1.845   4.515
 3137SOL    HW110310   0.366   1.904   4.564
 3137SOL    HW210311   0.400   1.750   4.522
 3138SOL     OW10312   6.099   2.229   4.138
 3138SOL    HW110313   6.059   2.277   4.216
 3138SOL    HW210314   6.033   2.228   4.062
 3139SOL     OW10315   4.834   5.613   5.005
 3139SOL    HW110316   4.902   5.573   4.943
 3139SOL    HW210317   4.742   5.589   4.973
 3140SOL     OW10318   6.059   5.941   6.053
 3140SOL    HW110319   6.014   6.030   6.044
 3140SOL    HW210320   6.151   5.954   6.090
 3141SOL     OW10321   1.043   6.561   1.925
 3141SOL    HW110322   1.054   6.465   1.898
 3141SOL    HW210323   0.962   6.599   1.880
 3142SOL     OW10324   3.379   0.212   0.429
 3142SOL    HW110325   3.351   0.191   0.523
 3142SOL    HW210326   3.309   0.178   0.366
 3143SOL     OW10327   0.307   1.670   0.394
 3143SOL    HW110328   0.264   1.596   0.446
 3143SOL    HW210329   0.238   1.736   0.365
 3144SOL     OW10330   2.625   2.975   7.004
 3144SOL    HW110331   2.659   2.972   0.078
 3144SOL    HW210332   2.682   2.918   6.945
 3145SOL     OW10333   2.852   5.015   2.935
 3145SOL    HW110334   2.935   4.961   2.926
 3145SOL    HW210335   2.843   5.076   2.856
 3146SOL     OW10336   2.169   6.903   4.145
 3146SOL    HW110337   2.256   6.865   4.178
 3146SOL    HW210338   2.096   6.838   4.161
 3147SOL     OW10339   3.941   4.312   0.738
 3147SOL    HW110340   3.855   4.289   0.782
 3147SOL    HW210341   3.949   4.263   0.651
 3148SOL     OW10342   2.804   5.873   4.602
 3148SOL    HW110343   2.761   5.918   4.681
 3148SOL    HW210344   2.855   5.793   4.633
 3149SOL     OW10345   2.469   6.548   5.831
 3149SOL    HW110346   2.419   6.632   5.811
 3149SOL    HW210347   2.421   6.470   5.791
 3150SOL     OW10348   6.727   0.378   4.010
 3150SOL    HW110349   6.765   0.412   3.924
 3150SOL    HW210350   6.636   0.340   3.995
 3151SOL     OW10351   3.505   6.888   1.672
 3151SOL    HW110352   3.485   6.790   1.675
 3151SOL    HW210353   3.588   6.906   1.724
 3152SOL     OW10354   1.553   5.074   6.298
 3152SOL    HW110355   1.628   5.107   6.240
 3152SOL    HW210356   1.562   4.976   6.311
 3153SOL     OW10357   6.881   3.990   3.105
 3153SOL    HW110358   6.948   4.051   3.063
 3153SOL    HW210359   6.854   3.920   3.039
 3154SOL     OW10360   5.725   2.581   5.744
 3154SOL    HW110361   5.674   2.501   5.777
 3154SOL    HW210362   5.665   2.661   5.746
 3155SOL     OW10363   4.314   5.972   0.202
 3155SOL    HW110364   4.405   6.005   0.177
 3155SOL    HW210365   4.321   5.917   0.285
 3156SOL     OW10366   3.366   3.753   3.381
 3156SOL    HW110367   3.320   3.800   3.456
 3156SOL    HW210368   3.310   3.760   3.298
 3157SOL     OW10369   2.364   2.240   4.928
 3157SOL    HW110370   2.457   2.251   4.893
 3157SOL    HW210371   2.324   2.156   4.893
 3158SOL     OW10372   4.774   6.818   1.531
 3158SOL    HW110373   4.752   6.729   1.570
 3158SOL    HW210374   4.698   6.849   1.473
 3159SOL     OW10375   5.327   4.930   0.313
 3159SOL    HW110376   5.398   4.869   0.351
 3159SOL    HW210377   5.360   4.971   0.228
 3160SOL     OW10378   6.383   4.896   0.558
 3160SOL    HW110379   6.350   4.937   0.473
 3160SOL    HW210380   6.368   4.959   0.634
 3161SOL     OW10381   1.100   1.143   4.164
 3161SOL    HW110382   1.085   1.102   4.254
 3161SOL    HW210383   1.037   1.103   4.098
 3162SOL     OW10384   0.005   0.137   6.084
 3162SOL    HW110385   7.015   0.063   6.150
 3162SOL    HW210386   6.955   0.128   6.012
 3163SOL     OW10387   1.757   4.434   5.387
 3163SOL    HW110388   1.710   4.349   5.366
 3163SOL    HW210389   1.764   4.445   5.486
 3164SOL     OW10390   6.393   4.959   5.488
 3164SOL    HW110391   6.426   4.871   5.523
 3164SOL    HW210392   6.390   4.956   5.388
 3165SOL     OW10393   0.053   2.917   1.336
 3165SOL    HW110394   0.134   2.883   1.289
 3165SOL    HW210395   6.994   2.914   1.274
 3166SOL     OW10396   3.719   2.923   6.095
 3166SOL    HW110397   3.795   2.966   6.048
 3166SOL    HW210398   3.710   2.961   6.187
 3167SOL     OW10399   0.172   4.952   2.101
 3167SOL    HW110400   0.177   5.051   2.089
 3167SOL    HW210401   0.079   4.925   2.125
 3168SOL     OW10402   5.988   2.840   1.137
 3168SOL    HW110403   5.888   2.847   1.139
 3168SOL    HW210404   6.018   2.830   1.042
 3169SOL     OW10405   2.780   2.164   5.871
 3169SOL    HW110406   2.747   2.232   5.805
 3169SOL    HW210407   2.790   2.076   5.826
 3170SOL     OW10408   3.436   0.184   4.977
 3170SOL    HW110409   3.521   0.132   4.981
 3170SOL    HW210410   3.450   0.268   4.926
 3171SOL     OW10411   5.979   5.830   2.994
 3171SOL    HW110412   5.921   5.863   2.920
 3171SOL    HW210413   6.020   5.742   2.968
 3172SOL     OW10414   5.656   6.733   5.583
 3172SOL    HW110415   5.580   6.732   5.518
 3172SOL    HW210416   5.725   6.666   5.556
 3173SOL     OW10417   1.794   0.935   1.670
 3173SOL    HW110418   1.849   0.938   1.586
 3173SOL    HW210419   1.784   1.027   1.707
 3174SOL     OW10420   2.373   3.354   6.791
 3174SOL    HW110421   2.416   3.332   6.704
 3174SOL    HW210422   2.370   3.272   6.848
 3175SOL     OW10423   0.244   6.429   0.444
 3175SOL    HW110424   0.323   6.477   0.407
 3175SOL    HW210425   0.256   6.331   0.431
 3176SOL     OW10426   0.669   5.500   7.000
 3176SOL    HW110427   0.634   5.485   0.073
 3176SOL    HW210428   0.753   5.447   6.987
 3177SOL     OW10429   0.882   0.390   3.967
 3177SOL    HW110430   0.882   0.290   3.966
 3177SOL    HW210431   0.933   0.424   3.887
 3178SOL     OW10432   3.384   3.135   0.099
 3178SOL    HW110433   3.349   3.211   0.044
 3178SOL    HW210434   3.364   3.152   0.196
 3179SOL     OW10435   1.106   2.521   4.538
 3179SOL    HW110436   1.044   2.564   4.473
 3179SOL    HW210437   1.096   2.421   4.533
 3180SOL     OW10438   6.553   1.377   6.751
 3180SOL    HW110439   6.481   1.314   6.779
 3180SOL    HW210440   6.617   1.329   6.690
 3181SOL     OW10441   0.423   1.718   2.505
 3181SOL    HW110442   0.378   1.723   2.416
 3181SOL    HW210443   0.519   1.696   2.492
 3182SOL     OW10444   1.475   5.324   5.902
 3182SOL    HW110445   1.547   5.297   5.839
 3182SOL    HW210446   1.515   5.341   5.993
 3183SOL     OW10447   4.761   3.521   1.364
 3183SOL    HW110448   4.802   3.594   1.309
 3183SOL    HW210449   4.753   3.552   1.459
 3184SOL     OW10450   0.607   2.048   3.250
 3184SOL    HW110451   0.597   2.146   3.238
 3184SOL    HW210452   0.658   2.010   3.174
 3185SOL     OW10453   0.243   6.461   6.883
 3185SOL    HW110454   0.285   6.370   6.892
 3185SOL    HW210455   0.245   6.507   6.972
 3186SOL     OW10456   3.448   0.213   1.375
 3186SOL    HW110457   3.472   0.308   1.357
 3186SOL    HW210458   3.515   0.172   1.437
 3187SOL     OW10459   3.232   4.269   0.211
 3187SOL    HW110460   3.211   4.287   0.307
 3187SOL    HW210461   3.303   4.199   0.205
 3188SOL     OW10462   3.749   6.818   3.809
 3188SOL    HW110463   3.670   6.873   3.836
 3188SOL    HW210464   3.763   6.827   3.711
 3189SOL     OW10465   6.272   6.425   2.235
 3189SOL    HW110466   6.362   6.468   2.226
 3189SOL    HW210467   6.259   6.361   2.159
 3190SOL     OW10468   1.373   0.277   2.174
 3190SOL    HW110469   1.457   0.326   2.197
 3190SOL    HW210470   1.382   0.236   2.084
 3191SOL     OW10471   3.326   1.245   0.440
 3191SOL    HW110472   3.273   1.161   0.431
 3191SOL    HW210473   3.267   1.319   0.471
 3192SOL     OW10474   5.458   2.993   4.127
 3192SOL    HW110475   5.554   3.019   4.120
 3192SOL    HW210476   5.416   2.995   4.036
 3193SOL     OW10477   5.355   4.698   1.507
 3193SOL    HW110478   5.269   4.730   1.467
 3193SOL    HW210479   5.337   4.655   1.595
 3194SOL     OW10480   2.732   5.885   4.945
 3194SOL    HW110481   2.689   5.802   4.911
 3194SOL    HW210482   2.674   5.925   5.016
 3195SOL     OW10483   6.521   4.256   4.167
 3195SOL    HW110484   6.578   4.238   4.087
 3195SOL    HW210485   6.433   4.208   4.157
 3196SOL     OW10486   6.992   6.375   6.124
 3196SOL    HW110487   6.989   6.371   6.224
 3196SOL    HW210488   6.925   6.311   6.086
 3197SOL     OW10489   0.485   4.348   5.833
 3197SOL    HW110490   0.473   4.390   5.923
 3197SOL    HW210491   0.414   4.382   5.770
 3198SOL     OW10492   5.882   6.680   0.589
 3198SOL    HW110493   5.808   6.672   0.655
 3198SOL    HW210494   5.847   6.667   0.497
 3199SOL     OW10495   3.045   1.484   3.527
 3199SOL    HW110496   3.096   1.413   3.478
 3199SOL    HW210497   2.974   1.521   3.467
 3200SOL     OW10498   6.375   1.948   0.127
 3200SOL    HW110499   6.443   1.912   0.191
 3200SOL    HW210500   6.287   1.904   0.144
 3201SOL     OW10501   4.138   4.788   2.946
 3201SOL    HW110502   4.044   4.774   2.915
 3201SOL    HW210503   4.149   4.884   2.975
 3202SOL     OW10504   1.225   5.198   2.010
 3202SOL    HW110505   1.299   5.144   1.971
 3202SOL    HW210506   1.137   5.158   1.985
 3203SOL     OW10507   4.262   0.243   0.877
 3203SOL    HW110508   4.229   0.150   0.867
 3203SOL    HW210509   4.310   0.272   0.794
 3204SOL     OW10510   6.629   6.818   1.999
 3204SOL    HW110511   6.541   6.866   1.997
 3204SOL    HW210512   6.660   6.811   2.094
 3205SOL     OW10513   1.239   3.659   4.409
 3205SOL    HW110514   1.253   3.567   4.445
 3205SOL    HW210515   1.221   3.722   4.484
 3206SOL     OW10516   2.142   6.465   0.195
 3206SOL    HW110517   2.112   6.540   0.137
 3206SOL    HW210518   2.149   6.382   0.141
 3207SOL     OW10519   1.796   1.071   3.073
 3207SOL    HW110520   1.867   1.001   3.085
 3207SOL    HW210521   1.784   1.090   2.976
 3208SOL     OW10522   5.949   6.479   5.646
 3208SOL    HW110523   5.901   6.510   5.564
 3208SOL    HW210524   5.884   6.439   5.710
 3209SOL     OW10525   0.936   6.952   3.806
 3209SOL    HW110526   0.907   6.858   3.825
 3209SOL    HW210527   0.988   6.954   3.720
 3210SOL     OW10528   0.589   6.105   1.921
 3210SOL    HW110529   0.541   6.104   1.834
 3210SOL    HW210530   0.522   6.106   1.996
 3211SOL     OW10531   0.541   4.548   3.832
 3211SOL    HW110532   0.566   4.641   3.860
 3211SOL    HW210533   0.612   4.484   3.863
 3212SOL     OW10534   4.474   2.574   5.060
 3212SOL    HW110535   4.481   2.553   4.962
 3212SOL    HW210536   4.387   2.539   5.095
 3213SOL     OW10537   5.326   0.321   1.343
 3213SOL    HW110538   5.257   0.282   1.404
 3213SOL    HW210539   5.417   0.296   1.377
 3214SOL     OW10540   4.745   4.092   0.212
 3214SOL    HW110541   4.738   4.065   0.116
 3214SOL    HW210542   4.654   4.097   0.252
 3215SOL     OW10543   6.331   1.325   0.058
 3215SOL    HW110544   6.308   1.259   0.130
 3215SOL    HW210545   6.308   1.285   6.989
 3216SOL     OW10546   5.184   6.629   5.235
 3216SOL    HW110547   5.233   6.695   5.178
 3216SOL    HW210548   5.234   6.616   5.321
 3217SOL     OW10549   0.168   4.303   6.421
 3217SOL    HW110550   0.208   4.224   6.374
 3217SOL    HW210551   0.238   4.374   6.432
 3218SOL     OW10552   4.042   2.372   1.577
 3218SOL    HW110553   3.976   2.426   1.527
 3218SOL    HW210554   3.998   2.329   1.656
 3219SOL     OW10555   0.624   1.647   3.286
 3219SOL    HW110556   0.593   1.642   3.381
 3219SOL    HW210557   0.712   1.693   3.282
 3220SOL     OW10558   6.597   2.870   6.490
 3220SOL    HW110559   6.565   2.919   6.570
 3220SOL    HW210560   6.685   2.909   6.460
 3221SOL     OW10561   3.711   0.741   1.753
 3221SOL    HW110562   3.703   0.825   1.700
 3221SOL    HW210563   3.804   0.733   1.791
 3222SOL     OW10564   6.490   3.866   2.153
 3222SOL    HW110565   6.557   3.835   2.220
 3222SOL    HW210566   6.400   3.829   2.176
 3223SOL     OW10567   1.248   4.209   5.220
 3223SOL    HW110568   1.183   4.199   5.295
 3223SOL    HW210569   1.279   4.304   5.215
 3224SOL     OW10570   2.756   6.325   1.352
 3224SOL    HW110571   2.685   6.315   1.421
 3224SOL    HW210572   2.742   6.257   1.279
 3225SOL     OW10573   1.618   2.022   0.780
 3225SOL    HW110574   1.646   1.926   0.768
 3225SOL    HW210575   1.675   2.081   0.724
 3226SOL     OW10576   6.544   1.661   3.746
 3226SOL    HW110577   6.596   1.578   3.769
 3226SOL    HW210578   6.529   1.714   3.830
 3227SOL     OW10579   2.566   1.505   5.280
 3227SOL    HW110580   2.533   1.444   5.209
 3227SOL    HW210581   2.665   1.498   5.288
 3228SOL     OW10582   4.976   3.450   5.010
 3228SOL    HW110583   4.921   3.533   5.020
 3228SOL    HW210584   4.955   3.407   4.922
 3229SOL     OW10585   4.517   1.703   4.674
 3229SOL    HW110586   4.420   1.709   4.697
 3229SOL    HW210587   4.533   1.749   4.586
 3230SOL     OW10588   1.752   6.937   4.374
 3230SOL    HW110589   1.652   6.945   4.375
 3230SOL    HW210590   1.777   6.840   4.373
 3231SOL     OW10591   4.159   4.647   0.309
 3231SOL    HW110592   4.089   4.575   0.311
 3231SOL    HW210593   4.248   4.606   0.288
 3232SOL     OW10594   0.783   3.859   3.310
 3232SOL    HW110595   0.755   3.816   3.223
 3232SOL    HW210596   0.877   3.834   3.330
 3233SOL     OW10597   2.471   4.168   0.710
 3233SOL    HW110598   2.423   4.087   0.743
 3233SOL    HW210599   2.545   4.140   0.649
 3234SOL     OW10600   6.698   1.616   4.470
 3234SOL    HW110601   6.633   1.554   4.426
 3234SOL    HW210602   6.786   1.612   4.422
 3235SOL     OW10603   6.173   0.777   2.397
 3235SOL    HW110604   6.155   0.724   2.480
 3235SOL    HW210605   6.249   0.840   2.414
 3236SOL     OW10606   6.727   1.930   1.427
 3236SOL    HW110607   6.804   1.873   1.457
 3236SOL    HW210608   6.641   1.884   1.450
 3237SOL     OW10609   2.807   6.005   4.334
 3237SOL    HW110610   2.890   6.044   4.374
 3237SOL    HW210611   2.781   5.923   4.386
 3238SOL     OW10612   6.498   6.479   6.634
 3238SOL    HW110613   6.568   6.476   6.563
 3238SOL    HW210614   6.537   6.519   6.718
 3239SOL     OW10615   1.946   6.170   6.204
 3239SOL    HW110616   1.999   6.224   6.139
 3239SOL    HW210617   1.995   6.165   6.291
 3240SOL     OW10618   1.518   2.434   4.713
 3240SOL    HW110619   1.618   2.429   4.709
 3240SOL    HW210620   1.487   2.511   4.658
 3241SOL     OW10621   3.381   6.228   5.223
 3241SOL    HW110622   3.297   6.181   5.197
 3241SOL    HW210623   3.457   6.192   5.169
 3242SOL     OW10624   2.431   0.879   0.925
 3242SOL    HW110625   2.488   0.952   0.962
 3242SOL    HW210626   2.336   0.892   0.953
 3243SOL     OW10627   3.742   5.491   2.145
 3243SOL    HW110628   3.842   5.480   2.144
 3243SOL    HW210629   3.716   5.557   2.074
 3244SOL     OW10630   1.312   0.193   5.081
 3244SOL    HW110631   1.212   0.193   5.074
 3244SOL    HW210632   1.350   0.120   5.024
 3245SOL     OW10633   3.376   1.842   5.902
 3245SOL    HW110634   3.429   1.884   5.975
 3245SOL    HW210635   3.361   1.909   5.829
 3246SOL     OW10636   6.158   6.466   2.698
 3246SOL    HW110637   6.142   6.391   2.763
 3246SOL    HW210638   6.074   6.519   2.687
 3247SOL     OW10639   5.967   2.811   5.091
 3247SOL    HW110640   5.929   2.902   5.074
 3247SOL    HW210641   5.966   2.758   5.006
 3248SOL     OW10642   5.141   4.289   3.190
 3248SOL    HW110643   5.069   4.220   3.200
 3248SOL    HW210644   5.205   4.261   3.119
 3249SOL     OW10645   3.517   5.292   5.980
 3249SOL    HW110646   3.601   5.240   5.968
 3249SOL    HW210647   3.457   5.277   5.901
 3250SOL     OW10648   4.622   4.649   0.600
 3250SOL    HW110649   4.717   4.641   0.569
 3250SOL    HW210650   4.565   4.679   0.523
 3251SOL     OW10651   2.331   1.501   3.509
 3251SOL    HW110652   2.392   1.557   3.565
 3251SOL    HW210653   2.236   1.531   3.523
 3252SOL     OW10654   2.945   2.208   2.942
 3252SOL    HW110655   3.040   2.179   2.936
 3252SOL    HW210656   2.908   2.224   2.850
 3253SOL     OW10657   4.858   4.346   1.885
 3253SOL    HW110658   4.841   4.323   1.981
 3253SOL    HW210659   4.772   4.369   1.840
 3254SOL     OW10660   6.197   3.697   2.983
 3254SOL    HW110661   6.253   3.651   2.914
 3254SOL    HW210662   6.215   3.796   2.979
 3255SOL     OW10663   3.463   5.026   1.109
 3255SOL    HW110664   3.446   4.937   1.153
 3255SOL    HW210665   3.398   5.093   1.144
 3256SOL     OW10666   6.684   0.070   5.215
 3256SOL    HW110667   6.755   0.141   5.218
 3256SOL    HW210668   6.727   7.000   5.219
 3257SOL     OW10669   2.576   0.964   1.528
 3257SOL    HW110670   2.610   0.871   1.543
 3257SOL    HW210671   2.573   0.983   1.429
 3258SOL     OW10672   4.949   0.070   2.335
 3258SOL    HW110673   4.932   0.063   2.237
 3258SOL    HW210674   4.885   0.136   2.375
 3259SOL     OW10675   5.867   5.298   3.116
 3259SOL    HW110676   5.930   5.257   3.182
 3259SOL    HW210677   5.831   5.226   3.056
 3260SOL     OW10678   2.396   1.528   1.315
 3260SOL    HW110679   2.351   1.545   1.228
 3260SOL    HW210680   2.375   1.602   1.379
 3261SOL     OW10681   5.638   6.575   4.145
 3261SOL    HW110682   5.719   6.557   4.090
 3261SOL    HW210683   5.571   6.626   4.092
 3262SOL     OW10684   4.574   2.329   3.719
 3262SOL    HW110685   4.638   2.253   3.735
 3262SOL    HW210686   4.602   2.408   3.774
 3263SOL     OW10687   3.308   4.858   3.097
 3263SOL    HW110688   3.308   4.841   2.999
 3263SOL    HW210689   3.261   4.944   3.116
 3264SOL     OW10690   5.349   4.202   6.456
 3264SOL    HW110691   5.425   4.236   6.400
 3264SOL    HW210692   5.269   4.260   6.442
 3265SOL     OW10693   5.113   6.902   5.646
 3265SOL    HW110694   5.066   6.940   5.567
 3265SOL    HW210695   5.051   6.842   5.697
 3266SOL     OW10696   0.740   2.386   6.492
 3266SOL    HW110697   0.772   2.435   6.572
 3266SOL    HW210698   0.802   2.403   6.415
 3267SOL     OW10699   5.487   4.174   1.590
 3267SOL    HW110700   5.550   4.246   1.621
 3267SOL    HW210701   5.530   4.085   1.604
 3268SOL     OW10702   1.882   5.346   0.378
 3268SOL    HW110703   1.888   5.445   0.387
 3268SOL    HW210704   1.918   5.319   0.288
 3269SOL     OW10705   4.345   2.942   1.217
 3269SOL    HW110706   4.346   2.906   1.124
 3269SOL    HW210707   4.361   2.867   1.282
 3270SOL     OW10708   6.541   5.654   3.310
 3270SOL    HW110709   6.617   5.591   3.293
 3270SOL    HW210710   6.463   5.629   3.252
 3271SOL     OW10711   4.873   0.136   0.548
 3271SOL    HW110712   4.864   0.096   0.639
 3271SOL    HW210713   4.935   0.214   0.552
 3272SOL     OW10714   4.508   5.654   5.845
 3272SOL    HW110715   4.449   5.588   5.799
 3272SOL    HW210716   4.473   5.674   5.936
 3273SOL     OW10717   6.920   0.154   3.088
 3273SOL    HW110718   6.880   0.141   3.179
 3273SOL    HW210719   7.011   0.113   3.087
 3274SOL     OW10720   3.134   0.909   1.270
 3274SOL    HW110721   3.216   0.948   1.310
 3274SOL    HW210722   3.056   0.970   1.287
 3275SOL     OW10723   4.120   0.263   6.795
 3275SOL    HW110724   4.070   0.260   6.709
 3275SOL    HW210725   4.087   0.190   6.855
 3276SOL     OW10726   1.523   5.506   1.420
 3276SOL    HW110727   1.546   5.452   1.501
 3276SOL    HW210728   1.550   5.455   1.338
 3277SOL     OW10729   0.304   6.191   6.870
 3277SOL    HW110730   0.325   6.129   6.944
 3277SOL    HW210731   0.214   6.168   6.831
 3278SOL     OW10732   1.386   0.434   6.883
 3278SOL    HW110733   1.447   0.478   6.950
 3278SOL    HW210734   1.376   0.337   6.907
 3279SOL     OW10735   1.897   6.577   1.671
 3279SOL    HW110736   1.873   6.624   1.586
 3279SOL    HW210737   1.934   6.642   1.736
 3280SOL     OW10738   2.829   5.689   3.233
 3280SOL    HW110739   2.901   5.620   3.234
 3280SOL    HW210740   2.740   5.644   3.237
 3281SOL     OW10741   1.414   6.556   1.168
 3281SOL    HW110742   1.495   6.508   1.134
 3281SOL    HW210743   1.376   6.506   1.246
 3282SOL     OW10744   1.577   4.812   2.222
 3282SOL    HW110745   1.592   4.879   2.295
 3282SOL    HW210746   1.571   4.720   2.263
 3283SOL     OW10747   1.498   0.559   3.173
 3283SOL    HW110748   1.405   0.542   3.207
 3283SOL    HW210749   1.508   0.656   3.151
 3284SOL     OW10750   1.940   5.928   5.381
 3284SOL    HW110751   1.898   5.970   5.462
 3284SOL    HW210752   1.996   5.995   5.333
 3285SOL     OW10753   0.526   3.339   4.356
 3285SOL    HW110754   0.606   3.280   4.353
 3285SOL    HW210755   0.498   3.361   4.262
 3286SOL     OW10756   5.129   4.356   6.388
 3286SOL    HW110757   5.164   4.443   6.355
 3286SOL    HW210758   5.030   4.361   6.399
 3287SOL     OW10759   0.192   2.505   1.034
 3287SOL    HW110760   0.260   2.563   0.991
 3287SOL    HW210761   0.125   2.475   0.966
 3288SOL     OW10762   0.805   0.147   0.322
 3288SOL    HW110763   0.823   0.148   0.420
 3288SOL    HW210764   0.713   0.112   0.305
 3289SOL     OW10765   1.505   0.044   3.668
 3289SOL    HW110766   1.498   0.138   3.704
 3289SOL    HW210767   1.601   0.026   3.644
 3290SOL     OW10768   6.973   4.852   4.070
 3290SOL    HW110769   6.970   4.838   4.169
 3290SOL    HW210770   6.956   4.949   4.050
 3291SOL     OW10771   1.067   1.866   1.579
 3291SOL    HW110772   0.993   1.870   1.511
 3291SOL    HW210773   1.105   1.774   1.582
 3292SOL     OW10774   0.987   6.521   4.258
 3292SOL    HW110775   0.917   6.499   4.190
 3292SOL    HW210776   0.966   6.474   4.343
 3293SOL     OW10777   5.892   0.379   3.059
 3293SOL    HW110778   5.893   0.461   3.116
 3293SOL    HW210779   5.838   0.308   3.103
 3294SOL     OW10780   6.948   6.559   1.271
 3294SOL    HW110781   6.985   6.651   1.283
 3294SOL    HW210782   6.978   6.522   1.183
 3295SOL     OW10783   3.061   2.932   5.969
 3295SOL    HW110784   2.968   2.935   6.004
 3295SOL    HW210785   3.067   2.863   5.896
 3296SOL     OW10786   0.729   6.613   1.748
 3296SOL    HW110787   0.780   6.634   1.664
 3296SOL    HW210788   0.650   6.555   1.725
 3297SOL     OW10789   3.632   0.867   5.620
 3297SOL    HW110790   3.553   0.927   5.606
 3297SOL    HW210791   3.623   0.786   5.561
 3298SOL     OW10792   0.563   5.593   3.237
 3298SOL    HW110793   0.609   5.651   3.170
 3298SOL    HW210794   0.469   5.626   3.252
 3299SOL     OW10795   1.897   1.435   4.619
 3299SOL    HW110796   1.844   1.505   4.667
 3299SOL    HW210797   1.939   1.475   4.538
 3300SOL     OW10798   0.396   6.801   5.121
 3300SOL    HW110799   0.461   6.763   5.054
 3300SOL    HW210800   0.424   6.894   5.145
 3301SOL     OW10801   6.332   4.424   2.180
 3301SOL    HW110802   6.346   4.327   2.197
 3301SOL    HW210803   6.375   4.449   2.093
 3302SOL     OW10804   1.850   6.034   5.603
 3302SOL    HW110805   1.808   6.027   5.694
 3302SOL    HW210806   1.865   6.131   5.582
 3303SOL     OW10807   3.471   3.745   4.979
 3303SOL    HW110808   3.383   3.755   5.026
 3303SOL    HW210809   3.461   3.771   4.883
 3304SOL     OW10810   1.553   0.921   3.729
 3304SOL    HW110811   1.560   0.966   3.818
 3304SOL    HW210812   1.567   0.823   3.740
 3305SOL     OW10813   0.700   2.228   0.388
 3305SOL    HW110814   0.630   2.158   0.401
 3305SOL    HW210815   0.763   2.227   0.465
 3306SOL     OW10816   1.340   1.188   0.869
 3306SOL    HW110817   1.240   1.188   0.879
 3306SOL    HW210818   1.364   1.209   0.774
 3307SOL     OW10819   0.167   6.982   0.177
 3307SOL    HW110820   0.193   0.048   0.220
 3307SOL    HW210821   0.248   6.941   0.135
 3308SOL     OW10822   5.404   6.059   0.216
 3308SOL    HW110823   5.466   6.084   0.290
 3308SOL    HW210824   5.399   6.134   0.149
 3309SOL     OW10825   0.780   4.390   2.154
 3309SOL    HW110826   0.748   4.353   2.066
 3309SOL    HW210827   0.805   4.314   2.214
 3310SOL     OW10828   2.201   6.111   2.584
 3310SOL    HW110829   2.146   6.107   2.667
 3310SOL    HW210830   2.143   6.130   2.506
 3311SOL     OW10831   4.325   5.528   0.984
 3311SOL    HW110832   4.307   5.450   0.924
 3311SOL    HW210833   4.303   5.503   1.078
 3312SOL     OW10834   2.009   2.526   6.360
 3312SOL    HW110835   1.965   2.573   6.438
 3312SOL    HW210836   2.018   2.590   6.284
 3313SOL     OW10837   5.594   6.861   5.235
 3313SOL    HW110838   5.645   6.806   5.170
 3313SOL    HW210839   5.545   6.801   5.298
 3314SOL     OW10840   0.800   4.231   6.067
 3314SOL    HW110841   0.725   4.230   6.133
 3314SOL    HW210842   0.862   4.155   6.086
 3315SOL     OW10843   6.291   3.245   3.152
 3315SOL    HW110844   6.208   3.249   3.208
 3315SOL    HW210845   6.292   3.160   3.099
 3316SOL     OW10846   3.280   0.254   6.746
 3316SOL    HW110847   3.360   0.205   6.711
 3316SOL    HW210848   3.225   0.193   6.802
 3317SOL     OW10849   5.463   2.968   1.133
 3317SOL    HW110850   5.556   2.958   1.095
 3317SOL    HW210851   5.401   2.907   1.084
 3318SOL     OW10852   2.634   5.087   6.584
 3318SOL    HW110853   2.611   5.136   6.499
 3318SOL    HW210854   2.620   5.148   6.662
 3319SOL     OW10855   0.950   5.808   6.130
 3319SOL    HW110856   0.984   5.849   6.215
 3319SOL    HW210857   1.009   5.834   6.054
 3320SOL     OW10858   0.961   0.506   1.252
 3320SOL    HW110859   0.903   0.475   1.328
 3320SOL    HW210860   1.057   0.487   1.273
 3321SOL     OW10861   3.823   3.637   4.226
 3321SOL    HW110862   3.851   3.556   4.277
 3321SOL    HW210863   3.889   3.710   4.239
 3322SOL     OW10864   5.139   3.664   2.510
 3322SOL    HW110865   5.159   3.578   2.463
 3322SOL    HW210866   5.053   3.701   2.478
 3323SOL     OW10867   1.522   4.417   0.702
 3323SOL    HW110868   1.564   4.389   0.788
 3323SOL    HW210869   1.423   4.423   0.714
 3324SOL     OW10870   6.783   3.422   1.642
 3324SOL    HW110871   6.876   3.393   1.665
 3324SOL    HW210872   6.781   3.458   1.548
 3325SOL     OW10873   1.194   4.767   5.151
 3325SOL    HW110874   1.116   4.818   5.188
 3325SOL    HW210875   1.162   4.676   5.121
 3326SOL     OW10876   4.597   6.623   2.116
 3326SOL    HW110877   4.673   6.660   2.169
 3326SOL    HW210878   4.529   6.583   2.178
 3327SOL     OW10879   4.965   6.339   1.588
 3327SOL    HW110880   4.885   6.282   1.571
 3327SOL    HW210881   5.009   6.363   1.501
 3328SOL     OW10882   6.256   6.496   3.685
 3328SOL    HW110883   6.318   6.481   3.608
 3328SOL    HW210884   6.186   6.563   3.660
 3329SOL     OW10885   5.601   0.386   6.340
 3329SOL    HW110886   5.680   0.443   6.363
 3329SOL    HW210887   5.563   0.415   6.252
 3330SOL     OW10888   5.947   0.283   2.815
 3330SOL    HW110889   6.001   0.329   2.744
 3330SOL    HW210890   5.944   0.340   2.897
 3331SOL     OW10891   1.071   3.043   2.380
 3331SOL    HW110892   1.019   3.064   2.462
 3331SOL    HW210893   1.169   3.057   2.398
 3332SOL     OW10894   4.487   5.111   0.765
 3332SOL    HW110895   4.450   5.047   0.832
 3332SOL    HW210896   4.580   5.137   0.792
 3333SOL     OW10897   2.546   4.148   0.987
 3333SOL    HW110898   2.573   4.071   1.045
 3333SOL    HW210899   2.557   4.123   0.891
 3334SOL     OW10900   1.646   2.942   2.442
 3334SOL    HW110901   1.662   2.861   2.499
 3334SOL    HW210902   1.563   2.929   2.388
 3335SOL     OW10903   4.765   4.185   6.456
 3335SOL    HW110904   4.755   4.103   6.512
 3335SOL    HW210905   4.726   4.169   6.365
 3336SOL     OW10906   3.708   5.989   5.888
 3336SOL    HW110907   3.632   5.940   5.930
 3336SOL    HW210908   3.784   5.926   5.873
 3337SOL     OW10909   2.930   3.791   3.976
 3337SOL    HW110910   2.977   3.738   4.046
 3337SOL    HW210911   2.881   3.867   4.019
 3338SOL     OW10912   3.524   2.876   1.369
 3338SOL    HW110913   3.550   2.965   1.405
 3338SOL    HW210914   3.473   2.888   1.284
 3339SOL     OW10915   0.811   6.640   6.027
 3339SOL    HW110916   0.786   6.718   6.084
 3339SOL    HW210917   0.903   6.609   6.051
 3340SOL     OW10918   4.750   1.630   6.646
 3340SOL    HW110919   4.804   1.691   6.588
 3340SOL    HW210920   4.799   1.544   6.657
 3341SOL     OW10921   1.203   4.039   1.749
 3341SOL    HW110922   1.205   4.120   1.691
 3341SOL    HW210923   1.295   4.020   1.783
 3342SOL     OW10924   5.781   0.475   2.492
 3342SOL    HW110925   5.719   0.414   2.542
 3342SOL    HW210926   5.736   0.562   2.475
 3343SOL     OW10927   3.759   4.780   0.836
 3343SOL    HW110928   3.803   4.690   0.837
 3343SOL    HW210929   3.685   4.780   0.769
 3344SOL     OW10930   1.627   3.468   0.749
 3344SOL    HW110931   1.558   3.396   0.754
 3344SOL    HW210932   1.584   3.553   0.717
 3345SOL     OW10933   4.575   5.016   1.142
 3345SOL    HW110934   4.667   4.999   1.179
 3345SOL    HW210935   4.515   5.047   1.216
 3346SOL     OW10936   1.159   0.580   6.851
 3346SOL    HW110937   1.243   0.531   6.876
 3346SOL    HW210938   1.167   0.676   6.879
 3347SOL     OW10939   0.761   3.074   5.748
 3347SOL    HW110940   0.773   3.146   5.815
 3347SOL    HW210941   0.743   3.115   5.658
 3348SOL     OW10942   3.170   4.237   5.845
 3348SOL    HW110943   3.185   4.209   5.750
 3348SOL    HW210944   3.104   4.312   5.847
 3349SOL     OW10945   2.376   5.246   1.740
 3349SOL    HW110946   2.452   5.192   1.704
 3349SOL    HW210947   2.382   5.251   1.840
 3350SOL     OW10948   3.187   5.488   3.985
 3350SOL    HW110949   3.160   5.538   3.902
 3350SOL    HW210950   3.272   5.438   3.966
 3351SOL     OW10951   5.047   0.026   1.728
 3351SOL    HW110952   5.075   6.955   1.696
 3351SOL    HW210953   4.951   0.023   1.757
 3352SOL     OW10954   5.952   0.832   0.248
 3352SOL    HW110955   5.963   0.856   0.151
 3352SOL    HW210956   5.875   0.882   0.286
 3353SOL     OW10957   4.187   0.875   6.025
 3353SOL    HW110958   4.176   0.960   6.076
 3353SOL    HW210959   4.284   0.852   6.018
 3354SOL     OW10960   3.106   2.112   0.120
 3354SOL    HW110961   3.052   2.115   0.204
 3354SOL    HW210962   3.050   2.076   0.046
 3355SOL     OW10963   1.181   2.300   5.547
 3355SOL    HW110964   1.084   2.320   5.563
 3355SOL    HW210965   1.228   2.383   5.516
 3356SOL     OW10966   3.095   0.454   5.351
 3356SOL    HW110967   3.116   0.479   5.445
 3356SOL    HW210968   3.099   0.535   5.293
 3357SOL     OW10969   2.891   3.644   4.509
 3357SOL    HW110970   2.850   3.556   4.529
 3357SOL    HW210971   2.920   3.688   4.594
 3358SOL     OW10972   6.515   1.970   1.644
 3358SOL    HW110973   6.544   1.891   1.698
 3358SOL    HW210974   6.571   2.049   1.668
 3359SOL     OW10975   0.870   6.732   3.546
 3359SOL    HW110976   0.815   6.680   3.611
 3359SOL    HW210977   0.961   6.692   3.540
 3360SOL     OW10978   1.109   5.428   4.615
 3360SOL    HW110979   1.055   5.345   4.629
 3360SOL    HW210980   1.187   5.429   4.677
 3361SOL     OW10981   0.386   0.295   4.521
 3361SOL    HW110982   0.399   0.201   4.490
 3361SOL    HW210983   0.298   0.304   4.567
 3362SOL     OW10984   3.243   0.955   5.455
 3362SOL    HW110985   3.253   0.932   5.358
 3362SOL    HW210986   3.310   1.025   5.479
 3363SOL     OW10987   5.030   3.419   0.770
 3363SOL    HW110988   4.988   3.421   0.860
 3363SOL    HW210989   5.041   3.512   0.736
 3364SOL     OW10990   1.773   2.977   1.219
 3364SOL    HW110991   1.707   2.904   1.203
 3364SOL    HW210992   1.747   3.058   1.166
 3365SOL     OW10993   0.066   2.937   2.499
 3365SOL    HW110994   0.152   2.925   2.548
 3365SOL    HW210995   0.033   2.848   2.468
 3366SOL     OW10996   5.572   3.604   3.550
 3366SOL    HW110997   5.543   3.511   3.529
 3366SOL    HW210998   5.669   3.615   3.530
 3367SOL     OW10999   2.865   3.478   3.654
 3367SOL    HW111000   2.853   3.439   3.746
 3367SOL    HW211001   2.890   3.574   3.662
 3368SOL     OW11002   1.161   0.884   3.418
 3368SOL    HW111003   1.182   0.980   3.398
 3368SOL    HW211004   1.136   0.876   3.515
 3369SOL     OW11005   5.927   2.558   0.579
 3369SOL    HW111006   5.862   2.595   0.646
 3369SOL    HW211007   5.981   2.632   0.539
 3370SOL     OW11008   0.545   5.910   3.498
 3370SOL    HW111009   0.580   5.968   3.425
 3370SOL    HW211010   0.484   5.840   3.459
 3371SOL     OW11011   2.999   3.094   1.411
 3371SOL    HW111012   3.082   3.092   1.467
 3371SOL    HW211013   2.977   3.002   1.380
 3372SOL     OW11014   5.163   3.121   3.412
 3372SOL    HW111015   5.158   3.022   3.396
 3372SOL    HW211016   5.181   3.168   3.326
 3373SOL     OW11017   0.762   4.660   0.958
 3373SOL    HW111018   0.695   4.657   0.884
 3373SOL    HW211019   0.834   4.725   0.935
 3374SOL     OW11020   1.267   5.374   4.185
 3374SOL    HW111021   1.297   5.284   4.152
 3374SOL    HW211022   1.289   5.382   4.282
 3375SOL     OW11023   6.848   6.900   5.518
 3375SOL    HW111024   6.893   6.905   5.608
 3375SOL    HW211025   6.802   6.986   5.499
 3376SOL     OW11026   3.719   4.177   4.958
 3376SOL    HW111027   3.716   4.206   5.053
 3376SOL    HW211028   3.648   4.224   4.906
 3377SOL     OW11029   6.787   5.794   4.410
 3377SOL    HW111030   6.758   5.698   4.401
 3377SOL    HW211031   6.730   5.839   4.478
 3378SOL     OW11032   1.003   6.083   0.305
 3378SOL    HW111033   1.000   6.069   0.404
 3378SOL    HW211034   0.994   5.994   0.259
 3379SOL     OW11035   5.469   4.708   4.037
 3379SOL    HW111036   5.385   4.657   4.015
 3379SOL    HW211037   5.501   4.681   4.128
 3380SOL     OW11038   1.417   4.394   1.954
 3380SOL    HW111039   1.388   4.468   1.894
 3380SOL    HW211040   1.397   4.419   2.049
 3381SOL     OW11041   3.174   4.326   6.671
 3381SOL    HW111042   3.242   4.399   6.663
 3381SOL    HW211043   3.184   4.263   6.594
 3382SOL     OW11044   0.458   3.818   6.575
 3382SOL    HW111045   0.359   3.805   6.582
 3382SOL    HW211046   0.489   3.880   6.647
 3383SOL     OW11047   4.142   6.182   0.188
 3383SOL    HW111048   4.046   6.163   0.168
 3383SOL    HW211049   4.195   6.097   0.181
 3384SOL     OW11050   3.896   2.488   6.642
 3384SOL    HW111051   3.979   2.491   6.698
 3384SOL    HW211052   3.816   2.479   6.702
 3385SOL     OW11053   5.876   2.064   4.361
 3385SOL    HW111054   5.838   2.061   4.269
 3385SOL    HW211055   5.921   1.976   4.381
 3386SOL     OW11056   6.765   4.898   5.353
 3386SOL    HW111057   6.803   4.923   5.442
 3386SOL    HW211058   6.761   4.799   5.346
 3387SOL     OW11059   6.117   0.545   2.943
 3387SOL    HW111060   6.204   0.518   2.901
 3387SOL    HW211061   6.095   0.481   3.017
 3388SOL     OW11062   1.110   3.813   0.775
 3388SOL    HW111063   1.074   3.809   0.681
 3388SOL    HW211064   1.169   3.893   0.784
 3389SOL     OW11065   6.087   4.996   5.576
 3389SOL    HW111066   6.046   5.086   5.585
 3389SOL    HW211067   6.121   4.983   5.483
 3390SOL     OW11068   3.021   4.687   0.913
 3390SOL    HW111069   2.951   4.657   0.848
 3390SOL    HW211070   2.979   4.705   1.002
 3391SOL     OW11071   5.305   3.918   5.663
 3391SOL    HW111072   5.242   3.881   5.732
 3391SOL    HW211073   5.253   3.970   5.595
 3392SOL     OW11074   4.939   5.847   5.604
 3392SOL    HW111075   4.966   5.881   5.514
 3392SOL    HW211076   4.840   5.852   5.614
 3393SOL     OW11077   3.185   1.007   0.470
 3393SOL    HW111078   3.183   0.925   0.412
 3393SOL    HW211079   3.256   0.997   0.539
 3394SOL     OW11080   3.175   5.817   1.967
 3394SOL    HW111081   3.220   5.879   2.031
 3394SOL    HW211082   3.170   5.860   1.877
 3395SOL     OW11083   1.640   5.826   3.025
 3395SOL    HW111084   1.592   5.744   3.056
 3395SOL    HW211085   1.617   5.845   2.930
 3396SOL     OW11086   3.750   6.977   4.102
 3396SOL    HW111087   3.668   6.960   4.048
 3396SOL    HW211088   3.759   6.907   4.173
 3397SOL     OW11089   2.923   6.209   2.203
 3397SOL    HW111090   2.916   6.204   2.104
 3397SOL    HW211091   3.014   6.240   2.229
 3398SOL     OW11092   6.363   0.338   0.629
 3398SOL    HW111093   6.365   0.241   0.653
 3398SOL    HW211094   6.298   0.352   0.554
 3399SOL     OW11095   6.508   6.571   2.224
 3399SOL    HW111096   6.521   6.670   2.234
 3399SOL    HW211097   6.595   6.527   2.204
 3400SOL     OW11098   3.586   3.686   5.605
 3400SOL    HW111099   3.664   3.710   5.663
 3400SOL    HW211100   3.615   3.618   5.537
 3401SOL     OW11101   6.989   3.600   3.774
 3401SOL    HW111102   6.981   3.697   3.752
 3401SOL    HW211103   6.915   3.549   3.731
 3402SOL     OW11104   6.401   3.809   0.294
 3402SOL    HW111105   6.369   3.728   0.244
 3402SOL    HW211106   6.355   3.814   0.383
 3403SOL     OW11107   5.830   0.190   3.604
 3403SOL    HW111108   5.743   0.143   3.593
 3403SOL    HW211109   5.833   0.233   3.694
 3404SOL     OW11110   5.138   4.926   2.760
 3404SOL    HW111111   5.188   4.962   2.838
 3404SOL    HW211112   5.040   4.929   2.780
 3405SOL     OW11113   4.471   6.899   0.946
 3405SOL    HW111114   4.449   6.838   0.870
 3405SOL    HW211115   4.559   6.872   0.985
 3406SOL     OW11116   4.758   5.081   0.892
 3406SOL    HW111117   4.713   4.991   0.892
 3406SOL    HW211118   4.798   5.097   0.983
 3407SOL     OW11119   2.198   1.795   0.905
 3407SOL    HW111120   2.149   1.836   0.827
 3407SOL    HW211121   2.256   1.864   0.947
 3408SOL     OW11122   2.928   6.732   4.203
 3408SOL    HW111123   2.957   6.746   4.109
 3408SOL    HW211124   2.992   6.669   4.249
 3409SOL     OW11125   4.440   2.229   6.635
 3409SOL    HW111126   4.340   2.228   6.635
 3409SOL    HW211127   4.473   2.323   6.623
 3410SOL     OW11128   6.213   1.618   2.411
 3410SOL    HW111129   6.121   1.617   2.372
 3410SOL    HW211130   6.261   1.535   2.384
 3411SOL     OW11131   5.570   3.472   6.287
 3411SOL    HW111132   5.669   3.460   6.278
 3411SOL    HW211133   5.536   3.417   6.363
 3412SOL     OW11134   5.080   3.710   3.238
 3412SOL    HW111135   5.081   3.763   3.323
 3412SOL    HW211136   5.035   3.622   3.254
 3413SOL     OW11137   1.191   2.571   0.588
 3413SOL    HW111138   1.145   2.649   0.630
 3413SOL    HW211139   1.284   2.563   0.625
 3414SOL     OW11140   3.649   3.383   2.122
 3414SOL    HW111141   3.633   3.297   2.170
 3414SOL    HW211142   3.740   3.381   2.081
 3415SOL     OW11143   2.833   0.531   6.580
 3415SOL    HW111144   2.909   0.582   6.622
 3415SOL    HW211145   2.785   0.479   6.650
 3416SOL     OW11146   5.216   6.150   6.447
 3416SOL    HW111147   5.302   6.143   6.396
 3416SOL    HW211148   5.204   6.069   6.504
 3417SOL     OW11149   6.200   0.775   2.127
 3417SOL    HW111150   6.184   0.695   2.069
 3417SOL    HW211151   6.188   0.749   2.223
 3418SOL     OW11152   4.300   5.449   1.265
 3418SOL    HW111153   4.258   5.379   1.323
 3418SOL    HW211154   4.362   5.506   1.320
 3419SOL     OW11155   3.002   4.699   5.347
 3419SOL    HW111156   2.953   4.629   5.294
 3419SOL    HW211157   2.989   4.682   5.445
 3420SOL     OW11158   5.319   0.879   2.164
 3420SOL    HW111159   5.290   0.954   2.223
 3420SOL    HW211160   5.317   0.908   2.068
 3421SOL     OW11161   0.660   1.517   4.112
 3421SOL    HW111162   0.627   1.524   4.018
 3421SOL    HW211163   0.584   1.530   4.176
 3422SOL     OW11164   3.194   5.119   1.299
 3422SOL    HW111165   3.145   5.046   1.251
 3422SOL    HW211166   3.202   5.198   1.239
 3423SOL     OW11167   1.656   5.650   5.639
 3423SOL    HW111168   1.654   5.630   5.737
 3423SOL    HW211169   1.575   5.703   5.614
 3424SOL     OW11170   5.803   5.719   2.478
 3424SOL    HW111171   5.766   5.665   2.554
 3424SOL    HW211172   5.882   5.671   2.438
 3425SOL     OW11173   5.450   2.994   6.304
 3425SOL    HW111174   5.361   3.035   6.326
 3425SOL    HW211175   5.438   2.924   6.234
 3426SOL     OW11176   6.737   5.323   6.260
 3426SOL    HW111177   6.727   5.422   6.249
 3426SOL    HW211178   6.692   5.295   6.345
 3427SOL     OW11179   1.604   1.065   6.663
 3427SOL    HW111180   1.632   1.082   6.758
 3427SOL    HW211181   1.513   1.024   6.663
 3428SOL     OW11182   4.296   0.785   4.045
 3428SOL    HW111183   4.350   0.844   4.105
 3428SOL    HW211184   4.326   0.795   3.951
 3429SOL     OW11185   5.079   5.416   0.139
 3429SOL    HW111186   5.152   5.476   0.171
 3429SOL    HW211187   5.039   5.367   0.218
 3430SOL     OW11188   2.795   4.041   6.879
 3430SOL    HW111189   2.714   4.025   6.935
 3430SOL    HW211190   2.794   3.978   6.801
 3431SOL     OW11191   1.365   3.661   1.831
 3431SOL    HW111192   1.304   3.740   1.837
 3431SOL    HW211193   1.460   3.693   1.829
 3432SOL     OW11194   7.014   5.387   6.365
 3432SOL    HW111195   6.923   5.359   6.333
 3432SOL    HW211196   0.021   5.327   6.441
 3433SOL     OW11197   0.791   1.353   0.043
 3433SOL    HW111198   0.858   1.396   0.105
 3433SOL    HW211199   0.784   1.256   0.065
 3434SOL     OW11200   4.187   2.553   1.740
 3434SOL    HW111201   4.143   2.490   1.676
 3434SOL    HW211202   4.120   2.620   1.772
 3435SOL     OW11203   3.033   2.785   1.392
 3435SOL    HW111204   2.961   2.799   1.460
 3435SOL    HW211205   3.096   2.715   1.424
 3436SOL     OW11206   4.460   5.486   5.138
 3436SOL    HW111207   4.376   5.536   5.119
 3436SOL    HW211208   4.445   5.425   5.216
 3437SOL     OW11209   2.751   5.780   0.833
 3437SOL    HW111210   2.847   5.760   0.855
 3437SOL    HW211211   2.693   5.748   0.908
 3438SOL     OW11212   2.590   4.387   0.391
 3438SOL    HW111213   2.521   4.363   0.459
 3438SOL    HW211214   2.578   4.482   0.363
 3439SOL     OW11215   2.589   5.791   1.342
 3439SOL    HW111216   2.517   5.860   1.342
 3439SOL    HW211217   2.623   5.778   1.435
 3440SOL     OW11218   4.122   5.055   5.965
 3440SOL    HW111219   4.194   4.997   6.003
 3440SOL    HW211220   4.045   4.998   5.937
 3441SOL     OW11221   0.252   5.425   5.636
 3441SOL    HW111222   0.301   5.464   5.714
 3441SOL    HW211223   0.318   5.384   5.573
 3442SOL     OW11224   2.047   1.919   0.713
 3442SOL    HW111225   2.093   1.999   0.675
 3442SOL    HW211226   2.015   1.861   0.638
 3443SOL     OW11227   6.717   5.604   2.479
 3443SOL    HW111228   6.657   5.645   2.410
 3443SOL    HW211229   6.662   5.574   2.557
 3444SOL     OW11230   1.218   3.664   6.221
 3444SOL    HW111231   1.154   3.740   6.209
 3444SOL    HW211232   1.298   3.695   6.271
 3445SOL     OW11233   6.035   4.702   4.406
 3445SOL    HW111234   6.093   4.690   4.486
 3445SOL    HW211235   6.077   4.769   4.344
 3446SOL     OW11236   5.070   1.558   0.063
 3446SOL    HW111237   5.110   1.605   0.141
 3446SOL    HW211238   4.997   1.615   0.024
 3447SOL     OW11239   4.850   1.644   6.028
 3447SOL    HW111240   4.769   1.603   5.985
 3447SOL    HW211241   4.874   1.592   6.110
 3448SOL     OW11242   0.534   5.203   4.611
 3448SOL    HW111243   0.466   5.252   4.664
 3448SOL    HW211244   0.561   5.258   4.532
 3449SOL     OW11245   1.305   4.383   4.723
 3449SOL    HW111246   1.260   4.458   4.674
 3449SOL    HW211247   1.242   4.306   4.730
 3450SOL     OW11248   2.108   6.007   3.440
 3450SOL    HW111249   2.184   6.070   3.454
 3450SOL    HW211250   2.093   5.995   3.342
 3451SOL     OW11251   2.558   1.876   1.152
 3451SOL    HW111252   2.525   1.941   1.221
 3451SOL    HW211253   2.501   1.883   1.070
 3452SOL     OW11254   4.433   1.156   5.395
 3452SOL    HW111255   4.433   1.233   5.331
 3452SOL    HW211256   4.435   1.070   5.343
 3453SOL     OW11257   4.357   6.721   5.483
 3453SOL    HW111258   4.387   6.682   5.571
 3453SOL    HW211259   4.432   6.716   5.417
 3454SOL     OW11260   1.469   3.258   4.027
 3454SOL    HW111261   1.537   3.321   3.991
 3454SOL    HW211262   1.489   3.239   4.124
 3455SOL     OW11263   1.584   3.984   6.068
 3455SOL    HW111264   1.590   4.083   6.076
 3455SOL    HW211265   1.572   3.958   5.972
 3456SOL     OW11266   4.600   5.325   2.738
 3456SOL    HW111267   4.521   5.292   2.686
 3456SOL    HW211268   4.604   5.425   2.732
 3457SOL     OW11269   3.913   3.891   0.505
 3457SOL    HW111270   3.866   3.817   0.552
 3457SOL    HW211271   3.903   3.880   0.406
 3458SOL     OW11272   4.136   1.888   1.238
 3458SOL    HW111273   4.091   1.909   1.324
 3458SOL    HW211274   4.183   1.969   1.203
 3459SOL     OW11275   6.446   0.695   2.995
 3459SOL    HW111276   6.534   0.741   3.007
 3459SOL    HW211277   6.403   0.680   3.084
 3460SOL     OW11278   4.748   1.623   5.002
 3460SOL    HW111279   4.729   1.532   4.966
 3460SOL    HW211280   4.669   1.654   5.056
 3461SOL     OW11281   4.684   4.554   4.109
 3461SOL    HW111282   4.606   4.576   4.050
 3461SOL    HW211283   4.688   4.455   4.124
 3462SOL     OW11284   1.273   4.285   6.792
 3462SOL    HW111285   1.246   4.192   6.816
 3462SOL    HW211286   1.296   4.336   6.875
 3463SOL     OW11287   6.418   3.428   6.792
 3463SOL    HW111288   6.331   3.467   6.762
 3463SOL    HW211289   6.453   3.481   6.868
 3464SOL     OW11290   7.011   5.329   4.498
 3464SOL    HW111291   0.035   5.248   4.459
 3464SOL    HW211292   6.985   5.309   4.593
 3465SOL     OW11293   0.606   2.877   1.048
 3465SOL    HW111294   0.598   2.977   1.058
 3465SOL    HW211295   0.599   2.835   1.138
 3466SOL     OW11296   5.465   4.285   3.129
 3466SOL    HW111297   5.461   4.229   3.212
 3466SOL    HW211298   5.553   4.269   3.084
 3467SOL     OW11299   2.220   1.626   6.107
 3467SOL    HW111300   2.273   1.709   6.128
 3467SOL    HW211301   2.131   1.652   6.069
 3468SOL     OW11302   5.469   4.821   1.862
 3468SOL    HW111303   5.527   4.855   1.937
 3468SOL    HW211304   5.402   4.891   1.837
 3469SOL     OW11305   5.812   3.930   0.961
 3469SOL    HW111306   5.864   3.980   1.030
 3469SOL    HW211307   5.715   3.936   0.981
 3470SOL     OW11308   6.484   6.004   6.653
 3470SOL    HW111309   6.414   5.996   6.582
 3470SOL    HW211310   6.456   6.072   6.721
 3471SOL     OW11311   4.039   6.928   4.273
 3471SOL    HW111312   3.963   6.863   4.278
 3471SOL    HW211313   4.091   6.911   4.189
 3472SOL     OW11314   3.524   1.052   4.365
 3472SOL    HW111315   3.618   1.076   4.340
 3472SOL    HW211316   3.491   0.979   4.305
 3473SOL     OW11317   5.057   6.736   3.815
 3473SOL    HW111318   5.120   6.673   3.769
 3473SOL    HW211319   5.053   6.714   3.912
 3474SOL     OW11320   5.602   5.119   0.411
 3474SOL    HW111321   5.651   5.037   0.438
 3474SOL    HW211322   5.568   5.166   0.493
 3475SOL     OW11323   2.048   5.638   5.077
 3475SOL    HW111324   2.041   5.545   5.039
 3475SOL    HW211325   2.035   5.705   5.003
 3476SOL     OW11326   2.877   1.877   3.394
 3476SOL    HW111327   2.856   1.945   3.464
 3476SOL    HW211328   2.970   1.891   3.360
 3477SOL     OW11329   4.677   5.411   2.255
 3477SOL    HW111330   4.744   5.349   2.295
 3477SOL    HW211331   4.720   5.499   2.236
 3478SOL     OW11332   3.371   4.720   0.162
 3478SOL    HW111333   3.443   4.745   0.227
 3478SOL    HW211334   3.413   4.680   0.080
 3479SOL     OW11335   1.418   0.691   0.417
 3479SOL    HW111336   1.437   0.598   0.449
 3479SOL    HW211337   1.396   0.750   0.495
 3480SOL     OW11338   1.333   6.390   4.283
 3480SOL    HW111339   1.421   6.420   4.321
 3480SOL    HW211340   1.350   6.330   4.205
 3481SOL     OW11341   2.277   4.337   0.577
 3481SOL    HW111342   2.341   4.265   0.605
 3481SOL    HW211343   2.282   4.412   0.642
 3482SOL     OW11344   7.010   2.214   1.731
 3482SOL    HW111345   0.073   2.228   1.677
 3482SOL    HW211346   0.006   2.245   1.825
 3483SOL     OW11347   4.436   1.563   1.375
 3483SOL    HW111348   4.491   1.561   1.459
 3483SOL    HW211349   4.339   1.557   1.399
 3484SOL     OW11350   3.226   4.069   3.909
 3484SOL    HW111351   3.155   4.057   3.979
 3484SOL    HW211352   3.298   4.127   3.945
 3485SOL     OW11353   6.331   2.402   3.846
 3485SOL    HW111354   6.234   2.387   3.824
 3485SOL    HW211355   6.340   2.418   3.944
 3486SOL     OW11356   6.265   1.841   2.584
 3486SOL    HW111357   6.225   1.768   2.529
 3486SOL    HW211358   6.364   1.839   2.574
 3487SOL     OW11359   1.636   6.421   1.074
 3487SOL    HW111360   1.671   6.466   0.991
 3487SOL    HW211361   1.664   6.325   1.075
 3488SOL     OW11362   6.685   3.207   5.439
 3488SOL    HW111363   6.598   3.192   5.393
 3488SOL    HW211364   6.741   3.124   5.433
 3489SOL     OW11365   2.796   5.510   6.965
 3489SOL    HW111366   2.697   5.505   6.951
 3489SOL    HW211367   2.820   5.602   6.996
 3490SOL     OW11368   5.780   3.345   0.491
 3490SOL    HW111369   5.696   3.353   0.437
 3490SOL    HW211370   5.788   3.252   0.527
 3491SOL     OW11371   5.868   2.403   5.143
 3491SOL    HW111372   5.935   2.463   5.186
 3491SOL    HW211373   5.785   2.400   5.198
 3492SOL     OW11374   0.515   4.219   6.305
 3492SOL    HW111375   0.504   4.248   6.400
 3492SOL    HW211376   0.514   4.119   6.300
 3493SOL     OW11377   0.087   5.267   1.138
 3493SOL    HW111378   0.086   5.169   1.121
 3493SOL    HW211379   0.022   5.313   1.077
 3494SOL     OW11380   2.984   0.404   0.846
 3494SOL    HW111381   2.953   0.456   0.926
 3494SOL    HW211382   2.920   0.419   0.771
 3495SOL     OW11383   5.784   4.490   5.624
 3495SOL    HW111384   5.730   4.445   5.553
 3495SOL    HW211385   5.880   4.492   5.597
 3496SOL     OW11386   0.542   6.438   1.653
 3496SOL    HW111387   0.443   6.448   1.663
 3496SOL    HW211388   0.563   6.361   1.593
 3497SOL     OW11389   2.943   0.486   4.963
 3497SOL    HW111390   2.980   0.578   4.945
 3497SOL    HW211391   3.018   0.425   4.989
 3498SOL     OW11392   1.668   1.942   0.453
 3498SOL    HW111393   1.689   1.913   0.359
 3498SOL    HW211394   1.571   1.925   0.472
 3499SOL     OW11395   6.818   3.822   2.916
 3499SOL    HW111396   6.740   3.832   2.854
 3499SOL    HW211397   6.880   3.752   2.880
 3500SOL     OW11398   6.692   2.298   0.590
 3500SOL    HW111399   6.610   2.246   0.568
 3500SOL    HW211400   6.771   2.257   0.545
 3501SOL     OW11401   6.808   5.231   3.366
 3501SOL    HW111402   6.728   5.178   3.338
 3501SOL    HW211403   6.886   5.207   3.309
 3502SOL     OW11404   1.040   6.559   1.018
 3502SOL    HW111405   1.104   6.625   1.056
 3502SOL    HW211406   1.075   6.523   0.931
 3503SOL     OW11407   2.783   0.951   3.735
 3503SOL    HW111408   2.766   0.863   3.779
 3503SOL    HW211409   2.816   1.017   3.803
 3504SOL     OW11410   2.295   2.862   2.469
 3504SOL    HW111411   2.269   2.958   2.466
 3504SOL    HW211412   2.293   2.830   2.563
 3505SOL     OW11413   4.266   6.505   4.646
 3505SOL    HW111414   4.242   6.461   4.732
 3505SOL    HW211415   4.319   6.588   4.665
 3506SOL     OW11416   0.095   3.706   2.685
 3506SOL    HW111417   0.192   3.731   2.684
 3506SOL    HW211418   0.074   3.653   2.604
 3507SOL     OW11419   6.878   0.303   5.181
 3507SOL    HW111420   6.945   0.250   5.129
 3507SOL    HW211421   6.914   0.318   5.273
 3508SOL     OW11422   0.605   4.806   6.872
 3508SOL    HW111423   0.704   4.813   6.863
 3508SOL    HW211424   0.574   4.717   6.842
 3509SOL     OW11425   4.189   6.562   6.612
 3509SOL    HW111426   4.121   6.632   6.590
 3509SOL    HW211427   4.154   6.502   6.683
 3510SOL     OW11428   2.131   1.702   2.645
 3510SOL    HW111429   2.202   1.761   2.605
 3510SOL    HW211430   2.042   1.745   2.632
 3511SOL     OW11431   1.361   0.850   4.076
 3511SOL    HW111432   1.347   0.886   3.984
 3511SOL    HW211433   1.293   0.779   4.095
 3512SOL     OW11434   3.013   3.346   2.056
 3512SOL    HW111435   3.107   3.363   2.026
 3512SOL    HW211436   2.960   3.307   1.981
 3513SOL     OW11437   0.247   5.184   0.702
 3513SOL    HW111438   0.336   5.194   0.746
 3513SOL    HW211439   0.211   5.092   0.721
 3514SOL     OW11440   3.779   5.842   3.524
 3514SOL    HW111441   3.689   5.854   3.481
 3514SOL    HW211442   3.769   5.844   3.623
 3515SOL     OW11443   3.842   5.619   4.332
 3515SOL    HW111444   3.771   5.558   4.364
 3515SOL    HW211445   3.911   5.631   4.403
 3516SOL     OW11446   1.411   1.278   0.591
 3516SOL    HW111447   1.465   1.359   0.614
 3516SOL    HW211448   1.432   1.249   0.498
 3517SOL     OW11449   0.317   0.567   6.935
 3517SOL    HW111450   0.349   0.587   0.008
 3517SOL    HW211451   0.232   0.615   6.918
 3518SOL     OW11452   4.096   3.764   6.239
 3518SOL    HW111453   4.123   3.730   6.148
 3518SOL    HW211454   4.178   3.787   6.291
 3519SOL     OW11455   4.107   6.909   0.081
 3519SOL    HW111456   4.198   6.936   0.050
 3519SOL    HW211457   4.114   6.828   0.139
 3520SOL     OW11458   4.245   5.072   1.198
 3520SOL    HW111459   4.265   5.031   1.108
 3520SOL    HW211460   4.325   5.061   1.257
 3521SOL     OW11461   0.016   1.650   5.617
 3521SOL    HW111462   0.037   1.663   5.714
 3521SOL    HW211463   0.101   1.641   5.565
 3522SOL     OW11464   2.034   0.529   0.964
 3522SOL    HW111465   2.062   0.433   0.959
 3522SOL    HW211466   2.077   0.573   1.042
 3523SOL     OW11467   2.345   4.494   4.862
 3523SOL    HW111468   2.357   4.593   4.864
 3523SOL    HW211469   2.397   4.452   4.937
 3524SOL     OW11470   2.471   1.423   3.949
 3524SOL    HW111471   2.491   1.481   3.869
 3524SOL    HW211472   2.548   1.361   3.965
 3525SOL     OW11473   2.164   3.335   3.972
 3525SOL    HW111474   2.188   3.295   4.060
 3525SOL    HW211475   2.179   3.266   3.900
 3526SOL     OW11476   3.736   6.119   3.710
 3526SOL    HW111477   3.636   6.119   3.715
 3526SOL    HW211478   3.765   6.158   3.622
 3527SOL     OW11479   6.890   4.070   6.256
 3527SOL    HW111480   6.925   4.027   6.338
 3527SOL    HW211481   6.874   4.000   6.186
 3528SOL     OW11482   0.995   6.292   3.832
 3528SOL    HW111483   1.030   6.265   3.922
 3528SOL    HW211484   1.072   6.302   3.768
 3529SOL     OW11485   3.456   6.528   0.311
 3529SOL    HW111486   3.457   6.513   0.410
 3529SOL    HW211487   3.365   6.557   0.282
 3530SOL     OW11488   1.572   5.687   2.326
 3530SOL    HW111489   1.604   5.675   2.232
 3530SOL    HW211490   1.632   5.637   2.389
 3531SOL     OW11491   5.600   4.221   6.691
 3531SOL    HW111492   5.578   4.149   6.757
 3531SOL    HW211493   5.672   4.188   6.629
 3532SOL     OW11494   2.615   6.721   6.557
 3532SOL    HW111495   2.611   6.692   6.461
 3532SOL    HW211496   2.708   6.710   6.592
 3533SOL     OW11497   1.437   1.479   3.349
 3533SOL    HW111498   1.495   1.522   3.418
 3533SOL    HW211499   1.480   1.394   3.317
 3534SOL     OW11500   4.716   6.573   4.218
 3534SOL    HW111501   4.734   6.597   4.122
 3534SOL    HW211502   4.759   6.486   4.240
 3535SOL     OW11503   4.162   4.619   6.968
 3535SOL    HW111504   4.239   4.632   0.009
 3535SOL    HW211505   4.194   4.578   6.882
 3536SOL     OW11506   2.140   3.116   2.438
 3536SOL    HW111507   2.111   3.086   2.347
 3536SOL    HW211508   2.059   3.136   2.494
 3537SOL     OW11509   3.221   5.174   1.902
 3537SOL    HW111510   3.310   5.214   1.879
 3537SOL    HW211511   3.157   5.246   1.927
 3538SOL     OW11512   3.120   0.598   3.534
 3538SOL    HW111513   3.185   0.562   3.467
 3538SOL    HW211514   3.091   0.524   3.596
 3539SOL     OW11515   5.440   5.751   5.994
 3539SOL    HW111516   5.465   5.657   5.973
 3539SOL    HW211517   5.381   5.753   6.074
 3540SOL     OW11518   5.108   3.966   0.351
 3540SOL    HW111519   5.142   4.059   0.360
 3540SOL    HW211520   5.112   3.939   0.254
 3541SOL     OW11521   0.533   2.842   2.222
 3541SOL    HW111522   0.617   2.896   2.228
 3541SOL    HW211523   0.464   2.894   2.171
 3542SOL     OW11524   5.803   1.188   0.016
 3542SOL    HW111525   5.801   1.094   7.001
 3542SOL    HW211526   5.882   1.199   0.076
 3543SOL     OW11527   7.018   2.977   4.869
 3543SOL    HW111528   6.995   2.985   4.966
 3543SOL    HW211529   0.023   2.882   4.848
 3544SOL     OW11530   3.935   4.869   5.879
 3544SOL    HW111531   3.896   4.790   5.832
 3544SOL    HW211532   3.926   4.856   5.978
 3545SOL     OW11533   2.823   6.571   1.437
 3545SOL    HW111534   2.792   6.488   1.392
 3545SOL    HW211535   2.917   6.591   1.410
 3546SOL     OW11536   0.738   4.734   1.222
 3546SOL    HW111537   0.674   4.811   1.216
 3546SOL    HW211538   0.747   4.692   1.132
 3547SOL     OW11539   1.909   3.785   4.278
 3547SOL    HW111540   1.933   3.796   4.182
 3547SOL    HW211541   1.981   3.734   4.325
 3548SOL     OW11542   6.303   0.073   5.482
 3548SOL    HW111543   6.360   0.060   5.401
 3548SOL    HW211544   6.358   0.053   5.564
 3549SOL     OW11545   1.774   0.285   6.350
 3549SOL    HW111546   1.870   0.304   6.326
 3549SOL    HW211547   1.767   0.270   6.448
 3550SOL     OW11548   6.449   2.332   4.730
 3550SOL    HW111549   6.366   2.332   4.786
 3550SOL    HW211550   6.432   2.381   4.645
 3551SOL     OW11551   6.438   1.185   5.198
 3551SOL    HW111552   6.417   1.250   5.124
 3551SOL    HW211553   6.416   1.227   5.286
 3552SOL     OW11554   6.317   0.809   3.643
 3552SOL    HW111555   6.265   0.846   3.566
 3552SOL    HW211556   6.309   0.870   3.722
 3553SOL     OW11557   5.331   6.233   6.724
 3553SOL    HW111558   5.312   6.305   6.657
 3553SOL    HW211559   5.255   6.168   6.726
 3554SOL     OW11560   6.347   3.793   6.785
 3554SOL    HW111561   6.330   3.824   6.878
 3554SOL    HW211562   6.264   3.803   6.730
 3555SOL     OW11563   3.402   1.170   5.493
 3555SOL    HW111564   3.408   1.242   5.563
 3555SOL    HW211565   3.494   1.145   5.462
 3556SOL     OW11566   5.191   1.320   0.831
 3556SOL    HW111567   5.107   1.305   0.883
 3556SOL    HW211568   5.266   1.342   0.894
 3557SOL     OW11569   4.715   0.262   1.104
 3557SOL    HW111570   4.654   0.210   1.044
 3557SOL    HW211571   4.806   0.265   1.064
 3558SOL     OW11572   4.226   5.705   3.040
 3558SOL    HW111573   4.213   5.611   3.009
 3558SOL    HW211574   4.194   5.713   3.135
 3559SOL     OW11575   4.492   6.084   6.536
 3559SOL    HW111576   4.547   6.149   6.588
 3559SOL    HW211577   4.439   6.027   6.599
 3560SOL     OW11578   1.899   5.892   4.400
 3560SOL    HW111579   1.802   5.915   4.401
 3560SOL    HW211580   1.913   5.810   4.345
 3561SOL     OW11581   3.963   2.830   6.366
 3561SOL    HW111582   3.975   2.927   6.389
 3561SOL    HW211583   3.871   2.801   6.391
 3562SOL     OW11584   2.684   0.952   0.450
 3562SOL    HW111585   2.763   0.936   0.391
 3562SOL    HW211586   2.656   0.865   0.492
 3563SOL     OW11587   6.240   1.632   6.354
 3563SOL    HW111588   6.161   1.577   6.329
 3563SOL    HW211589   6.302   1.640   6.276
 3564SOL     OW11590   5.624   2.937   2.876
 3564SOL    HW111591   5.623   2.949   2.776
 3564SOL    HW211592   5.698   2.990   2.915
 3565SOL     OW11593   4.800   6.344   4.788
 3565SOL    HW111594   4.808   6.245   4.774
 3565SOL    HW211595   4.709   6.365   4.823
 3566SOL     OW11596   0.733   1.313   4.842
 3566SOL    HW111597   0.648   1.276   4.879
 3566SOL    HW211598   0.804   1.242   4.847
 3567SOL     OW11599   1.055   4.449   6.659
 3567SOL    HW111600   1.086   4.411   6.572
 3567SOL    HW211601   1.129   4.440   6.727
 3568SOL     OW11602   2.176   4.413   5.459
 3568SOL    HW111603   2.274   4.425   5.476
 3568SOL    HW211604   2.157   4.317   5.442
 3569SOL     OW11605   0.553   0.325   3.497
 3569SOL    HW111606   0.584   0.377   3.577
 3569SOL    HW211607   0.524   0.234   3.526
 3570SOL     OW11608   0.560   1.944   4.980
 3570SOL    HW111609   0.649   1.935   5.024
 3570SOL    HW211610   0.569   2.001   4.899
 3571SOL     OW11611   6.700   5.620   4.915
 3571SOL    HW111612   6.616   5.566   4.907
 3571SOL    HW211613   6.770   5.582   4.855
 3572SOL     OW11614   5.569   6.602   5.851
 3572SOL    HW111615   5.566   6.653   5.765
 3572SOL    HW211616   5.603   6.509   5.834
 3573SOL     OW11617   0.087   2.892   1.715
 3573SOL    HW111618   0.093   2.890   1.815
 3573SOL    HW211619   0.082   2.799   1.680
 3574SOL     OW11620   0.330   3.749   0.143
 3574SOL    HW111621   0.328   3.772   0.045
 3574SOL    HW211622   0.424   3.751   0.176
 3575SOL     OW11623   6.718   0.650   2.430
 3575SOL    HW111624   6.811   0.665   2.399
 3575SOL    HW211625   6.693   0.719   2.498
 3576SOL     OW11626   0.244   0.843   0.784
 3576SOL    HW111627   0.268   0.901   0.862
 3576SOL    HW211628   0.294   0.757   0.789
 3577SOL     OW11629   2.564   4.593   0.648
 3577SOL    HW111630   2.548   4.635   0.559
 3577SOL    HW211631   2.477   4.585   0.697
 3578SOL     OW11632   3.369   4.671   1.694
 3578SOL    HW111633   3.457   4.698   1.733
 3578SOL    HW211634   3.347   4.733   1.618
 3579SOL     OW11635   2.540   3.001   6.685
 3579SOL    HW111636   2.573   2.916   6.645
 3579SOL    HW211637   2.574   3.010   6.778
 3580SOL     OW11638   5.686   1.665   2.537
 3580SOL    HW111639   5.700   1.575   2.494
 3580SOL    HW211640   5.629   1.722   2.478
 3581SOL     OW11641   6.788   1.647   2.692
 3581SOL    HW111642   6.846   1.635   2.611
 3581SOL    HW211643   6.791   1.563   2.747
 3582SOL     OW11644   0.993   0.668   5.688
 3582SOL    HW111645   0.988   0.569   5.676
 3582SOL    HW211646   1.028   0.690   5.779
 3583SOL     OW11647   1.324   6.952   2.242
 3583SOL    HW111648   1.402   7.006   2.273
 3583SOL    HW211649   1.329   6.861   2.283
 3584SOL     OW11650   5.053   0.343   4.672
 3584SOL    HW111651   4.975   0.281   4.672
 3584SOL    HW211652   5.092   0.348   4.764
 3585SOL     OW11653   2.386   4.785   3.340
 3585SOL    HW111654   2.469   4.730   3.334
 3585SOL    HW211655   2.306   4.725   3.338
 3586SOL     OW11656   1.131   1.248   7.018
 3586SOL    HW111657   1.100   1.326   6.965
 3586SOL    HW211658   1.231   1.240   7.011
 3587SOL     OW11659   3.507   6.637   5.373
 3587SOL    HW111660   3.605   6.652   5.376
 3587SOL    HW211661   3.484   6.587   5.289
 3588SOL     OW11662   2.586   2.512   5.321
 3588SOL    HW111663   2.564   2.603   5.356
 3588SOL    HW211664   2.546   2.501   5.230
 3589SOL     OW11665   2.795   6.216   4.645
 3589SOL    HW111666   2.771   6.285   4.577
 3589SOL    HW211667   2.894   6.201   4.645
 3590SOL     OW11668   1.169   6.049   0.027
 3590SOL    HW111669   1.126   5.986   0.091
 3590SOL    HW211670   1.266   6.058   0.049
 3591SOL     OW11671   5.102   1.585   4.845
 3591SOL    HW111672   5.013   1.550   4.818
 3591SOL    HW211673   5.092   1.653   4.917
 3592SOL     OW11674   5.577   1.836   2.361
 3592SOL    HW111675   5.514   1.910   2.383
 3592SOL    HW211676   5.565   1.808   2.266
 3593SOL     OW11677   0.296   5.007   4.195
 3593SOL    HW111678   0.242   4.940   4.247
 3593SOL    HW211679   0.378   5.031   4.248
 3594SOL     OW11680   4.482   1.360   4.695
 3594SOL    HW111681   4.482   1.260   4.707
 3594SOL    HW211682   4.398   1.398   4.734
 3595SOL     OW11683   2.051   6.505   6.557
 3595SOL    HW111684   1.967   6.471   6.601
 3595SOL    HW211685   2.130   6.477   6.611
 3596SOL     OW11686   6.398   3.589   2.784
 3596SOL    HW111687   6.434   3.574   2.692
 3596SOL    HW211688   6.440   3.525   2.848
 3597SOL     OW11689   4.342   0.369   4.041
 3597SOL    HW111690   4.360   0.270   4.037
 3597SOL    HW211691   4.358   0.409   3.951
 3598SOL     OW11692   2.034   6.669   0.031
 3598SOL    HW111693   2.105   6.734   0.002
 3598SOL    HW211694   1.944   6.707   0.011
 3599SOL     OW11695   0.195   2.347   3.858
 3599SOL    HW111696   0.185   2.293   3.774
 3599SOL    HW211697   0.291   2.348   3.886
 3600SOL     OW11698   6.443   6.735   1.031
 3600SOL    HW111699   6.349   6.745   0.999
 3600SOL    HW211700   6.487   6.824   1.035
 3601SOL     OW11701   6.808   3.528   5.814
 3601SOL    HW111702   6.778   3.565   5.902
 3601SOL    HW211703   6.840   3.602   5.756
 3602SOL     OW11704   3.384   2.843   0.778
 3602SOL    HW111705   3.372   2.784   0.858
 3602SOL    HW211706   3.298   2.890   0.759
 3603SOL     OW11707   3.942   4.911   5.091
 3603SOL    HW111708   3.991   4.921   5.004
 3603SOL    HW211709   3.995   4.853   5.152
 3604SOL     OW11710   5.598   4.517   3.471
 3604SOL    HW111711   5.542   4.467   3.536
 3604SOL    HW211712   5.607   4.613   3.500
 3605SOL     OW11713   5.365   1.658   6.446
 3605SOL    HW111714   5.337   1.703   6.361
 3605SOL    HW211715   5.422   1.579   6.423
 3606SOL     OW11716   2.013   3.537   2.510
 3606SOL    HW111717   1.945   3.592   2.462
 3606SOL    HW211718   2.041   3.460   2.452
 3607SOL     OW11719   4.101   6.584   5.483
 3607SOL    HW111720   4.193   6.604   5.447
 3607SOL    HW211721   4.073   6.493   5.453
 3608SOL     OW11722   6.816   3.459   2.805
 3608SOL    HW111723   6.893   3.500   2.853
 3608SOL    HW211724   6.811   3.496   2.712
 3609SOL     OW11725   0.417   1.066   3.966
 3609SOL    HW111726   0.395   1.161   3.944
 3609SOL    HW211727   0.351   1.005   3.923
 3610SOL     OW11728   1.591   4.883   5.531
 3610SOL    HW111729   1.496   4.886   5.560
 3610SOL    HW211730   1.600   4.821   5.453
 3611SOL     OW11731   4.758   4.510   6.208
 3611SOL    HW111732   4.689   4.537   6.141
 3611SOL    HW211733   4.848   4.544   6.179
 3612SOL     OW11734   2.383   5.607   1.240
 3612SOL    HW111735   2.452   5.669   1.278
 3612SOL    HW211736   2.397   5.598   1.141
 3613SOL     OW11737   5.607   4.906   6.046
 3613SOL    HW111738   5.517   4.898   6.005
 3613SOL    HW211739   5.672   4.938   5.978
 3614SOL     OW11740   3.556   3.422   4.888
 3614SOL    HW111741   3.505   3.468   4.815
 3614SOL    HW211742   3.572   3.327   4.864
 3615SOL     OW11743   5.944   6.378   6.695
 3615SOL    HW111744   5.922   6.445   6.624
 3615SOL    HW211745   5.861   6.357   6.748
 3616SOL     OW11746   6.505   1.504   4.278
 3616SOL    HW111747   6.453   1.425   4.245
 3616SOL    HW211748   6.479   1.586   4.226
 3617SOL     OW11749   0.233   0.364   1.049
 3617SOL    HW111750   0.315   0.393   1.099
 3617SOL    HW211751   0.152   0.377   1.107
 3618SOL     OW11752   4.017   5.821   6.175
 3618SOL    HW111753   4.024   5.725   6.202
 3618SOL    HW211754   3.947   5.866   6.230
 3619SOL     OW11755   5.043   3.676   3.871
 3619SOL    HW111756   5.005   3.674   3.963
 3619SOL    HW211757   5.134   3.633   3.871
 3620SOL     OW11758   5.817   1.695   5.168
 3620SOL    HW111759   5.731   1.743   5.184
 3620SOL    HW211760   5.801   1.596   5.166
 3621SOL     OW11761   1.974   2.700   6.850
 3621SOL    HW111762   2.009   2.692   6.943
 3621SOL    HW211763   2.050   2.711   6.787
 3622SOL     OW11764   1.423   4.067   0.907
 3622SOL    HW111765   1.445   3.995   0.973
 3622SOL    HW211766   1.505   4.091   0.856
 3623SOL     OW11767   6.376   4.946   4.777
 3623SOL    HW111768   6.299   4.923   4.837
 3623SOL    HW211769   6.448   4.877   4.786
 3624SOL     OW11770   1.734   0.236   2.023
 3624SOL    HW111771   1.709   0.265   1.931
 3624SOL    HW211772   1.777   0.145   2.019
 3625SOL     OW11773   1.722   2.041   5.240
 3625SOL    HW111774   1.680   2.086   5.319
 3625SOL    HW211775   1.774   2.109   5.187
 3626SOL     OW11776   1.893   3.355   5.892
 3626SOL    HW111777   1.828   3.281   5.876
 3626SOL    HW211778   1.849   3.428   5.945
 3627SOL     OW11779   4.085   3.637   4.498
 3627SOL    HW111780   4.008   3.589   4.456
 3627SOL    HW211781   4.130   3.694   4.429
 3628SOL     OW11782   3.059   5.685   3.794
 3628SOL    HW111783   3.050   5.774   3.749
 3628SOL    HW211784   2.975   5.633   3.781
 3629SOL     OW11785   5.915   3.634   4.938
 3629SOL    HW111786   5.977   3.569   4.981
 3629SOL    HW211787   5.909   3.614   4.840
 3630SOL     OW11788   6.019   1.830   4.415
 3630SOL    HW111789   6.090   1.812   4.346
 3630SOL    HW211790   6.019   1.756   4.483
 3631SOL     OW11791   1.862   0.680   4.261
 3631SOL    HW111792   1.849   0.779   4.249
 3631SOL    HW211793   1.939   0.650   4.205
 3632SOL     OW11794   5.127   6.544   6.002
 3632SOL    HW111795   5.143   6.478   6.076
 3632SOL    HW211796   5.183   6.625   6.016
 3633SOL     OW11797   0.702   2.571   5.683
 3633SOL    HW111798   0.688   2.479   5.647
 3633SOL    HW211799   0.752   2.566   5.769
 3634SOL     OW11800   2.569   4.800   6.650
 3634SOL    HW111801   2.486   4.766   6.607
 3634SOL    HW211802   2.568   4.900   6.650
 3635SOL     OW11803   1.799   1.656   4.429
 3635SOL    HW111804   1.854   1.633   4.348
 3635SOL    HW211805   1.716   1.704   4.401
 3636SOL     OW11806   0.677   6.923   1.637
 3636SOL    HW111807   0.712   6.857   1.570
 3636SOL    HW211808   0.615   6.877   1.700
 3637SOL     OW11809   5.440   1.502   2.424
 3637SOL    HW111810   5.539   1.493   2.415
 3637SOL    HW211811   5.418   1.587   2.472
 3638SOL     OW11812   7.008   4.826   3.034
 3638SOL    HW111813   6.976   4.911   2.992
 3638SOL    HW211814   0.061   4.786   2.980
 3639SOL     OW11815   2.644   6.252   6.864
 3639SOL    HW111816   2.687   6.318   6.803
 3639SOL    HW211817   2.583   6.193   6.811
 3640SOL     OW11818   2.229   6.453   2.633
 3640SOL    HW111819   2.208   6.537   2.682
 3640SOL    HW211820   2.317   6.418   2.663
 3641SOL     OW11821   2.066   1.018   5.273
 3641SOL    HW111822   2.126   1.097   5.264
 3641SOL    HW211823   2.055   0.995   5.370
 3642SOL     OW11824   6.284   0.115   2.650
 3642SOL    HW111825   6.337   0.157   2.724
 3642SOL    HW211826   6.242   0.030   2.683
 3643SOL     OW11827   3.929   6.684   3.952
 3643SOL    HW111828   3.875   6.753   3.904
 3643SOL    HW211829   3.988   6.729   4.019
 3644SOL     OW11830   5.903   0.522   1.958
 3644SOL    HW111831   5.883   0.598   2.020
 3644SOL    HW211832   5.849   0.532   1.874
 3645SOL     OW11833   4.677   5.515   3.958
 3645SOL    HW111834   4.721   5.549   4.041
 3645SOL    HW211835   4.658   5.417   3.967
 3646SOL     OW11836   0.656   5.267   5.130
 3646SOL    HW111837   0.577   5.323   5.106
 3646SOL    HW211838   0.739   5.309   5.092
 3647SOL     OW11839   3.373   3.160   0.870
 3647SOL    HW111840   3.445   3.194   0.930
 3647SOL    HW211841   3.284   3.193   0.903
 3648SOL     OW11842   2.788   6.620   3.664
 3648SOL    HW111843   2.742   6.593   3.580
 3648SOL    HW211844   2.750   6.707   3.696
 3649SOL     OW11845   3.347   2.880   3.259
 3649SOL    HW111846   3.322   2.871   3.356
 3649SOL    HW211847   3.446   2.872   3.249
 3650SOL     OW11848   5.574   6.376   1.589
 3650SOL    HW111849   5.652   6.317   1.566
 3650SOL    HW211850   5.602   6.471   1.579
 3651SOL     OW11851   1.750   5.492   1.919
 3651SOL    HW111852   1.737   5.514   1.822
 3651SOL    HW211853   1.729   5.395   1.934
 3652SOL     OW11854   4.189   6.528   4.047
 3652SOL    HW111855   4.127   6.453   4.022
 3652SOL    HW211856   4.271   6.491   4.089
 3653SOL     OW11857   0.482   3.592   3.376
 3653SOL    HW111858   0.534   3.514   3.341
 3653SOL    HW211859   0.428   3.632   3.303
 3654SOL     OW11860   2.024   6.742   1.861
 3654SOL    HW111861   2.105   6.692   1.832
 3654SOL    HW211862   1.991   6.704   1.948
 3655SOL     OW11863   6.283   1.002   3.844
 3655SOL    HW111864   6.339   1.077   3.809
 3655SOL    HW211865   6.231   1.033   3.923
 3656SOL     OW11866   1.857   1.790   3.124
 3656SOL    HW111867   1.885   1.828   3.036
 3656SOL    HW211868   1.877   1.856   3.196
 3657SOL     OW11869   5.686   5.323   1.318
 3657SOL    HW111870   5.631   5.384   1.374
 3657SOL    HW211871   5.627   5.257   1.272
 3658SOL     OW11872   2.893   4.370   5.619
 3658SOL    HW111873   2.809   4.335   5.576
 3658SOL    HW211874   2.902   4.467   5.599
 3659SOL     OW11875   1.404   3.741   6.394
 3659SOL    HW111876   1.322   3.796   6.414
 3659SOL    HW211877   1.480   3.774   6.450
 3660SOL     OW11878   5.019   4.039   0.944
 3660SOL    HW111879   4.936   3.995   0.977
 3660SOL    HW211880   5.053   4.103   1.013
 3661SOL     OW11881   5.595   1.096   1.768
 3661SOL    HW111882   5.610   1.005   1.807
 3661SOL    HW211883   5.522   1.091   1.699
 3662SOL     OW11884   1.693   6.277   4.246
 3662SOL    HW111885   1.654   6.368   4.260
 3662SOL    HW211886   1.793   6.284   4.244
 3663SOL     OW11887   2.295   2.563   6.121
 3663SOL    HW111888   2.378   2.580   6.067
 3663SOL    HW211889   2.217   2.604   6.074
 3664SOL     OW11890   3.815   0.447   2.352
 3664SOL    HW111891   3.863   0.432   2.266
 3664SOL    HW211892   3.773   0.538   2.351
 3665SOL     OW11893   2.585   1.363   5.518
 3665SOL    HW111894   2.571   1.418   5.436
 3665SOL    HW211895   2.579   1.422   5.599
 3666SOL     OW11896   0.918   4.591   3.144
 3666SOL    HW111897   0.870   4.642   3.215
 3666SOL    HW211898   0.871   4.504   3.128
 3667SOL     OW11899   0.166   0.776   0.154
 3667SOL    HW111900   0.217   0.853   0.192
 3667SOL    HW211901   0.071   0.781   0.185
 3668SOL     OW11902   2.077   6.704   1.420
 3668SOL    HW111903   2.072   6.770   1.495
 3668SOL    HW211904   2.173   6.685   1.399
 3669SOL     OW11905   5.055   1.599   4.107
 3669SOL    HW111906   4.985   1.592   4.178
 3669SOL    HW211907   5.145   1.582   4.148
 3670SOL     OW11908   3.224   4.915   5.918
 3670SOL    HW111909   3.290   4.924   5.843
 3670SOL    HW211910   3.194   5.006   5.948
 3671SOL     OW11911   2.010   1.384   3.200
 3671SOL    HW111912   2.062   1.468   3.219
 3671SOL    HW211913   2.015   1.324   3.279
 3672SOL     OW11914   6.611   6.147   0.236
 3672SOL    HW111915   6.568   6.132   0.324
 3672SOL    HW211916   6.676   6.073   0.217
 3673SOL     OW11917   4.197   6.975   6.403
 3673SOL    HW111918   4.160   0.048   6.399
 3673SOL    HW211919   4.253   6.957   6.322
 3674SOL     OW11920   0.912   6.279   0.855
 3674SOL    HW111921   0.915   6.367   0.902
 3674SOL    HW211922   0.817   6.248   0.848
 3675SOL     OW11923   2.265   2.137   4.224
 3675SOL    HW111924   2.302   2.104   4.311
 3675SOL    HW211925   2.177   2.094   4.207
 3676SOL     OW11926   1.389   5.208   2.498
 3676SOL    HW111927   1.321   5.155   2.448
 3676SOL    HW211928   1.353   5.300   2.515
 3677SOL     OW11929   6.215   0.901   3.369
 3677SOL    HW111930   6.144   0.970   3.354
 3677SOL    HW211931   6.297   0.925   3.317
 3678SOL     OW11932   0.605   2.652   4.041
 3678SOL    HW111933   0.637   2.590   4.112
 3678SOL    HW211934   0.582   2.600   3.958
 3679SOL     OW11935   6.143   1.354   1.744
 3679SOL    HW111936   6.213   1.304   1.794
 3679SOL    HW211937   6.067   1.292   1.723
 3680SOL     OW11938   6.105   4.450   4.905
 3680SOL    HW111939   6.203   4.437   4.921
 3680SOL    HW211940   6.070   4.521   4.966
 3681SOL     OW11941   5.355   0.635   5.129
 3681SOL    HW111942   5.298   0.600   5.204
 3681SOL    HW211943   5.297   0.659   5.051
 3682SOL     OW11944   6.909   2.005   6.786
 3682SOL    HW111945   6.924   1.914   6.747
 3682SOL    HW211946   6.976   2.069   6.748
 3683SOL     OW11947   5.018   6.372   3.415
 3683SOL    HW111948   4.962   6.427   3.477
 3683SOL    HW211949   5.109   6.413   3.407
 3684SOL     OW11950   2.350   4.022   1.723
 3684SOL    HW111951   2.323   4.094   1.658
 3684SOL    HW211952   2.318   4.046   1.814
 3685SOL     OW11953   5.585   6.043   5.435
 3685SOL    HW111954   5.625   5.998   5.355
 3685SOL    HW211955   5.503   5.993   5.464
 3686SOL     OW11956   0.309   4.088   0.374
 3686SOL    HW111957   0.253   4.009   0.397
 3686SOL    HW211958   0.271   4.170   0.418
 3687SOL     OW11959   4.083   0.861   0.467
 3687SOL    HW111960   4.033   0.896   0.546
 3687SOL    HW211961   4.172   0.905   0.460
 3688SOL     OW11962   0.208   3.100   0.085
 3688SOL    HW111963   0.187   3.194   0.059
 3688SOL    HW211964   0.169   3.037   0.019
 3689SOL     OW11965   1.921   6.207   3.692
 3689SOL    HW111966   2.008   6.188   3.738
 3689SOL    HW211967   1.855   6.243   3.759
 3690SOL     OW11968   4.773   4.897   5.641
 3690SOL    HW111969   4.834   4.970   5.610
 3690SOL    HW211970   4.789   4.880   5.739
 3691SOL     OW11971   3.249   3.307   6.303
 3691SOL    HW111972   3.229   3.377   6.235
 3691SOL    HW211973   3.164   3.274   6.344
 3692SOL     OW11974   7.002   0.396   5.401
 3692SOL    HW111975   0.053   0.457   5.437
 3692SOL    HW211976   6.981   0.326   5.470
 3693SOL     OW11977   1.472   1.296   3.589
 3693SOL    HW111978   1.413   1.227   3.547
 3693SOL    HW211979   1.416   1.362   3.638
 3694SOL     OW11980   1.548   4.895   3.870
 3694SOL    HW111981   1.485   4.820   3.887
 3694SOL    HW211982   1.585   4.928   3.958
 3695SOL     OW11983   2.107   2.422   0.745
 3695SOL    HW111984   2.191   2.428   0.692
 3695SOL    HW211985   2.042   2.492   0.713
 3696SOL     OW11986   3.027   6.010   5.618
 3696SOL    HW111987   3.062   6.003   5.524
 3696SOL    HW211988   3.077   5.947   5.677
 3697SOL     OW11989   5.332   0.897   3.220
 3697SOL    HW111990   5.412   0.955   3.206
 3697SOL    HW211991   5.253   0.936   3.172
 3698SOL     OW11992   3.072   7.007   6.097
 3698SOL    HW111993   3.063   6.949   6.016
 3698SOL    HW211994   3.169   7.016   6.120
 3699SOL     OW11995   0.980   5.338   2.279
 3699SOL    HW111996   1.054   5.356   2.214
 3699SOL    HW211997   0.977   5.411   2.346
 3700SOL     OW11998   6.269   0.558   3.733
 3700SOL    HW111999   6.299   0.646   3.696
 3700SOL    HW212000   6.317   0.540   3.819
 3701SOL     OW12001   4.048   1.435   3.707
 3701SOL    HW112002   4.134   1.385   3.694
 3701SOL    HW212003   3.977   1.394   3.650
 3702SOL     OW12004   4.554   1.412   6.628
 3702SOL    HW112005   4.578   1.506   6.607
 3702SOL    HW212006   4.617   1.374   6.695
 3703SOL     OW12007   3.703   5.013   0.988
 3703SOL    HW112008   3.742   4.922   0.981
 3703SOL    HW212009   3.619   5.010   1.042
 3704SOL     OW12010   3.216   6.476   0.988
 3704SOL    HW112011   3.172   6.562   1.013
 3704SOL    HW212012   3.313   6.492   0.970
 3705SOL     OW12013   6.902   0.862   4.349
 3705SOL    HW112014   6.972   0.890   4.283
 3705SOL    HW212015   6.811   0.872   4.308
 3706SOL     OW12016   2.610   1.822   3.287
 3706SOL    HW112017   2.705   1.812   3.316
 3706SOL    HW212018   2.606   1.867   3.198
 3707SOL     OW12019   4.265   2.331   5.402
 3707SOL    HW112020   4.344   2.392   5.400
 3707SOL    HW212021   4.267   2.277   5.486
 3708SOL     OW12022   6.491   0.368   0.311
 3708SOL    HW112023   6.444   0.426   0.244
 3708SOL    HW212024   6.448   0.379   0.400
 3709SOL     OW12025   6.996   6.514   6.551
 3709SOL    HW112026   0.069   6.495   6.582
 3709SOL    HW212027   6.940   6.541   6.629
 3710SOL     OW12028   0.606   4.998   6.383
 3710SOL    HW112029   0.676   5.055   6.340
 3710SOL    HW212030   0.565   4.938   6.314
 3711SOL     OW12031   6.757   5.139   2.014
 3711SOL    HW112032   6.699   5.158   1.935
 3711SOL    HW212033   6.725   5.192   2.093
 3712SOL     OW12034   1.417   6.437   6.102
 3712SOL    HW112035   1.343   6.375   6.078
 3712SOL    HW212036   1.412   6.461   6.199
 3713SOL     OW12037   3.565   5.041   6.233
 3713SOL    HW112038   3.627   4.985   6.289
 3713SOL    HW212039   3.618   5.097   6.170
 3714SOL     OW12040   4.762   2.026   5.198
 3714SOL    HW112041   4.672   2.006   5.235
 3714SOL    HW212042   4.806   1.941   5.169
 3715SOL     OW12043   4.757   4.218   3.586
 3715SOL    HW112044   4.847   4.256   3.568
 3715SOL    HW212045   4.705   4.214   3.501
 3716SOL     OW12046   0.987   1.158   4.899
 3716SOL    HW112047   1.003   1.068   4.859
 3716SOL    HW212048   1.042   1.226   4.851
 3717SOL     OW12049   5.713   0.605   6.945
 3717SOL    HW112050   5.649   0.645   6.879
 3717SOL    HW212051   5.723   0.508   6.926
 3718SOL     OW12052   0.739   6.234   6.240
 3718SOL    HW112053   0.647   6.207   6.212
 3718SOL    HW212054   0.746   6.334   6.236
 3719SOL     OW12055   3.656   4.187   0.312
 3719SOL    HW112056   3.736   4.212   0.368
 3719SOL    HW212057   3.598   4.124   0.364
 3720SOL     OW12058   6.967   1.294   6.189
 3720SOL    HW112059   0.016   1.342   6.244
 3720SOL    HW212060   6.885   1.352   6.181
 3721SOL     OW12061   5.255   3.310   0.282
 3721SOL    HW112062   5.195   3.301   0.202
 3721SOL    HW212063   5.200   3.323   0.364
 3722SOL     OW12064   4.348   6.305   1.044
 3722SOL    HW112065   4.370   6.401   1.026
 3722SOL    HW212066   4.337   6.291   1.143
 3723SOL     OW12067   4.368   1.228   0.761
 3723SOL    HW112068   4.405   1.317   0.788
 3723SOL    HW212069   4.384   1.162   0.834
 3724SOL     OW12070   1.050   4.151   6.305
 3724SOL    HW112071   1.084   4.111   6.219
 3724SOL    HW212072   0.953   4.131   6.316
 3725SOL     OW12073   5.302   6.360   1.616
 3725SOL    HW112074   5.399   6.382   1.603
 3725SOL    HW212075   5.247   6.442   1.601
 3726SOL     OW12076   6.405   3.291   1.835
 3726SOL    HW112077   6.438   3.380   1.866
 3726SOL    HW212078   6.430   3.221   1.903
 3727SOL     OW12079   2.712   2.716   5.710
 3727SOL    HW112080   2.773   2.788   5.741
 3727SOL    HW212081   2.765   2.635   5.686
 3728SOL     OW12082   0.810   4.197   6.445
 3728SOL    HW112083   0.736   4.245   6.493
 3728SOL    HW212084   0.771   4.142   6.371
 3729SOL     OW12085   0.920   3.442   3.524
 3729SOL    HW112086   0.891   3.352   3.557
 3729SOL    HW212087   0.846   3.508   3.539
 3730SOL     OW12088   2.440   0.140   1.494
 3730SOL    HW112089   2.522   0.190   1.521
 3730SOL    HW212090   2.375   0.202   1.451
 3731SOL     OW12091   2.865   6.157   0.330
 3731SOL    HW112092   2.790   6.119   0.276
 3731SOL    HW212093   2.952   6.132   0.288
 3732SOL     OW12094   2.118   3.636   4.317
 3732SOL    HW112095   2.146   3.635   4.221
 3732SOL    HW212096   2.089   3.545   4.345
 3733SOL     OW12097   3.170   2.989   1.714
 3733SOL    HW112098   3.143   3.079   1.681
 3733SOL    HW212099   3.099   2.922   1.692
 3734SOL     OW12100   4.119   1.439   3.192
 3734SOL    HW112101   4.203   1.465   3.240
 3734SOL    HW212102   4.101   1.503   3.118
 3735SOL     OW12103   3.900   2.207   1.763
 3735SOL    HW112104   3.946   2.154   1.834
 3735SOL    HW212105   3.811   2.238   1.797
 3736SOL     OW12106   4.797   0.839   6.219
 3736SOL    HW112107   4.823   0.899   6.294
 3736SOL    HW212108   4.831   0.747   6.236
 3737SOL     OW12109   2.949   0.185   3.522
 3737SOL    HW112110   2.912   0.124   3.593
 3737SOL    HW212111   2.979   0.270   3.564
 3738SOL     OW12112   0.320   0.884   4.760
 3738SOL    HW112113   0.245   0.818   4.765
 3738SOL    HW212114   0.407   0.837   4.772
 3739SOL     OW12115   0.282   3.274   0.893
 3739SOL    HW112116   0.184   3.296   0.895
 3739SOL    HW212117   0.295   3.184   0.850
 3740SOL     OW12118   5.714   6.795   0.167
 3740SOL    HW112119   5.710   6.758   0.074
 3740SOL    HW212120   5.687   6.891   0.166
 3741SOL     OW12121   3.574   0.888   0.180
 3741SOL    HW112122   3.553   0.888   0.278
 3741SOL    HW212123   3.581   0.794   0.148
 3742SOL     OW12124   3.736   3.352   6.268
 3742SOL    HW112125   3.829   3.386   6.272
 3742SOL    HW212126   3.689   3.392   6.189
 3743SOL     OW12127   0.720   5.741   5.929
 3743SOL    HW112128   0.640   5.745   5.990
 3743SOL    HW212129   0.801   5.770   5.978
 3744SOL     OW12130   6.424   4.698   3.060
 3744SOL    HW112131   6.404   4.629   3.130
 3744SOL    HW212132   6.476   4.655   2.986
 3745SOL     OW12133   5.092   4.816   1.427
 3745SOL    HW112134   5.134   4.875   1.358
 3745SOL    HW212135   5.035   4.870   1.488
 3746SOL     OW12136   4.072   1.214   1.227
 3746SOL    HW112137   4.101   1.269   1.148
 3746SOL    HW212138   3.979   1.239   1.252
 3747SOL     OW12139   2.851   6.834   1.082
 3747SOL    HW112140   2.939   6.790   1.095
 3747SOL    HW212141   2.782   6.765   1.060
 3748SOL     OW12142   5.778   0.548   1.699
 3748SOL    HW112143   5.712   0.542   1.624
 3748SOL    HW212144   5.848   0.616   1.676
 3749SOL     OW12145   0.696   0.703   3.861
 3749SOL    HW112146   0.683   0.802   3.859
 3749SOL    HW212147   0.782   0.682   3.907
 3750SOL     OW12148   0.556   3.968   6.788
 3750SOL    HW112149   0.501   3.915   6.852
 3750SOL    HW212150   0.598   4.045   6.836
 3751SOL     OW12151   1.864   5.134   1.716
 3751SOL    HW112152   1.884   5.231   1.700
 3751SOL    HW212153   1.767   5.116   1.697
 3752SOL     OW12154   5.381   5.425   6.317
 3752SOL    HW112155   5.325   5.403   6.397
 3752SOL    HW212156   5.356   5.365   6.241
 3753SOL     OW12157   0.291   1.274   3.584
 3753SOL    HW112158   0.293   1.256   3.682
 3753SOL    HW212159   0.370   1.232   3.540
 3754SOL     OW12160   3.846   1.636   1.386
 3754SOL    HW112161   3.787   1.690   1.446
 3754SOL    HW212162   3.857   1.684   1.299
 3755SOL     OW12163   2.665   5.745   3.953
 3755SOL    HW112164   2.762   5.765   3.965
 3755SOL    HW212165   2.635   5.776   3.863
 3756SOL     OW12166   1.501   6.458   0.667
 3756SOL    HW112167   1.459   6.390   0.727
 3756SOL    HW212168   1.530   6.414   0.582
 3757SOL     OW12169   0.807   5.436   0.229
 3757SOL    HW112170   0.873   5.427   0.155
 3757SOL    HW212171   0.756   5.350   0.240
 3758SOL     OW12172   0.455   5.954   4.228
 3758SOL    HW112173   0.555   5.961   4.221
 3758SOL    HW212174   0.427   5.861   4.206
 3759SOL     OW12175   4.634   0.664   3.961
 3759SOL    HW112176   4.544   0.621   3.955
 3759SOL    HW212177   4.686   0.642   3.878
 3760SOL     OW12178   0.668   1.106   3.125
 3760SOL    HW112179   0.685   1.204   3.135
 3760SOL    HW212180   0.570   1.090   3.117
 3761SOL     OW12181   4.367   1.509   4.999
 3761SOL    HW112182   4.366   1.603   5.031
 3761SOL    HW212183   4.327   1.504   4.908
 3762SOL     OW12184   6.954   2.256   3.353
 3762SOL    HW112185   6.991   2.342   3.389
 3762SOL    HW212186   6.858   2.268   3.328
 3763SOL     OW12187   0.960   6.733   6.578
 3763SOL    HW112188   0.989   6.784   6.498
 3763SOL    HW212189   0.863   6.752   6.596
 3764SOL     OW12190   3.674   1.681   2.585
 3764SOL    HW112191   3.592   1.733   2.562
 3764SOL    HW212192   3.664   1.641   2.676
 3765SOL     OW12193   6.005   4.004   2.260
 3765SOL    HW112194   5.989   4.102   2.258
 3765SOL    HW212195   5.946   3.962   2.329
 3766SOL     OW12196   2.105   3.037   2.178
 3766SOL    HW112197   2.092   3.118   2.121
 3766SOL    HW212198   2.017   2.990   2.190
 3767SOL     OW12199   1.608   6.317   5.788
 3767SOL    HW112200   1.631   6.362   5.874
 3767SOL    HW212201   1.530   6.364   5.745
 3768SOL     OW12202   2.146   6.911   3.719
 3768SOL    HW112203   2.096   6.841   3.771
 3768SOL    HW212204   2.150   6.995   3.773
 3769SOL     OW12205   5.132   5.014   5.799
 3769SOL    HW112206   5.159   5.096   5.749
 3769SOL    HW212207   5.082   5.039   5.881
 3770SOL     OW12208   2.757   6.591   0.959
 3770SOL    HW112209   2.709   6.607   0.873
 3770SOL    HW212210   2.809   6.506   0.952
 3771SOL     OW12211   6.480   6.274   5.835
 3771SOL    HW112212   6.548   6.331   5.787
 3771SOL    HW212213   6.405   6.332   5.867
 3772SOL     OW12214   3.317   5.696   1.733
 3772SOL    HW112215   3.343   5.792   1.720
 3772SOL    HW212216   3.271   5.686   1.821
 3773SOL     OW12217   5.106   3.859   0.105
 3773SOL    HW112218   5.038   3.886   0.037
 3773SOL    HW212219   5.190   3.831   0.059
 3774SOL     OW12220   0.105   4.668   0.735
 3774SOL    HW112221   0.132   4.573   0.750
 3774SOL    HW212222   0.081   4.711   0.822
 3775SOL     OW12223   5.452   0.072   5.063
 3775SOL    HW112224   5.515   0.136   5.018
 3775SOL    HW212225   5.505   0.001   5.109
 3776SOL     OW12226   4.223   2.751   6.772
 3776SOL    HW112227   4.137   2.776   6.728
 3776SOL    HW212228   4.250   2.823   6.836
 3777SOL     OW12229   3.113   5.149   3.414
 3777SOL    HW112230   3.198   5.103   3.384
 3777SOL    HW212231   3.135   5.241   3.445
 3778SOL     OW12232   2.956   5.685   6.695
 3778SOL    HW112233   2.972   5.773   6.651
 3778SOL    HW212234   3.035   5.625   6.680
 3779SOL     OW12235   0.043   4.807   5.956
 3779SOL    HW112236   0.038   4.841   6.050
 3779SOL    HW212237   0.072   4.881   5.895
 3780SOL     OW12238   5.874   2.352   1.780
 3780SOL    HW112239   5.841   2.334   1.687
 3780SOL    HW212240   5.961   2.306   1.793
 3781SOL     OW12241   1.338   6.663   6.499
 3781SOL    HW112242   1.426   6.650   6.454
 3781SOL    HW212243   1.265   6.659   6.431
 3782SOL     OW12244   3.659   5.528   6.865
 3782SOL    HW112245   3.703   5.477   6.939
 3782SOL    HW212246   3.687   5.624   6.869
 3783SOL     OW12247   4.674   5.063   4.999
 3783SOL    HW112248   4.619   5.034   4.920
 3783SOL    HW212249   4.614   5.082   5.076
 3784SOL     OW12250   5.629   3.446   4.803
 3784SOL    HW112251   5.541   3.400   4.801
 3784SOL    HW212252   5.616   3.544   4.819
 3785SOL     OW12253   0.880   3.117   2.596
 3785SOL    HW112254   0.896   3.215   2.608
 3785SOL    HW212255   0.929   3.067   2.668
 3786SOL     OW12256   2.885   2.726   6.096
 3786SOL    HW112257   2.835   2.809   6.069
 3786SOL    HW212258   2.848   2.647   6.046
 3787SOL     OW12259   4.792   6.332   5.114
 3787SOL    HW112260   4.702   6.354   5.154
 3787SOL    HW212261   4.790   6.351   5.016
 3788SOL     OW12262   5.556   3.218   6.397
 3788SOL    HW112263   5.644   3.207   6.443
 3788SOL    HW212264   5.525   3.130   6.362
 3789SOL     OW12265   1.740   4.112   1.284
 3789SOL    HW112266   1.810   4.045   1.308
 3789SOL    HW212267   1.784   4.196   1.251
 3790SOL     OW12268   2.267   0.037   1.676
 3790SOL    HW112269   2.347   0.047   1.617
 3790SOL    HW212270   2.208   0.116   1.665
 3791SOL     OW12271   5.082   0.467   3.912
 3791SOL    HW112272   5.033   0.454   3.998
 3791SOL    HW212273   5.106   0.564   3.902
 3792SOL     OW12274   6.191   0.386   3.173
 3792SOL    HW112275   6.246   0.469   3.169
 3792SOL    HW212276   6.251   0.306   3.180
 3793SOL     OW12277   5.079   3.305   0.085
 3793SOL    HW112278   5.007   3.374   0.079
 3793SOL    HW212279   5.089   3.261   7.015
 3794SOL     OW12280   1.403   5.129   5.591
 3794SOL    HW112281   1.486   5.144   5.645
 3794SOL    HW212282   1.428   5.105   5.497
 3795SOL     OW12283   3.202   6.272   0.527
 3795SOL    HW112284   3.240   6.256   0.618
 3795SOL    HW212285   3.124   6.334   0.534
 3796SOL     OW12286   5.134   1.004   0.225
 3796SOL    HW112287   5.231   0.998   0.250
 3796SOL    HW212288   5.080   0.950   0.290
 3797SOL     OW12289   6.817   2.216   0.990
 3797SOL    HW112290   6.829   2.274   1.070
 3797SOL    HW212291   6.726   2.232   0.951
 3798SOL     OW12292   0.373   4.338   4.013
 3798SOL    HW112293   0.442   4.307   3.947
 3798SOL    HW212294   0.350   4.433   3.995
 3799SOL     OW12295   6.652   2.076   2.675
 3799SOL    HW112296   6.644   2.154   2.613
 3799SOL    HW212297   6.597   2.000   2.640
 3800SOL     OW12298   5.218   3.441   2.382
 3800SOL    HW112299   5.154   3.416   2.310
 3800SOL    HW212300   5.300   3.483   2.341
 3801SOL     OW12301   5.614   1.700   1.142
 3801SOL    HW112302   5.661   1.783   1.111
 3801SOL    HW212303   5.604   1.701   1.241
 3802SOL     OW12304   6.453   3.820   3.482
 3802SOL    HW112305   6.370   3.783   3.441
 3802SOL    HW212306   6.431   3.901   3.536
 3803SOL     OW12307   3.729   4.027   6.249
 3803SOL    HW112308   3.697   3.933   6.255
 3803SOL    HW212309   3.674   4.077   6.182
 3804SOL     OW12310   3.086   5.931   2.825
 3804SOL    HW112311   3.016   5.945   2.755
 3804SOL    HW212312   3.043   5.908   2.912
 3805SOL     OW12313   2.719   1.917   6.838
 3805SOL    HW112314   2.785   1.888   6.769
 3805SOL    HW212315   2.721   1.853   6.915
 3806SOL     OW12316   1.848   3.483   2.066
 3806SOL    HW112317   1.935   3.532   2.074
 3806SOL    HW212318   1.773   3.544   2.091
 3807SOL     OW12319   0.442   3.947   3.812
 3807SOL    HW112320   0.348   3.954   3.779
 3807SOL    HW212321   0.489   4.035   3.800
 3808SOL     OW12322   2.853   6.452   5.625
 3808SOL    HW112323   2.882   6.365   5.585
 3808SOL    HW212324   2.861   6.524   5.556
 3809SOL     OW12325   5.201   1.327   1.411
 3809SOL    HW112326   5.279   1.376   1.450
 3809SOL    HW212327   5.228   1.233   1.390
 3810SOL     OW12328   4.720   2.099   3.769
 3810SOL    HW112329   4.792   2.030   3.776
 3810SOL    HW212330   4.633   2.060   3.800
 3811SOL     OW12331   6.782   5.958   5.198
 3811SOL    HW112332   6.757   5.865   5.225
 3811SOL    HW212333   6.742   5.979   5.109
 3812SOL     OW12334   4.206   5.764   0.063
 3812SOL    HW112335   4.256   5.842   0.101
 3812SOL    HW212336   4.136   5.796   0.000
 3813SOL     OW12337   6.871   3.560   6.658
 3813SOL    HW112338   6.804   3.615   6.708
 3813SOL    HW212339   6.840   3.547   6.564
 3814SOL     OW12340   6.414   0.717   5.169
 3814SOL    HW112341   6.434   0.801   5.119
 3814SOL    HW212342   6.319   0.719   5.201
 3815SOL     OW12343   5.209   2.044   5.318
 3815SOL    HW112344   5.243   2.124   5.270
 3815SOL    HW212345   5.285   1.988   5.351
 3816SOL     OW12346   6.580   6.721   1.574
 3816SOL    HW112347   6.605   6.656   1.502
 3816SOL    HW212348   6.617   6.689   1.661
 3817SOL     OW12349   3.754   3.797   2.891
 3817SOL    HW112350   3.750   3.827   2.986
 3817SOL    HW212351   3.665   3.812   2.848
 3818SOL     OW12352   4.589   5.719   2.146
 3818SOL    HW112353   4.667   5.723   2.209
 3818SOL    HW212354   4.508   5.689   2.196
 3819SOL     OW12355   6.443   3.348   2.939
 3819SOL    HW112356   6.405   3.351   3.032
 3819SOL    HW212357   6.374   3.315   2.875
 3820SOL     OW12358   2.902   6.359   6.122
 3820SOL    HW112359   2.813   6.325   6.091
 3820SOL    HW212360   2.929   6.312   6.206
 3821SOL     OW12361   1.717   6.667   1.373
 3821SOL    HW112362   1.783   6.698   1.304
 3821SOL    HW212363   1.718   6.567   1.377
 3822SOL     OW12364   5.611   6.952   1.554
 3822SOL    HW112365   5.702   6.947   1.595
 3822SOL    HW212366   5.543   6.964   1.626
 3823SOL     OW12367   5.648   5.723   4.561
 3823SOL    HW112368   5.553   5.703   4.537
 3823SOL    HW212369   5.664   5.821   4.556
 3824SOL     OW12370   1.767   2.490   0.713
 3824SOL    HW112371   1.810   2.553   0.648
 3824SOL    HW212372   1.723   2.416   0.663
 3825SOL     OW12373   6.876   4.432   5.826
 3825SOL    HW112374   6.935   4.460   5.902
 3825SOL    HW212375   6.869   4.332   5.825
 3826SOL     OW12376   4.824   4.220   3.955
 3826SOL    HW112377   4.910   4.270   3.953
 3826SOL    HW212378   4.839   4.126   3.924
 3827SOL     OW12379   0.534   1.475   7.013
 3827SOL    HW112380   0.623   1.442   0.023
 3827SOL    HW212381   0.465   1.405   0.008
 3828SOL     OW12382   3.251   3.581   5.303
 3828SOL    HW112383   3.263   3.634   5.219
 3828SOL    HW212384   3.184   3.508   5.286
 3829SOL     OW12385   6.833   2.848   1.165
 3829SOL    HW112386   6.734   2.862   1.157
 3829SOL    HW212387   6.865   2.787   1.092
 3830SOL     OW12388   5.332   6.645   3.638
 3830SOL    HW112389   5.278   6.728   3.656
 3830SOL    HW212390   5.318   6.615   3.544
 3831SOL     OW12391   5.206   2.790   3.893
 3831SOL    HW112392   5.260   2.760   3.814
 3831SOL    HW212393   5.111   2.762   3.880
 3832SOL     OW12394   6.590   1.278   3.945
 3832SOL    HW112395   6.527   1.251   3.871
 3832SOL    HW212396   6.541   1.281   4.031
 3833SOL     OW12397   1.983   2.971   6.035
 3833SOL    HW112398   1.917   2.960   5.960
 3833SOL    HW212399   2.037   3.054   6.020
 3834SOL     OW12400   4.945   4.670   0.756
 3834SOL    HW112401   4.893   4.697   0.837
 3834SOL    HW212402   4.962   4.751   0.699
 3835SOL     OW12403   4.826   5.210   4.228
 3835SOL    HW112404   4.843   5.157   4.145
 3835SOL    HW212405   4.738   5.185   4.266
 3836SOL     OW12406   0.087   0.197   4.925
 3836SOL    HW112407   0.097   0.294   4.903
 3836SOL    HW212408   0.006   0.160   4.878
 3837SOL     OW12409   5.143   4.074   5.519
 3837SOL    HW112410   5.058   4.064   5.467
 3837SOL    HW212411   5.220   4.086   5.455
 3838SOL     OW12412   0.240   1.596   3.866
 3838SOL    HW112413   0.283   1.581   3.777
 3838SOL    HW212414   0.259   1.689   3.897
 3839SOL     OW12415   4.123   1.720   3.691
 3839SOL    HW112416   4.091   1.632   3.656
 3839SOL    HW212417   4.196   1.755   3.633
 3840SOL     OW12418   4.097   1.206   6.422
 3840SOL    HW112419   4.016   1.165   6.463
 3840SOL    HW212420   4.073   1.293   6.379
 3841SOL     OW12421   5.653   4.210   2.724
 3841SOL    HW112422   5.610   4.297   2.748
 3841SOL    HW212423   5.661   4.153   2.806
 3842SOL     OW12424   1.426   3.785   5.136
 3842SOL    HW112425   1.421   3.824   5.228
 3842SOL    HW212426   1.364   3.706   5.131
 3843SOL     OW12427   5.605   2.174   6.605
 3843SOL    HW112428   5.642   2.126   6.525
 3843SOL    HW212429   5.510   2.146   6.619
 3844SOL     OW12430   6.260   6.373   0.345
 3844SOL    HW112431   6.191   6.424   0.397
 3844SOL    HW212432   6.351   6.409   0.368
 3845SOL     OW12433   2.150   5.176   6.815
 3845SOL    HW112434   2.162   5.198   6.912
 3845SOL    HW212435   2.066   5.124   6.803
 3846SOL     OW12436   6.776   3.124   2.622
 3846SOL    HW112437   6.765   3.161   2.714
 3846SOL    HW212438   6.693   3.140   2.569
 3847SOL     OW12439   1.041   0.912   6.819
 3847SOL    HW112440   1.112   0.850   6.853
 3847SOL    HW212441   1.010   0.881   6.729
 3848SOL     OW12442   6.305   4.843   2.417
 3848SOL    HW112443   6.388   4.816   2.465
 3848SOL    HW212444   6.310   4.811   2.322
 3849SOL     OW12445   0.229   2.873   5.519
 3849SOL    HW112446   0.255   2.782   5.487
 3849SOL    HW212447   0.179   2.920   5.445
 3850SOL     OW12448   3.606   3.125   1.428
 3850SOL    HW112449   3.526   3.179   1.452
 3850SOL    HW212450   3.679   3.143   1.494
 3851SOL     OW12451   0.182   5.497   2.363
 3851SOL    HW112452   0.140   5.586   2.382
 3851SOL    HW212453   0.143   5.428   2.423
 3852SOL     OW12454   2.909   1.268   5.513
 3852SOL    HW112455   2.986   1.223   5.468
 3852SOL    HW212456   2.844   1.199   5.545
 3853SOL     OW12457   2.429   1.222   3.038
 3853SOL    HW112458   2.487   1.302   3.028
 3853SOL    HW212459   2.470   1.145   2.990
 3854SOL     OW12460   0.264   1.665   1.667
 3854SOL    HW112461   0.240   1.659   1.570
 3854SOL    HW212462   0.355   1.625   1.681
 3855SOL     OW12463   2.893   6.058   6.729
 3855SOL    HW112464   2.893   6.143   6.677
 3855SOL    HW212465   2.964   5.998   6.693
 3856SOL     OW12466   6.608   2.689   6.286
 3856SOL    HW112467   6.681   2.703   6.219
 3856SOL    HW212468   6.621   2.751   6.363
 3857SOL     OW12469   0.982   0.214   6.036
 3857SOL    HW112470   1.020   0.193   5.945
 3857SOL    HW212471   1.055   0.250   6.095
 3858SOL     OW12472   3.912   1.194   5.060
 3858SOL    HW112473   3.914   1.096   5.080
 3858SOL    HW212474   3.997   1.236   5.092
 3859SOL     OW12475   5.601   0.277   2.165
 3859SOL    HW112476   5.679   0.242   2.114
 3859SOL    HW212477   5.576   0.213   2.237
 3860SOL     OW12478   1.724   6.537   4.552
 3860SOL    HW112479   1.654   6.472   4.582
 3860SOL    HW212480   1.778   6.567   4.630
 3861SOL     OW12481   3.031   5.903   2.400
 3861SOL    HW112482   3.075   5.992   2.385
 3861SOL    HW212483   3.090   5.846   2.457
 3862SOL     OW12484   1.796   0.482   3.972
 3862SOL    HW112485   1.870   0.543   3.944
 3862SOL    HW212486   1.822   0.387   3.952
 3863SOL     OW12487   4.269   0.328   1.145
 3863SOL    HW112488   4.186   0.306   1.197
 3863SOL    HW212489   4.257   0.297   1.050
 3864SOL     OW12490   0.876   6.903   4.419
 3864SOL    HW112491   0.870   6.893   4.320
 3864SOL    HW212492   0.942   6.975   4.442
 3865SOL     OW12493   5.146   0.959   0.605
 3865SOL    HW112494   5.243   0.936   0.620
 3865SOL    HW212495   5.089   0.899   0.661
 3866SOL     OW12496   3.569   0.820   6.653
 3866SOL    HW112497   3.654   0.845   6.699
 3866SOL    HW212498   3.498   0.802   6.721
 3867SOL     OW12499   6.303   3.488   2.338
 3867SOL    HW112500   6.308   3.443   2.249
 3867SOL    HW212501   6.228   3.448   2.392
 3868SOL     OW12502   3.703   0.186   7.017
 3868SOL    HW112503   3.679   0.231   0.083
 3868SOL    HW212504   3.797   0.154   0.001
 3869SOL     OW12505   3.662   1.194   4.067
 3869SOL    HW112506   3.706   1.136   4.135
 3869SOL    HW212507   3.720   1.274   4.049
 3870SOL     OW12508   0.031   1.350   5.610
 3870SOL    HW112509   6.997   1.333   5.692
 3870SOL    HW212510   0.124   1.315   5.624
 3871SOL     OW12511   3.052   5.214   3.741
 3871SOL    HW112512   3.043   5.234   3.839
 3871SOL    HW212513   2.969   5.242   3.693
 3872SOL     OW12514   2.914   4.090   5.320
 3872SOL    HW112515   2.876   4.048   5.238
 3872SOL    HW212516   2.840   4.116   5.382
 3873SOL     OW12517   4.935   2.090   6.689
 3873SOL    HW112518   4.953   1.994   6.711
 3873SOL    HW212519   4.836   2.105   6.683
 3874SOL     OW12520   2.124   1.320   1.295
 3874SOL    HW112521   2.175   1.302   1.379
 3874SOL    HW212522   2.063   1.399   1.310
 3875SOL     OW12523   1.138   1.131   6.697
 3875SOL    HW112524   1.081   1.059   6.737
 3875SOL    HW212525   1.141   1.119   6.597
 3876SOL     OW12526   3.605   5.289   2.496
 3876SOL    HW112527   3.516   5.259   2.528
 3876SOL    HW212528   3.676   5.230   2.534
 3877SOL     OW12529   1.081   1.596   5.447
 3877SOL    HW112530   0.997   1.548   5.420
 3877SOL    HW212531   1.114   1.650   5.370
 3878SOL     OW12532   4.685   1.351   4.948
 3878SOL    HW112533   4.716   1.347   4.854
 3878SOL    HW212534   4.586   1.367   4.950
 3879SOL     OW12535   5.458   5.495   6.761
 3879SOL    HW112536   5.555   5.512   6.740
 3879SOL    HW212537   5.406   5.580   6.746
 3880SOL     OW12538   5.042   4.809   4.051
 3880SOL    HW112539   5.014   4.717   4.026
 3880SOL    HW212540   5.077   4.810   4.145
 3881SOL     OW12541   1.323   2.783   0.332
 3881SOL    HW112542   1.309   2.687   0.354
 3881SOL    HW212543   1.275   2.806   0.247
 3882SOL     OW12544   0.465   1.786   5.499
 3882SOL    HW112545   0.554   1.829   5.513
 3882SOL    HW212546   0.460   1.750   5.405
 3883SOL     OW12547   4.436   5.930   4.167
 3883SOL    HW112548   4.395   5.856   4.115
 3883SOL    HW212549   4.377   6.011   4.164
 3884SOL     OW12550   0.079   3.269   1.972
 3884SOL    HW112551   0.165   3.300   1.931
 3884SOL    HW212552   0.083   3.283   2.071
 3885SOL     OW12553   4.212   5.504   2.016
 3885SOL    HW112554   4.194   5.586   2.071
 3885SOL    HW212555   4.309   5.501   1.994
 3886SOL     OW12556   2.993   5.606   6.339
 3886SOL    HW112557   3.056   5.670   6.383
 3886SOL    HW212558   3.042   5.553   6.270
 3887SOL     OW12559   1.988   5.489   2.248
 3887SOL    HW112560   1.915   5.557   2.235
 3887SOL    HW212561   1.957   5.401   2.213
 3888SOL     OW12562   5.320   5.086   3.381
 3888SOL    HW112563   5.338   5.153   3.308
 3888SOL    HW212564   5.395   5.087   3.446
 3889SOL     OW12565   5.735   4.211   0.447
 3889SOL    HW112566   5.755   4.192   0.351
 3889SOL    HW212567   5.809   4.264   0.487
 3890SOL     OW12568   5.549   3.978   3.817
 3890SOL    HW112569   5.465   3.975   3.763
 3890SOL    HW212570   5.611   4.046   3.779
 3891SOL     OW12571   4.768   5.169   3.769
 3891SOL    HW112572   4.755   5.162   3.670
 3891SOL    HW212573   4.693   5.224   3.808
 3892SOL     OW12574   6.701   2.188   1.725
 3892SOL    HW112575   6.636   2.235   1.785
 3892SOL    HW212576   6.794   2.204   1.757
 3893SOL     OW12577   4.020   3.159   3.521
 3893SOL    HW112578   3.954   3.114   3.582
 3893SOL    HW212579   4.078   3.089   3.479
 3894SOL     OW12580   4.477   1.096   6.196
 3894SOL    HW112581   4.468   1.013   6.252
 3894SOL    HW212582   4.569   1.133   6.206
 3895SOL     OW12583   0.571   0.671   4.342
 3895SOL    HW112584   0.566   0.726   4.258
 3895SOL    HW212585   0.479   0.662   4.381
 3896SOL     OW12586   2.075   1.409   6.250
 3896SOL    HW112587   2.150   1.346   6.273
 3896SOL    HW212588   2.110   1.481   6.190
 3897SOL     OW12589   3.197   5.970   0.925
 3897SOL    HW112590   3.133   5.936   0.993
 3897SOL    HW212591   3.273   6.016   0.971
 3898SOL     OW12592   3.595   3.071   1.156
 3898SOL    HW112593   3.602   3.100   1.251
 3898SOL    HW212594   3.648   2.987   1.143
 3899SOL     OW12595   2.883   6.850   5.552
 3899SOL    HW112596   2.847   6.784   5.618
 3899SOL    HW212597   2.814   6.868   5.482
 3900SOL     OW12598   4.442   4.887   2.591
 3900SOL    HW112599   4.347   4.906   2.567
 3900SOL    HW212600   4.476   4.812   2.533
 3901SOL     OW12601   2.866   1.444   0.009
 3901SOL    HW112602   2.871   1.356   6.981
 3901SOL    HW212603   2.955   1.465   0.049
 3902SOL     OW12604   5.122   2.895   2.648
 3902SOL    HW112605   5.143   2.975   2.591
 3902SOL    HW212606   5.038   2.852   2.616
 3903SOL     OW12607   3.756   4.668   6.755
 3903SOL    HW112608   3.795   4.674   6.847
 3903SOL    HW212609   3.727   4.574   6.737
 3904SOL     OW12610   1.954   6.740   0.626
 3904SOL    HW112611   1.889   6.717   0.554
 3904SOL    HW212612   2.043   6.700   0.605
 3905SOL     OW12613   0.218   6.307   5.364
 3905SOL    HW112614   0.213   6.356   5.278
 3905SOL    HW212615   0.145   6.238   5.368
 3906SOL     OW12616   0.045   6.068   5.561
 3906SOL    HW112617   7.015   5.990   5.598
 3906SOL    HW212618   0.127   6.035   5.514
 3907SOL     OW12619   5.415   2.222   3.705
 3907SOL    HW112620   5.457   2.204   3.795
 3907SOL    HW212621   5.445   2.152   3.640
 3908SOL     OW12622   2.599   4.023   5.959
 3908SOL    HW112623   2.674   3.964   5.930
 3908SOL    HW212624   2.617   4.117   5.930
 3909SOL     OW12625   5.257   5.713   3.688
 3909SOL    HW112626   5.183   5.750   3.745
 3909SOL    HW212627   5.222   5.635   3.635
 3910SOL     OW12628   3.825   3.640   2.513
 3910SOL    HW112629   3.791   3.711   2.450
 3910SOL    HW212630   3.837   3.554   2.463
 3911SOL     OW12631   5.898   2.096   5.916
 3911SOL    HW112632   5.906   2.024   5.985
 3911SOL    HW212633   5.868   2.181   5.958
 3912SOL     OW12634   5.455   2.682   6.093
 3912SOL    HW112635   5.453   2.778   6.064
 3912SOL    HW212636   5.361   2.651   6.111
 3913SOL     OW12637   1.344   6.957   1.566
 3913SOL    HW112638   1.442   6.940   1.559
 3913SOL    HW212639   1.328   0.036   1.569
 3914SOL     OW12640   3.067   5.639   5.143
 3914SOL    HW112641   2.980   5.638   5.194
 3914SOL    HW212642   3.105   5.546   5.140
 3915SOL     OW12643   6.165   5.718   1.679
 3915SOL    HW112644   6.202   5.787   1.740
 3915SOL    HW212645   6.065   5.715   1.688
 3916SOL     OW12646   0.076   0.184   3.438
 3916SOL    HW112647   0.074   0.149   3.531
 3916SOL    HW212648   0.161   0.234   3.422
 3917SOL     OW12649   2.695   6.965   6.496
 3917SOL    HW112650   2.766   6.928   6.438
 3917SOL    HW212651   2.628   6.893   6.517
 3918SOL     OW12652   5.828   3.628   6.881
 3918SOL    HW112653   5.811   3.659   6.788
 3918SOL    HW212654   5.795   3.696   6.946
 3919SOL     OW12655   3.063   6.279   0.894
 3919SOL    HW112656   3.115   6.355   0.933
 3919SOL    HW212657   3.122   6.199   0.886
 3920SOL     OW12658   2.312   0.629   0.046
 3920SOL    HW112659   2.257   0.547   0.027
 3920SOL    HW212660   2.330   0.677   6.980
 3921SOL     OW12661   0.903   3.408   0.970
 3921SOL    HW112662   0.917   3.471   0.893
 3921SOL    HW212663   0.873   3.460   1.050
 3922SOL     OW12664   1.119   5.466   1.216
 3922SOL    HW112665   1.126   5.457   1.315
 3922SOL    HW212666   1.069   5.387   1.179
 3923SOL     OW12667   6.816   5.973   0.841
 3923SOL    HW112668   6.836   5.875   0.848
 3923SOL    HW212669   6.819   6.001   0.746
 3924SOL     OW12670   6.332   4.909   4.492
 3924SOL    HW112671   6.336   4.812   4.516
 3924SOL    HW212672   6.362   4.964   4.570
 3925SOL     OW12673   1.366   5.081   1.387
 3925SOL    HW112674   1.329   5.163   1.430
 3925SOL    HW212675   1.317   5.001   1.422
 3926SOL     OW12676   3.107   5.233   2.922
 3926SOL    HW112677   3.205   5.232   2.903
 3926SOL    HW212678   3.057   5.209   2.839
 3927SOL     OW12679   2.293   3.659   6.436
 3927SOL    HW112680   2.220   3.609   6.389
 3927SOL    HW212681   2.290   3.638   6.534
 3928SOL     OW12682   6.291   6.660   6.331
 3928SOL    HW112683   6.385   6.689   6.316
 3928SOL    HW212684   6.290   6.567   6.367
 3929SOL     OW12685   1.001   1.476   4.599
 3929SOL    HW112686   1.073   1.519   4.544
 3929SOL    HW212687   1.043   1.422   4.672
 3930SOL     OW12688   2.859   1.562   4.253
 3930SOL    HW112689   2.824   1.553   4.347
 3930SOL    HW212690   2.786   1.597   4.194
 3931SOL     OW12691   4.227   0.155   1.954
 3931SOL    HW112692   4.240   0.225   1.885
 3931SOL    HW212693   4.170   0.081   1.917
 3932SOL     OW12694   1.904   3.189   3.545
 3932SOL    HW112695   1.914   3.103   3.496
 3932SOL    HW212696   1.994   3.230   3.559
 3933SOL     OW12697   1.834   1.212   6.094
 3933SOL    HW112698   1.868   1.304   6.113
 3933SOL    HW212699   1.865   1.150   6.167
 3934SOL     OW12700   5.104   5.929   6.945
 3934SOL    HW112701   5.194   5.965   6.923
 3934SOL    HW212702   5.034   5.992   6.912
 3935SOL     OW12703   5.453   6.630   1.755
 3935SOL    HW112704   5.449   6.698   1.828
 3935SOL    HW212705   5.493   6.545   1.790
 3936SOL     OW12706   0.648   4.352   2.556
 3936SOL    HW112707   0.559   4.313   2.578
 3936SOL    HW212708   0.711   4.279   2.529
 3937SOL     OW12709   0.186   1.918   2.204
 3937SOL    HW112710   0.113   1.872   2.255
 3937SOL    HW212711   0.151   2.002   2.163
 3938SOL     OW12712   6.664   3.183   3.447
 3938SOL    HW112713   6.632   3.105   3.393
 3938SOL    HW212714   6.591   3.214   3.508
 3939SOL     OW12715   2.100   1.795   1.638
 3939SOL    HW112716   2.157   1.725   1.680
 3939SOL    HW212717   2.092   1.777   1.540
 3940SOL     OW12718   4.378   4.641   0.907
 3940SOL    HW112719   4.299   4.694   0.876
 3940SOL    HW212720   4.389   4.653   1.006
 3941SOL     OW12721   5.592   3.507   0.121
 3941SOL    HW112722   5.508   3.493   0.068
 3941SOL    HW212723   5.587   3.455   0.206
 3942SOL     OW12724   6.309   0.027   0.648
 3942SOL    HW112725   6.325   6.953   0.618
 3942SOL    HW212726   6.290   0.027   0.746
 3943SOL     OW12727   6.967   3.057   5.153
 3943SOL    HW112728   0.013   3.125   5.184
 3943SOL    HW212729   6.923   3.015   5.232
 3944SOL     OW12730   5.516   1.473   4.861
 3944SOL    HW112731   5.573   1.396   4.891
 3944SOL    HW212732   5.540   1.497   4.767
 3945SOL     OW12733   6.952   6.953   1.035
 3945SOL    HW112734   0.030   6.939   1.019
 3945SOL    HW212735   6.934   6.947   1.133
 3946SOL     OW12736   3.521   5.510   3.340
 3946SOL    HW112737   3.533   5.599   3.384
 3946SOL    HW212738   3.514   5.438   3.410
 3947SOL     OW12739   6.808   3.901   6.048
 3947SOL    HW112740   6.833   3.934   5.956
 3947SOL    HW212741   6.744   3.825   6.039
 3948SOL     OW12742   6.485   3.317   1.061
 3948SOL    HW112743   6.414   3.297   1.129
 3948SOL    HW212744   6.462   3.402   1.013
 3949SOL     OW12745   5.352   6.361   3.169
 3949SOL    HW112746   5.264   6.381   3.127
 3949SOL    HW212747   5.425   6.370   3.101
 3950SOL     OW12748   1.750   6.597   0.454
 3950SOL    HW112749   1.814   6.527   0.425
 3950SOL    HW212750   1.665   6.554   0.485
 3951SOL     OW12751   5.733   5.971   1.766
 3951SOL    HW112752   5.782   6.032   1.828
 3951SOL    HW212753   5.647   5.943   1.808
 3952SOL     OW12754   5.770   1.593   6.328
 3952SOL    HW112755   5.726   1.646   6.401
 3952SOL    HW212756   5.770   1.496   6.354
 3953SOL     OW12757   2.907   3.537   2.795
 3953SOL    HW112758   2.907   3.545   2.696
 3953SOL    HW212759   2.947   3.449   2.821
 3954SOL     OW12760   4.072   4.674   5.609
 3954SOL    HW112761   4.037   4.581   5.611
 3954SOL    HW212762   3.996   4.739   5.606
 3955SOL     OW12763   3.492   1.494   5.031
 3955SOL    HW112764   3.565   1.516   4.967
 3955SOL    HW212765   3.485   1.566   5.101
 3956SOL     OW12766   1.924   1.703   0.955
 3956SOL    HW112767   1.894   1.731   1.046
 3956SOL    HW212768   2.022   1.719   0.946
 3957SOL     OW12769   3.899   1.212   3.833
 3957SOL    HW112770   3.950   1.215   3.918
 3957SOL    HW212771   3.805   1.182   3.851
 3958SOL     OW12772   5.520   6.520   6.386
 3958SOL    HW112773   5.606   6.498   6.432
 3958SOL    HW212774   5.535   6.524   6.287
 3959SOL     OW12775   5.270   5.264   6.066
 3959SOL    HW112776   5.355   5.268   6.014
 3959SOL    HW212777   5.246   5.168   6.083
 3960SOL     OW12778   5.957   2.290   4.899
 3960SOL    HW112779   5.923   2.198   4.920
 3960SOL    HW212780   5.936   2.351   4.976
 3961SOL     OW12781   5.199   6.752   4.240
 3961SOL    HW112782   5.197   6.721   4.335
 3961SOL    HW212783   5.177   6.849   4.236
 3962SOL     OW12784   6.039   4.847   4.810
 3962SOL    HW112785   6.069   4.852   4.905
 3962SOL    HW212786   5.945   4.813   4.805
 3963SOL     OW12787   4.192   6.884   2.380
 3963SOL    HW112788   4.290   6.906   2.376
 3963SOL    HW212789   4.176   6.795   2.337
 3964SOL     OW12790   5.299   3.034   3.876
 3964SOL    HW112791   5.291   2.935   3.882
 3964SOL    HW212792   5.263   3.065   3.788
 3965SOL     OW12793   5.324   4.200   4.191
 3965SOL    HW112794   5.253   4.268   4.175
 3965SOL    HW212795   5.371   4.221   4.277
 3966SOL     OW12796   2.367   6.559   6.413
 3966SOL    HW112797   2.464   6.553   6.436
 3966SOL    HW212798   2.314   6.508   6.480
 3967SOL     OW12799   1.393   3.947   4.013
 3967SOL    HW112800   1.394   3.962   3.914
 3967SOL    HW212801   1.487   3.952   4.047
 3968SOL     OW12802   3.625   0.199   0.726
 3968SOL    HW112803   3.672   0.267   0.782
 3968SOL    HW212804   3.532   0.230   0.707
 3969SOL     OW12805   0.230   4.763   3.280
 3969SOL    HW112806   0.168   4.833   3.316
 3969SOL    HW212807   0.203   4.673   3.314
 3970SOL     OW12808   4.224   6.045   1.931
 3970SOL    HW112809   4.238   6.139   1.963
 3970SOL    HW212810   4.301   5.988   1.961
 3971SOL     OW12811   1.519   5.953   3.683
 3971SOL    HW112812   1.496   5.856   3.672
 3971SOL    HW212813   1.619   5.963   3.681
 3972SOL     OW12814   1.433   3.478   0.062
 3972SOL    HW112815   1.335   3.467   0.080
 3972SOL    HW212816   1.448   3.567   0.017
 3973SOL     OW12817   1.731   4.532   0.526
 3973SOL    HW112818   1.677   4.472   0.585
 3973SOL    HW212819   1.696   4.626   0.533
 3974SOL     OW12820   2.858   0.577   5.654
 3974SOL    HW112821   2.811   0.581   5.743
 3974SOL    HW212822   2.874   0.670   5.621
 3975SOL     OW12823   6.118   3.128   6.987
 3975SOL    HW112824   6.033   3.141   6.937
 3975SOL    HW212825   6.135   3.207   0.026
 3976SOL     OW12826   1.828   3.866   2.812
 3976SOL    HW112827   1.858   3.961   2.817
 3976SOL    HW212828   1.773   3.853   2.730
 3977SOL     OW12829   0.830   2.786   0.092
 3977SOL    HW112830   0.858   2.842   0.014
 3977SOL    HW212831   0.737   2.753   0.077
 3978SOL     OW12832   6.188   4.440   3.995
 3978SOL    HW112833   6.214   4.402   4.084
 3978SOL    HW212834   6.178   4.539   4.004
 3979SOL     OW12835   4.430   5.738   6.085
 3979SOL    HW112836   4.412   5.646   6.119
 3979SOL    HW212837   4.414   5.804   6.157
 3980SOL     OW12838   5.486   5.217   5.907
 3980SOL    HW112839   5.427   5.197   5.829
 3980SOL    HW212840   5.553   5.143   5.918
 3981SOL     OW12841   4.584   5.530   6.957
 3981SOL    HW112842   4.494   5.527   6.916
 3981SOL    HW212843   4.606   5.624   6.983
 3982SOL     OW12844   2.684   6.157   3.082
 3982SOL    HW112845   2.773   6.202   3.094
 3982SOL    HW212846   2.649   6.129   3.171
 3983SOL     OW12847   3.499   5.986   4.381
 3983SOL    HW112848   3.532   6.036   4.301
 3983SOL    HW212849   3.578   5.955   4.435
 3984SOL     OW12850   6.681   3.034   3.076
 3984SOL    HW112851   6.758   3.054   3.137
 3984SOL    HW212852   6.688   3.092   2.995
 3985SOL     OW12853   3.943   5.215   6.361
 3985SOL    HW112854   4.016   5.164   6.408
 3985SOL    HW212855   3.869   5.235   6.426
 3986SOL     OW12856   5.265   0.782   2.562
 3986SOL    HW112857   5.316   0.758   2.480
 3986SOL    HW212858   5.329   0.808   2.634
 3987SOL     OW12859   3.646   5.198   5.558
 3987SOL    HW112860   3.686   5.162   5.474
 3987SOL    HW212861   3.626   5.123   5.620
 3988SOL     OW12862   4.896   5.750   0.648
 3988SOL    HW112863   4.798   5.760   0.633
 3988SOL    HW212864   4.946   5.786   0.569
 3989SOL     OW12865   6.425   2.679   1.195
 3989SOL    HW112866   6.498   2.624   1.155
 3989SOL    HW212867   6.339   2.629   1.189
 3990SOL     OW12868   6.935   1.638   1.971
 3990SOL    HW112869   6.942   1.735   1.994
 3990SOL    HW212870   6.990   1.585   2.035
 3991SOL     OW12871   5.794   1.470   3.138
 3991SOL    HW112872   5.797   1.557   3.188
 3991SOL    HW212873   5.761   1.486   3.046
 3992SOL     OW12874   4.381   1.842   1.606
 3992SOL    HW112875   4.386   1.750   1.646
 3992SOL    HW212876   4.448   1.850   1.532
 3993SOL     OW12877   0.674   3.447   1.470
 3993SOL    HW112878   0.647   3.371   1.528
 3993SOL    HW212879   0.674   3.418   1.374
 3994SOL     OW12880   2.132   5.593   4.398
 3994SOL    HW112881   2.059   5.534   4.362
 3994SOL    HW212882   2.212   5.587   4.339
 3995SOL     OW12883   2.000   2.323   4.578
 3995SOL    HW112884   1.942   2.384   4.632
 3995SOL    HW212885   1.978   2.228   4.600
 3996SOL     OW12886   0.441   5.743   4.496
 3996SOL    HW112887   0.376   5.713   4.426
 3996SOL    HW212888   0.409   5.828   4.537
 3997SOL     OW12889   2.860   1.221   3.363
 3997SOL    HW112890   2.824   1.307   3.398
 3997SOL    HW212891   2.790   1.177   3.305
 3998SOL     OW12892   4.529   2.563   2.760
 3998SOL    HW112893   4.454   2.609   2.808
 3998SOL    HW212894   4.608   2.623   2.756
 3999SOL     OW12895   4.531   1.373   4.423
 3999SOL    HW112896   4.475   1.446   4.386
 3999SOL    HW212897   4.530   1.377   4.523
 4000SOL     OW12898   3.882   6.052   4.489
 4000SOL    HW112899   3.815   5.977   4.489
 4000SOL    HW212900   3.835   6.138   4.469
 4001SOL     OW12901   0.936   1.707   4.375
 4001SOL    HW112902   0.909   1.616   4.343
 4001SOL    HW212903   0.858   1.769   4.367
 4002SOL     OW12904   1.905   4.292   1.180
 4002SOL    HW112905   1.869   4.381   1.153
 4002SOL    HW212906   1.952   4.251   1.102
 4003SOL     OW12907   4.096   2.221   5.101
 4003SOL    HW112908   4.131   2.313   5.086
 4003SOL    HW212909   4.080   2.206   5.199
 4004SOL     OW12910   6.699   1.678   6.087
 4004SOL    HW112911   6.755   1.737   6.146
 4004SOL    HW212912   6.674   1.728   6.004
 4005SOL     OW12913   6.385   4.444   4.731
 4005SOL    HW112914   6.373   4.402   4.821
 4005SOL    HW212915   6.404   4.373   4.663
 4006SOL     OW12916   3.653   6.456   3.183
 4006SOL    HW112917   3.605   6.396   3.119
 4006SOL    HW212918   3.595   6.474   3.263
 4007SOL     OW12919   0.478   1.516   5.706
 4007SOL    HW112920   0.544   1.566   5.651
 4007SOL    HW212921   0.406   1.578   5.736
 4008SOL     OW12922   3.163   1.444   5.562
 4008SOL    HW112923   3.137   1.376   5.493
 4008SOL    HW212924   3.255   1.426   5.595
 4009SOL     OW12925   3.505   3.845   2.808
 4009SOL    HW112926   3.454   3.780   2.865
 4009SOL    HW212927   3.471   3.840   2.714
 4010SOL     OW12928   1.231   3.188   0.424
 4010SOL    HW112929   1.145   3.226   0.457
 4010SOL    HW212930   1.288   3.262   0.388
 4011SOL     OW12931   0.250   2.179   0.905
 4011SOL    HW112932   0.310   2.250   0.869
 4011SOL    HW212933   0.252   2.099   0.844
 4012SOL     OW12934   5.684   3.305   3.049
 4012SOL    HW112935   5.715   3.321   3.143
 4012SOL    HW212936   5.586   3.286   3.049
 4013SOL     OW12937   4.983   2.819   3.124
 4013SOL    HW112938   5.051   2.885   3.092
 4013SOL    HW212939   4.897   2.834   3.074
 4014SOL     OW12940   5.500   5.175   2.188
 4014SOL    HW112941   5.419   5.118   2.185
 4014SOL    HW212942   5.508   5.218   2.278
 4015SOL     OW12943   4.905   3.497   0.017
 4015SOL    HW112944   4.982   3.526   0.073
 4015SOL    HW212945   4.925   3.514   6.941
 4016SOL     OW12946   3.086   6.000   4.438
 4016SOL    HW112947   3.152   5.930   4.410
 4016SOL    HW212948   3.055   5.980   4.531
 4017SOL     OW12949   5.475   6.557   6.103
 4017SOL    HW112950   5.516   6.555   6.012
 4017SOL    HW212951   5.401   6.625   6.105
 4018SOL     OW12952   2.359   0.341   6.674
 4018SOL    HW112953   2.447   0.388   6.669
 4018SOL    HW212954   2.350   0.279   6.596
 4019SOL     OW12955   5.404   6.137   3.858
 4019SOL    HW112956   5.367   6.163   3.769
 4019SOL    HW212957   5.482   6.195   3.880
 4020SOL     OW12958   5.396   1.780   4.623
 4020SOL    HW112959   5.456   1.834   4.564
 4020SOL    HW212960   5.388   1.687   4.586
 4021SOL     OW12961   5.480   3.948   0.102
 4021SOL    HW112962   5.394   3.994   0.124
 4021SOL    HW212963   5.495   3.872   0.164
 4022SOL     OW12964   5.628   1.033   0.755
 4022SOL    HW112965   5.626   1.033   0.855
 4022SOL    HW212966   5.593   1.121   0.721
 4023SOL     OW12967   6.486   5.998   5.826
 4023SOL    HW112968   6.490   6.097   5.837
 4023SOL    HW212969   6.572   5.965   5.787
 4024SOL     OW12970   4.606   4.512   5.218
 4024SOL    HW112971   4.646   4.421   5.204
 4024SOL    HW212972   4.560   4.541   5.134
 4025SOL     OW12973   0.518   3.946   4.123
 4025SOL    HW112974   0.545   3.854   4.095
 4025SOL    HW212975   0.578   4.013   4.081
 4026SOL     OW12976   5.664   0.753   5.391
 4026SOL    HW112977   5.604   0.675   5.408
 4026SOL    HW212978   5.662   0.776   5.294
 4027SOL     OW12979   2.979   5.139   2.679
 4027SOL    HW112980   3.042   5.085   2.623
 4027SOL    HW212981   2.923   5.197   2.620
 4028SOL     OW12982   1.857   5.464   3.046
 4028SOL    HW112983   1.896   5.514   3.123
 4028SOL    HW212984   1.769   5.424   3.073
 4029SOL     OW12985   1.864   3.968   3.184
 4029SOL    HW112986   1.841   3.986   3.280
 4029SOL    HW212987   1.788   3.997   3.126
 4030SOL     OW12988   2.212   1.340   6.613
 4030SOL    HW112989   2.119   1.342   6.651
 4030SOL    HW212990   2.269   1.407   6.662
 4031SOL     OW12991   6.849   6.210   4.106
 4031SOL    HW112992   6.837   6.111   4.115
 4031SOL    HW212993   6.879   6.231   4.013
 4032SOL     OW12994   3.302   6.795   4.853
 4032SOL    HW112995   3.296   6.766   4.949
 4032SOL    HW212996   3.218   6.843   4.828
 4033SOL     OW12997   3.795   3.725   6.266
 4033SOL    HW112998   3.889   3.759   6.273
 4033SOL    HW212999   3.766   3.728   6.170
 4034SOL     OW13000   5.753   3.198   4.844
 4034SOL    HW113001   5.796   3.152   4.922
 4034SOL    HW213002   5.715   3.285   4.874
 4035SOL     OW13003   6.856   6.426   1.800
 4035SOL    HW113004   6.908   6.440   1.716
 4035SOL    HW213005   6.852   6.329   1.822
 4036SOL     OW13006   5.966   5.925   1.304
 4036SOL    HW113007   6.024   5.856   1.345
 4036SOL    HW213008   5.883   5.937   1.359
 4037SOL     OW13009   0.672   3.719   6.443
 4037SOL    HW113010   0.708   3.629   6.467
 4037SOL    HW213011   0.582   3.732   6.486
 4038SOL     OW13012   6.136   5.330   3.620
 4038SOL    HW113013   6.230   5.357   3.641
 4038SOL    HW213014   6.078   5.347   3.700
 4039SOL     OW13015   2.474   5.190   1.313
 4039SOL    HW113016   2.497   5.285   1.294
 4039SOL    HW213017   2.552   5.145   1.355
 4040SOL     OW13018   3.061   6.703   6.895
 4040SOL    HW113019   3.061   6.803   6.896
 4040SOL    HW213020   3.141   6.669   6.945
 4041SOL     OW13021   0.611   6.054   3.277
 4041SOL    HW113022   0.707   6.077   3.294
 4041SOL    HW213023   0.602   6.010   3.188
 4042SOL     OW13024   5.808   6.168   1.932
 4042SOL    HW113025   5.895   6.141   1.972
 4042SOL    HW213026   5.810   6.266   1.911
 4043SOL     OW13027   6.751   3.254   0.987
 4043SOL    HW113028   6.821   3.306   1.034
 4043SOL    HW213029   6.661   3.294   1.005
 4044SOL     OW13030   5.916   4.957   2.376
 4044SOL    HW113031   5.904   5.042   2.324
 4044SOL    HW213032   5.831   4.903   2.372
 4045SOL     OW13033   2.425   4.922   5.971
 4045SOL    HW113034   2.368   4.843   5.951
 4045SOL    HW213035   2.460   4.916   6.065
 4046SOL     OW13036   0.413   3.325   0.472
 4046SOL    HW113037   0.485   3.303   0.538
 4046SOL    HW213038   0.326   3.289   0.506
 4047SOL     OW13039   2.863   3.654   3.110
 4047SOL    HW113040   2.870   3.614   3.018
 4047SOL    HW213041   2.821   3.588   3.172
 4048SOL     OW13042   4.735   2.352   0.419
 4048SOL    HW113043   4.708   2.300   0.500
 4048SOL    HW213044   4.657   2.358   0.357
 4049SOL     OW13045   6.896   6.661   6.783
 4049SOL    HW113046   6.963   6.684   6.853
 4049SOL    HW213047   6.815   6.621   6.825
 4050SOL     OW13048   2.550   0.817   2.837
 4050SOL    HW113049   2.637   0.779   2.870
 4050SOL    HW213050   2.550   0.916   2.851
 4051SOL     OW13051   2.430   3.418   0.821
 4051SOL    HW113052   2.364   3.380   0.886
 4051SOL    HW213053   2.383   3.480   0.758
 4052SOL     OW13054   1.759   0.078   1.153
 4052SOL    HW113055   1.721   7.007   1.171
 4052SOL    HW213056   1.805   0.078   1.064
 4053SOL     OW13057   2.988   5.517   2.377
 4053SOL    HW113058   3.031   5.558   2.296
 4053SOL    HW213059   3.056   5.509   2.450
 4054SOL     OW13060   5.472   1.566   0.003
 4054SOL    HW113061   5.402   1.637   0.009
 4054SOL    HW213062   5.535   1.588   6.948
 4055SOL     OW13063   4.527   3.721   6.884
 4055SOL    HW113064   4.550   3.813   6.916
 4055SOL    HW213065   4.604   3.660   6.899
 4056SOL     OW13066   4.364   3.064   6.846
 4056SOL    HW113067   4.315   3.068   6.759
 4056SOL    HW213068   4.381   3.157   6.879
 4057SOL     OW13069   6.153   2.444   0.712
 4057SOL    HW113070   6.132   2.394   0.795
 4057SOL    HW213071   6.069   2.459   0.659
 4058SOL     OW13072   1.022   3.174   3.994
 4058SOL    HW113073   1.098   3.136   4.047
 4058SOL    HW213074   0.998   3.264   4.030
 4059SOL     OW13075   0.092   1.976   4.820
 4059SOL    HW113076   0.100   2.068   4.858
 4059SOL    HW213077   0.002   1.939   4.841
 4060SOL     OW13078   2.852   6.596   5.371
 4060SOL    HW113079   2.762   6.636   5.355
 4060SOL    HW213080   2.872   6.530   5.299
 4061SOL     OW13081   2.377   2.896   1.370
 4061SOL    HW113082   2.290   2.941   1.354
 4061SOL    HW213083   2.445   2.964   1.401
 4062SOL     OW13084   2.965   0.012   2.998
 4062SOL    HW113085   2.904   6.967   3.043
 4062SOL    HW213086   2.945   0.105   3.031
 4063SOL     OW13087   3.387   6.104   6.266
 4063SOL    HW113088   3.381   6.187   6.321
 4063SOL    HW213089   3.424   6.127   6.176
 4064SOL     OW13090   6.398   6.862   4.658
 4064SOL    HW113091   6.351   6.875   4.745
 4064SOL    HW213092   6.373   6.773   4.620
 4065SOL     OW13093   1.027   4.292   5.722
 4065SOL    HW113094   0.942   4.338   5.750
 4065SOL    HW213095   1.088   4.284   5.800
 4066SOL     OW13096   4.769   5.487   1.891
 4066SOL    HW113097   4.728   5.404   1.927
 4066SOL    HW213098   4.806   5.541   1.967
 4067SOL     OW13099   5.734   0.536   1.194
 4067SOL    HW113100   5.743   0.440   1.167
 4067SOL    HW213101   5.820   0.568   1.233
 4068SOL     OW13102   4.868   0.715   4.619
 4068SOL    HW113103   4.874   0.732   4.521
 4068SOL    HW213104   4.805   0.640   4.637
 4069SOL     OW13105   6.652   6.273   0.622
 4069SOL    HW113106   6.749   6.256   0.605
 4069SOL    HW213107   6.597   6.215   0.563
 4070SOL     OW13108   6.471   3.668   2.438
 4070SOL    HW113109   6.404   3.600   2.408
 4070SOL    HW213110   6.547   3.670   2.374
 4071SOL     OW13111   2.578   0.054   4.848
 4071SOL    HW113112   2.495   0.015   4.887
 4071SOL    HW213113   2.645   7.002   4.831
 4072SOL     OW13114   0.689   0.387   4.405
 4072SOL    HW113115   0.627   0.371   4.482
 4072SOL    HW213116   0.681   0.481   4.374
 4073SOL     OW13117   2.577   4.632   2.102
 4073SOL    HW113118   2.502   4.569   2.082
 4073SOL    HW213119   2.659   4.601   2.055
 4074SOL     OW13120   0.255   2.951   1.006
 4074SOL    HW113121   0.288   2.919   1.095
 4074SOL    HW213122   0.331   2.955   0.941
 4075SOL     OW13123   6.564   0.491   3.561
 4075SOL    HW113124   6.476   0.483   3.514
 4075SOL    HW213125   6.548   0.507   3.659
 4076SOL     OW13126   1.508   3.358   3.251
 4076SOL    HW113127   1.450   3.342   3.330
 4076SOL    HW213128   1.536   3.270   3.212
 4077SOL     OW13129   3.502   0.854   1.012
 4077SOL    HW113130   3.489   0.831   1.108
 4077SOL    HW213131   3.470   0.947   0.995
 4078SOL     OW13132   5.088   4.686   2.671
 4078SOL    HW113133   5.139   4.763   2.708
 4078SOL    HW213134   5.003   4.719   2.630
 4079SOL     OW13135   4.873   0.877   3.614
 4079SOL    HW113136   4.890   0.932   3.696
 4079SOL    HW213137   4.906   0.927   3.533
 4080SOL     OW13138   3.085   3.944   4.613
 4080SOL    HW113139   3.024   3.969   4.538
 4080SOL    HW213140   3.135   4.026   4.643
 4081SOL     OW13141   2.485   0.204   0.070
 4081SOL    HW113142   2.554   0.274   0.048
 4081SOL    HW213143   2.523   0.113   0.051
 4082SOL     OW13144   1.777   1.612   5.713
 4082SOL    HW113145   1.868   1.653   5.704
 4082SOL    HW213146   1.725   1.627   5.629
 4083SOL     OW13147   6.119   5.032   2.512
 4083SOL    HW113148   6.198   4.974   2.493
 4083SOL    HW213149   6.041   5.000   2.459
 4084SOL     OW13150   4.087   6.500   2.494
 4084SOL    HW113151   4.101   6.402   2.476
 4084SOL    HW213152   4.101   6.518   2.591
 4085SOL     OW13153   1.773   4.187   2.574
 4085SOL    HW113154   1.851   4.244   2.548
 4085SOL    HW213155   1.771   4.178   2.674
 4086SOL     OW13156   5.345   5.147   5.137
 4086SOL    HW113157   5.337   5.229   5.081
 4086SOL    HW213158   5.277   5.080   5.108
 4087SOL     OW13159   1.562   0.802   1.745
 4087SOL    HW113160   1.636   0.868   1.731
 4087SOL    HW213161   1.483   0.828   1.689
 4088SOL     OW13162   6.960   1.995   5.623
 4088SOL    HW113163   6.987   1.898   5.616
 4088SOL    HW213164   0.021   2.051   5.640
 4089SOL     OW13165   7.011   6.686   2.772
 4089SOL    HW113166   6.916   6.678   2.803
 4089SOL    HW213167   0.026   6.777   2.795
 4090SOL     OW13168   3.365   2.552   5.333
 4090SOL    HW113169   3.459   2.560   5.301
 4090SOL    HW213170   3.350   2.460   5.370
 4091SOL     OW13171   3.980   6.578   2.994
 4091SOL    HW113172   3.946   6.487   3.017
 4091SOL    HW213173   3.916   6.623   2.932
 4092SOL     OW13174   4.706   1.535   6.309
 4092SOL    HW113175   4.780   1.486   6.263
 4092SOL    HW213176   4.745   1.604   6.371
 4093SOL     OW13177   5.935   4.194   1.813
 4093SOL    HW113178   5.838   4.208   1.792
 4093SOL    HW213179   5.952   4.096   1.824
 4094SOL     OW13180   6.520   6.443   0.399
 4094SOL    HW113181   6.552   6.524   0.350
 4094SOL    HW213182   6.566   6.436   0.487
 4095SOL     OW13183   1.288   4.871   0.471
 4095SOL    HW113184   1.347   4.798   0.507
 4095SOL    HW213185   1.343   4.949   0.442
 4096SOL     OW13186   0.597   6.174   5.912
 4096SOL    HW113187   0.688   6.145   5.941
 4096SOL    HW213188   0.595   6.184   5.813
 4097SOL     OW13189   1.282   4.032   5.754
 4097SOL    HW113190   1.361   3.985   5.794
 4097SOL    HW213191   1.266   4.117   5.804
 4098SOL     OW13192   1.270   6.091   1.720
 4098SOL    HW113193   1.303   6.127   1.808
 4098SOL    HW213194   1.220   6.163   1.672
 4099SOL     OW13195   7.010   2.420   5.857
 4099SOL    HW113196   0.024   2.328   5.879
 4099SOL    HW213197   6.916   2.414   5.824
 4100SOL     OW13198   2.377   0.777   3.609
 4100SOL    HW113199   2.472   0.791   3.581
 4100SOL    HW213200   2.334   0.866   3.624
 4101SOL     OW13201   6.166   6.291   6.112
 4101SOL    HW113202   6.129   6.346   6.188
 4101SOL    HW213203   6.091   6.254   6.057
 4102SOL     OW13204   2.693   5.145   0.656
 4102SOL    HW113205   2.777   5.106   0.620
 4102SOL    HW213206   2.659   5.090   0.732
 4103SOL     OW13207   2.355   5.190   3.048
 4103SOL    HW113208   2.329   5.223   2.957
 4103SOL    HW213209   2.430   5.246   3.083
 4104SOL     OW13210   2.801   5.430   5.684
 4104SOL    HW113211   2.806   5.526   5.712
 4104SOL    HW213212   2.705   5.404   5.672
 4105SOL     OW13213   3.697   0.282   1.689
 4105SOL    HW113214   3.676   0.212   1.621
 4105SOL    HW213215   3.696   0.241   1.780
 4106SOL     OW13216   1.703   6.664   3.171
 4106SOL    HW113217   1.762   6.587   3.150
 4106SOL    HW213218   1.697   6.725   3.092
 4107SOL     OW13219   2.371   2.074   0.633
 4107SOL    HW113220   2.335   2.147   0.575
 4107SOL    HW213221   2.351   1.986   0.591
 4108SOL     OW13222   0.527   5.665   4.928
 4108SOL    HW113223   0.541   5.763   4.913
 4108SOL    HW213224   0.429   5.647   4.938
 4109SOL     OW13225   4.985   0.331   5.104
 4109SOL    HW113226   4.939   0.415   5.074
 4109SOL    HW213227   5.061   0.310   5.042
 4110SOL     OW13228   4.981   2.293   0.337
 4110SOL    HW113229   4.888   2.300   0.374
 4110SOL    HW213230   5.036   2.234   0.396
 4111SOL     OW13231   6.645   4.742   3.468
 4111SOL    HW113232   6.654   4.759   3.370
 4111SOL    HW213233   6.730   4.765   3.515
 4112SOL     OW13234   4.167   5.786   5.922
 4112SOL    HW113235   4.242   5.732   5.960
 4112SOL    HW213236   4.120   5.834   5.996
 4113SOL     OW13237   5.198   6.210   5.720
 4113SOL    HW113238   5.106   6.172   5.733
 4113SOL    HW213239   5.256   6.183   5.796
 4114SOL     OW13240   6.539   1.563   3.460
 4114SOL    HW113241   6.460   1.585   3.403
 4114SOL    HW213242   6.518   1.583   3.556
 4115SOL     OW13243   4.451   6.731   4.729
 4115SOL    HW113244   4.484   6.663   4.665
 4115SOL    HW213245   4.412   6.808   4.679
 4116SOL     OW13246   6.260   4.075   3.443
 4116SOL    HW113247   6.223   4.096   3.534
 4116SOL    HW213248   6.354   4.110   3.437
 4117SOL     OW13249   0.261   2.814   2.707
 4117SOL    HW113250   0.245   2.732   2.761
 4117SOL    HW213251   0.335   2.797   2.642
 4118SOL     OW13252   0.872   0.660   2.253
 4118SOL    HW113253   0.821   0.708   2.324
 4118SOL    HW213254   0.836   0.567   2.244
 4119SOL     OW13255   6.446   1.130   4.450
 4119SOL    HW113256   6.454   1.037   4.415
 4119SOL    HW213257   6.535   1.160   4.486
 4120SOL     OW13258   1.346   0.894   6.663
 4120SOL    HW113259   1.353   0.874   6.566
 4120SOL    HW213260   1.284   0.971   6.677
 4121SOL     OW13261   6.669   0.582   1.199
 4121SOL    HW113262   6.759   0.538   1.208
 4121SOL    HW213263   6.645   0.587   1.102
 4122SOL     OW13264   1.436   4.464   3.606
 4122SOL    HW113265   1.481   4.377   3.624
 4122SOL    HW213266   1.368   4.482   3.678
 4123SOL     OW13267   5.730   4.476   1.943
 4123SOL    HW113268   5.751   4.433   2.031
 4123SOL    HW213269   5.632   4.494   1.938
 4124SOL     OW13270   5.928   6.319   0.355
 4124SOL    HW113271   5.852   6.258   0.374
 4124SOL    HW213272   5.970   6.295   0.268
 4125SOL     OW13273   0.278   2.608   0.032
 4125SOL    HW113274   0.192   2.617   0.081
 4125SOL    HW213275   0.331   2.532   0.070
 4126SOL     OW13276   1.758   4.205   3.355
 4126SOL    HW113277   1.790   4.218   3.449
 4126SOL    HW213278   1.681   4.142   3.354
 4127SOL     OW13279   4.677   2.710   4.533
 4127SOL    HW113280   4.665   2.795   4.584
 4127SOL    HW213281   4.738   2.727   4.455
 4128SOL     OW13282   5.780   2.653   6.212
 4128SOL    HW113283   5.708   2.698   6.159
 4128SOL    HW213284   5.810   2.571   6.165
 4129SOL     OW13285   3.122   0.128   2.059
 4129SOL    HW113286   3.202   0.184   2.038
 4129SOL    HW213287   3.148   0.032   2.057
 4130SOL     OW13288   4.903   1.188   0.424
 4130SOL    HW113289   4.899   1.260   0.355
 4130SOL    HW213290   4.990   1.194   0.473
 4131SOL     OW13291   5.164   6.345   3.828
 4131SOL    HW113292   5.191   6.339   3.924
 4131SOL    HW213293   5.245   6.354   3.771
 4132SOL     OW13294   6.669   3.634   2.280
 4132SOL    HW113295   6.760   3.675   2.284
 4132SOL    HW213296   6.675   3.543   2.241
 4133SOL     OW13297   5.503   6.342   3.396
 4133SOL    HW113298   5.569   6.267   3.400
 4133SOL    HW213299   5.466   6.349   3.303
 4134SOL     OW13300   1.574   2.622   0.913
 4134SOL    HW113301   1.556   2.538   0.963
 4134SOL    HW213302   1.673   2.640   0.911
 4135SOL     OW13303   5.801   0.878   0.612
 4135SOL    HW113304   5.746   0.932   0.676
 4135SOL    HW213305   5.762   0.886   0.520
 4136SOL     OW13306   0.614   4.706   0.332
 4136SOL    HW113307   0.681   4.631   0.327
 4136SOL    HW213308   0.547   4.686   0.404
 4137SOL     OW13309   0.156   2.389   5.389
 4137SOL    HW113310   0.066   2.406   5.348
 4137SOL    HW213311   0.223   2.370   5.317
 4138SOL     OW13312   5.944   6.391   6.235
 4138SOL    HW113313   5.966   6.484   6.208
 4138SOL    HW213314   5.847   6.385   6.261
 4139SOL     OW13315   1.561   3.901   2.201
 4139SOL    HW113316   1.516   3.988   2.183
 4139SOL    HW213317   1.654   3.918   2.233
 4140SOL     OW13318   2.332   6.911   0.689
 4140SOL    HW113319   2.399   6.840   0.668
 4140SOL    HW213320   2.295   6.897   0.780
 4141SOL     OW13321   4.946   0.383   6.143
 4141SOL    HW113322   5.039   0.372   6.177
 4141SOL    HW213323   4.906   0.467   6.181
 4142SOL     OW13324   6.999   6.763   1.645
 4142SOL    HW113325   0.063   6.806   1.611
 4142SOL    HW213326   7.003   6.756   1.744
 4143SOL     OW13327   6.451   3.417   6.430
 4143SOL    HW113328   6.473   3.480   6.505
 4143SOL    HW213329   6.512   3.338   6.435
 4144SOL     OW13330   5.103   0.816   1.781
 4144SOL    HW113331   5.064   0.759   1.854
 4144SOL    HW213332   5.040   0.819   1.704
 4145SOL     OW13333   4.380   0.981   1.420
 4145SOL    HW113334   4.366   1.047   1.346
 4145SOL    HW213335   4.400   0.891   1.381
 4146SOL     OW13336   3.485   1.546   2.258
 4146SOL    HW113337   3.475   1.520   2.162
 4146SOL    HW213338   3.571   1.595   2.270
 4147SOL     OW13339   4.960   3.833   6.819
 4147SOL    HW113340   4.912   3.782   6.748
 4147SOL    HW213341   5.041   3.876   6.780
 4148SOL     OW13342   3.330   1.089   6.122
 4148SOL    HW113343   3.327   1.025   6.199
 4148SOL    HW213344   3.250   1.076   6.065
 4149SOL     OW13345   1.560   2.612   7.004
 4149SOL    HW113346   1.612   2.697   6.996
 4149SOL    HW213347   1.466   2.628   6.975
 4150SOL     OW13348   0.079   1.446   1.276
 4150SOL    HW113349   0.013   1.372   1.284
 4150SOL    HW213350   0.038   1.522   1.225
 4151SOL     OW13351   2.685   5.213   4.616
 4151SOL    HW113352   2.731   5.289   4.569
 4151SOL    HW213353   2.595   5.243   4.646
 4152SOL     OW13354   2.820   3.925   1.472
 4152SOL    HW113355   2.888   3.932   1.544
 4152SOL    HW213356   2.831   4.001   1.408
 4153SOL     OW13357   6.388   6.235   0.760
 4153SOL    HW113358   6.354   6.270   0.847
 4153SOL    HW213359   6.462   6.295   0.727
 4154SOL     OW13360   0.342   6.491   3.933
 4154SOL    HW113361   0.320   6.518   3.839
 4154SOL    HW213362   0.302   6.557   3.997
 4155SOL     OW13363   5.557   1.473   1.898
 4155SOL    HW113364   5.509   1.530   1.965
 4155SOL    HW213365   5.569   1.381   1.935
 4156SOL     OW13366   1.146   5.348   5.718
 4156SOL    HW113367   1.079   5.417   5.689
 4156SOL    HW213368   1.237   5.389   5.722
 4157SOL     OW13369   4.782   6.354   0.444
 4157SOL    HW113370   4.818   6.370   0.536
 4157SOL    HW213371   4.752   6.259   0.436
 4158SOL     OW13372   6.311   1.236   6.815
 4158SOL    HW113373   6.268   1.307   6.759
 4158SOL    HW213374   6.260   1.150   6.806
 4159SOL     OW13375   3.072   0.716   4.917
 4159SOL    HW113376   3.019   0.757   4.991
 4159SOL    HW213377   3.055   0.766   4.832
 4160SOL     OW13378   1.396   6.979   6.115
 4160SOL    HW113379   1.462   0.025   6.151
 4160SOL    HW213380   1.425   6.887   6.139
 4161SOL     OW13381   3.289   3.395   5.016
 4161SOL    HW113382   3.249   3.367   5.104
 4161SOL    HW213383   3.382   3.428   5.030
 4162SOL     OW13384   4.337   6.323   1.330
 4162SOL    HW113385   4.323   6.405   1.384
 4162SOL    HW213386   4.435   6.307   1.317
 4163SOL     OW13387   3.564   5.872   0.973
 4163SOL    HW113388   3.562   5.969   0.949
 4163SOL    HW213389   3.536   5.861   1.068
 4164SOL     OW13390   5.497   1.449   0.240
 4164SOL    HW113391   5.496   1.492   0.149
 4164SOL    HW213392   5.536   1.357   0.233
 4165SOL     OW13393   3.586   2.112   4.291
 4165SOL    HW113394   3.551   2.118   4.385
 4165SOL    HW213395   3.686   2.108   4.294
 4166SOL     OW13396   5.421   2.177   2.669
 4166SOL    HW113397   5.448   2.177   2.572
 4166SOL    HW213398   5.504   2.174   2.726
 4167SOL     OW13399   3.909   6.746   4.644
 4167SOL    HW113400   3.913   6.773   4.740
 4167SOL    HW213401   3.850   6.809   4.594
 4168SOL     OW13402   5.241   3.713   6.924
 4168SOL    HW113403   5.180   3.636   6.903
 4168SOL    HW213404   5.215   3.791   6.867
 4169SOL     OW13405   5.205   3.916   6.743
 4169SOL    HW113406   5.170   4.007   6.764
 4169SOL    HW213407   5.245   3.917   6.651
 4170SOL     OW13408   1.032   2.852   5.217
 4170SOL    HW113409   0.939   2.831   5.186
 4170SOL    HW213410   1.058   2.790   5.291
 4171SOL     OW13411   0.153   1.118   5.813
 4171SOL    HW113412   0.174   1.065   5.895
 4171SOL    HW213413   0.080   1.183   5.833
 4172SOL     OW13414   3.202   2.751   0.231
 4172SOL    HW113415   3.171   2.818   0.165
 4172SOL    HW213416   3.204   2.792   0.322
 4173SOL     OW13417   5.436   1.529   6.186
 4173SOL    HW113418   5.356   1.588   6.178
 4173SOL    HW213419   5.519   1.585   6.187
 4174SOL     OW13420   2.875   6.909   3.583
 4174SOL    HW113421   2.929   6.889   3.665
 4174SOL    HW213422   2.909   6.856   3.506
 4175SOL     OW13423   1.201   4.296   6.489
 4175SOL    HW113424   1.224   4.251   6.575
 4175SOL    HW213425   1.139   4.238   6.436
 4176SOL     OW13426   4.194   6.702   4.912
 4176SOL    HW113427   4.190   6.604   4.889
 4176SOL    HW213428   4.104   6.743   4.898
 4177SOL     OW13429   4.553   6.409   3.912
 4177SOL    HW113430   4.520   6.349   3.985
 4177SOL    HW213431   4.532   6.504   3.935
 4178SOL     OW13432   3.698   6.757   1.202
 4178SOL    HW113433   3.769   6.793   1.141
 4178SOL    HW213434   3.735   6.680   1.254
 4179SOL     OW13435   4.220   1.694   0.284
 4179SOL    HW113436   4.284   1.626   0.248
 4179SOL    HW213437   4.215   1.685   0.383
 4180SOL     OW13438   4.066   4.186   0.267
 4180SOL    HW113439   3.999   4.178   0.194
 4180SOL    HW213440   4.118   4.101   0.276
 4181SOL     OW13441   5.732   6.348   5.798
 4181SOL    HW113442   5.694   6.298   5.876
 4181SOL    HW213443   5.730   6.290   5.717
 4182SOL     OW13444   6.626   5.142   5.352
 4182SOL    HW113445   6.674   5.055   5.341
 4182SOL    HW213446   6.608   5.159   5.449
 4183SOL     OW13447   5.142   2.652   0.018
 4183SOL    HW113448   5.127   2.744   7.002
 4183SOL    HW213449   5.069   2.628   0.081
 4184SOL     OW13450   3.343   5.761   3.159
 4184SOL    HW113451   3.292   5.700   3.099
 4184SOL    HW213452   3.289   5.843   3.177
 4185SOL     OW13453   4.488   4.463   3.188
 4185SOL    HW113454   4.437   4.549   3.180
 4185SOL    HW213455   4.453   4.411   3.266
 4186SOL     OW13456   1.497   5.476   0.587
 4186SOL    HW113457   1.401   5.452   0.604
 4186SOL    HW213458   1.534   5.416   0.516
 4187SOL     OW13459   2.031   4.174   6.652
 4187SOL    HW113460   2.086   4.219   6.723
 4187SOL    HW213461   2.005   4.083   6.682
 4188SOL     OW13462   5.257   0.850   6.254
 4188SOL    HW113463   5.349   0.875   6.225
 4188SOL    HW213464   5.194   0.859   6.177
 4189SOL     OW13465   4.385   5.779   3.381
 4189SOL    HW113466   4.472   5.765   3.428
 4189SOL    HW213467   4.372   5.876   3.362
 4190SOL     OW13468   6.428   6.052   1.061
 4190SOL    HW113469   6.341   6.059   1.013
 4190SOL    HW213470   6.499   6.099   1.008
 4191SOL     OW13471   4.483   2.895   5.878
 4191SOL    HW113472   4.536   2.811   5.890
 4191SOL    HW213473   4.387   2.873   5.866
 4192SOL     OW13474   2.052   3.571   6.290
 4192SOL    HW113475   2.043   3.656   6.343
 4192SOL    HW213476   2.083   3.593   6.198
 4193SOL     OW13477   5.562   0.006   1.280
 4193SOL    HW113478   5.474   6.995   1.245
 4193SOL    HW213479   5.577   6.988   1.371
 4194SOL     OW13480   5.401   0.373   6.549
 4194SOL    HW113481   5.317   0.329   6.516
 4194SOL    HW213482   5.470   0.370   6.477
 4195SOL     OW13483   2.310   6.158   0.675
 4195SOL    HW113484   2.375   6.087   0.647
 4195SOL    HW213485   2.242   6.119   0.737
 4196SOL     OW13486   6.873   2.976   3.774
 4196SOL    HW113487   6.863   2.973   3.675
 4196SOL    HW213488   6.953   2.923   3.801
 4197SOL     OW13489   4.139   0.458   0.309
 4197SOL    HW113490   4.055   0.511   0.293
 4197SOL    HW213491   4.144   0.433   0.406
 4198SOL     OW13492   6.315   2.467   1.688
 4198SOL    HW113493   6.252   2.523   1.635
 4198SOL    HW213494   6.379   2.420   1.626
 4199SOL     OW13495   1.396   3.716   6.923
 4199SOL    HW113496   1.326   3.692   6.856
 4199SOL    HW213497   1.361   3.789   6.983
 4200SOL     OW13498   5.700   1.589   2.892
 4200SOL    HW113499   5.641   1.669   2.882
 4200SOL    HW213500   5.747   1.571   2.806
 4201SOL     OW13501   4.807   0.016   5.201
 4201SOL    HW113502   4.875   0.057   5.140
 4201SOL    HW213503   4.730   0.078   5.212
 4202SOL     OW13504   4.536   4.134   1.582
 4202SOL    HW113505   4.484   4.168   1.660
 4202SOL    HW213506   4.599   4.205   1.549
 4203SOL     OW13507   6.590   3.835   4.536
 4203SOL    HW113508   6.640   3.845   4.450
 4203SOL    HW213509   6.492   3.849   4.519
 4204SOL     OW13510   2.459   3.986   5.694
 4204SOL    HW113511   2.468   3.998   5.792
 4204SOL    HW213512   2.378   4.035   5.661
 4205SOL     OW13513   5.600   5.938   5.740
 4205SOL    HW113514   5.631   6.026   5.777
 4205SOL    HW213515   5.664   5.908   5.670
 4206SOL     OW13516   2.475   2.475   5.075
 4206SOL    HW113517   2.448   2.567   5.045
 4206SOL    HW213518   2.415   2.407   5.033
 4207SOL     OW13519   1.774   2.604   1.246
 4207SOL    HW113520   1.698   2.570   1.301
 4207SOL    HW213521   1.855   2.550   1.264
 4208SOL     OW13522   1.832   2.226   3.045
 4208SOL    HW113523   1.917   2.191   3.083
 4208SOL    HW213524   1.791   2.157   2.985
 4209SOL     OW13525   6.386   5.548   2.474
 4209SOL    HW113526   6.344   5.620   2.530
 4209SOL    HW213527   6.385   5.577   2.378
 4210SOL     OW13528   3.137   5.286   5.467
 4210SOL    HW113529   3.211   5.231   5.429
 4210SOL    HW213530   3.175   5.359   5.523
 4211SOL     OW13531   4.643   2.665   5.918
 4211SOL    HW113532   4.610   2.575   5.944
 4211SOL    HW213533   4.704   2.657   5.839
 4212SOL     OW13534   0.816   2.502   2.846
 4212SOL    HW113535   0.801   2.557   2.764
 4212SOL    HW213536   0.741   2.437   2.857
 4213SOL     OW13537   3.199   0.818   3.725
 4213SOL    HW113538   3.165   0.738   3.676
 4213SOL    HW213539   3.230   0.887   3.658
 4214SOL     OW13540   6.216   6.525   4.103
 4214SOL    HW113541   6.126   6.481   4.115
 4214SOL    HW213542   6.287   6.466   4.141
 4215SOL     OW13543   5.399   0.246   5.277
 4215SOL    HW113544   5.402   0.344   5.255
 4215SOL    HW213545   5.430   0.193   5.198
 4216SOL     OW13546   1.939   5.781   2.439
 4216SOL    HW113547   2.035   5.784   2.413
 4216SOL    HW213548   1.897   5.696   2.406
 4217SOL     OW13549   0.279   0.268   3.059
 4217SOL    HW113550   0.305   0.280   3.155
 4217SOL    HW213551   0.253   0.173   3.043
 4218SOL     OW13552   2.661   0.720   1.601
 4218SOL    HW113553   2.634   0.672   1.517
 4218SOL    HW213554   2.602   0.691   1.676
 4219SOL     OW13555   3.166   5.765   2.587
 4219SOL    HW113556   3.179   5.666   2.586
 4219SOL    HW213557   3.141   5.794   2.680
 4220SOL     OW13558   5.787   1.876   1.415
 4220SOL    HW113559   5.838   1.824   1.347
 4220SOL    HW213560   5.692   1.884   1.387
 4221SOL     OW13561   0.620   6.928   1.236
 4221SOL    HW113562   0.609   6.849   1.297
 4221SOL    HW213563   0.702   6.917   1.181
 4222SOL     OW13564   4.868   3.431   4.276
 4222SOL    HW113565   4.879   3.441   4.375
 4222SOL    HW213566   4.923   3.354   4.244
 4223SOL     OW13567   3.579   4.114   3.232
 4223SOL    HW113568   3.586   4.020   3.265
 4223SOL    HW213569   3.665   4.142   3.189
 4224SOL     OW13570   4.827   4.244   4.611
 4224SOL    HW113571   4.886   4.317   4.577
 4224SOL    HW213572   4.769   4.280   4.684
 4225SOL     OW13573   0.868   1.635   6.140
 4225SOL    HW113574   0.934   1.628   6.066
 4225SOL    HW213575   0.914   1.670   6.222
 4226SOL     OW13576   5.357   5.120   4.432
 4226SOL    HW113577   5.455   5.112   4.416
 4226SOL    HW213578   5.322   5.202   4.386
 4227SOL     OW13579   5.443   5.617   0.951
 4227SOL    HW113580   5.519   5.552   0.951
 4227SOL    HW213581   5.466   5.695   0.893
 4228SOL     OW13582   1.904   4.199   3.604
 4228SOL    HW113583   2.001   4.177   3.601
 4228SOL    HW213584   1.858   4.137   3.668
 4229SOL     OW13585   6.193   6.120   5.745
 4229SOL    HW113586   6.275   6.170   5.774
 4229SOL    HW213587   6.218   6.025   5.725
 4230SOL     OW13588   0.437   1.286   2.367
 4230SOL    HW113589   0.476   1.220   2.302
 4230SOL    HW213590   0.495   1.367   2.369
 4231SOL     OW13591   0.521   0.580   5.925
 4231SOL    HW113592   0.575   0.566   5.842
 4231SOL    HW213593   0.483   0.492   5.955
 4232SOL     OW13594   1.553   4.560   2.453
 4232SOL    HW113595   1.645   4.537   2.485
 4232SOL    HW213596   1.500   4.598   2.530
 4233SOL     OW13597   4.369   5.659   2.293
 4233SOL    HW113598   4.350   5.746   2.338
 4233SOL    HW213599   4.311   5.587   2.331
 4234SOL     OW13600   3.491   5.214   6.446
 4234SOL    HW113601   3.501   5.163   6.361
 4234SOL    HW213602   3.394   5.218   6.471
 4235SOL     OW13603   6.921   6.267   6.770
 4235SOL    HW113604   6.997   6.229   6.717
 4235SOL    HW213605   6.835   6.241   6.727
 4236SOL     OW13606   7.012   4.976   3.290
 4236SOL    HW113607   0.022   5.067   3.261
 4236SOL    HW213608   6.971   4.928   3.212
 4237SOL     OW13609   6.623   4.698   3.784
 4237SOL    HW113610   6.591   4.786   3.749
 4237SOL    HW213611   6.650   4.639   3.708
 4238SOL     OW13612   2.123   5.597   2.790
 4238SOL    HW113613   2.143   5.686   2.748
 4238SOL    HW213614   2.110   5.528   2.719
 4239SOL     OW13615   4.238   0.838   3.335
 4239SOL    HW113616   4.211   0.794   3.248
 4239SOL    HW213617   4.170   0.907   3.359
 4240SOL     OW13618   4.995   6.752   1.672
 4240SOL    HW113619   4.917   6.786   1.619
 4240SOL    HW213620   4.973   6.662   1.709
 4241SOL     OW13621   0.287   4.415   6.994
 4241SOL    HW113622   0.330   4.430   6.904
 4241SOL    HW213623   0.199   4.463   6.997
 4242SOL     OW13624   3.696   2.059   2.705
 4242SOL    HW113625   3.755   2.085   2.782
 4242SOL    HW213626   3.751   2.051   2.622
 4243SOL     OW13627   3.189   2.109   2.838
 4243SOL    HW113628   3.153   2.104   2.744
 4243SOL    HW213629   3.276   2.061   2.842
 4244SOL     OW13630   2.928   3.707   5.082
 4244SOL    HW113631   2.934   3.623   5.029
 4244SOL    HW213632   2.917   3.685   5.179
 4245SOL     OW13633   6.457   1.212   5.511
 4245SOL    HW113634   6.386   1.244   5.574
 4245SOL    HW213635   6.514   1.289   5.483
 4246SOL     OW13636   1.113   4.986   6.234
 4246SOL    HW113637   1.160   4.982   6.322
 4246SOL    HW213638   1.145   4.913   6.175
 4247SOL     OW13639   0.091   4.788   5.314
 4247SOL    HW113640   0.044   4.801   5.227
 4247SOL    HW213641   0.186   4.818   5.306
 4248SOL     OW13642   2.087   3.688   7.013
 4248SOL    HW113643   2.024   3.660   6.942
 4248SOL    HW213644   2.046   3.761   0.048
 4249SOL     OW13645   5.164   3.231   6.164
 4249SOL    HW113646   5.108   3.194   6.090
 4249SOL    HW213647   5.178   3.160   6.233
 4250SOL     OW13648   6.602   4.289   3.820
 4250SOL    HW113649   6.644   4.260   3.734
 4250SOL    HW213650   6.505   4.307   3.806
 4251SOL     OW13651   6.111   5.011   6.161
 4251SOL    HW113652   6.199   5.050   6.133
 4251SOL    HW213653   6.121   4.964   6.249
 4252SOL     OW13654   6.497   4.800   5.139
 4252SOL    HW113655   6.580   4.795   5.084
 4252SOL    HW213656   6.498   4.727   5.208
 4253SOL     OW13657   3.212   6.934   3.042
 4253SOL    HW113658   3.145   7.006   3.025
 4253SOL    HW213659   3.284   6.937   2.973
 4254SOL     OW13660   3.289   3.114   2.852
 4254SOL    HW113661   3.223   3.165   2.797
 4254SOL    HW213662   3.345   3.057   2.792
 4255SOL     OW13663   0.429   2.109   4.136
 4255SOL    HW113664   0.417   2.017   4.173
 4255SOL    HW213665   0.359   2.169   4.174
 4256SOL     OW13666   1.231   0.874   2.111
 4256SOL    HW113667   1.307   0.810   2.123
 4256SOL    HW213668   1.193   0.865   2.019
 4257SOL     OW13669   4.449   2.220   5.162
 4257SOL    HW113670   4.465   2.180   5.072
 4257SOL    HW213671   4.356   2.254   5.167
 4258SOL     OW13672   5.282   5.582   2.130
 4258SOL    HW113673   5.200   5.524   2.139
 4258SOL    HW213674   5.303   5.622   2.219
 4259SOL     OW13675   2.582   3.090   1.742
 4259SOL    HW113676   2.680   3.086   1.725
 4259SOL    HW213677   2.546   2.997   1.753
 4260SOL     OW13678   3.678   6.474   5.135
 4260SOL    HW113679   3.689   6.376   5.154
 4260SOL    HW213680   3.767   6.517   5.126
 4261SOL     OW13681   1.125   1.298   3.104
 4261SOL    HW113682   1.126   1.370   3.035
 4261SOL    HW213683   1.218   1.267   3.122
 4262SOL     OW13684   0.694   6.747   5.247
 4262SOL    HW113685   0.610   6.693   5.250
 4262SOL    HW213686   0.736   6.739   5.157
 4263SOL     OW13687   4.594   5.124   6.826
 4263SOL    HW113688   4.524   5.123   6.897
 4263SOL    HW213689   4.647   5.209   6.833
 4264SOL     OW13690   1.512   0.178   1.278
 4264SOL    HW113691   1.425   0.130   1.265
 4264SOL    HW213692   1.586   0.120   1.245
 4265SOL     OW13693   1.934   1.430   0.805
 4265SOL    HW113694   1.888   1.478   0.880
 4265SOL    HW213695   1.925   1.483   0.721
 4266SOL     OW13696   3.218   4.806   0.575
 4266SOL    HW113697   3.142   4.747   0.605
 4266SOL    HW213698   3.208   4.825   0.477
 4267SOL     OW13699   1.755   3.885   5.474
 4267SOL    HW113700   1.843   3.881   5.521
 4267SOL    HW213701   1.770   3.869   5.376
 4268SOL     OW13702   0.727   1.102   1.152
 4268SOL    HW113703   0.659   1.052   1.206
 4268SOL    HW213704   0.686   1.134   1.067
 4269SOL     OW13705   2.947   3.611   0.524
 4269SOL    HW113706   2.904   3.667   0.453
 4269SOL    HW213707   2.921   3.516   0.511
 4270SOL     OW13708   3.517   2.902   6.995
 4270SOL    HW113709   3.473   2.872   6.910
 4270SOL    HW213710   3.455   2.965   0.023
 4271SOL     OW13711   1.621   0.491   1.647
 4271SOL    HW113712   1.594   0.407   1.695
 4271SOL    HW213713   1.542   0.525   1.596
 4272SOL     OW13714   1.175   4.478   3.756
 4272SOL    HW113715   1.130   4.567   3.746
 4272SOL    HW213716   1.187   4.458   3.854
 4273SOL     OW13717   6.113   6.791   3.375
 4273SOL    HW113718   6.075   6.722   3.314
 4273SOL    HW213719   6.040   6.844   3.417
 4274SOL     OW13720   2.469   0.456   3.516
 4274SOL    HW113721   2.419   0.420   3.594
 4274SOL    HW213722   2.551   0.505   3.548
 4275SOL     OW13723   1.016   0.413   5.703
 4275SOL    HW113724   0.962   0.333   5.676
 4275SOL    HW213725   1.094   0.383   5.757
 4276SOL     OW13726   1.868   3.692   3.315
 4276SOL    HW113727   1.823   3.603   3.308
 4276SOL    HW213728   1.861   3.740   3.228
 4277SOL     OW13729   0.732   5.322   5.390
 4277SOL    HW113730   0.706   5.269   5.310
 4277SOL    HW213731   0.827   5.353   5.380
 4278SOL     OW13732   1.111   6.116   6.510
 4278SOL    HW113733   1.122   6.117   6.609
 4278SOL    HW213734   1.192   6.153   6.466
 4279SOL     OW13735   3.417   5.787   2.784
 4279SOL    HW113736   3.502   5.804   2.834
 4279SOL    HW213737   3.375   5.874   2.760
 4280SOL     OW13738   4.921   2.729   3.824
 4280SOL    HW113739   4.921   2.629   3.828
 4280SOL    HW213740   4.895   2.759   3.732
 4281SOL     OW13741   1.676   4.051   5.121
 4281SOL    HW113742   1.744   4.112   5.080
 4281SOL    HW213743   1.723   3.974   5.165
 4282SOL     OW13744   0.990   1.471   0.188
 4282SOL    HW113745   1.062   1.443   0.250
 4282SOL    HW213746   1.016   1.557   0.144
 4283SOL     OW13747   3.007   1.198   4.176
 4283SOL    HW113748   3.081   1.130   4.170
 4283SOL    HW213749   3.001   1.232   4.269
 4284SOL     OW13750   7.010   2.545   2.925
 4284SOL    HW113751   6.963   2.618   2.875
 4284SOL    HW213752   6.945   2.474   2.950
 4285SOL     OW13753   1.019   6.205   4.084
 4285SOL    HW113754   0.966   6.120   4.072
 4285SOL    HW213755   1.036   6.220   4.181
 4286SOL     OW13756   4.433   5.569   6.311
 4286SOL    HW113757   4.489   5.495   6.274
 4286SOL    HW213758   4.493   5.641   6.347
 4287SOL     OW13759   3.912   5.465   5.912
 4287SOL    HW113760   3.865   5.547   5.945
 4287SOL    HW213761   3.927   5.403   5.990
 4288SOL     OW13762   1.386   6.173   3.805
 4288SOL    HW113763   1.426   6.097   3.755
 4288SOL    HW213764   1.411   6.259   3.761
 4289SOL     OW13765   0.267   4.151   7.015
 4289SOL    HW113766   0.348   4.105   0.030
 4289SOL    HW213767   0.271   4.249   0.017
 4290SOL     OW13768   1.546   1.712   2.975
 4290SOL    HW113769   1.521   1.801   3.015
 4290SOL    HW213770   1.614   1.668   3.033
 4291SOL     OW13771   0.085   4.159   1.354
 4291SOL    HW113772   0.121   4.069   1.329
 4291SOL    HW213773   0.148   4.229   1.323
 4292SOL     OW13774   5.845   5.544   5.106
 4292SOL    HW113775   5.770   5.560   5.170
 4292SOL    HW213776   5.917   5.492   5.152
 4293SOL     OW13777   0.530   2.014   0.430
 4293SOL    HW113778   0.498   1.978   0.518
 4293SOL    HW213779   0.467   1.986   0.357
 4294SOL     OW13780   4.759   2.209   5.998
 4294SOL    HW113781   4.739   2.153   6.078
 4294SOL    HW213782   4.702   2.181   5.921
 4295SOL     OW13783   3.579   5.598   5.800
 4295SOL    HW113784   3.623   5.526   5.745
 4295SOL    HW213785   3.645   5.634   5.865
 4296SOL     OW13786   2.302   1.404   2.443
 4296SOL    HW113787   2.402   1.408   2.443
 4296SOL    HW213788   2.269   1.397   2.537
 4297SOL     OW13789   5.817   0.336   0.643
 4297SOL    HW113790   5.857   0.247   0.622
 4297SOL    HW213791   5.885   0.408   0.624
 4298SOL     OW13792   1.670   4.477   1.745
 4298SOL    HW113793   1.575   4.471   1.777
 4298SOL    HW213794   1.731   4.481   1.824
 4299SOL     OW13795   1.316   5.741   4.996
 4299SOL    HW113796   1.269   5.774   4.914
 4299SOL    HW213797   1.341   5.818   5.054
 4300SOL     OW13798   6.004   0.035   5.537
 4300SOL    HW113799   5.924   0.075   5.492
 4300SOL    HW213800   6.056   7.001   5.471
 4301SOL     OW13801   3.138   1.297   1.087
 4301SOL    HW113802   3.116   1.248   1.171
 4301SOL    HW213803   3.066   1.364   1.068
 4302SOL     OW13804   0.915   0.334   6.434
 4302SOL    HW113805   0.847   0.308   6.365
 4302SOL    HW213806   0.881   0.306   6.525
 4303SOL     OW13807   0.452   4.161   1.636
 4303SOL    HW113808   0.404   4.231   1.689
 4303SOL    HW213809   0.531   4.129   1.688
 4304SOL     OW13810   2.963   3.673   5.692
 4304SOL    HW113811   2.939   3.769   5.674
 4304SOL    HW213812   3.053   3.653   5.654
 4305SOL     OW13813   0.215   1.567   4.895
 4305SOL    HW113814   0.302   1.616   4.894
 4305SOL    HW213815   0.169   1.580   4.807
 4306SOL     OW13816   6.218   5.382   5.558
 4306SOL    HW113817   6.211   5.363   5.461
 4306SOL    HW213818   6.267   5.307   5.603
 4307SOL     OW13819   5.972   3.783   0.804
 4307SOL    HW113820   6.057   3.836   0.808
 4307SOL    HW213821   5.903   3.826   0.863
 4308SOL     OW13822   3.356   0.264   5.225
 4308SOL    HW113823   3.336   0.230   5.133
 4308SOL    HW213824   3.413   0.346   5.218
 4309SOL     OW13825   1.058   6.943   1.585
 4309SOL    HW113826   1.135   6.915   1.642
 4309SOL    HW213827   1.063   0.022   1.569
 4310SOL     OW13828   1.673   6.775   2.902
 4310SOL    HW113829   1.691   6.870   2.879
 4310SOL    HW213830   1.723   6.715   2.839
 4311SOL     OW13831   1.003   4.920   4.545
 4311SOL    HW113832   0.956   4.865   4.613
 4311SOL    HW213833   0.948   4.924   4.462
 4312SOL     OW13834   1.354   5.519   2.307
 4312SOL    HW113835   1.318   5.504   2.399
 4312SOL    HW213836   1.435   5.577   2.312
 4313SOL     OW13837   5.049   1.498   1.252
 4313SOL    HW113838   5.073   1.421   1.311
 4313SOL    HW213839   5.045   1.468   1.157
 4314SOL     OW13840   6.001   3.405   1.122
 4314SOL    HW113841   5.965   3.406   1.028
 4314SOL    HW213842   5.939   3.456   1.181
 4315SOL     OW13843   2.086   1.015   2.785
 4315SOL    HW113844   2.018   0.986   2.718
 4315SOL    HW213845   2.048   1.090   2.840
 4316SOL     OW13846   0.161   1.454   2.741
 4316SOL    HW113847   0.085   1.390   2.745
 4316SOL    HW213848   0.192   1.462   2.646
 4317SOL     OW13849   4.485   0.657   3.079
 4317SOL    HW113850   4.537   0.636   2.997
 4317SOL    HW213851   4.524   0.738   3.123
 4318SOL     OW13852   6.821   2.180   5.034
 4318SOL    HW113853   6.762   2.150   4.959
 4318SOL    HW213854   6.805   2.122   5.114
 4319SOL     OW13855   3.671   2.683   6.812
 4319SOL    HW113856   3.727   2.765   6.820
 4319SOL    HW213857   3.578   2.708   6.785
 4320SOL     OW13858   6.803   6.518   3.577
 4320SOL    HW113859   6.845   6.431   3.552
 4320SOL    HW213860   6.731   6.502   3.644
 4321SOL     OW13861   0.526   0.694   4.824
 4321SOL    HW113862   0.591   0.625   4.855
 4321SOL    HW213863   0.528   0.772   4.888
 4322SOL     OW13864   6.197   1.072   0.914
 4322SOL    HW113865   6.276   1.012   0.896
 4322SOL    HW213866   6.180   1.075   1.012
 4323SOL     OW13867   6.969   2.116   3.782
 4323SOL    HW113868   6.885   2.170   3.793
 4323SOL    HW213869   6.945   2.019   3.771
 4324SOL     OW13870   6.050   2.570   5.458
 4324SOL    HW113871   6.065   2.653   5.404
 4324SOL    HW213872   6.049   2.594   5.556
 4325SOL     OW13873   1.714   2.843   6.970
 4325SOL    HW113874   1.797   2.825   6.918
 4325SOL    HW213875   1.638   2.861   6.906
 4326SOL     OW13876   6.613   2.129   4.828
 4326SOL    HW113877   6.537   2.174   4.781
 4326SOL    HW213878   6.700   2.167   4.796
 4327SOL     OW13879   4.968   0.796   3.068
 4327SOL    HW113880   4.909   0.869   3.102
 4327SOL    HW213881   5.042   0.835   3.013
 4328SOL     OW13882   6.207   4.770   0.206
 4328SOL    HW113883   6.191   4.689   0.150
 4328SOL    HW213884   6.145   4.768   0.285
 4329SOL     OW13885   4.937   1.697   6.416
 4329SOL    HW113886   5.004   1.623   6.428
 4329SOL    HW213887   4.985   1.781   6.389
 4330SOL     OW13888   0.896   1.076   6.091
 4330SOL    HW113889   0.901   1.175   6.094
 4330SOL    HW213890   0.967   1.036   6.148
 4331SOL     OW13891   5.030   2.872   6.235
 4331SOL    HW113892   5.081   2.789   6.213
 4331SOL    HW213893   4.971   2.896   6.158
 4332SOL     OW13894   6.243   4.545   1.832
 4332SOL    HW113895   6.254   4.469   1.768
 4332SOL    HW213896   6.182   4.519   1.906
 4333SOL     OW13897   6.209   1.372   4.719
 4333SOL    HW113898   6.250   1.463   4.712
 4333SOL    HW213899   6.199   1.332   4.628
 4334SOL     OW13900   4.109   0.508   1.920
 4334SOL    HW113901   4.187   0.479   1.864
 4334SOL    HW213902   4.061   0.583   1.875
 4335SOL     OW13903   3.756   4.367   5.927
 4335SOL    HW113904   3.728   4.272   5.912
 4335SOL    HW213905   3.722   4.398   6.016
 4336SOL     OW13906   1.131   6.877   6.117
 4336SOL    HW113907   1.044   6.909   6.079
 4336SOL    HW213908   1.203   6.943   6.094
 4337SOL     OW13909   0.965   5.386   6.381
 4337SOL    HW113910   1.003   5.453   6.317
 4337SOL    HW213911   0.884   5.424   6.424
 4338SOL     OW13912   5.533   6.492   2.978
 4338SOL    HW113913   5.495   6.584   2.976
 4338SOL    HW213914   5.623   6.492   2.934
 4339SOL     OW13915   6.505   0.648   0.084
 4339SOL    HW113916   6.438   0.697   0.139
 4339SOL    HW213917   6.559   0.714   0.031
 4340SOL     OW13918   4.723   3.636   1.633
 4340SOL    HW113919   4.692   3.723   1.670
 4340SOL    HW213920   4.784   3.592   1.698
 4341SOL     OW13921   1.073   3.325   0.587
 4341SOL    HW113922   0.975   3.347   0.580
 4341SOL    HW213923   1.088   3.269   0.669
 4342SOL     OW13924   0.575   2.266   2.534
 4342SOL    HW113925   0.672   2.268   2.556
 4342SOL    HW213926   0.560   2.303   2.443
 4343SOL     OW13927   3.327   2.675   0.975
 4343SOL    HW113928   3.296   2.582   0.993
 4343SOL    HW213929   3.390   2.704   1.046
 4344SOL     OW13930   2.310   3.097   1.695
 4344SOL    HW113931   2.408   3.117   1.694
 4344SOL    HW213932   2.295   3.006   1.734
 4345SOL     OW13933   3.105   1.027   5.975
 4345SOL    HW113934   3.093   0.932   5.948
 4345SOL    HW213935   3.094   1.087   5.896
 4346SOL     OW13936   0.386   4.102   1.012
 4346SOL    HW113937   0.345   4.193   1.022
 4346SOL    HW213938   0.384   4.075   0.916
 4347SOL     OW13939   5.067   6.035   2.493
 4347SOL    HW113940   5.045   5.999   2.584
 4347SOL    HW213941   4.982   6.057   2.444
 4348SOL     OW13942   1.319   3.768   0.274
 4348SOL    HW113943   1.401   3.710   0.269
 4348SOL    HW213944   1.346   3.860   0.302
 4349SOL     OW13945   6.691   0.966   1.623
 4349SOL    HW113946   6.602   1.010   1.638
 4349SOL    HW213947   6.685   0.901   1.548
 4350SOL     OW13948   3.772   0.423   2.974
 4350SOL    HW113949   3.710   0.419   3.053
 4350SOL    HW213950   3.734   0.369   2.899
 4351SOL     OW13951   3.404   0.109   0.135
 4351SOL    HW113952   3.431   0.191   0.186
 4351SOL    HW213953   3.448   0.029   0.174
 4352SOL     OW13954   6.202   1.848   1.882
 4352SOL    HW113955   6.198   1.899   1.796
 4352SOL    HW213956   6.288   1.869   1.929
 4353SOL     OW13957   3.450   5.731   0.760
 4353SOL    HW113958   3.493   5.774   0.839
 4353SOL    HW213959   3.379   5.791   0.724
 4354SOL     OW13960   2.884   0.843   1.520
 4354SOL    HW113961   2.942   0.762   1.513
 4354SOL    HW213962   2.794   0.818   1.556
 4355SOL     OW13963   4.744   6.891   6.823
 4355SOL    HW113964   4.741   6.967   6.887
 4355SOL    HW213965   4.652   6.865   6.796
 4356SOL     OW13966   3.411   3.834   1.117
 4356SOL    HW113967   3.392   3.932   1.120
 4356SOL    HW213968   3.379   3.797   1.030
 4357SOL     OW13969   5.991   0.515   0.525
 4357SOL    HW113970   6.065   0.480   0.468
 4357SOL    HW213971   6.029   0.572   0.598
 4358SOL     OW13972   6.223   0.697   1.412
 4358SOL    HW113973   6.273   0.611   1.423
 4358SOL    HW213974   6.285   0.774   1.426
 4359SOL     OW13975   0.561   3.916   4.380
 4359SOL    HW113976   0.555   3.922   4.280
 4359SOL    HW213977   0.529   3.826   4.410
 4360SOL     OW13978   2.209   3.469   0.987
 4360SOL    HW113979   2.153   3.544   0.952
 4360SOL    HW213980   2.242   3.492   1.078
 4361SOL     OW13981   5.326   2.445   2.701
 4361SOL    HW113982   5.417   2.485   2.699
 4361SOL    HW213983   5.333   2.346   2.715
 4362SOL     OW13984   4.672   4.275   2.432
 4362SOL    HW113985   4.645   4.276   2.529
 4362SOL    HW213986   4.769   4.298   2.425
 4363SOL     OW13987   5.065   0.538   6.435
 4363SOL    HW113988   5.085   0.454   6.486
 4363SOL    HW213989   4.988   0.522   6.372
 4364SOL     OW13990   4.185   3.655   4.950
 4364SOL    HW113991   4.129   3.737   4.932
 4364SOL    HW213992   4.221   3.659   5.042
 4365SOL     OW13993   4.600   2.182   0.035
 4365SOL    HW113994   4.588   2.170   0.134
 4365SOL    HW213995   4.570   2.274   0.009
 4366SOL     OW13996   4.514   5.264   0.538
 4366SOL    HW113997   4.437   5.225   0.486
 4366SOL    HW213998   4.509   5.232   0.633
 4367SOL     OW13999   6.521   6.523   0.830
 4367SOL    HW114000   6.424   6.501   0.837
 4367SOL    HW214001   6.544   6.597   0.893
 4368SOL     OW14002   4.014   5.423   2.162
 4368SOL    HW114003   3.951   5.347   2.147
 4368SOL    HW214004   4.082   5.425   2.088
 4369SOL     OW14005   3.087   5.372   1.998
 4369SOL    HW114006   3.099   5.418   1.910
 4369SOL    HW214007   3.105   5.437   2.072
 4370SOL     OW14008   5.312   4.286   1.751
 4370SOL    HW114009   5.383   4.254   1.688
 4370SOL    HW214010   5.343   4.274   1.845
 4371SOL     OW14011   1.281   1.515   2.072
 4371SOL    HW114012   1.310   1.537   2.165
 4371SOL    HW214013   1.270   1.600   2.020
 4372SOL     OW14014   5.361   6.928   3.800
 4372SOL    HW114015   5.352   7.010   3.857
 4372SOL    HW214016   5.356   6.846   3.858
 4373SOL     OW14017   0.222   1.664   5.456
 4373SOL    HW114018   0.250   1.585   5.401
 4373SOL    HW214019   0.298   1.728   5.465
 4374SOL     OW14020   3.479   1.329   0.228
 4374SOL    HW114021   3.433   1.263   0.287
 4374SOL    HW214022   3.557   1.367   0.277
 4375SOL     OW14023   3.587   5.421   4.324
 4375SOL    HW114024   3.648   5.348   4.297
 4375SOL    HW214025   3.550   5.401   4.415
 4376SOL     OW14026   6.988   2.714   3.576
 4376SOL    HW114027   6.936   2.771   3.513
 4376SOL    HW214028   0.037   2.769   3.622
 4377SOL     OW14029   6.988   4.575   6.250
 4377SOL    HW114030   6.983   4.477   6.271
 4377SOL    HW214031   6.896   4.610   6.232
 4378SOL     OW14032   3.190   2.163   3.927
 4378SOL    HW114033   3.160   2.068   3.914
 4378SOL    HW214034   3.246   2.169   4.010
 4379SOL     OW14035   3.564   1.664   6.220
 4379SOL    HW114036   3.494   1.729   6.192
 4379SOL    HW214037   3.653   1.695   6.187
 4380SOL     OW14038   0.142   2.308   3.085
 4380SOL    HW114039   0.173   2.275   3.175
 4380SOL    HW214040   0.042   2.310   3.083
 4381SOL     OW14041   1.332   4.927   7.004
 4381SOL    HW114042   1.243   4.932   0.030
 4381SOL    HW214043   1.364   5.020   6.984
 4382SOL     OW14044   1.200   4.561   4.534
 4382SOL    HW114045   1.254   4.622   4.476
 4382SOL    HW214046   1.103   4.583   4.525
 4383SOL     OW14047   0.400   4.598   0.467
 4383SOL    HW114048   0.405   4.532   0.542
 4383SOL    HW214049   0.310   4.594   0.424
 4384SOL     OW14050   4.855   6.606   3.537
 4384SOL    HW114051   4.895   6.557   3.615
 4384SOL    HW214052   4.757   6.586   3.533
 4385SOL     OW14053   4.689   0.391   5.442
 4385SOL    HW114054   4.590   0.403   5.430
 4385SOL    HW214055   4.708   0.372   5.539
 4386SOL     OW14056   2.130   3.219   4.249
 4386SOL    HW114057   2.048   3.235   4.195
 4386SOL    HW214058   2.126   3.274   4.333
 4387SOL     OW14059   5.107   2.343   1.317
 4387SOL    HW114060   5.197   2.323   1.280
 4387SOL    HW214061   5.111   2.428   1.371
 4388SOL     OW14062   5.931   3.401   0.852
 4388SOL    HW114063   5.874   3.460   0.795
 4388SOL    HW214064   5.893   3.308   0.852
 4389SOL     OW14065   2.591   1.484   6.967
 4389SOL    HW114066   2.689   1.474   6.983
 4389SOL    HW214067   2.571   1.466   6.871
 4390SOL     OW14068   6.791   1.412   1.083
 4390SOL    HW114069   6.791   1.461   0.997
 4390SOL    HW214070   6.767   1.474   1.158
 4391SOL     OW14071   0.315   6.063   1.455
 4391SOL    HW114072   0.358   5.976   1.431
 4391SOL    HW214073   0.325   6.128   1.380
 4392SOL     OW14074   1.794   2.818   6.305
 4392SOL    HW114075   1.763   2.911   6.327
 4392SOL    HW214076   1.826   2.773   6.388
 4393SOL     OW14077   6.450   0.546   2.313
 4393SOL    HW114078   6.368   0.541   2.370
 4393SOL    HW214079   6.461   0.461   2.262
 4394SOL     OW14080   6.862   0.929   3.123
 4394SOL    HW114081   6.846   0.873   3.042
 4394SOL    HW214082   6.787   0.993   3.135
 4395SOL     OW14083   1.135   3.496   1.566
 4395SOL    HW114084   1.054   3.554   1.558
 4395SOL    HW214085   1.217   3.551   1.554
 4396SOL     OW14086   2.715   1.704   2.662
 4396SOL    HW114087   2.645   1.665   2.722
 4396SOL    HW214088   2.799   1.650   2.668
 4397SOL     OW14089   3.409   0.446   4.886
 4397SOL    HW114090   3.448   0.453   4.977
 4397SOL    HW214091   3.356   0.529   4.866
 4398SOL     OW14092   2.092   3.306   6.082
 4398SOL    HW114093   2.011   3.349   6.043
 4398SOL    HW214094   2.152   3.275   6.008
 4399SOL     OW14095   2.729   5.775   1.567
 4399SOL    HW114096   2.788   5.852   1.591
 4399SOL    HW214097   2.783   5.691   1.567
 4400SOL     OW14098   1.420   6.024   5.118
 4400SOL    HW114099   1.389   6.109   5.161
 4400SOL    HW214100   1.402   6.027   5.020
 4401SOL     OW14101   2.881   6.881   6.305
 4401SOL    HW114102   2.891   6.784   6.282
 4401SOL    HW214103   2.947   6.935   6.251
 4402SOL     OW14104   1.420   0.836   2.673
 4402SOL    HW114105   1.416   0.819   2.772
 4402SOL    HW214106   1.331   0.816   2.632
 4403SOL     OW14107   6.446   6.049   3.186
 4403SOL    HW114108   6.389   5.968   3.200
 4403SOL    HW214109   6.412   6.100   3.107
 4404SOL     OW14110   0.511   6.533   5.273
 4404SOL    HW114111   0.458   6.542   5.358
 4404SOL    HW214112   0.454   6.490   5.203
 4405SOL     OW14113   1.024   5.112   2.924
 4405SOL    HW114114   1.068   5.143   3.009
 4405SOL    HW214115   1.021   5.187   2.858
 4406SOL     OW14116   6.161   4.476   2.383
 4406SOL    HW114117   6.226   4.457   2.310
 4406SOL    HW214118   6.189   4.426   2.465
 4407SOL     OW14119   5.328   6.922   1.164
 4407SOL    HW114120   5.300   6.827   1.180
 4407SOL    HW214121   5.257   6.968   1.111
 4408SOL     OW14122   4.866   0.768   1.037
 4408SOL    HW114123   4.849   0.682   1.085
 4408SOL    HW214124   4.780   0.818   1.025
 4409SOL     OW14125   3.666   0.834   3.727
 4409SOL    HW114126   3.603   0.812   3.653
 4409SOL    HW214127   3.620   0.893   3.793
 4410SOL     OW14128   1.017   0.204   1.274
 4410SOL    HW114129   1.045   0.108   1.283
 4410SOL    HW214130   0.959   0.214   1.193
 4411SOL     OW14131   4.368   4.786   4.650
 4411SOL    HW114132   4.439   4.756   4.715
 4411SOL    HW214133   4.390   4.751   4.559
 4412SOL     OW14134   4.227   6.268   1.602
 4412SOL    HW114135   4.170   6.186   1.613
 4412SOL    HW214136   4.308   6.260   1.660
 4413SOL     OW14137   5.507   6.345   4.245
 4413SOL    HW114138   5.537   6.428   4.198
 4413SOL    HW214139   5.438   6.369   4.313
 4414SOL     OW14140   5.823   4.288   1.084
 4414SOL    HW114141   5.763   4.260   1.009
 4414SOL    HW214142   5.811   4.226   1.162
 4415SOL     OW14143   1.530   4.249   1.381
 4415SOL    HW114144   1.598   4.193   1.334
 4415SOL    HW214145   1.489   4.313   1.317
 4416SOL     OW14146   4.824   2.997   4.332
 4416SOL    HW114147   4.877   3.081   4.320
 4416SOL    HW214148   4.784   2.969   4.245
 4417SOL     OW14149   0.523   4.157   2.331
 4417SOL    HW114150   0.536   4.066   2.292
 4417SOL    HW214151   0.598   4.178   2.394
 4418SOL     OW14152   6.619   1.424   5.452
 4418SOL    HW114153   6.718   1.413   5.443
 4418SOL    HW214154   6.587   1.495   5.390
 4419SOL     OW14155   6.331   6.376   6.435
 4419SOL    HW114156   6.393   6.375   6.513
 4419SOL    HW214157   6.244   6.332   6.460
 4420SOL     OW14158   3.765   1.221   0.773
 4420SOL    HW114159   3.844   1.201   0.715
 4420SOL    HW214160   3.792   1.219   0.869
 4421SOL     OW14161   2.763   2.995   0.193
 4421SOL    HW114162   2.735   2.965   0.284
 4421SOL    HW214163   2.786   3.092   0.196
 4422SOL     OW14164   1.223   2.939   6.454
 4422SOL    HW114165   1.262   3.009   6.514
 4422SOL    HW214166   1.143   2.897   6.498
 4423SOL     OW14167   5.399   4.228   4.443
 4423SOL    HW114168   5.359   4.256   4.530
 4423SOL    HW214169   5.417   4.129   4.444
 4424SOL     OW14170   3.918   5.870   2.889
 4424SOL    HW114171   3.957   5.941   2.830
 4424SOL    HW214172   3.936   5.780   2.849
 4425SOL     OW14173   0.440   6.191   1.209
 4425SOL    HW114174   0.466   6.104   1.168
 4425SOL    HW214175   0.351   6.219   1.175
 4426SOL     OW14176   0.738   0.953   4.201
 4426SOL    HW114177   0.658   0.893   4.189
 4426SOL    HW214178   0.718   1.043   4.164
 4427SOL     OW14179   3.461   5.923   1.790
 4427SOL    HW114180   3.524   5.981   1.739
 4427SOL    HW214181   3.465   5.947   1.887
 4428SOL     OW14182   6.362   6.804   3.485
 4428SOL    HW114183   6.331   6.819   3.579
 4428SOL    HW214184   6.283   6.803   3.424
 4429SOL     OW14185   2.706   5.859   2.997
 4429SOL    HW114186   2.776   5.930   3.005
 4429SOL    HW214187   2.708   5.800   3.078
 4430SOL     OW14188   6.093   4.085   4.516
 4430SOL    HW114189   6.139   4.000   4.543
 4430SOL    HW214190   6.087   4.146   4.594
 4431SOL     OW14191   4.190   6.979   4.909
 4431SOL    HW114192   4.277   0.009   4.913
 4431SOL    HW214193   4.208   6.882   4.898
 4432SOL     OW14194   1.630   3.575   6.571
 4432SOL    HW114195   1.601   3.663   6.610
 4432SOL    HW214196   1.592   3.500   6.625
 4433SOL     OW14197   0.738   0.495   4.889
 4433SOL    HW114198   0.818   0.467   4.837
 4433SOL    HW214199   0.765   0.511   4.984
 4434SOL     OW14200   6.367   0.989   2.470
 4434SOL    HW114201   6.377   1.037   2.557
 4434SOL    HW214202   6.447   1.006   2.413
 4435SOL     OW14203   2.462   4.372   1.460
 4435SOL    HW114204   2.536   4.356   1.526
 4435SOL    HW214205   2.494   4.350   1.368
 4436SOL     OW14206   4.703   2.140   1.594
 4436SOL    HW114207   4.773   2.206   1.623
 4436SOL    HW214208   4.617   2.189   1.579
 4437SOL     OW14209   6.651   5.327   6.517
 4437SOL    HW114210   6.612   5.242   6.551
 4437SOL    HW214211   6.683   5.382   6.594
 4438SOL     OW14212   4.200   1.513   4.771
 4438SOL    HW114213   4.194   1.611   4.753
 4438SOL    HW214214   4.111   1.470   4.752
 4439SOL     OW14215   2.634   4.630   1.771
 4439SOL    HW114216   2.584   4.544   1.760
 4439SOL    HW214217   2.694   4.623   1.851
 4440SOL     OW14218   1.740   5.486   5.430
 4440SOL    HW114219   1.702   5.555   5.492
 4440SOL    HW214220   1.788   5.531   5.355
 4441SOL     OW14221   6.289   1.316   0.818
 4441SOL    HW114222   6.313   1.301   0.722
 4441SOL    HW214223   6.248   1.233   0.856
 4442SOL     OW14224   1.613   4.843   1.059
 4442SOL    HW114225   1.523   4.858   1.101
 4442SOL    HW214226   1.677   4.808   1.127
 4443SOL     OW14227   1.195   6.254   4.989
 4443SOL    HW114228   1.246   6.196   4.926
 4443SOL    HW214229   1.130   6.198   5.041
 4444SOL     OW14230   4.841   6.070   6.892
 4444SOL    HW114231   4.779   5.992   6.898
 4444SOL    HW214232   4.847   6.101   6.797
 4445SOL     OW14233   2.093   3.688   0.575
 4445SOL    HW114234   2.152   3.651   0.647
 4445SOL    HW214235   2.007   3.636   0.572
 4446SOL     OW14236   5.266   2.341   1.822
 4446SOL    HW114237   5.334   2.290   1.876
 4446SOL    HW214238   5.185   2.357   1.878
 4447SOL     OW14239   4.847   6.140   5.316
 4447SOL    HW114240   4.825   6.188   5.231
 4447SOL    HW214241   4.927   6.182   5.358
 4448SOL     OW14242   3.127   6.289   2.839
 4448SOL    HW114243   3.155   6.194   2.832
 4448SOL    HW214244   3.125   6.330   2.748
 4449SOL     OW14245   3.936   1.823   5.788
 4449SOL    HW114246   3.840   1.849   5.799
 4449SOL    HW214247   3.949   1.779   5.699
 4450SOL     OW14248   2.090   6.105   0.841
 4450SOL    HW114249   2.011   6.163   0.860
 4450SOL    HW214250   2.135   6.081   0.928
 4451SOL     OW14251   4.725   5.906   3.751
 4451SOL    HW114252   4.716   5.942   3.843
 4451SOL    HW214253   4.777   5.971   3.694
 4452SOL     OW14254   5.101   4.556   3.277
 4452SOL    HW114255   5.120   4.468   3.233
 4452SOL    HW214256   5.175   4.577   3.341
 4453SOL     OW14257   0.486   5.879   1.359
 4453SOL    HW114258   0.526   5.787   1.364
 4453SOL    HW214259   0.469   5.902   1.263
 4454SOL     OW14260   0.348   0.957   0.397
 4454SOL    HW114261   0.282   1.023   0.363
 4454SOL    HW214262   0.400   0.998   0.472
 4455SOL     OW14263   0.913   0.441   4.237
 4455SOL    HW114264   0.833   0.447   4.297
 4455SOL    HW214265   0.884   0.417   4.145
 4456SOL     OW14266   1.652   5.705   4.057
 4456SOL    HW114267   1.604   5.644   3.994
 4456SOL    HW214268   1.623   5.800   4.041
 4457SOL     OW14269   1.360   1.891   4.443
 4457SOL    HW114270   1.439   1.931   4.489
 4457SOL    HW214271   1.297   1.963   4.414
 4458SOL     OW14272   2.085   1.908   5.907
 4458SOL    HW114273   2.179   1.941   5.915
 4458SOL    HW214274   2.035   1.927   5.991
 4459SOL     OW14275   0.779   4.357   3.127
 4459SOL    HW114276   0.706   4.325   3.187
 4459SOL    HW214277   0.851   4.287   3.123
 4460SOL     OW14278   0.222   2.941   5.144
 4460SOL    HW114279   0.321   2.940   5.153
 4460SOL    HW214280   0.189   3.036   5.143
 4461SOL     OW14281   1.807   0.540   0.822
 4461SOL    HW114282   1.905   0.545   0.844
 4461SOL    HW214283   1.790   0.459   0.766
 4462SOL     OW14284   0.359   4.645   2.378
 4462SOL    HW114285   0.365   4.717   2.310
 4462SOL    HW214286   0.268   4.604   2.377
 4463SOL     OW14287   5.630   2.215   6.869
 4463SOL    HW114288   5.629   2.206   6.769
 4463SOL    HW214289   5.692   2.290   6.894
 4464SOL     OW14290   0.559   3.639   1.018
 4464SOL    HW114291   0.524   3.682   1.102
 4464SOL    HW214292   0.528   3.691   0.939
 4465SOL     OW14293   4.468   4.674   1.259
 4465SOL    HW114294   4.455   4.612   1.336
 4465SOL    HW214295   4.563   4.706   1.258
 4466SOL     OW14296   0.737   2.984   2.862
 4466SOL    HW114297   0.692   3.061   2.817
 4466SOL    HW214298   0.673   2.939   2.924
 4467SOL     OW14299   4.981   5.174   1.607
 4467SOL    HW114300   4.934   5.155   1.693
 4467SOL    HW214301   5.078   5.190   1.624
 4468SOL     OW14302   1.807   3.406   6.892
 4468SOL    HW114303   1.795   3.331   6.957
 4468SOL    HW214304   1.790   3.372   6.799
 4469SOL     OW14305   1.826   5.880   2.078
 4469SOL    HW114306   1.741   5.931   2.065
 4469SOL    HW214307   1.886   5.930   2.141
 4470SOL     OW14308   0.860   0.145   3.284
 4470SOL    HW114309   0.848   0.080   3.360
 4470SOL    HW214310   0.955   0.177   3.284
 4471SOL     OW14311   1.138   0.648   6.578
 4471SOL    HW114312   1.187   0.580   6.633
 4471SOL    HW214313   1.042   0.649   6.605
 4472SOL     OW14314   1.672   2.923   0.462
 4472SOL    HW114315   1.590   2.979   0.474
 4472SOL    HW214316   1.750   2.968   0.505
 4473SOL     OW14317   0.357   2.807   4.856
 4473SOL    HW114318   0.375   2.844   4.947
 4473SOL    HW214319   0.384   2.874   4.787
 4474SOL     OW14320   2.257   6.560   1.135
 4474SOL    HW114321   2.230   6.656   1.139
 4474SOL    HW214322   2.356   6.553   1.129
 4475SOL     OW14323   0.810   3.460   0.607
 4475SOL    HW114324   0.874   3.506   0.668
 4475SOL    HW214325   0.716   3.489   0.628
 4476SOL     OW14326   4.875   0.366   3.713
 4476SOL    HW114327   4.952   0.380   3.652
 4476SOL    HW214328   4.905   0.320   3.796
 4477SOL     OW14329   6.817   1.403   4.773
 4477SOL    HW114330   6.906   1.441   4.747
 4477SOL    HW214331   6.823   1.362   4.864
 4478SOL     OW14332   1.152   0.357   2.500
 4478SOL    HW114333   1.155   0.396   2.407
 4478SOL    HW214334   1.178   0.261   2.496
 4479SOL     OW14335   2.547   3.167   0.274
 4479SOL    HW114336   2.502   3.204   0.193
 4479SOL    HW214337   2.489   3.097   0.315
 4480SOL     OW14338   6.475   0.322   3.220
 4480SOL    HW114339   6.448   0.228   3.242
 4480SOL    HW214340   6.524   0.361   3.298
 4481SOL     OW14341   2.408   3.651   5.872
 4481SOL    HW114342   2.405   3.748   5.896
 4481SOL    HW214343   2.497   3.629   5.832
 4482SOL     OW14344   2.442   0.081   1.210
 4482SOL    HW114345   2.527   0.029   1.223
 4482SOL    HW214346   2.425   0.138   1.290
 4483SOL     OW14347   0.917   2.991   0.713
 4483SOL    HW114348   0.872   3.031   0.792
 4483SOL    HW214349   1.016   2.989   0.728
 4484SOL     OW14350   4.084   0.083   1.123
 4484SOL    HW114351   4.046   0.133   1.201
 4484SOL    HW214352   4.181   0.066   1.139
 4485SOL     OW14353   0.480   2.932   5.083
 4485SOL    HW114354   0.522   2.914   5.172
 4485SOL    HW214355   0.552   2.946   5.015
 4486SOL     OW14356   5.299   4.791   3.483
 4486SOL    HW114357   5.399   4.787   3.487
 4486SOL    HW214358   5.268   4.882   3.511
 4487SOL     OW14359   0.393   2.834   6.257
 4487SOL    HW114360   0.315   2.845   6.320
 4487SOL    HW214361   0.440   2.921   6.247
 4488SOL     OW14362   5.614   4.809   3.517
 4488SOL    HW114363   5.612   4.856   3.429
 4488SOL    HW214364   5.642   4.872   3.589
 4489SOL     OW14365   3.653   6.294   6.292
 4489SOL    HW114366   3.703   6.380   6.283
 4489SOL    HW214367   3.610   6.271   6.204
 4490SOL     OW14368   5.269   1.934   2.336
 4490SOL    HW114369   5.199   1.990   2.381
 4490SOL    HW214370   5.334   1.994   2.289
 4491SOL     OW14371   0.112   3.723   3.141
 4491SOL    HW114372   0.171   3.775   3.204
 4491SOL    HW214373   0.033   3.688   3.191
 4492SOL     OW14374   6.750   1.379   2.113
 4492SOL    HW114375   6.764   1.418   2.022
 4492SOL    HW214376   6.832   1.392   2.167
 4493SOL     OW14377   5.382   1.371   6.494
 4493SOL    HW114378   5.315   1.349   6.565
 4493SOL    HW214379   5.462   1.312   6.503
 4494SOL     OW14380   1.399   1.582   2.331
 4494SOL    HW114381   1.372   1.499   2.379
 4494SOL    HW214382   1.414   1.656   2.397
 4495SOL     OW14383   3.890   6.502   1.275
 4495SOL    HW114384   3.920   6.565   1.346
 4495SOL    HW214385   3.930   6.412   1.290
 4496SOL     OW14386   1.921   5.268   5.422
 4496SOL    HW114387   2.019   5.286   5.433
 4496SOL    HW214388   1.869   5.342   5.465
 4497SOL     OW14389   4.392   6.618   5.179
 4497SOL    HW114390   4.324   6.579   5.117
 4497SOL    HW214391   4.480   6.624   5.132
 4498SOL     OW14392   1.974   4.819   4.335
 4498SOL    HW114393   2.031   4.843   4.414
 4498SOL    HW214394   1.919   4.739   4.357
 4499SOL     OW14395   5.686   1.782   1.949
 4499SOL    HW114396   5.708   1.822   1.860
 4499SOL    HW214397   5.688   1.682   1.942
 4500SOL     OW14398   3.121   6.905   0.132
 4500SOL    HW114399   3.028   6.869   0.137
 4500SOL    HW214400   3.184   6.832   0.107
 4501SOL     OW14401   5.676   0.402   2.870
 4501SOL    HW114402   5.744   0.335   2.900
 4501SOL    HW214403   5.715   0.494   2.875
 4502SOL     OW14404   0.953   4.152   6.992
 4502SOL    HW114405   0.904   4.204   6.922
 4502SOL    HW214406   1.038   4.116   6.954
 4503SOL     OW14407   3.642   1.163   2.671
 4503SOL    HW114408   3.652   1.257   2.638
 4503SOL    HW214409   3.687   1.154   2.760
 4504SOL     OW14410   1.124   2.501   4.184
 4504SOL    HW114411   1.207   2.557   4.177
 4504SOL    HW214412   1.064   2.521   4.107
 4505SOL     OW14413   6.575   3.564   3.484
 4505SOL    HW114414   6.527   3.651   3.491
 4505SOL    HW214415   6.672   3.581   3.467
 4506SOL     OW14416   4.304   3.977   6.785
 4506SOL    HW114417   4.381   3.927   6.825
 4506SOL    HW214418   4.222   3.920   6.790
 4507SOL     OW14419   6.044   2.404   3.102
 4507SOL    HW114420   5.970   2.465   3.072
 4507SOL    HW214421   6.024   2.373   3.195
 4508SOL     OW14422   5.858   4.917   6.978
 4508SOL    HW114423   5.905   4.836   6.942
 4508SOL    HW214424   5.777   4.888   0.009
 4509SOL     OW14425   4.500   1.846   2.935
 4509SOL    HW114426   4.403   1.863   2.917
 4509SOL    HW214427   4.532   1.771   2.878
 4510SOL     OW14428   4.736   1.755   3.626
 4510SOL    HW114429   4.807   1.802   3.678
 4510SOL    HW214430   4.708   1.673   3.675
 4511SOL     OW14431   0.851   4.299   6.769
 4511SOL    HW114432   0.929   4.300   6.707
 4511SOL    HW214433   0.847   4.387   6.818
 4512SOL     OW14434   2.754   3.812   5.924
 4512SOL    HW114435   2.813   3.775   5.996
 4512SOL    HW214436   2.762   3.755   5.842
 4513SOL     OW14437   0.562   1.570   1.415
 4513SOL    HW114438   0.581   1.604   1.507
 4513SOL    HW214439   0.479   1.515   1.417
 4514SOL     OW14440   4.349   4.619   6.528
 4514SOL    HW114441   4.321   4.616   6.624
 4514SOL    HW214442   4.424   4.555   6.513
 4515SOL     OW14443   4.372   7.013   5.729
 4515SOL    HW114444   4.313   6.947   5.776
 4515SOL    HW214445   4.318   0.044   5.662
 4516SOL     OW14446   3.515   1.708   5.262
 4516SOL    HW114447   3.437   1.658   5.301
 4516SOL    HW214448   3.575   1.739   5.335
 4517SOL     OW14449   3.724   0.230   4.112
 4517SOL    HW114450   3.777   0.301   4.159
 4517SOL    HW214451   3.758   0.140   4.138
 4518SOL     OW14452   6.645   6.754   0.598
 4518SOL    HW114453   6.728   6.762   0.543
 4518SOL    HW214454   6.632   6.659   0.625
 4519SOL     OW14455   5.210   0.095   6.241
 4519SOL    HW114456   5.291   0.111   6.299
 4519SOL    HW214457   5.213   0.158   6.163
 4520SOL     OW14458   4.319   5.151   4.747
 4520SOL    HW114459   4.269   5.112   4.669
 4520SOL    HW214460   4.327   5.250   4.735
 4521SOL     OW14461   4.541   2.458   4.467
 4521SOL    HW114462   4.511   2.473   4.373
 4521SOL    HW214463   4.600   2.534   4.495
 4522SOL     OW14464   5.473   4.063   3.338
 4522SOL    HW114465   5.559   4.029   3.377
 4522SOL    HW214466   5.411   3.987   3.321
 4523SOL     OW14467   0.472   2.998   6.819
 4523SOL    HW114468   0.469   3.056   6.901
 4523SOL    HW214469   0.433   2.909   6.840
 4524SOL     OW14470   2.082   3.621   1.775
 4524SOL    HW114471   2.125   3.556   1.837
 4524SOL    HW214472   2.146   3.647   1.703
 4525SOL     OW14473   3.517   1.611   5.747
 4525SOL    HW114474   3.614   1.625   5.729
 4525SOL    HW214475   3.493   1.650   5.836
 4526SOL     OW14476   0.716   6.711   5.515
 4526SOL    HW114477   0.796   6.761   5.548
 4526SOL    HW214478   0.716   6.712   5.415
 4527SOL     OW14479   0.913   2.547   2.294
 4527SOL    HW114480   0.834   2.494   2.325
 4527SOL    HW214481   0.989   2.486   2.274
 4528SOL     OW14482   5.413   2.121   4.615
 4528SOL    HW114483   5.419   2.220   4.609
 4528SOL    HW214484   5.501   2.084   4.645
 4529SOL     OW14485   1.684   2.625   3.581
 4529SOL    HW114486   1.635   2.709   3.606
 4529SOL    HW214487   1.728   2.587   3.662
 4530SOL     OW14488   4.054   4.565   5.956
 4530SOL    HW114489   3.958   4.538   5.959
 4530SOL    HW214490   4.085   4.592   6.047
 4531SOL     OW14491   1.540   6.680   5.224
 4531SOL    HW114492   1.510   6.687   5.128
 4531SOL    HW214493   1.474   6.727   5.283
 4532SOL     OW14494   5.597   1.164   2.367
 4532SOL    HW114495   5.656   1.099   2.320
 4532SOL    HW214496   5.506   1.162   2.327
 4533SOL     OW14497   2.785   5.485   1.280
 4533SOL    HW114498   2.782   5.489   1.180
 4533SOL    HW214499   2.691   5.478   1.315
 4534SOL     OW14500   5.593   1.523   4.578
 4534SOL    HW114501   5.624   1.430   4.561
 4534SOL    HW214502   5.668   1.577   4.615
 4535SOL     OW14503   1.972   7.000   0.242
 4535SOL    HW114504   2.030   6.978   0.164
 4535SOL    HW214505   1.893   6.937   0.244
 4536SOL     OW14506   3.734   0.438   5.822
 4536SOL    HW114507   3.740   0.515   5.885
 4536SOL    HW214508   3.723   0.353   5.874
 4537SOL     OW14509   3.250   3.613   3.677
 4537SOL    HW114510   3.178   3.667   3.633
 4537SOL    HW214511   3.305   3.671   3.737
 4538SOL     OW14512   1.261   2.526   0.306
 4538SOL    HW114513   1.179   2.519   0.249
 4538SOL    HW214514   1.238   2.506   0.401
 4539SOL     OW14515   0.783   4.751   5.042
 4539SOL    HW114516   0.762   4.835   5.092
 4539SOL    HW214517   0.840   4.773   4.963
 4540SOL     OW14518   1.936   1.791   0.484
 4540SOL    HW114519   1.982   1.712   0.444
 4540SOL    HW214520   1.939   1.868   0.420
 4541SOL     OW14521   4.425   3.004   0.207
 4541SOL    HW114522   4.405   3.062   0.286
 4541SOL    HW214523   4.344   2.949   0.185
 4542SOL     OW14524   0.048   1.745   0.271
 4542SOL    HW114525   0.102   1.707   0.196
 4542SOL    HW214526   6.990   1.796   0.234
 4543SOL     OW14527   4.083   0.980   1.076
 4543SOL    HW114528   4.003   0.921   1.076
 4543SOL    HW214529   4.082   1.037   1.159
 4544SOL     OW14530   4.787   6.062   0.338
 4544SOL    HW114531   4.776   5.966   0.364
 4544SOL    HW214532   4.876   6.074   0.294
 4545SOL     OW14533   3.005   3.368   5.547
 4545SOL    HW114534   3.004   3.367   5.447
 4545SOL    HW214535   3.094   3.398   5.579
 4546SOL     OW14536   4.909   6.395   5.722
 4546SOL    HW114537   4.843   6.443   5.665
 4546SOL    HW214538   4.967   6.461   5.770
 4547SOL     OW14539   6.892   1.059   0.282
 4547SOL    HW114540   6.850   1.094   0.198
 4547SOL    HW214541   6.885   0.959   0.283
 4548SOL     OW14542   3.124   1.454   1.980
 4548SOL    HW114543   3.179   1.538   1.977
 4548SOL    HW214544   3.185   1.375   1.981
 4549SOL     OW14545   6.903   4.854   3.529
 4549SOL    HW114546   6.925   4.891   3.439
 4549SOL    HW214547   6.980   4.799   3.562
 4550SOL     OW14548   2.519   5.476   6.848
 4550SOL    HW114549   2.430   5.514   6.873
 4550SOL    HW214550   2.568   5.541   6.790
 4551SOL     OW14551   3.504   3.060   5.721
 4551SOL    HW114552   3.517   2.977   5.776
 4551SOL    HW214553   3.566   3.131   5.754
 4552SOL     OW14554   5.156   0.009   6.663
 4552SOL    HW114555   5.126   6.939   6.632
 4552SOL    HW214556   5.081   0.054   6.711
 4553SOL     OW14557   0.122   7.014   0.679
 4553SOL    HW114558   0.129   0.083   0.723
 4553SOL    HW214559   0.042   6.966   0.713
 4554SOL     OW14560   5.792   6.521   2.818
 4554SOL    HW114561   5.798   6.497   2.721
 4554SOL    HW214562   5.769   6.618   2.828
 4555SOL     OW14563   0.095   6.960   3.280
 4555SOL    HW114564   0.099   0.024   3.334
 4555SOL    HW214565   0.160   6.894   3.316
 4556SOL     OW14566   5.075   4.451   4.821
 4556SOL    HW114567   5.143   4.525   4.826
 4556SOL    HW214568   5.062   4.425   4.725
 4557SOL     OW14569   0.092   5.441   4.973
 4557SOL    HW114570   0.095   5.341   4.984
 4557SOL    HW214571   0.051   5.481   5.055
 4558SOL     OW14572   0.862   4.363   3.633
 4558SOL    HW114573   0.926   4.305   3.583
 4558SOL    HW214574   0.822   4.431   3.571
 4559SOL     OW14575   6.811   3.549   4.438
 4559SOL    HW114576   6.848   3.463   4.402
 4559SOL    HW214577   6.842   3.625   4.382
 4560SOL     OW14578   6.664   3.844   3.660
 4560SOL    HW114579   6.580   3.791   3.654
 4560SOL    HW214580   6.701   3.859   3.568
 4561SOL     OW14581   5.262   3.311   4.287
 4561SOL    HW114582   5.345   3.314   4.231
 4561SOL    HW214583   5.258   3.393   4.345
 4562SOL     OW14584   4.767   1.361   1.255
 4562SOL    HW114585   4.847   1.417   1.278
 4562SOL    HW214586   4.711   1.349   1.336
 4563SOL     OW14587   0.992   3.930   2.101
 4563SOL    HW114588   1.001   3.960   2.006
 4563SOL    HW214589   1.001   3.831   2.106
 4564SOL     OW14590   2.105   3.574   2.125
 4564SOL    HW114591   2.083   3.521   2.206
 4564SOL    HW214592   2.166   3.522   2.066
 4565SOL     OW14593   2.042   6.376   5.209
 4565SOL    HW114594   2.061   6.382   5.111
 4565SOL    HW214595   1.954   6.420   5.229
 4566SOL     OW14596   6.892   5.020   2.596
 4566SOL    HW114597   6.982   5.016   2.552
 4566SOL    HW214598   6.844   5.103   2.566
 4567SOL     OW14599   1.353   0.226   0.289
 4567SOL    HW114600   1.263   0.186   0.306
 4567SOL    HW214601   1.403   0.169   0.224
 4568SOL     OW14602   6.937   4.381   3.746
 4568SOL    HW114603   0.013   4.376   3.773
 4568SOL    HW214604   6.908   4.477   3.746
 4569SOL     OW14605   0.065   2.446   3.508
 4569SOL    HW114606   0.009   2.524   3.536
 4569SOL    HW214607   0.160   2.475   3.499
 4570SOL     OW14608   5.131   6.126   1.638
 4570SOL    HW114609   5.205   6.193   1.645
 4570SOL    HW214610   5.049   6.163   1.682
 4571SOL     OW14611   2.091   2.399   5.329
 4571SOL    HW114612   1.998   2.379   5.298
 4571SOL    HW214613   2.155   2.333   5.289
 4572SOL     OW14614   4.871   3.460   1.792
 4572SOL    HW114615   4.939   3.443   1.721
 4572SOL    HW214616   4.792   3.400   1.777
 4573SOL     OW14617   1.969   5.060   1.236
 4573SOL    HW114618   1.898   5.128   1.256
 4573SOL    HW214619   2.059   5.100   1.255
 4574SOL     OW14620   5.036   0.501   1.844
 4574SOL    HW114621   5.072   0.474   1.934
 4574SOL    HW214622   4.940   0.526   1.853
 4575SOL     OW14623   0.171   1.841   5.105
 4575SOL    HW114624   0.207   1.752   5.080
 4575SOL    HW214625   0.124   1.881   5.025
 4576SOL     OW14626   2.705   3.724   6.979
 4576SOL    HW114627   2.652   3.668   6.915
 4576SOL    HW214628   2.689   3.821   6.959
 4577SOL     OW14629   0.500   1.853   1.841
 4577SOL    HW114630   0.412   1.812   1.861
 4577SOL    HW214631   0.498   1.894   1.750
 4578SOL     OW14632   1.918   0.605   2.675
 4578SOL    HW114633   1.823   0.637   2.665
 4578SOL    HW214634   1.922   0.536   2.747
 4579SOL     OW14635   4.286   0.927   2.837
 4579SOL    HW114636   4.263   1.010   2.888
 4579SOL    HW214637   4.202   0.886   2.801
 4580SOL     OW14638   1.095   0.189   1.587
 4580SOL    HW114639   1.142   0.270   1.623
 4580SOL    HW214640   1.048   0.212   1.502
 4581SOL     OW14641   3.209   0.570   1.469
 4581SOL    HW114642   3.139   0.600   1.403
 4581SOL    HW214643   3.213   0.471   1.470
 4582SOL     OW14644   5.564   0.990   4.487
 4582SOL    HW114645   5.591   0.903   4.447
 4582SOL    HW214646   5.563   0.982   4.587
 4583SOL     OW14647   2.095   5.804   6.861
 4583SOL    HW114648   2.064   5.723   6.912
 4583SOL    HW214649   2.194   5.801   6.849
 4584SOL     OW14650   6.821   1.020   4.694
 4584SOL    HW114651   6.819   0.968   4.780
 4584SOL    HW214652   6.886   0.978   4.631
 4585SOL     OW14653   0.761   2.650   2.604
 4585SOL    HW114654   0.838   2.712   2.589
 4585SOL    HW214655   0.676   2.693   2.574
 4586SOL     OW14656   6.810   4.741   5.826
 4586SOL    HW114657   6.824   4.665   5.763
 4586SOL    HW214658   6.895   4.758   5.877
 4587SOL     OW14659   4.217   3.041   6.617
 4587SOL    HW114660   4.122   3.069   6.603
 4587SOL    HW214661   4.234   2.954   6.571
 4588SOL     OW14662   2.061   4.756   6.402
 4588SOL    HW114663   2.004   4.825   6.446
 4588SOL    HW214664   2.047   4.759   6.303
 4589SOL     OW14665   4.797   5.902   2.022
 4589SOL    HW114666   4.766   5.814   1.984
 4589SOL    HW214667   4.723   5.941   2.077
 4590SOL     OW14668   2.221   5.063   1.884
 4590SOL    HW114669   2.236   5.134   1.815
 4590SOL    HW214670   2.219   4.973   1.840
 4591SOL     OW14671   2.358   1.847   5.141
 4591SOL    HW114672   2.431   1.780   5.123
 4591SOL    HW214673   2.353   1.865   5.239
 4592SOL     OW14674   2.563   2.330   3.290
 4592SOL    HW114675   2.583   2.343   3.193
 4592SOL    HW214676   2.639   2.284   3.335
 4593SOL     OW14677   1.432   5.744   4.539
 4593SOL    HW114678   1.341   5.729   4.578
 4593SOL    HW214679   1.434   5.712   4.444
 4594SOL     OW14680   1.035   5.987   3.553
 4594SOL    HW114681   0.948   6.034   3.539
 4594SOL    HW214682   1.070   6.009   3.644
 4595SOL     OW14683   5.699   1.827   6.944
 4595SOL    HW114684   5.670   1.809   0.018
 4595SOL    HW214685   5.770   1.897   6.944
 4596SOL     OW14686   0.473   1.529   2.731
 4596SOL    HW114687   0.457   1.587   2.651
 4596SOL    HW214688   0.398   1.540   2.796
 4597SOL     OW14689   1.422   5.099   0.400
 4597SOL    HW114690   1.469   5.182   0.429
 4597SOL    HW214691   1.477   5.052   0.331
 4598SOL     OW14692   0.449   2.405   0.138
 4598SOL    HW114693   0.457   2.320   0.085
 4598SOL    HW214694   0.540   2.431   0.171
 4599SOL     OW14695   3.014   6.743   3.378
 4599SOL    HW114696   3.066   6.665   3.413
 4599SOL    HW214697   3.075   6.822   3.367
 4600SOL     OW14698   0.506   6.820   5.667
 4600SOL    HW114699   0.516   6.778   5.757
 4600SOL    HW214700   0.576   6.785   5.605
 4601SOL     OW14701   1.900   0.922   5.100
 4601SOL    HW114702   1.975   0.963   5.151
 4601SOL    HW214703   1.812   0.951   5.139
 4602SOL     OW14704   4.289   0.512   6.185
 4602SOL    HW114705   4.334   0.507   6.096
 4602SOL    HW214706   4.352   0.482   6.257
 4603SOL     OW14707   4.727   6.769   0.787
 4603SOL    HW114708   4.628   6.782   0.781
 4603SOL    HW214709   4.773   6.835   0.727
 4604SOL     OW14710   0.744   6.347   3.518
 4604SOL    HW114711   0.673   6.367   3.451
 4604SOL    HW214712   0.759   6.429   3.575
 4605SOL     OW14713   4.529   1.462   1.971
 4605SOL    HW114714   4.449   1.433   1.918
 4605SOL    HW214715   4.595   1.387   1.975
 4606SOL     OW14716   0.150   0.314   4.644
 4606SOL    HW114717   0.067   0.331   4.590
 4606SOL    HW214718   0.135   0.345   4.738
 4607SOL     OW14719   2.873   1.831   0.882
 4607SOL    HW114720   2.855   1.802   0.976
 4607SOL    HW214721   2.946   1.899   0.882
 4608SOL     OW14722   0.542   1.930   5.868
 4608SOL    HW114723   0.589   1.955   5.783
 4608SOL    HW214724   0.517   2.014   5.918
 4609SOL     OW14725   5.784   5.198   6.054
 4609SOL    HW114726   5.825   5.120   6.100
 4609SOL    HW214727   5.817   5.283   6.095
 4610SOL     OW14728   5.000   3.970   6.530
 4610SOL    HW114729   4.998   4.047   6.593
 4610SOL    HW214730   5.091   3.960   6.492
 4611SOL     OW14731   0.144   0.280   6.406
 4611SOL    HW114732   0.200   0.291   6.324
 4611SOL    HW214733   0.122   0.183   6.418
 4612SOL     OW14734   1.645   0.687   2.626
 4612SOL    HW114735   1.617   0.596   2.594
 4612SOL    HW214736   1.564   0.744   2.639
 4613SOL     OW14737   1.618   5.188   3.309
 4613SOL    HW114738   1.714   5.158   3.308
 4613SOL    HW214739   1.560   5.115   3.344
 4614SOL     OW14740   6.567   4.841   2.542
 4614SOL    HW114741   6.636   4.832   2.471
 4614SOL    HW214742   6.597   4.909   2.609
 4615SOL     OW14743   0.854   4.509   6.916
 4615SOL    HW114744   0.881   4.484   7.009
 4615SOL    HW214745   0.925   4.566   6.875
 4616SOL     OW14746   1.763   4.177   6.361
 4616SOL    HW114747   1.706   4.255   6.337
 4616SOL    HW214748   1.747   4.151   6.457
 4617SOL     OW14749   0.896   4.285   4.399
 4617SOL    HW114750   0.956   4.265   4.322
 4617SOL    HW214751   0.858   4.200   4.435
 4618SOL     OW14752   2.063   4.152   5.258
 4618SOL    HW114753   2.121   4.076   5.288
 4618SOL    HW214754   2.110   4.202   5.186
 4619SOL     OW14755   4.677   5.790   6.957
 4619SOL    HW114756   4.763   5.773   7.004
 4619SOL    HW214757   4.616   5.841   7.017
 4620SOL     OW14758   1.096   4.330   1.989
 4620SOL    HW114759   1.130   4.347   1.897
 4620SOL    HW214760   1.020   4.392   2.009
 4621SOL     OW14761   3.128   0.274   2.683
 4621SOL    HW114762   3.066   0.216   2.630
 4621SOL    HW214763   3.074   0.336   2.740
 4622SOL     OW14764   6.050   0.046   0.522
 4622SOL    HW114765   6.007   0.022   0.609
 4622SOL    HW214766   6.149   0.034   0.530
 4623SOL     OW14767   2.894   4.759   2.676
 4623SOL    HW114768   2.833   4.680   2.673
 4623SOL    HW214769   2.852   4.835   2.626
 4624SOL     OW14770   5.818   1.936   0.755
 4624SOL    HW114771   5.884   1.982   0.696
 4624SOL    HW214772   5.815   1.838   0.731
 4625SOL     OW14773   0.735   6.467   1.981
 4625SOL    HW114774   0.801   6.399   1.950
 4625SOL    HW214775   0.732   6.544   1.917
 4626SOL     OW14776   3.997   3.893   1.974
 4626SOL    HW114777   4.037   3.965   2.030
 4626SOL    HW214778   3.899   3.885   1.994
 4627SOL     OW14779   5.457   6.611   4.853
 4627SOL    HW114780   5.396   6.546   4.899
 4627SOL    HW214781   5.404   6.668   4.791
 4628SOL     OW14782   6.823   4.097   2.783
 4628SOL    HW114783   6.836   4.065   2.689
 4628SOL    HW214784   6.804   4.019   2.843
 4629SOL     OW14785   1.398   5.272   1.181
 4629SOL    HW114786   1.344   5.252   1.262
 4629SOL    HW214787   1.354   5.231   1.100
 4630SOL     OW14788   1.892   3.654   1.270
 4630SOL    HW114789   1.935   3.564   1.277
 4630SOL    HW214790   1.795   3.643   1.249
 4631SOL     OW14791   5.909   1.664   1.723
 4631SOL    HW114792   5.848   1.595   1.685
 4631SOL    HW214793   5.879   1.755   1.694
 4632SOL     OW14794   2.907   4.786   3.716
 4632SOL    HW114795   2.981   4.810   3.653
 4632SOL    HW214796   2.945   4.771   3.807
 4633SOL     OW14797   5.368   3.600   3.902
 4633SOL    HW114798   5.385   3.504   3.881
 4633SOL    HW214799   5.449   3.654   3.881
 4634SOL     OW14800   3.781   2.914   4.996
 4634SOL    HW114801   3.707   2.863   4.953
 4634SOL    HW214802   3.747   3.001   5.030
 4635SOL     OW14803   4.357   0.415   2.301
 4635SOL    HW114804   4.288   0.343   2.286
 4635SOL    HW214805   4.405   0.397   2.387
 4636SOL     OW14806   1.445   5.934   6.817
 4636SOL    HW114807   1.405   5.846   6.793
 4636SOL    HW214808   1.373   6.004   6.820
 4637SOL     OW14809   1.775   2.860   3.342
 4637SOL    HW114810   1.783   2.870   3.442
 4637SOL    HW214811   1.706   2.791   3.321
 4638SOL     OW14812   4.137   4.170   6.910
 4638SOL    HW114813   4.150   4.149   7.007
 4638SOL    HW214814   4.204   4.119   6.856
 4639SOL     OW14815   3.933   2.740   1.753
 4639SOL    HW114816   3.881   2.662   1.789
 4639SOL    HW214817   3.872   2.798   1.699
 4640SOL     OW14818   0.069   2.215   0.558
 4640SOL    HW114819   7.006   2.164   0.538
 4640SOL    HW214820   0.048   2.313   0.561
 4641SOL     OW14821   1.190   5.860   4.768
 4641SOL    HW114822   1.104   5.911   4.763
 4641SOL    HW214823   1.197   5.799   4.689
 4642SOL     OW14824   5.821   1.373   6.464
 4642SOL    HW114825   5.812   1.360   6.563
 4642SOL    HW214826   5.749   1.322   6.417
 4643SOL     OW14827   0.705   2.054   0.153
 4643SOL    HW114828   0.720   1.955   0.145
 4643SOL    HW214829   0.745   2.087   0.238
 4644SOL     OW14830   1.293   1.587   1.108
 4644SOL    HW114831   1.265   1.682   1.095
 4644SOL    HW214832   1.248   1.549   1.189
 4645SOL     OW14833   5.285   2.532   5.819
 4645SOL    HW114834   5.344   2.610   5.839
 4645SOL    HW214835   5.198   2.565   5.783
 4646SOL     OW14836   1.285   3.741   2.220
 4646SOL    HW114837   1.366   3.800   2.223
 4646SOL    HW214838   1.288   3.676   2.296
 4647SOL     OW14839   2.035   6.182   2.335
 4647SOL    HW114840   1.994   6.268   2.365
 4647SOL    HW214841   2.125   6.200   2.295
 4648SOL     OW14842   2.817   1.076   4.511
 4648SOL    HW114843   2.863   1.151   4.464
 4648SOL    HW214844   2.719   1.081   4.494
 4649SOL     OW14845   4.578   3.092   0.931
 4649SOL    HW114846   4.632   3.167   0.893
 4649SOL    HW214847   4.480   3.112   0.920
 4650SOL     OW14848   3.930   5.261   0.829
 4650SOL    HW114849   3.912   5.167   0.800
 4650SOL    HW214850   4.004   5.262   0.896
 4651SOL     OW14851   1.126   3.052   6.984
 4651SOL    HW114852   1.109   3.028   0.060
 4651SOL    HW214853   1.144   3.150   6.977
 4652SOL     OW14854   0.154   0.158   5.501
 4652SOL    HW114855   0.123   0.119   5.414
 4652SOL    HW214856   0.248   0.190   5.492
 4653SOL     OW14857   0.811   6.579   0.734
 4653SOL    HW114858   0.760   6.593   0.649
 4653SOL    HW214859   0.860   6.662   0.758
 4654SOL     OW14860   1.035   1.393   5.058
 4654SOL    HW114861   1.131   1.386   5.082
 4654SOL    HW214862   0.999   1.301   5.039
 4655SOL     OW14863   5.786   5.182   2.855
 4655SOL    HW114864   5.745   5.237   2.782
 4655SOL    HW214865   5.885   5.182   2.845
 4656SOL     OW14866   5.981   0.731   1.674
 4656SOL    HW114867   5.995   0.804   1.741
 4656SOL    HW214868   6.066   0.681   1.661
 4657SOL     OW14869   3.309   2.128   2.403
 4657SOL    HW114870   3.357   2.150   2.318
 4657SOL    HW214871   3.282   2.032   2.402
 4658SOL     OW14872   1.743   1.437   0.527
 4658SOL    HW114873   1.699   1.488   0.600
 4658SOL    HW214874   1.721   1.479   0.439
 4659SOL     OW14875   2.464   4.762   0.948
 4659SOL    HW114876   2.485   4.850   0.905
 4659SOL    HW214877   2.500   4.761   1.041
 4660SOL     OW14878   0.101   5.118   4.392
 4660SOL    HW114879   0.034   5.063   4.443
 4660SOL    HW214880   0.181   5.062   4.371
 4661SOL     OW14881   0.870   0.915   5.866
 4661SOL    HW114882   0.897   0.971   5.944
 4661SOL    HW214883   0.950   0.895   5.810
 4662SOL     OW14884   2.876   0.237   5.822
 4662SOL    HW114885   2.793   0.185   5.843
 4662SOL    HW214886   2.862   0.289   5.738
 4663SOL     OW14887   0.449   0.438   1.219
 4663SOL    HW114888   0.419   0.533   1.222
 4663SOL    HW214889   0.454   0.401   1.312
 4664SOL     OW14890   6.043   6.443   5.048
 4664SOL    HW114891   5.956   6.410   5.010
 4664SOL    HW214892   6.101   6.365   5.070
 4665SOL     OW14893   0.367   1.288   3.185
 4665SOL    HW114894   0.301   1.235   3.132
 4665SOL    HW214895   0.319   1.355   3.241
 4666SOL     OW14896   1.604   2.432   6.095
 4666SOL    HW114897   1.583   2.520   6.136
 4666SOL    HW214898   1.681   2.442   6.032
 4667SOL     OW14899   6.652   2.566   1.112
 4667SOL    HW114900   6.679   2.531   1.201
 4667SOL    HW214901   6.734   2.586   1.058
 4668SOL     OW14902   4.499   1.653   5.461
 4668SOL    HW114903   4.576   1.592   5.440
 4668SOL    HW214904   4.463   1.631   5.551
 4669SOL     OW14905   5.214   6.405   6.556
 4669SOL    HW114906   5.209   6.318   6.507
 4669SOL    HW214907   5.199   6.480   6.492
 4670SOL     OW14908   0.730   3.130   0.390
 4670SOL    HW114909   0.645   3.079   0.377
 4670SOL    HW214910   0.806   3.066   0.403
 4671SOL     OW14911   6.952   1.952   1.729
 4671SOL    HW114912   7.000   1.922   1.812
 4671SOL    HW214913   6.960   2.051   1.719
 4672SOL     OW14914   4.028   3.272   0.916
 4672SOL    HW114915   4.107   3.211   0.924
 4672SOL    HW214916   3.963   3.233   0.851
 4673SOL     OW14917   4.958   1.274   1.028
 4673SOL    HW114918   4.868   1.279   1.070
 4673SOL    HW214919   4.986   1.178   1.021
 4674SOL     OW14920   0.916   3.320   0.287
 4674SOL    HW114921   0.930   3.258   0.210
 4674SOL    HW214922   0.841   3.285   0.344
 4675SOL     OW14923   1.986   6.043   0.579
 4675SOL    HW114924   2.037   6.020   0.662
 4675SOL    HW214925   2.042   6.102   0.521
 4676SOL     OW14926   0.925   5.576   4.855
 4676SOL    HW114927   0.932   5.555   4.757
 4676SOL    HW214928   0.876   5.503   4.901
 4677SOL     OW14929   4.474   0.221   6.644
 4677SOL    HW114930   4.488   0.146   6.710
 4677SOL    HW214931   4.443   0.302   6.693
 4678SOL     OW14932   2.493   4.695   0.406
 4678SOL    HW114933   2.395   4.683   0.389
 4678SOL    HW214934   2.522   4.786   0.376
 4679SOL     OW14935   2.078   6.932   5.434
 4679SOL    HW114936   2.056   0.006   5.407
 4679SOL    HW214937   2.034   6.912   5.522
 4680SOL     OW14938   1.254   5.543   6.236
 4680SOL    HW114939   1.170   5.517   6.187
 4680SOL    HW214940   1.307   5.462   6.257
 4681SOL     OW14941   6.663   6.156   4.975
 4681SOL    HW114942   6.580   6.186   5.021
 4681SOL    HW214943   6.649   6.064   4.938
 4682SOL     OW14944   3.184   0.438   0.650
 4682SOL    HW114945   3.129   0.453   0.732
 4682SOL    HW214946   3.187   0.522   0.596
 4683SOL     OW14947   0.713   4.870   3.672
 4683SOL    HW114948   0.739   4.963   3.699
 4683SOL    HW214949   0.773   4.838   3.600
 4684SOL     OW14950   2.164   1.313   5.236
 4684SOL    HW114951   2.099   1.388   5.242
 4684SOL    HW214952   2.209   1.300   5.324
 4685SOL     OW14953   5.292   4.453   3.869
 4685SOL    HW114954   5.362   4.389   3.902
 4685SOL    HW214955   5.215   4.453   3.933
 4686SOL     OW14956   5.240   5.670   6.257
 4686SOL    HW114957   5.167   5.605   6.234
 4686SOL    HW214958   5.320   5.620   6.289
 4687SOL     OW14959   4.670   0.547   4.641
 4687SOL    HW114960   4.605   0.540   4.717
 4687SOL    HW214961   4.712   0.458   4.624
 4688SOL     OW14962   6.713   0.967   1.004
 4688SOL    HW114963   6.720   1.064   0.982
 4688SOL    HW214964   6.803   0.924   0.994
 4689SOL     OW14965   2.032   5.315   3.978
 4689SOL    HW114966   1.959   5.380   3.954
 4689SOL    HW214967   2.019   5.284   4.072
 4690SOL     OW14968   2.741   1.963   0.681
 4690SOL    HW114969   2.793   1.935   0.762
 4690SOL    HW214970   2.694   2.049   0.699
 4691SOL     OW14971   3.453   4.576   6.964
 4691SOL    HW114972   3.400   4.499   6.928
 4691SOL    HW214973   3.537   4.543   7.005
 4692SOL     OW14974   1.272   4.972   3.141
 4692SOL    HW114975   1.248   5.067   3.159
 4692SOL    HW214976   1.280   4.922   3.228
 4693SOL     OW14977   0.686   1.684   1.939
 4693SOL    HW114978   0.780   1.717   1.953
 4693SOL    HW214979   0.625   1.762   1.928
 4694SOL     OW14980   1.648   0.933   5.247
 4694SOL    HW114981   1.599   0.847   5.236
 4694SOL    HW214982   1.594   1.008   5.210
 4695SOL     OW14983   3.205   3.772   3.161
 4695SOL    HW114984   3.211   3.850   3.100
 4695SOL    HW214985   3.120   3.778   3.214
 4696SOL     OW14986   6.950   2.846   0.227
 4696SOL    HW114987   6.993   2.765   0.188
 4696SOL    HW214988   7.012   2.924   0.219
 4697SOL     OW14989   0.841   5.773   6.531
 4697SOL    HW114990   0.795   5.697   6.485
 4697SOL    HW214991   0.785   5.804   6.608
 4698SOL     OW14992   5.478   3.185   2.589
 4698SOL    HW114993   5.439   3.250   2.653
 4698SOL    HW214994   5.465   3.217   2.495
 4699SOL     OW14995   6.857   0.340   3.546
 4699SOL    HW114996   6.944   0.339   3.594
 4699SOL    HW214997   6.784   0.367   3.609
 4700SOL     OW14998   4.953   6.923   5.879
 4700SOL    HW114999   4.853   6.932   5.882
 4700SOL    HW215000   4.995   7.011   5.905
 4701SOL     OW15001   2.324   0.887   6.550
 4701SOL    HW115002   2.339   0.976   6.592
 4701SOL    HW215003   2.227   0.863   6.557
 4702SOL     OW15004   3.209   2.894   1.168
 4702SOL    HW115005   3.224   2.819   1.104
 4702SOL    HW215006   3.163   2.859   1.250
 4703SOL     OW15007   0.686   6.489   2.407
 4703SOL    HW115008   0.785   6.487   2.399
 4703SOL    HW215009   0.655   6.584   2.409
 4704SOL     OW15010   4.643   6.440   6.388
 4704SOL    HW115011   4.569   6.420   6.452
 4704SOL    HW215012   4.718   6.484   6.436
 4705SOL     OW15013   3.532   2.831   4.876
 4705SOL    HW115014   3.462   2.848   4.806
 4705SOL    HW215015   3.489   2.822   4.965
 4706SOL     OW15016   5.866   3.444   0.069
 4706SOL    HW115017   5.768   3.463   0.080
 4706SOL    HW215018   5.904   3.506   0.001
 4707SOL     OW15019   2.816   4.844   0.430
 4707SOL    HW115020   2.725   4.885   0.438
 4707SOL    HW215021   2.872   4.900   0.370
 4708SOL     OW15022   1.844   3.150   2.449
 4708SOL    HW115023   1.824   3.227   2.388
 4708SOL    HW215024   1.789   3.071   2.424
 4709SOL     OW15025   2.953   4.168   0.558
 4709SOL    HW115026   2.962   4.206   0.466
 4709SOL    HW215027   3.029   4.107   0.578
 4710SOL     OW15028   4.984   3.115   1.197
 4710SOL    HW115029   5.039   3.195   1.175
 4710SOL    HW215030   4.984   3.102   1.297
 4711SOL     OW15031   2.913   0.064   3.294
 4711SOL    HW115032   2.823   0.021   3.285
 4711SOL    HW215033   2.908   0.138   3.360
 4712SOL     OW15034   1.591   3.982   6.909
 4712SOL    HW115035   1.620   4.035   6.830
 4712SOL    HW215036   1.655   3.907   6.924
 4713SOL     OW15037   0.730   5.611   1.030
 4713SOL    HW115038   0.718   5.708   1.011
 4713SOL    HW215039   0.806   5.599   1.094
 4714SOL     OW15040   3.886   2.517   1.162
 4714SOL    HW115041   3.969   2.561   1.128
 4714SOL    HW215042   3.903   2.420   1.177
 4715SOL     OW15043   4.940   3.755   4.829
 4715SOL    HW115044   4.892   3.819   4.769
 4715SOL    HW215045   4.874   3.707   4.886
 4716SOL     OW15046   1.938   5.480   6.430
 4716SOL    HW115047   2.006   5.493   6.502
 4716SOL    HW215048   1.984   5.466   6.343
 4717SOL     OW15049   2.436   5.264   4.665
 4717SOL    HW115050   2.389   5.176   4.656
 4717SOL    HW215051   2.383   5.324   4.725
 4718SOL     OW15052   4.834   0.112   0.245
 4718SOL    HW115053   4.919   0.147   0.205
 4718SOL    HW215054   4.846   0.100   0.344
 4719SOL     OW15055   4.427   3.370   1.593
 4719SOL    HW115056   4.424   3.292   1.656
 4719SOL    HW215057   4.514   3.418   1.602
 4720SOL     OW15058   2.060   1.765   2.928
 4720SOL    HW115059   2.140   1.708   2.943
 4720SOL    HW215060   2.031   1.758   2.833
 4721SOL     OW15061   1.745   1.187   1.805
 4721SOL    HW115062   1.760   1.257   1.735
 4721SOL    HW215063   1.661   1.208   1.855
 4722SOL     OW15064   3.017   0.976   3.223
 4722SOL    HW115065   2.955   1.053   3.239
 4722SOL    HW215066   2.995   0.901   3.286
 4723SOL     OW15067   3.082   0.153   5.349
 4723SOL    HW115068   3.150   0.211   5.304
 4723SOL    HW215069   3.049   0.198   5.432
 4724SOL     OW15070   4.776   5.569   1.044
 4724SOL    HW115071   4.742   5.606   1.130
 4724SOL    HW215072   4.859   5.617   1.017
 4725SOL     OW15073   6.062   5.381   2.898
 4725SOL    HW115074   6.036   5.329   2.817
 4725SOL    HW215075   5.994   5.365   2.970
 4726SOL     OW15076   0.128   6.735   4.497
 4726SOL    HW115077   0.097   6.819   4.543
 4726SOL    HW215078   0.165   6.672   4.565
 4727SOL     OW15079   5.694   6.675   2.002
 4727SOL    HW115080   5.666   6.769   1.984
 4727SOL    HW215081   5.646   6.640   2.083
 4728SOL     OW15082   6.583   7.010   6.712
 4728SOL    HW115083   6.619   6.944   6.646
 4728SOL    HW215084   6.561   0.075   6.665
 4729SOL     OW15085   3.092   0.795   0.858
 4729SOL    HW115086   3.178   0.744   0.854
 4729SOL    HW215087   3.111   0.892   0.872
 4730SOL     OW15088   1.965   0.389   5.975
 4730SOL    HW115089   1.920   0.302   5.995
 4730SOL    HW215090   1.930   0.460   6.037
 4731SOL     OW15091   4.613   1.124   5.788
 4731SOL    HW115092   4.579   1.212   5.820
 4731SOL    HW215093   4.638   1.067   5.866
 4732SOL     OW15094   0.857   6.569   6.895
 4732SOL    HW115095   0.771   6.536   6.855
 4732SOL    HW215096   0.915   6.606   6.822
 4733SOL     OW15097   5.698   3.927   3.402
 4733SOL    HW115098   5.763   3.976   3.459
 4733SOL    HW215099   5.648   3.861   3.458
 4734SOL     OW15100   6.334   3.664   5.625
 4734SOL    HW115101   6.258   3.612   5.587
 4734SOL    HW215102   6.394   3.694   5.551
 4735SOL     OW15103   0.634   4.234   3.342
 4735SOL    HW115104   0.684   4.184   3.412
 4735SOL    HW215105   0.582   4.170   3.285
 4736SOL     OW15106   1.926   6.818   2.361
 4736SOL    HW115107   1.909   6.742   2.424
 4736SOL    HW215108   2.018   6.854   2.377
 4737SOL     OW15109   3.307   5.192   2.220
 4737SOL    HW115110   3.274   5.126   2.152
 4737SOL    HW215111   3.374   5.253   2.178
 4738SOL     OW15112   1.250   6.978   3.137
 4738SOL    HW115113   1.310   7.015   3.208
 4738SOL    HW215114   1.305   6.943   3.061
 4739SOL     OW15115   4.071   0.002   1.454
 4739SOL    HW115116   4.055   0.065   1.529
 4739SOL    HW215117   3.986   7.005   1.405
 4740SOL     OW15118   0.797   1.916   4.117
 4740SOL    HW115119   0.882   1.908   4.169
 4740SOL    HW215120   0.766   2.011   4.118
 4741SOL     OW15121   4.046   3.753   3.327
 4741SOL    HW115122   3.991   3.837   3.321
 4741SOL    HW215123   4.039   3.715   3.419
 4742SOL     OW15124   5.205   1.309   2.413
 4742SOL    HW115125   5.243   1.401   2.422
 4742SOL    HW215126   5.124   1.299   2.471
 4743SOL     OW15127   0.972   5.460   0.842
 4743SOL    HW115128   1.031   5.382   0.866
 4743SOL    HW215129   0.913   5.482   0.919
 4744SOL     OW15130   1.878   5.431   1.629
 4744SOL    HW115131   1.944   5.481   1.686
 4744SOL    HW215132   1.844   5.491   1.557
 4745SOL     OW15133   1.477   3.064   0.220
 4745SOL    HW115134   1.385   3.032   0.202
 4745SOL    HW215135   1.528   2.993   0.269
 4746SOL     OW15136   5.923   5.640   4.498
 4746SOL    HW115137   5.835   5.666   4.536
 4746SOL    HW215138   5.956   5.558   4.544
 4747SOL     OW15139   3.941   0.492   1.070
 4747SOL    HW115140   3.961   0.415   1.010
 4747SOL    HW215141   3.852   0.477   1.114
 4748SOL     OW15142   2.004   6.742   3.251
 4748SOL    HW115143   1.979   6.654   3.212
 4748SOL    HW215144   1.995   6.814   3.182
 4749SOL     OW15145   2.286   1.155   0.841
 4749SOL    HW115146   2.282   1.224   0.914
 4749SOL    HW215147   2.381   1.128   0.827
 4750SOL     OW15148   4.791   3.625   6.707
 4750SOL    HW115149   4.748   3.538   6.733
 4750SOL    HW215150   4.769   3.646   6.612
 4751SOL     OW15151   4.230   1.494   2.581
 4751SOL    HW115152   4.132   1.485   2.598
 4751SOL    HW215153   4.259   1.424   2.515
 4752SOL     OW15154   5.721   0.340   6.858
 4752SOL    HW115155   5.766   0.280   6.792
 4752SOL    HW215156   5.622   0.328   6.852
 4753SOL     OW15157   2.864   5.585   5.305
 4753SOL    HW115158   2.844   5.489   5.327
 4753SOL    HW215159   2.793   5.644   5.344
 4754SOL     OW15160   5.532   4.736   0.339
 4754SOL    HW115161   5.596   4.774   0.406
 4754SOL    HW215162   5.505   4.644   0.367
 4755SOL     OW15163   0.355   1.065   1.450
 4755SOL    HW115164   0.310   1.152   1.430
 4755SOL    HW215165   0.440   1.059   1.397
 4756SOL     OW15166   6.868   4.107   5.020
 4756SOL    HW115167   6.906   4.055   4.943
 4756SOL    HW215168   6.827   4.192   4.986
 4757SOL     OW15169   2.326   3.032   0.989
 4757SOL    HW115170   2.351   2.947   0.943
 4757SOL    HW215171   2.405   3.066   1.040
 4758SOL     OW15172   2.095   4.934   2.096
 4758SOL    HW115173   2.090   4.972   2.188
 4758SOL    HW215174   2.119   5.007   2.032
 4759SOL     OW15175   0.628   6.755   2.765
 4759SOL    HW115176   0.578   6.841   2.757
 4759SOL    HW215177   0.714   6.761   2.715
 4760SOL     OW15178   1.280   6.712   2.355
 4760SOL    HW115179   1.276   6.627   2.302
 4760SOL    HW215180   1.238   6.696   2.445
 4761SOL     OW15181   4.395   6.521   2.278
 4761SOL    HW115182   4.421   6.500   2.372
 4761SOL    HW215183   4.330   6.452   2.245
 4762SOL     OW15184   0.977   1.114   2.471
 4762SOL    HW115185   0.881   1.121   2.498
 4762SOL    HW215186   0.993   1.025   2.427
 4763SOL     OW15187   5.251   5.206   1.621
 4763SOL    HW115188   5.295   5.295   1.612
 4763SOL    HW215189   5.218   5.175   1.532
 4764SOL     OW15190   4.984   2.766   6.802
 4764SOL    HW115191   4.962   2.669   6.816
 4764SOL    HW215192   4.942   2.799   6.718
 4765SOL     OW15193   3.891   1.307   5.880
 4765SOL    HW115194   3.836   1.359   5.945
 4765SOL    HW215195   3.884   1.209   5.901
 4766SOL     OW15196   1.133   0.646   3.827
 4766SOL    HW115197   1.042   0.610   3.805
 4766SOL    HW215198   1.192   0.637   3.747
 4767SOL     OW15199   2.562   4.534   3.511
 4767SOL    HW115200   2.642   4.539   3.452
 4767SOL    HW215201   2.482   4.507   3.457
 4768SOL     OW15202   4.482   2.065   6.121
 4768SOL    HW115203   4.412   2.034   6.186
 4768SOL    HW215204   4.573   2.045   6.158
 4769SOL     OW15205   3.075   3.255   0.761
 4769SOL    HW115206   3.053   3.290   0.670
 4769SOL    HW215207   2.999   3.273   0.824
 4770SOL     OW15208   6.781   1.818   3.949
 4770SOL    HW115209   6.751   1.788   3.859
 4770SOL    HW215210   6.869   1.776   3.971
 4771SOL     OW15211   3.158   0.952   4.521
 4771SOL    HW115212   3.204   1.041   4.519
 4771SOL    HW215213   3.099   0.942   4.441
 4772SOL     OW15214   2.577   5.008   2.895
 4772SOL    HW115215   2.532   5.086   2.938
 4772SOL    HW215216   2.658   4.983   2.948
 4773SOL     OW15217   2.726   5.673   4.237
 4773SOL    HW115218   2.780   5.737   4.182
 4773SOL    HW215219   2.666   5.620   4.177
 4774SOL     OW15220   1.058   4.776   0.361
 4774SOL    HW115221   1.133   4.819   0.410
 4774SOL    HW215222   0.971   4.805   0.402
 4775SOL     OW15223   5.834   4.911   4.390
 4775SOL    HW115224   5.878   5.001   4.395
 4775SOL    HW215225   5.903   4.840   4.408
 4776SOL     OW15226   6.583   1.525   4.703
 4776SOL    HW115227   6.651   1.472   4.754
 4776SOL    HW215228   6.628   1.578   4.631
 4777SOL     OW15229   1.502   6.374   3.661
 4777SOL    HW115230   1.550   6.320   3.591
 4777SOL    HW215231   1.485   6.466   3.625
 4778SOL     OW15232   1.632   0.088   0.697
 4778SOL    HW115233   1.697   0.077   0.773
 4778SOL    HW215234   1.682   0.109   0.614
 4779SOL     OW15235   4.900   1.522   4.336
 4779SOL    HW115236   4.832   1.594   4.327
 4779SOL    HW215237   4.860   1.434   4.309
 4780SOL     OW15238   5.037   3.003   4.977
 4780SOL    HW115239   4.947   2.970   4.949
 4780SOL    HW215240   5.062   3.082   4.922
 4781SOL     OW15241   2.401   5.295   2.025
 4781SOL    HW115242   2.337   5.349   2.080
 4781SOL    HW215243   2.453   5.233   2.085
 4782SOL     OW15244   1.119   6.629   3.476
 4782SOL    HW115245   1.214   6.649   3.501
 4782SOL    HW215246   1.106   6.649   3.379
 4783SOL     OW15247   0.640   4.201   6.923
 4783SOL    HW115248   0.647   4.276   6.990
 4783SOL    HW215249   0.707   4.215   6.851
 4784SOL     OW15250   5.952   2.746   0.046
 4784SOL    HW115251   5.898   2.663   0.039
 4784SOL    HW215252   5.894   2.825   0.027
 4785SOL     OW15253   0.087   1.011   4.226
 4785SOL    HW115254   0.138   1.087   4.265
 4785SOL    HW215255   0.071   1.027   4.128
 4786SOL     OW15256   1.727   5.995   0.300
 4786SOL    HW115257   1.693   6.084   0.269
 4786SOL    HW215258   1.656   5.949   0.354
 4787SOL     OW15259   4.814   0.884   5.005
 4787SOL    HW115260   4.878   0.833   4.948
 4787SOL    HW215261   4.840   0.980   5.006
 4788SOL     OW15262   6.671   6.307   1.163
 4788SOL    HW115263   6.646   6.258   1.080
 4788SOL    HW215264   6.688   6.403   1.141
 4789SOL     OW15265   6.323   1.309   2.412
 4789SOL    HW115266   6.331   1.218   2.452
 4789SOL    HW215267   6.410   1.335   2.371
 4790SOL     OW15268   0.292   2.604   5.891
 4790SOL    HW115269   0.250   2.522   5.930
 4790SOL    HW215270   0.293   2.598   5.791
 4791SOL     OW15271   0.844   0.601   6.666
 4791SOL    HW115272   0.764   0.598   6.607
 4791SOL    HW215273   0.827   0.548   6.749
 4792SOL     OW15274   0.365   3.625   1.410
 4792SOL    HW115275   0.425   3.683   1.356
 4792SOL    HW215276   0.414   3.594   1.492
 4793SOL     OW15277   0.859   3.121   5.199
 4793SOL    HW115278   0.932   3.155   5.257
 4793SOL    HW215279   0.884   3.132   5.103
 4794SOL     OW15280   5.153   1.228   6.642
 4794SOL    HW115281   5.100   1.168   6.701
 4794SOL    HW215282   5.145   1.323   6.673
 4795SOL     OW15283   6.692   0.115   6.937
 4795SOL    HW115284   6.697   0.040   7.003
 4795SOL    HW215285   6.657   0.081   6.850
 4796SOL     OW15286   5.665   0.742   5.991
 4796SOL    HW115287   5.717   0.712   5.911
 4796SOL    HW215288   5.591   0.802   5.962
 4797SOL     OW15289   2.992   4.640   5.623
 4797SOL    HW115290   3.079   4.611   5.663
 4797SOL    HW215291   2.954   4.715   5.678
 4798SOL     OW15292   3.566   5.857   0.233
 4798SOL    HW115293   3.485   5.800   0.248
 4798SOL    HW215294   3.643   5.799   0.206
 4799SOL     OW15295   4.368   4.089   1.254
 4799SOL    HW115296   4.366   4.061   1.158
 4799SOL    HW215297   4.439   4.159   1.266
 4800SOL     OW15298   0.886   5.151   0.439
 4800SOL    HW115299   0.878   5.052   0.448
 4800SOL    HW215300   0.983   5.176   0.435
 4801SOL     OW15301   4.865   3.669   3.669
 4801SOL    HW115302   4.922   3.681   3.751
 4801SOL    HW215303   4.836   3.759   3.635
 4802SOL     OW15304   6.778   0.773   5.261
 4802SOL    HW115305   6.723   0.846   5.301
 4802SOL    HW215306   6.869   0.773   5.304
 4803SOL     OW15307   5.392   3.381   5.663
 4803SOL    HW115308   5.378   3.431   5.748
 4803SOL    HW215309   5.350   3.291   5.670
 4804SOL     OW15310   5.526   3.243   1.168
 4804SOL    HW115311   5.549   3.239   1.071
 4804SOL    HW215312   5.502   3.151   1.200
 4805SOL     OW15313   6.047   0.670   6.507
 4805SOL    HW115314   5.999   0.627   6.584
 4805SOL    HW215315   6.074   0.763   6.533
 4806SOL     OW15316   1.638   2.905   3.772
 4806SOL    HW115317   1.591   2.958   3.701
 4806SOL    HW215318   1.728   2.878   3.739
 4807SOL     OW15319   1.436   3.705   0.677
 4807SOL    HW115320   1.470   3.773   0.612
 4807SOL    HW215321   1.339   3.689   0.661
 4808SOL     OW15322   3.327   6.425   2.988
 4808SOL    HW115323   3.278   6.362   2.927
 4808SOL    HW215324   3.423   6.431   2.961
 4809SOL     OW15325   2.695   4.088   0.574
 4809SOL    HW115326   2.790   4.119   0.578
 4809SOL    HW215327   2.684   4.025   0.497
 4810SOL     OW15328   2.060   5.099   4.901
 4810SOL    HW115329   2.023   5.108   4.994
 4810SOL    HW215330   2.128   5.026   4.899
 4811SOL     OW15331   3.043   3.072   4.722
 4811SOL    HW115332   3.007   3.025   4.641
 4811SOL    HW215333   3.034   3.171   4.709
 4812SOL     OW15334   2.455   6.698   1.679
 4812SOL    HW115335   2.468   6.761   1.602
 4812SOL    HW215336   2.537   6.698   1.736
 4813SOL     OW15337   1.252   2.686   4.731
 4813SOL    HW115338   1.342   2.713   4.698
 4813SOL    HW215339   1.205   2.633   4.660
 4814SOL     OW15340   4.680   1.163   0.754
 4814SOL    HW115341   4.617   1.086   0.757
 4814SOL    HW215342   4.707   1.189   0.846
 4815SOL     OW15343   6.631   4.472   2.968
 4815SOL    HW115344   6.667   4.403   3.030
 4815SOL    HW215345   6.646   4.442   2.873
 4816SOL     OW15346   2.478   0.622   2.648
 4816SOL    HW115347   2.494   0.670   2.734
 4816SOL    HW215348   2.501   0.682   2.571
 4817SOL     OW15349   4.060   3.017   0.254
 4817SOL    HW115350   3.988   2.959   0.217
 4817SOL    HW215351   4.023   3.072   0.329
 4818SOL     OW15352   4.778   6.497   5.500
 4818SOL    HW115353   4.688   6.490   5.456
 4818SOL    HW215354   4.849   6.497   5.430
 4819SOL     OW15355   3.190   0.704   0.567
 4819SOL    HW115356   3.269   0.687   0.507
 4819SOL    HW215357   3.210   0.781   0.627
 4820SOL     OW15358   0.544   4.907   1.501
 4820SOL    HW115359   0.595   4.900   1.587
 4820SOL    HW215360   0.450   4.936   1.520
 4821SOL     OW15361   6.707   6.116   1.555
 4821SOL    HW115362   6.702   6.049   1.481
 4821SOL    HW215363   6.707   6.209   1.516
 4822SOL     OW15364   0.321   3.795   1.756
 4822SOL    HW115365   0.376   3.719   1.721
 4822SOL    HW215366   0.268   3.835   1.682
 4823SOL     OW15367   0.132   2.139   2.838
 4823SOL    HW115368   0.218   2.167   2.795
 4823SOL    HW215369   0.084   2.220   2.871
 4824SOL     OW15370   4.579   1.973   2.403
 4824SOL    HW115371   4.618   1.904   2.343
 4824SOL    HW215372   4.651   2.037   2.431
 4825SOL     OW15373   1.879   3.559   4.754
 4825SOL    HW115374   1.896   3.542   4.851
 4825SOL    HW215375   1.797   3.615   4.744
 4826SOL     OW15376   0.453   6.563   0.380
 4826SOL    HW115377   0.536   6.508   0.385
 4826SOL    HW215378   0.476   6.655   0.347
 4827SOL     OW15379   5.005   0.978   6.986
 4827SOL    HW115380   5.069   1.009   0.036
 4827SOL    HW215381   5.057   0.944   6.907
 4828SOL     OW15382   6.154   2.655   6.431
 4828SOL    HW115383   6.185   2.735   6.481
 4828SOL    HW215384   6.084   2.607   6.484
 4829SOL     OW15385   2.631   0.603   5.871
 4829SOL    HW115386   2.645   0.522   5.813
 4829SOL    HW215387   2.606   0.573   5.964
 4830SOL     OW15388   4.763   4.591   4.419
 4830SOL    HW115389   4.726   4.512   4.467
 4830SOL    HW215390   4.703   4.615   4.342
 4831SOL     OW15391   6.462   2.123   6.305
 4831SOL    HW115392   6.364   2.143   6.296
 4831SOL    HW215393   6.484   2.038   6.259
 4832SOL     OW15394   1.591   2.654   6.692
 4832SOL    HW115395   1.637   2.592   6.629
 4832SOL    HW215396   1.547   2.601   6.764
 4833SOL     OW15397   6.552   2.878   2.747
 4833SOL    HW115398   6.481   2.877   2.676
 4833SOL    HW215399   6.637   2.913   2.709
 4834SOL     OW15400   5.660   0.783   2.664
 4834SOL    HW115401   5.646   0.781   2.763
 4834SOL    HW215402   5.608   0.858   2.624
 4835SOL     OW15403   1.943   1.639   6.025
 4835SOL    HW115404   1.899   1.614   5.939
 4835SOL    HW215405   1.885   1.704   6.074
 4836SOL     OW15406   6.025   4.547   3.331
 4836SOL    HW115407   6.042   4.534   3.429
 4836SOL    HW215408   5.950   4.487   3.302
 4837SOL     OW15409   0.250   4.958   1.518
 4837SOL    HW115410   0.195   5.040   1.536
 4837SOL    HW215411   0.228   4.922   1.428
 4838SOL     OW15412   2.662   6.351   2.600
 4838SOL    HW115413   2.721   6.388   2.672
 4838SOL    HW215414   2.582   6.308   2.642
 4839SOL     OW15415   0.734   6.881   6.138
 4839SOL    HW115416   0.713   6.930   6.054
 4839SOL    HW215417   0.724   6.942   6.216
 4840SOL     OW15418   6.519   5.312   5.775
 4840SOL    HW115419   6.444   5.345   5.833
 4840SOL    HW215420   6.589   5.382   5.768
 4841SOL     OW15421   1.856   5.518   1.346
 4841SOL    HW115422   1.807   5.597   1.311
 4841SOL    HW215423   1.954   5.532   1.336
 4842SOL     OW15424   3.302   6.684   0.569
 4842SOL    HW115425   3.347   6.771   0.593
 4842SOL    HW215426   3.359   6.608   0.599
 4843SOL     OW15427   1.768   3.909   0.471
 4843SOL    HW115428   1.786   3.888   0.375
 4843SOL    HW215429   1.828   3.983   0.501
 4844SOL     OW15430   0.307   1.349   5.023
 4844SOL    HW115431   0.265   1.266   4.986
 4844SOL    HW215432   0.255   1.429   4.992
 4845SOL     OW15433   5.711   6.987   3.154
 4845SOL    HW115434   5.801   6.950   3.129
 4845SOL    HW215435   5.670   6.930   3.224
 4846SOL     OW15436   6.422   4.383   5.667
 4846SOL    HW115437   6.472   4.469   5.674
 4846SOL    HW215438   6.480   4.315   5.621
 4847SOL     OW15439   4.908   3.320   4.783
 4847SOL    HW115440   4.826   3.334   4.727
 4847SOL    HW215441   4.952   3.234   4.756
 4848SOL     OW15442   3.083   3.595   1.142
 4848SOL    HW115443   3.111   3.627   1.232
 4848SOL    HW215444   3.141   3.637   1.072
 4849SOL     OW15445   2.155   6.110   6.370
 4849SOL    HW115446   2.136   6.072   6.460
 4849SOL    HW215447   2.233   6.173   6.375
 4850SOL     OW15448   3.538   6.964   2.649
 4850SOL    HW115449   3.555   0.011   2.577
 4850SOL    HW215450   3.448   6.981   2.690
 4851SOL     OW15451   5.367   1.374   5.477
 4851SOL    HW115452   5.311   1.436   5.423
 4851SOL    HW215453   5.346   1.386   5.574
 4852SOL     OW15454   1.485   1.928   1.849
 4852SOL    HW115455   1.470   1.837   1.809
 4852SOL    HW215456   1.479   1.998   1.778
 4853SOL     OW15457   3.504   0.783   1.286
 4853SOL    HW115458   3.597   0.747   1.281
 4853SOL    HW215459   3.469   0.773   1.379
 4854SOL     OW15460   4.166   6.818   5.798
 4854SOL    HW115461   4.109   6.783   5.724
 4854SOL    HW215462   4.123   6.799   5.886
 4855SOL     OW15463   0.534   2.721   2.485
 4855SOL    HW115464   0.523   2.791   2.414
 4855SOL    HW215465   0.495   2.635   2.453
 4856SOL     OW15466   0.151   4.847   2.773
 4856SOL    HW115467   0.056   4.822   2.753
 4856SOL    HW215468   0.203   4.766   2.800
 4857SOL     OW15469   0.339   0.916   5.382
 4857SOL    HW115470   0.322   0.865   5.467
 4857SOL    HW215471   0.311   0.861   5.304
 4858SOL     OW15472   1.617   0.596   3.717
 4858SOL    HW115473   1.542   0.598   3.651
 4858SOL    HW215474   1.586   0.632   3.805
 4859SOL     OW15475   3.365   6.725   6.199
 4859SOL    HW115476   3.294   6.678   6.147
 4859SOL    HW215477   3.455   6.697   6.167
 4860SOL     OW15478   3.166   5.374   0.536
 4860SOL    HW115479   3.068   5.381   0.518
 4860SOL    HW215480   3.195   5.279   0.525
 4861SOL     OW15481   4.037   4.267   6.095
 4861SOL    HW115482   3.937   4.271   6.104
 4861SOL    HW215483   4.069   4.174   6.108
 4862SOL     OW15484   2.225   0.143   0.618
 4862SOL    HW115485   2.294   0.071   0.617
 4862SOL    HW215486   2.244   0.209   0.545
 4863SOL     OW15487   5.291   3.878   6.029
 4863SOL    HW115488   5.324   3.962   6.073
 4863SOL    HW215489   5.205   3.897   5.981
 4864SOL     OW15490   3.393   1.249   4.120
 4864SOL    HW115491   3.351   1.318   4.061
 4864SOL    HW215492   3.491   1.243   4.100
 4865SOL     OW15493   1.178   6.440   5.212
 4865SOL    HW115494   1.123   6.413   5.291
 4865SOL    HW215495   1.146   6.391   5.131
 4866SOL     OW15496   6.805   4.161   5.743
 4866SOL    HW115497   6.708   4.185   5.734
 4866SOL    HW215498   6.813   4.063   5.762
 4867SOL     OW15499   3.771   0.699   2.946
 4867SOL    HW115500   3.835   0.723   3.019
 4867SOL    HW215501   3.791   0.607   2.912
 4868SOL     OW15502   0.627   5.631   1.320
 4868SOL    HW115503   0.605   5.569   1.244
 4868SOL    HW215504   0.712   5.678   1.301
 4869SOL     OW15505   6.940   1.510   0.852
 4869SOL    HW115506   7.011   1.557   0.904
 4869SOL    HW215507   6.905   1.570   0.781
 4870SOL     OW15508   0.730   0.088   1.440
 4870SOL    HW115509   0.712   0.036   1.524
 4870SOL    HW215510   0.679   0.048   1.364
 4871SOL     OW15511   0.473   2.211   3.864
 4871SOL    HW115512   0.457   2.162   3.949
 4871SOL    HW215513   0.436   2.160   3.787
 4872SOL     OW15514   5.758   0.222   3.250
 4872SOL    HW115515   5.851   0.224   3.288
 4872SOL    HW215516   5.739   0.131   3.213
 4873SOL     OW15517   0.048   5.847   3.699
 4873SOL    HW115518   7.011   5.776   3.741
 4873SOL    HW215519   0.086   5.905   3.770
 4874SOL     OW15520   6.062   4.399   1.957
 4874SOL    HW115521   6.009   4.431   2.035
 4874SOL    HW215522   6.001   4.358   1.889
 4875SOL     OW15523   6.596   6.714   4.229
 4875SOL    HW115524   6.669   6.751   4.287
 4875SOL    HW215525   6.534   6.659   4.285
 4876SOL     OW15526   6.538   1.432   2.267
 4876SOL    HW115527   6.611   1.404   2.204
 4876SOL    HW215528   6.473   1.491   2.219
 4877SOL     OW15529   0.510   1.754   0.024
 4877SOL    HW115530   0.511   1.660   7.011
 4877SOL    HW215531   0.507   1.817   6.966
 4878SOL     OW15532   5.804   4.557   4.092
 4878SOL    HW115533   5.860   4.624   4.045
 4878SOL    HW215534   5.763   4.494   4.026
 4879SOL     OW15535   5.893   0.620   3.155
 4879SOL    HW115536   5.955   0.622   3.234
 4879SOL    HW215537   5.920   0.690   3.089
 4880SOL     OW15538   6.864   2.886   6.408
 4880SOL    HW115539   6.919   2.858   6.330
 4880SOL    HW215540   6.924   2.922   6.480
 4881SOL     OW15541   0.018   3.695   2.026
 4881SOL    HW115542   0.113   3.719   2.011
 4881SOL    HW215543   6.994   3.672   1.939
 4882SOL     OW15544   5.162   2.404   4.620
 4882SOL    HW115545   5.257   2.417   4.592
 4882SOL    HW215546   5.150   2.311   4.653
 4883SOL     OW15547   0.049   4.186   6.062
 4883SOL    HW115548   0.124   4.163   6.124
 4883SOL    HW215549   6.982   4.180   6.111
 4884SOL     OW15550   1.679   2.176   2.140
 4884SOL    HW115551   1.695   2.102   2.075
 4884SOL    HW215552   1.597   2.156   2.194
 4885SOL     OW15553   1.075   5.693   6.928
 4885SOL    HW115554   1.070   5.773   6.987
 4885SOL    HW215555   1.116   5.718   6.840
 4886SOL     OW15556   3.279   1.049   2.351
 4886SOL    HW115557   3.344   1.105   2.401
 4886SOL    HW215558   3.285   0.955   2.384
 4887SOL     OW15559   4.935   5.281   0.603
 4887SOL    HW115560   4.913   5.215   0.676
 4887SOL    HW215561   4.853   5.299   0.549
 4888SOL     OW15562   4.682   0.129   2.727
 4888SOL    HW115563   4.678   0.159   2.632
 4888SOL    HW215564   4.774   0.096   2.748
 4889SOL     OW15565   5.597   3.709   3.813
 4889SOL    HW115566   5.613   3.807   3.825
 4889SOL    HW215567   5.594   3.687   3.716
 4890SOL     OW15568   6.287   2.190   4.394
 4890SOL    HW115569   6.193   2.214   4.368
 4890SOL    HW215570   6.331   2.269   4.436
 4891SOL     OW15571   2.357   5.231   0.538
 4891SOL    HW115572   2.400   5.195   0.620
 4891SOL    HW215573   2.267   5.269   0.561
 4892SOL     OW15574   5.051   5.012   2.107
 4892SOL    HW115575   5.091   4.925   2.080
 4892SOL    HW215576   4.984   5.042   2.038
 4893SOL     OW15577   1.960   2.386   1.226
 4893SOL    HW115578   2.041   2.387   1.284
 4893SOL    HW215579   1.983   2.352   1.135
 4894SOL     OW15580   5.029   6.408   0.348
 4894SOL    HW115581   5.071   6.367   0.268
 4894SOL    HW215582   4.932   6.384   0.351
 4895SOL     OW15583   6.187   3.190   4.988
 4895SOL    HW115584   6.243   3.147   5.059
 4895SOL    HW215585   6.140   3.120   4.936
 4896SOL     OW15586   2.577   4.946   4.811
 4896SOL    HW115587   2.665   4.976   4.846
 4896SOL    HW215588   2.586   4.919   4.715
 4897SOL     OW15589   2.357   2.004   5.916
 4897SOL    HW115590   2.373   2.076   5.983
 4897SOL    HW215591   2.403   2.028   5.830
 4898SOL     OW15592   4.344   2.178   3.494
 4898SOL    HW115593   4.317   2.084   3.471
 4898SOL    HW215594   4.441   2.191   3.470
 4899SOL     OW15595   6.476   6.452   1.376
 4899SOL    HW115596   6.393   6.496   1.341
 4899SOL    HW215597   6.555   6.480   1.321
 4900SOL     OW15598   3.612   5.486   6.152
 4900SOL    HW115599   3.640   5.446   6.239
 4900SOL    HW215600   3.590   5.413   6.087
 4901SOL     OW15601   2.147   0.537   6.744
 4901SOL    HW115602   2.217   0.470   6.717
 4901SOL    HW215603   2.120   0.521   6.839
 4902SOL     OW15604   2.202   0.319   5.515
 4902SOL    HW115605   2.169   0.385   5.447
 4902SOL    HW215606   2.124   0.268   5.553
 4903SOL     OW15607   4.875   3.900   2.396
 4903SOL    HW115608   4.867   3.962   2.318
 4903SOL    HW215609   4.874   3.806   2.364
 4904SOL     OW15610   2.165   0.556   2.127
 4904SOL    HW115611   2.199   0.649   2.136
 4904SOL    HW215612   2.185   0.521   2.036
 4905SOL     OW15613   2.305   1.682   2.111
 4905SOL    HW115614   2.213   1.719   2.127
 4905SOL    HW215615   2.335   1.708   2.019
 4906SOL     OW15616   5.061   3.099   4.687
 4906SOL    HW115617   5.071   3.010   4.642
 4906SOL    HW215618   5.152   3.138   4.704
 4907SOL     OW15619   4.048   2.786   0.711
 4907SOL    HW115620   4.108   2.831   0.644
 4907SOL    HW215621   4.091   2.701   0.741
 4908SOL     OW15622   2.595   6.332   6.198
 4908SOL    HW115623   2.634   6.286   6.277
 4908SOL    HW215624   2.509   6.287   6.173
 4909SOL     OW15625   4.756   6.115   4.565
 4909SOL    HW115626   4.661   6.110   4.532
 4909SOL    HW215627   4.760   6.075   4.657
 4910SOL     OW15628   4.374   1.888   6.685
 4910SOL    HW115629   4.440   1.962   6.691
 4910SOL    HW215630   4.373   1.836   6.771
 4911SOL     OW15631   6.733   4.264   3.123
 4911SOL    HW115632   6.783   4.179   3.137
 4911SOL    HW215633   6.701   4.299   3.211
 4912SOL     OW15634   5.753   2.982   4.049
 4912SOL    HW115635   5.792   2.917   4.114
 4912SOL    HW215636   5.809   3.065   4.046
 4913SOL     OW15637   0.870   3.809   5.831
 4913SOL    HW115638   0.817   3.871   5.774
 4913SOL    HW215639   0.963   3.843   5.841
 4914SOL     OW15640   3.333   0.015   4.203
 4914SOL    HW115641   3.372   7.006   4.291
 4914SOL    HW215642   3.249   0.066   4.220
 4915SOL     OW15643   4.604   5.736   5.153
 4915SOL    HW115644   4.558   5.651   5.131
 4915SOL    HW215645   4.700   5.731   5.124
 4916SOL     OW15646   5.375   2.676   3.711
 4916SOL    HW115647   5.396   2.756   3.655
 4916SOL    HW215648   5.406   2.593   3.664
 4917SOL     OW15649   4.892   6.695   6.903
 4917SOL    HW115650   4.975   6.743   6.932
 4917SOL    HW215651   4.829   6.760   6.859
 4918SOL     OW15652   5.079   6.076   3.831
 4918SOL    HW115653   5.108   6.172   3.826
 4918SOL    HW215654   4.979   6.073   3.842
 4919SOL     OW15655   4.218   4.026   1.667
 4919SOL    HW115656   4.276   3.986   1.597
 4919SOL    HW215657   4.275   4.079   1.731
 4920SOL     OW15658   6.238   0.958   5.810
 4920SOL    HW115659   6.278   0.975   5.900
 4920SOL    HW215660   6.140   0.943   5.819
 4921SOL     OW15661   6.498   0.367   2.130
 4921SOL    HW115662   6.592   0.400   2.137
 4921SOL    HW215663   6.489   0.283   2.183
 4922SOL     OW15664   3.820   0.346   6.166
 4922SOL    HW115665   3.907   0.340   6.116
 4922SOL    HW215666   3.745   0.322   6.105
 4923SOL     OW15667   4.044   1.321   2.057
 4923SOL    HW115668   4.127   1.352   2.012
 4923SOL    HW215669   3.979   1.290   1.987
 4924SOL     OW15670   2.850   1.550   5.535
 4924SOL    HW115671   2.884   1.456   5.539
 4924SOL    HW215672   2.905   1.602   5.470
 4925SOL     OW15673   5.287   0.170   3.912
 4925SOL    HW115674   5.199   0.129   3.886
 4925SOL    HW215675   5.290   0.181   4.011
 4926SOL     OW15676   4.752   2.509   1.939
 4926SOL    HW115677   4.727   2.461   1.855
 4926SOL    HW215678   4.722   2.604   1.932
 4927SOL     OW15679   2.392   1.372   0.626
 4927SOL    HW115680   2.448   1.366   0.543
 4927SOL    HW215681   2.295   1.371   0.601
 4928SOL     OW15682   0.543   1.610   0.969
 4928SOL    HW115683   0.483   1.545   0.922
 4928SOL    HW215684   0.599   1.658   0.901
 4929SOL     OW15685   6.085   0.389   4.857
 4929SOL    HW115686   6.016   0.429   4.797
 4929SOL    HW215687   6.095   0.445   4.939
 4930SOL     OW15688   4.711   5.713   2.590
 4930SOL    HW115689   4.710   5.808   2.618
 4930SOL    HW215690   4.789   5.666   2.632
 4931SOL     OW15691   4.967   6.986   1.422
 4931SOL    HW115692   4.892   6.925   1.447
 4931SOL    HW215693   4.937   0.061   1.429
 4932SOL     OW15694   3.156   4.070   3.351
 4932SOL    HW115695   3.072   4.058   3.297
 4932SOL    HW215696   3.236   4.057   3.291
 4933SOL     OW15697   1.859   0.376   5.347
 4933SOL    HW115698   1.946   0.425   5.337
 4933SOL    HW215699   1.867   0.287   5.302
 4934SOL     OW15700   2.183   0.156   3.323
 4934SOL    HW115701   2.260   0.105   3.361
 4934SOL    HW215702   2.195   0.254   3.343
 4935SOL     OW15703   6.154   0.213   4.546
 4935SOL    HW115704   6.204   0.201   4.631
 4935SOL    HW215705   6.150   0.125   4.497
 4936SOL     OW15706   5.106   3.314   0.498
 4936SOL    HW115707   5.100   3.214   0.492
 4936SOL    HW215708   5.091   3.343   0.592
 4937SOL     OW15709   3.694   2.590   5.344
 4937SOL    HW115710   3.760   2.648   5.296
 4937SOL    HW215711   3.621   2.647   5.382
 4938SOL     OW15712   3.064   4.665   0.069
 4938SOL    HW115713   2.982   4.655   0.126
 4938SOL    HW215714   3.145   4.641   0.123
 4939SOL     OW15715   4.929   3.620   6.137
 4939SOL    HW115716   4.907   3.524   6.118
 4939SOL    HW215717   5.028   3.633   6.130
 4940SOL     OW15718   1.432   5.692   3.622
 4940SOL    HW115719   1.339   5.696   3.587
 4940SOL    HW215720   1.495   5.673   3.546
 4941SOL     OW15721   6.320   0.746   0.766
 4941SOL    HW115722   6.362   0.673   0.713
 4941SOL    HW215723   6.287   0.710   0.853
 4942SOL     OW15724   5.499   2.697   5.677
 4942SOL    HW115725   5.488   2.629   5.605
 4942SOL    HW215726   5.419   2.758   5.677
 4943SOL     OW15727   6.066   3.437   1.502
 4943SOL    HW115728   6.002   3.505   1.538
 4943SOL    HW215729   6.093   3.375   1.575
 4944SOL     OW15730   1.586   3.089   1.872
 4944SOL    HW115731   1.505   3.122   1.919
 4944SOL    HW215732   1.657   3.160   1.875
 4945SOL     OW15733   0.093   5.808   4.082
 4945SOL    HW115734   0.184   5.839   4.053
 4945SOL    HW215735   0.024   5.845   4.020
 4946SOL     OW15736   0.554   4.642   2.025
 4946SOL    HW115737   0.562   4.568   2.092
 4946SOL    HW215738   0.463   4.641   1.985
 4947SOL     OW15739   5.723   0.584   0.461
 4947SOL    HW115740   5.794   0.558   0.526
 4947SOL    HW215741   5.757   0.570   0.368
 4948SOL     OW15742   2.831   1.735   1.945
 4948SOL    HW115743   2.806   1.814   2.000
 4948SOL    HW215744   2.841   1.655   2.005
 4949SOL     OW15745   5.409   2.308   5.736
 4949SOL    HW115746   5.507   2.325   5.733
 4949SOL    HW215747   5.361   2.390   5.767
 4950SOL     OW15748   3.407   5.314   3.924
 4950SOL    HW115749   3.379   5.260   3.845
 4950SOL    HW215750   3.378   5.267   4.008
 4951SOL     OW15751   4.550   2.566   3.839
 4951SOL    HW115752   4.587   2.611   3.921
 4951SOL    HW215753   4.545   2.633   3.765
 4952SOL     OW15754   6.528   5.019   4.094
 4952SOL    HW115755   6.459   5.052   4.029
 4952SOL    HW215756   6.525   4.919   4.098
 4953SOL     OW15757   0.866   4.761   2.033
 4953SOL    HW115758   0.802   4.719   2.098
 4953SOL    HW215759   0.850   4.721   1.942
 4954SOL     OW15760   6.760   6.499   5.953
 4954SOL    HW115761   6.759   6.404   5.982
 4954SOL    HW215762   6.810   6.554   6.020
 4955SOL     OW15763   1.583   0.443   2.210
 4955SOL    HW115764   1.595   0.532   2.167
 4955SOL    HW215765   1.654   0.380   2.178
 4956SOL     OW15766   5.980   6.564   3.303
 4956SOL    HW115767   6.045   6.489   3.306
 4956SOL    HW215768   5.890   6.531   3.333
 4957SOL     OW15769   0.834   5.083   4.370
 4957SOL    HW115770   0.878   5.123   4.290
 4957SOL    HW215771   0.771   5.150   4.410
 4958SOL     OW15772   6.950   6.879   0.076
 4958SOL    HW115773   0.008   6.913   0.130
 4958SOL    HW215774   6.865   6.918   0.113
 4959SOL     OW15775   1.387   1.909   0.473
 4959SOL    HW115776   1.296   1.891   0.436
 4959SOL    HW215777   1.401   1.858   0.558
 4960SOL     OW15778   3.352   6.809   5.487
 4960SOL    HW115779   3.257   6.828   5.464
 4960SOL    HW215780   3.387   6.735   5.429
 4961SOL     OW15781   5.093   0.180   5.306
 4961SOL    HW115782   5.183   0.207   5.342
 4961SOL    HW215783   5.044   0.261   5.274
 4962SOL     OW15784   6.538   2.269   2.450
 4962SOL    HW115785   6.489   2.324   2.518
 4962SOL    HW215786   6.473   2.237   2.380
 4963SOL     OW15787   1.069   4.421   1.701
 4963SOL    HW115788   1.114   4.484   1.638
 4963SOL    HW215789   1.022   4.350   1.648
 4964SOL     OW15790   3.163   0.450   3.028
 4964SOL    HW115791   3.163   0.381   3.101
 4964SOL    HW215792   3.256   0.465   2.996
 4965SOL     OW15793   0.344   5.588   5.854
 4965SOL    HW115794   0.369   5.683   5.836
 4965SOL    HW215795   0.250   5.584   5.887
 4966SOL     OW15796   5.227   5.962   5.135
 4966SOL    HW115797   5.188   5.871   5.141
 4966SOL    HW215798   5.314   5.958   5.084
 4967SOL     OW15799   5.485   0.736   0.168
 4967SOL    HW115800   5.460   0.645   0.133
 4967SOL    HW215801   5.499   0.798   0.092
 4968SOL     OW15802   5.719   3.956   6.435
 4968SOL    HW115803   5.734   3.990   6.342
 4968SOL    HW215804   5.741   4.028   6.501
 4969SOL     OW15805   1.185   0.732   1.319
 4969SOL    HW115806   1.097   0.703   1.357
 4969SOL    HW215807   1.170   0.772   1.228
 4970SOL     OW15808   1.969   2.009   6.518
 4970SOL    HW115809   2.034   2.057   6.576
 4970SOL    HW215810   1.996   1.913   6.510
 4971SOL     OW15811   6.397   5.460   3.672
 4971SOL    HW115812   6.480   5.424   3.716
 4971SOL    HW215813   6.412   5.555   3.645
 4972SOL     OW15814   1.659   2.357   4.933
 4972SOL    HW115815   1.590   2.385   4.866
 4972SOL    HW215816   1.692   2.437   4.983
 4973SOL     OW15817   4.831   5.426   3.150
 4973SOL    HW115818   4.809   5.452   3.057
 4973SOL    HW215819   4.856   5.507   3.203
 4974SOL     OW15820   3.825   6.530   6.236
 4974SOL    HW115821   3.818   6.564   6.142
 4974SOL    HW215822   3.920   6.533   6.265
 4975SOL     OW15823   3.969   6.058   6.681
 4975SOL    HW115824   3.906   6.135   6.671
 4975SOL    HW215825   4.052   6.076   6.629
 4976SOL     OW15826   2.405   1.378   5.054
 4976SOL    HW115827   2.442   1.305   4.996
 4976SOL    HW215828   2.331   1.341   5.110
 4977SOL     OW15829   4.045   3.582   1.977
 4977SOL    HW115830   4.123   3.572   1.916
 4977SOL    HW215831   4.031   3.679   1.998
 4978SOL     OW15832   6.239   3.842   6.382
 4978SOL    HW115833   6.304   3.828   6.307
 4978SOL    HW215834   6.147   3.822   6.350
 4979SOL     OW15835   1.447   2.196   3.700
 4979SOL    HW115836   1.449   2.096   3.703
 4979SOL    HW215837   1.352   2.227   3.711
 4980SOL     OW15838   2.480   4.788   2.742
 4980SOL    HW115839   2.519   4.871   2.783
 4980SOL    HW215840   2.552   4.721   2.729
 4981SOL     OW15841   5.444   5.921   4.993
 4981SOL    HW115842   5.505   5.849   4.958
 4981SOL    HW215843   5.467   6.008   4.949
 4982SOL     OW15844   2.535   0.915   0.122
 4982SOL    HW115845   2.556   1.013   0.116
 4982SOL    HW215846   2.460   0.893   0.060
 4983SOL     OW15847   6.812   2.178   4.094
 4983SOL    HW115848   6.803   2.079   4.107
 4983SOL    HW215849   6.733   2.213   4.045
 4984SOL     OW15850   4.832   5.027   3.499
 4984SOL    HW115851   4.822   5.076   3.413
 4984SOL    HW215852   4.751   4.970   3.514
 4985SOL     OW15853   5.832   3.824   1.445
 4985SOL    HW115854   5.733   3.824   1.434
 4985SOL    HW215855   5.866   3.918   1.438
 4986SOL     OW15856   4.071   4.785   3.645
 4986SOL    HW115857   4.074   4.885   3.646
 4986SOL    HW215858   4.082   4.752   3.551
 4987SOL     OW15859   1.034   2.613   0.040
 4987SOL    HW115860   0.989   2.536   7.016
 4987SOL    HW215861   0.966   2.672   0.083
 4988SOL     OW15862   2.633   2.151   4.870
 4988SOL    HW115863   2.616   2.096   4.788
 4988SOL    HW215864   2.627   2.093   4.951
 4989SOL     OW15865   0.338   0.692   1.237
 4989SOL    HW115866   0.258   0.641   1.271
 4989SOL    HW215867   0.393   0.723   1.315
 4990SOL     OW15868   2.229   2.236   0.098
 4990SOL    HW115869   2.307   2.178   0.121
 4990SOL    HW215870   2.144   2.193   0.129
 4991SOL     OW15871   2.461   1.645   5.904
 4991SOL    HW115872   2.396   1.675   5.973
 4991SOL    HW215873   2.554   1.648   5.941
 4992SOL     OW15874   3.904   0.142   4.592
 4992SOL    HW115875   3.871   0.233   4.616
 4992SOL    HW215876   3.981   0.150   4.529
 4993SOL     OW15877   1.479   6.694   4.954
 4993SOL    HW115878   1.441   6.615   4.906
 4993SOL    HW215879   1.505   6.764   4.888
 4994SOL     OW15880   0.246   5.738   3.523
 4994SOL    HW115881   0.243   5.638   3.516
 4994SOL    HW215882   0.169   5.770   3.578
 4995SOL     OW15883   5.393   2.709   5.222
 4995SOL    HW115884   5.394   2.659   5.308
 4995SOL    HW215885   5.325   2.782   5.225
 4996SOL     OW15886   0.690   2.192   4.095
 4996SOL    HW115887   0.704   2.186   3.997
 4996SOL    HW215888   0.605   2.146   4.120
 4997SOL     OW15889   0.142   2.206   3.626
 4997SOL    HW115890   0.073   2.152   3.674
 4997SOL    HW215891   0.107   2.298   3.611
 4998SOL     OW15892   1.378   5.836   5.836
 4998SOL    HW115893   1.390   5.790   5.749
 4998SOL    HW215894   1.450   5.905   5.847
 4999SOL     OW15895   5.807   5.198   1.033
 4999SOL    HW115896   5.714   5.234   1.029
 4999SOL    HW215897   5.851   5.231   1.117
 5000SOL     OW15898   6.193   5.596   3.898
 5000SOL    HW115899   6.115   5.641   3.856
 5000SOL    HW215900   6.277   5.625   3.852
 5001SOL     OW15901   4.931   3.457   5.332
 5001SOL    HW115902   5.000   3.413   5.390
 5001SOL    HW215903   4.919   3.404   5.248
 5002SOL     OW15904   1.606   2.462   1.798
 5002SOL    HW115905   1.643   2.486   1.888
 5002SOL    HW215906   1.654   2.381   1.763
 5003SOL     OW15907   6.527   5.625   4.517
 5003SOL    HW115908   6.446   5.635   4.574
 5003SOL    HW215909   6.587   5.554   4.554
 5004SOL     OW15910   2.342   4.698   5.832
 5004SOL    HW115911   2.383   4.614   5.796
 5004SOL    HW215912   2.352   4.771   5.764
 5005SOL     OW15913   5.352   2.280   6.930
 5005SOL    HW115914   5.407   2.200   6.956
 5005SOL    HW215915   5.261   2.250   6.902
 5006SOL     OW15916   4.124   5.475   1.746
 5006SOL    HW115917   4.026   5.493   1.736
 5006SOL    HW215918   4.146   5.461   1.842
 5007SOL     OW15919   4.170   1.268   4.523
 5007SOL    HW115920   4.201   1.184   4.568
 5007SOL    HW215921   4.102   1.312   4.580
 5008SOL     OW15922   5.969   1.868   4.032
 5008SOL    HW115923   5.901   1.936   4.059
 5008SOL    HW215924   6.016   1.898   3.950
 5009SOL     OW15925   2.570   6.482   2.121
 5009SOL    HW115926   2.473   6.501   2.138
 5009SOL    HW215927   2.584   6.384   2.114
 5010SOL     OW15928   3.394   3.641   6.045
 5010SOL    HW115929   3.439   3.682   6.125
 5010SOL    HW215930   3.336   3.709   6.001
 5011SOL     OW15931   1.594   1.786   4.327
 5011SOL    HW115932   1.519   1.812   4.389
 5011SOL    HW215933   1.592   1.846   4.247
 5012SOL     OW15934   6.356   2.480   6.790
 5012SOL    HW115935   6.295   2.545   6.836
 5012SOL    HW215936   6.374   2.512   6.697
 5013SOL     OW15937   4.995   1.358   5.364
 5013SOL    HW115938   4.997   1.258   5.373
 5013SOL    HW215939   5.061   1.387   5.296
 5014SOL     OW15940   0.376   4.484   6.435
 5014SOL    HW115941   0.332   4.574   6.425
 5014SOL    HW215942   0.472   4.496   6.458
 5015SOL     OW15943   4.925   1.914   4.178
 5015SOL    HW115944   4.995   1.844   4.190
 5015SOL    HW215945   4.939   1.988   4.244
 5016SOL     OW15946   2.549   5.699   1.794
 5016SOL    HW115947   2.606   5.703   1.876
 5016SOL    HW215948   2.595   5.745   1.718
 5017SOL     OW15949   0.017   2.178   1.399
 5017SOL    HW115950   0.065   2.266   1.396
 5017SOL    HW215951   6.996   2.167   1.489
 5018SOL     OW15952   6.391   5.374   3.981
 5018SOL    HW115953   6.308   5.415   3.945
 5018SOL    HW215954   6.465   5.440   3.978
 5019SOL     OW15955   2.752   5.484   4.666
 5019SOL    HW115956   2.805   5.568   4.670
 5019SOL    HW215957   2.684   5.483   4.739
 5020SOL     OW15958   4.311   5.121   0.004
 5020SOL    HW115959   4.250   5.098   6.948
 5020SOL    HW215960   4.275   5.201   0.053
 5021SOL     OW15961   2.433   4.877   5.624
 5021SOL    HW115962   2.399   4.887   5.531
 5021SOL    HW215963   2.527   4.842   5.622
 5022SOL     OW15964   1.631   3.019   6.601
 5022SOL    HW115965   1.671   3.053   6.516
 5022SOL    HW215966   1.704   3.006   6.669
 5023SOL     OW15967   6.472   3.470   3.790
 5023SOL    HW115968   6.500   3.407   3.717
 5023SOL    HW215969   6.543   3.470   3.861
 5024SOL     OW15970   4.714   3.885   5.301
 5024SOL    HW115971   4.637   3.919   5.353
 5024SOL    HW215972   4.765   3.962   5.262
 5025SOL     OW15973   5.542   0.501   5.261
 5025SOL    HW115974   5.624   0.465   5.215
 5025SOL    HW215975   5.495   0.564   5.199
 5026SOL     OW15976   1.051   5.661   2.657
 5026SOL    HW115977   0.979   5.730   2.657
 5026SOL    HW215978   1.129   5.694   2.604
 5027SOL     OW15979   1.148   5.421   3.590
 5027SOL    HW115980   1.241   5.455   3.581
 5027SOL    HW215981   1.138   5.336   3.538
 5028SOL     OW15982   1.204   6.324   2.674
 5028SOL    HW115983   1.150   6.404   2.647
 5028SOL    HW215984   1.161   6.279   2.752
 5029SOL     OW15985   5.690   0.576   4.741
 5029SOL    HW115986   5.785   0.590   4.713
 5029SOL    HW215987   5.648   0.506   4.682
 5030SOL     OW15988   1.197   6.022   0.515
 5030SOL    HW115989   1.164   6.102   0.565
 5030SOL    HW215990   1.262   6.050   0.444
 5031SOL     OW15991   5.168   0.648   6.968
 5031SOL    HW115992   5.106   0.620   0.022
 5031SOL    HW215993   5.115   0.698   6.899
 5032SOL     OW15994   1.760   5.410   2.468
 5032SOL    HW115995   1.785   5.354   2.389
 5032SOL    HW215996   1.823   5.391   2.544
 5033SOL     OW15997   1.107   4.162   4.627
 5033SOL    HW115998   1.151   4.072   4.629
 5033SOL    HW215999   1.108   4.198   4.534
 5034SOL     OW16000   0.869   2.602   5.901
 5034SOL    HW116001   0.841   2.698   5.901
 5034SOL    HW216002   0.969   2.597   5.905
 5035SOL     OW16003   6.654   5.023   0.642
 5035SOL    HW116004   6.568   5.049   0.687
 5035SOL    HW216005   6.656   5.061   0.550
 5036SOL     OW16006   1.259   1.501   2.814
 5036SOL    HW116007   1.275   1.554   2.898
 5036SOL    HW216008   1.250   1.563   2.736
 5037SOL     OW16009   5.298   4.016   1.102
 5037SOL    HW116010   5.229   4.086   1.083
 5037SOL    HW216011   5.252   3.931   1.129
 5038SOL     OW16012   3.149   5.709   5.912
 5038SOL    HW116013   3.219   5.739   5.846
 5038SOL    HW216014   3.059   5.715   5.869
 5039SOL     OW16015   0.850   2.786   3.502
 5039SOL    HW116016   0.761   2.800   3.546
 5039SOL    HW216017   0.922   2.786   3.570
 5040SOL     OW16018   2.236   3.556   6.684
 5040SOL    HW116019   2.282   3.480   6.731
 5040SOL    HW216020   2.139   3.556   6.709
 5041SOL     OW16021   0.441   5.897   0.224
 5041SOL    HW116022   0.540   5.911   0.223
 5041SOL    HW216023   0.421   5.801   0.241
 5042SOL     OW16024   6.022   1.188   6.482
 5042SOL    HW116025   5.956   1.252   6.442
 5042SOL    HW216026   6.043   1.116   6.415
 5043SOL     OW16027   5.646   6.332   3.907
 5043SOL    HW116028   5.665   6.235   3.914
 5043SOL    HW216029   5.708   6.373   3.840
 5044SOL     OW16030   6.515   4.389   1.916
 5044SOL    HW116031   6.468   4.313   1.962
 5044SOL    HW216032   6.482   4.395   1.822
 5045SOL     OW16033   4.614   2.964   5.627
 5045SOL    HW116034   4.583   3.057   5.603
 5045SOL    HW216035   4.554   2.926   5.697
 5046SOL     OW16036   3.593   2.786   5.827
 5046SOL    HW116037   3.654   2.714   5.794
 5046SOL    HW216038   3.524   2.746   5.888
 5047SOL     OW16039   0.208   2.078   1.931
 5047SOL    HW116040   0.236   2.113   1.842
 5047SOL    HW216041   0.213   1.978   1.930
 5048SOL     OW16042   6.005   4.169   0.826
 5048SOL    HW116043   6.052   4.122   0.901
 5048SOL    HW216044   5.922   4.119   0.802
 5049SOL     OW16045   0.794   0.750   1.157
 5049SOL    HW116046   0.825   0.818   1.224
 5049SOL    HW216047   0.849   0.667   1.167
 5050SOL     OW16048   1.818   3.770   0.707
 5050SOL    HW116049   1.779   3.681   0.731
 5050SOL    HW216050   1.778   3.802   0.621
 5051SOL     OW16051   2.339   3.924   5.984
 5051SOL    HW116052   2.416   3.987   5.985
 5051SOL    HW216053   2.269   3.957   6.047
 5052SOL     OW16054   6.106   3.193   1.332
 5052SOL    HW116055   6.008   3.199   1.313
 5052SOL    HW216056   6.133   3.271   1.389
 5053SOL     OW16057   0.785   3.789   1.359
 5053SOL    HW116058   0.824   3.706   1.318
 5053SOL    HW216059   0.689   3.797   1.333
 5054SOL     OW16060   3.816   5.918   5.042
 5054SOL    HW116061   3.883   5.920   4.967
 5054SOL    HW216062   3.783   5.825   5.055
 5055SOL     OW16063   0.487   0.834   4.137
 5055SOL    HW116064   0.462   0.889   4.058
 5055SOL    HW216065   0.405   0.813   4.191
 5056SOL     OW16066   3.000   1.406   6.378
 5056SOL    HW116067   3.091   1.447   6.375
 5056SOL    HW216068   2.974   1.376   6.286
 5057SOL     OW16069   0.621   3.582   1.973
 5057SOL    HW116070   0.628   3.498   1.918
 5057SOL    HW216071   0.679   3.573   2.054
 5058SOL     OW16072   3.911   1.988   0.168
 5058SOL    HW116073   3.850   1.912   0.190
 5058SOL    HW216074   3.999   1.952   0.138
 5059SOL     OW16075   6.003   2.681   2.653
 5059SOL    HW116076   5.964   2.732   2.576
 5059SOL    HW216077   6.048   2.744   2.716
 5060SOL     OW16078   6.718   2.730   5.455
 5060SOL    HW116079   6.634   2.719   5.402
 5060SOL    HW216080   6.701   2.706   5.550
 5061SOL     OW16081   4.058   2.680   6.169
 5061SOL    HW116082   4.040   2.763   6.222
 5061SOL    HW216083   4.113   2.702   6.090
 5062SOL     OW16084   5.729   1.164   3.495
 5062SOL    HW116085   5.745   1.242   3.556
 5062SOL    HW216086   5.660   1.189   3.427
 5063SOL     OW16087   0.742   1.031   0.319
 5063SOL    HW116088   0.747   0.941   0.275
 5063SOL    HW216089   0.827   1.081   0.302
 5064SOL     OW16090   6.313   4.989   0.315
 5064SOL    HW116091   6.249   5.065   0.297
 5064SOL    HW216092   6.283   4.909   0.263
 5065SOL     OW16093   1.322   2.072   2.538
 5065SOL    HW116094   1.379   2.079   2.620
 5065SOL    HW216095   1.231   2.110   2.558
 5066SOL     OW16096   1.066   4.961   4.137
 5066SOL    HW116097   0.992   5.025   4.121
 5066SOL    HW216098   1.147   5.010   4.170
 5067SOL     OW16099   4.407   2.760   0.999
 5067SOL    HW116100   4.497   2.797   0.976
 5067SOL    HW216101   4.400   2.666   0.968
 5068SOL     OW16102   1.917   6.683   1.193
 5068SOL    HW116103   1.926   6.746   1.116
 5068SOL    HW216104   1.993   6.697   1.256
 5069SOL     OW16105   4.129   4.644   6.219
 5069SOL    HW116106   4.163   4.730   6.256
 5069SOL    HW216107   4.177   4.568   6.263
 5070SOL     OW16108   0.501   3.600   6.823
 5070SOL    HW116109   0.581   3.606   6.763
 5070SOL    HW216110   0.530   3.613   6.918
 5071SOL     OW16111   1.697   6.496   2.792
 5071SOL    HW116112   1.734   6.403   2.787
 5071SOL    HW216113   1.601   6.493   2.820
 5072SOL     OW16114   0.332   2.206   2.665
 5072SOL    HW116115   0.421   2.235   2.629
 5072SOL    HW216116   0.303   2.122   2.618
 5073SOL     OW16117   1.942   1.614   4.179
 5073SOL    HW116118   2.016   1.558   4.216
 5073SOL    HW216119   1.869   1.554   4.145
 5074SOL     OW16120   3.865   2.131   1.373
 5074SOL    HW116121   3.914   2.213   1.344
 5074SOL    HW216122   3.932   2.060   1.397
 5075SOL     OW16123   6.146   2.245   6.529
 5075SOL    HW116124   6.199   2.321   6.491
 5075SOL    HW216125   6.209   2.178   6.568
 5076SOL     OW16126   0.212   1.373   5.965
 5076SOL    HW116127   0.125   1.341   6.001
 5076SOL    HW216128   0.282   1.368   6.037
 5077SOL     OW16129   0.577   4.413   4.385
 5077SOL    HW116130   0.579   4.348   4.461
 5077SOL    HW216131   0.669   4.424   4.348
 5078SOL     OW16132   6.007   1.676   3.042
 5078SOL    HW116133   6.024   1.578   3.031
 5078SOL    HW216134   6.066   1.728   2.980
 5079SOL     OW16135   1.629   3.653   5.727
 5079SOL    HW116136   1.593   3.579   5.670
 5079SOL    HW216137   1.621   3.628   5.823
 5080SOL     OW16138   6.144   6.070   6.746
 5080SOL    HW116139   6.129   6.162   6.783
 5080SOL    HW216140   6.159   6.006   6.822
 5081SOL     OW16141   3.215   4.540   5.737
 5081SOL    HW116142   3.310   4.537   5.768
 5081SOL    HW216143   3.156   4.498   5.806
 5082SOL     OW16144   5.934   0.125   2.406
 5082SOL    HW116145   5.995   0.053   2.440
 5082SOL    HW216146   5.904   0.101   2.313
 5083SOL     OW16147   0.334   0.334   3.323
 5083SOL    HW116148   0.267   0.407   3.331
 5083SOL    HW216149   0.403   0.343   3.395
 5084SOL     OW16150   3.738   5.669   6.027
 5084SOL    HW116151   3.730   5.747   6.089
 5084SOL    HW216152   3.708   5.586   6.074
 5085SOL     OW16153   0.979   4.043   6.601
 5085SOL    HW116154   0.915   4.098   6.547
 5085SOL    HW216155   0.928   3.994   6.672
 5086SOL     OW16156   1.109   4.370   2.371
 5086SOL    HW116157   1.095   4.303   2.298
 5086SOL    HW216158   1.031   4.432   2.376
 5087SOL     OW16159   6.652   5.210   1.792
 5087SOL    HW116160   6.627   5.298   1.751
 5087SOL    HW216161   6.678   5.146   1.720
 5088SOL     OW16162   3.983   4.893   2.321
 5088SOL    HW116163   3.888   4.866   2.310
 5088SOL    HW216164   3.987   4.987   2.356
 5089SOL     OW16165   5.137   6.040   6.138
 5089SOL    HW116166   5.115   5.992   6.223
 5089SOL    HW216167   5.062   6.027   6.072
 5090SOL     OW16168   2.345   6.594   4.206
 5090SOL    HW116169   2.416   6.637   4.150
 5090SOL    HW216170   2.382   6.571   4.296
 5091SOL     OW16171   6.499   5.605   5.707
 5091SOL    HW116172   6.439   5.571   5.779
 5091SOL    HW216173   6.594   5.590   5.734
 5092SOL     OW16174   3.980   3.087   4.803
 5092SOL    HW116175   3.915   3.030   4.752
 5092SOL    HW216176   3.968   3.073   4.901
 5093SOL     OW16177   3.262   2.091   3.381
 5093SOL    HW116178   3.350   2.095   3.430
 5093SOL    HW216179   3.271   2.136   3.293
 5094SOL     OW16180   2.305   5.352   4.899
 5094SOL    HW116181   2.220   5.307   4.873
 5094SOL    HW216182   2.326   5.332   4.994
 5095SOL     OW16183   6.219   2.210   2.940
 5095SOL    HW116184   6.233   2.218   2.842
 5095SOL    HW216185   6.121   2.216   2.961
 5096SOL     OW16186   5.776   2.754   5.467
 5096SOL    HW116187   5.797   2.666   5.509
 5096SOL    HW216188   5.700   2.797   5.516
 5097SOL     OW16189   1.025   0.058   5.778
 5097SOL    HW116190   0.976   6.998   5.811
 5097SOL    HW216191   1.117   0.059   5.817
 5098SOL     OW16192   2.752   2.106   1.283
 5098SOL    HW116193   2.817   2.031   1.273
 5098SOL    HW216194   2.802   2.193   1.285
 5099SOL     OW16195   1.776   5.627   2.145
 5099SOL    HW116196   1.802   5.720   2.122
 5099SOL    HW216197   1.766   5.573   2.061
 5100SOL     OW16198   6.557   3.637   1.370
 5100SOL    HW116199   6.649   3.601   1.386
 5100SOL    HW216200   6.492   3.591   1.431
 5101SOL     OW16201   4.010   2.027   5.605
 5101SOL    HW116202   3.987   1.948   5.662
 5101SOL    HW216203   4.100   2.013   5.564
 5102SOL     OW16204   5.172   4.469   5.295
 5102SOL    HW116205   5.115   4.414   5.234
 5102SOL    HW216206   5.264   4.476   5.258
 5103SOL     OW16207   0.679   0.375   5.504
 5103SOL    HW116208   0.765   0.378   5.453
 5103SOL    HW216209   0.698   0.385   5.602
 5104SOL     OW16210   3.684   3.401   3.899
 5104SOL    HW116211   3.718   3.353   3.818
 5104SOL    HW216212   3.735   3.486   3.911
 5105SOL     OW16213   4.179   2.916   7.004
 5105SOL    HW116214   4.126   2.979   0.041
 5105SOL    HW216215   4.244   2.967   6.948
 5106SOL     OW16216   4.023   0.705   1.410
 5106SOL    HW116217   4.012   0.798   1.445
 5106SOL    HW216218   4.055   0.710   1.315
 5107SOL     OW16219   6.197   4.898   6.397
 5107SOL    HW116220   6.208   4.810   6.443
 5107SOL    HW216221   6.284   4.947   6.396
 5108SOL     OW16222   4.131   4.178   1.025
 5108SOL    HW116223   4.137   4.223   1.114
 5108SOL    HW216224   4.139   4.247   0.952
 5109SOL     OW16225   1.881   2.362   2.235
 5109SOL    HW116226   1.827   2.310   2.169
 5109SOL    HW216227   1.824   2.431   2.279
 5110SOL     OW16228   3.452   6.199   4.894
 5110SOL    HW116229   3.394   6.281   4.896
 5110SOL    HW216230   3.422   6.139   4.819
 5111SOL     OW16231   2.572   5.706   6.455
 5111SOL    HW116232   2.649   5.725   6.393
 5111SOL    HW216233   2.486   5.711   6.404
 5112SOL     OW16234   1.322   4.328   2.569
 5112SOL    HW116235   1.243   4.314   2.510
 5112SOL    HW216236   1.404   4.290   2.526
 5113SOL     OW16237   2.524   4.359   1.155
 5113SOL    HW116238   2.537   4.274   1.104
 5113SOL    HW216239   2.575   4.433   1.111
 5114SOL     OW16240   4.729   4.878   1.806
 5114SOL    HW116241   4.758   4.822   1.883
 5114SOL    HW216242   4.629   4.881   1.801
 5115SOL     OW16243   1.474   4.122   0.323
 5115SOL    HW116244   1.424   4.124   0.237
 5115SOL    HW216245   1.570   4.143   0.307
 5116SOL     OW16246   0.134   6.690   5.608
 5116SOL    HW116247   0.137   6.743   5.693
 5116SOL    HW216248   0.201   6.726   5.544
 5117SOL     OW16249   0.067   3.868   4.096
 5117SOL    HW116250   0.140   3.935   4.106
 5117SOL    HW216251   0.108   3.777   4.087
 5118SOL     OW16252   4.478   5.080   0.246
 5118SOL    HW116253   4.416   5.103   0.170
 5118SOL    HW216254   4.572   5.100   0.219
 5119SOL     OW16255   5.181   1.848   0.670
 5119SOL    HW116256   5.091   1.886   0.647
 5119SOL    HW216257   5.248   1.922   0.672
 5120SOL     OW16258   6.069   6.275   6.466
 5120SOL    HW116259   6.023   6.291   6.554
 5120SOL    HW216260   6.019   6.322   6.394
 5121SOL     OW16261   2.080   3.410   0.089
 5121SOL    HW116262   2.041   3.436   0.177
 5121SOL    HW216263   2.121   3.490   0.046
 5122SOL     OW16264   4.932   5.478   3.550
 5122SOL    HW116265   4.848   5.451   3.505
 5122SOL    HW216266   4.913   5.507   3.643
 5123SOL     OW16267   4.180   2.128   1.565
 5123SOL    HW116268   4.262   2.113   1.619
 5123SOL    HW216269   4.133   2.210   1.597
 5124SOL     OW16270   0.677   5.660   4.364
 5124SOL    HW116271   0.590   5.664   4.414
 5124SOL    HW216272   0.704   5.752   4.337
 5125SOL     OW16273   5.189   2.421   3.759
 5125SOL    HW116274   5.239   2.356   3.815
 5125SOL    HW216275   5.253   2.487   3.719
 5126SOL     OW16276   2.560   0.910   2.009
 5126SOL    HW116277   2.484   0.917   1.944
 5126SOL    HW216278   2.525   0.918   2.102
 5127SOL     OW16279   2.315   6.579   0.863
 5127SOL    HW116280   2.248   6.610   0.795
 5127SOL    HW216281   2.270   6.571   0.952
 5128SOL     OW16282   4.491   0.378   2.066
 5128SOL    HW116283   4.440   0.413   2.144
 5128SOL    HW216284   4.483   0.441   1.989
 5129SOL     OW16285   6.255   5.610   0.058
 5129SOL    HW116286   6.175   5.551   0.044
 5129SOL    HW216287   6.318   5.600   7.002
 5130SOL     OW16288   6.154   4.928   2.099
 5130SOL    HW116289   6.131   5.024   2.116
 5130SOL    HW216290   6.072   4.877   2.076
 5131SOL     OW16291   2.470   2.040   1.929
 5131SOL    HW116292   2.556   2.091   1.919
 5131SOL    HW216293   2.443   2.040   2.025
 5132SOL     OW16294   2.401   6.035   5.662
 5132SOL    HW116295   2.407   6.049   5.563
 5132SOL    HW216296   2.414   5.938   5.683
 5133SOL     OW16297   3.646   6.179   5.071
 5133SOL    HW116298   3.681   6.090   5.041
 5133SOL    HW216299   3.574   6.209   5.009
 5134SOL     OW16300   0.854   2.971   6.836
 5134SOL    HW116301   0.929   2.982   6.770
 5134SOL    HW216302   0.796   2.894   6.808
 5135SOL     OW16303   6.332   1.983   3.823
 5135SOL    HW116304   6.234   2.001   3.814
 5135SOL    HW216305   6.374   1.980   3.732
 5136SOL     OW16306   3.596   2.275   6.443
 5136SOL    HW116307   3.532   2.200   6.427
 5136SOL    HW216308   3.619   2.279   6.540
 5137SOL     OW16309   4.048   3.479   0.216
 5137SOL    HW116310   4.033   3.497   0.313
 5137SOL    HW216311   3.968   3.432   0.179
 5138SOL     OW16312   2.473   2.884   6.027
 5138SOL    HW116313   2.481   2.788   6.055
 5138SOL    HW216314   2.384   2.920   6.055
 5139SOL     OW16315   0.605   6.592   4.149
 5139SOL    HW116316   0.648   6.682   4.158
 5139SOL    HW216317   0.590   6.571   4.052
 5140SOL     OW16318   3.645   3.171   2.332
 5140SOL    HW116319   3.653   3.072   2.319
 5140SOL    HW216320   3.568   3.190   2.393
 5141SOL     OW16321   1.193   3.400   5.625
 5141SOL    HW116322   1.129   3.352   5.686
 5141SOL    HW216323   1.155   3.489   5.602
 5142SOL     OW16324   5.179   3.766   2.122
 5142SOL    HW116325   5.216   3.673   2.120
 5142SOL    HW216326   5.155   3.795   2.030
 5143SOL     OW16327   0.209   5.003   6.140
 5143SOL    HW116328   0.221   5.094   6.100
 5143SOL    HW216329   0.298   4.963   6.161
 5144SOL     OW16330   1.952   1.512   5.136
 5144SOL    HW116331   1.910   1.552   5.218
 5144SOL    HW216332   1.903   1.428   5.112
 5145SOL     OW16333   3.663   5.422   6.430
 5145SOL    HW116334   3.623   5.330   6.432
 5145SOL    HW216335   3.603   5.486   6.477
 5146SOL     OW16336   3.510   5.379   1.404
 5146SOL    HW116337   3.441   5.444   1.436
 5146SOL    HW216338   3.521   5.389   1.305
 5147SOL     OW16339   0.484   4.828   6.173
 5147SOL    HW116340   0.496   4.865   6.081
 5147SOL    HW216341   0.545   4.749   6.185
 5148SOL     OW16342   0.045   0.464   1.724
 5148SOL    HW116343   6.976   0.487   1.685
 5148SOL    HW216344   0.108   0.542   1.712
 5149SOL     OW16345   0.043   0.741   5.782
 5149SOL    HW116346   0.108   0.773   5.713
 5149SOL    HW216347   0.030   0.643   5.773
 5150SOL     OW16348   2.670   5.073   5.502
 5150SOL    HW116349   2.763   5.107   5.508
 5150SOL    HW216350   2.669   4.975   5.524
 5151SOL     OW16351   4.475   0.751   6.008
 5151SOL    HW116352   4.542   0.799   5.950
 5151SOL    HW216353   4.429   0.681   5.954
 5152SOL     OW16354   6.930   4.572   6.602
 5152SOL    HW116355   6.842   4.577   6.649
 5152SOL    HW216356   6.938   4.648   6.536
 5153SOL     OW16357   2.876   3.371   1.361
 5153SOL    HW116358   2.922   3.282   1.361
 5153SOL    HW216359   2.927   3.434   1.419
 5154SOL     OW16360   0.785   4.707   5.486
 5154SOL    HW116361   0.745   4.633   5.539
 5154SOL    HW216362   0.845   4.669   5.415
 5155SOL     OW16363   4.116   1.075   1.824
 5155SOL    HW116364   4.138   1.004   1.758
 5155SOL    HW216365   4.155   1.052   1.913
 5156SOL     OW16366   5.442   3.281   5.423
 5156SOL    HW116367   5.528   3.315   5.384
 5156SOL    HW216368   5.425   3.327   5.511
 5157SOL     OW16369   6.312   2.195   3.457
 5157SOL    HW116370   6.324   2.193   3.358
 5157SOL    HW216371   6.364   2.271   3.496
 5158SOL     OW16372   3.374   0.203   1.933
 5158SOL    HW116373   3.472   0.223   1.944
 5158SOL    HW216374   3.331   0.276   1.880
 5159SOL     OW16375   1.945   3.478   4.997
 5159SOL    HW116376   1.847   3.457   5.001
 5159SOL    HW216377   1.990   3.444   5.079
 5160SOL     OW16378   2.716   2.328   3.601
 5160SOL    HW116379   2.659   2.399   3.644
 5160SOL    HW216380   2.770   2.282   3.672
 5161SOL     OW16381   1.580   3.169   6.941
 5161SOL    HW116382   1.563   3.083   6.895
 5161SOL    HW216383   1.595   3.152   0.019
 5162SOL     OW16384   6.617   5.922   4.613
 5162SOL    HW116385   6.519   5.904   4.613
 5162SOL    HW216386   6.655   5.900   4.703
 5163SOL     OW16387   6.082   4.197   0.403
 5163SOL    HW116388   6.027   4.226   0.481
 5163SOL    HW216389   6.175   4.232   0.413
 5164SOL     OW16390   6.983   6.456   4.709
 5164SOL    HW116391   0.044   6.416   4.665
 5164SOL    HW216392   7.010   6.534   4.765
 5165SOL     OW16393   5.629   4.362   5.436
 5165SOL    HW116394   5.593   4.390   5.347
 5165SOL    HW216395   5.609   4.265   5.451
 5166SOL     OW16396   0.176   0.015   3.046
 5166SOL    HW116397   0.153   7.010   3.140
 5166SOL    HW216398   0.239   6.967   3.008
 5167SOL     OW16399   2.105   0.506   5.347
 5167SOL    HW116400   2.182   0.515   5.284
 5167SOL    HW216401   2.064   0.596   5.362
 5168SOL     OW16402   3.099   1.827   2.089
 5168SOL    HW116403   3.142   1.906   2.044
 5168SOL    HW216404   3.000   1.838   2.088
 5169SOL     OW16405   3.834   5.272   6.665
 5169SOL    HW116406   3.893   5.319   6.731
 5169SOL    HW216407   3.738   5.296   6.682
 5170SOL     OW16408   4.352   5.320   4.331
 5170SOL    HW116409   4.361   5.224   4.304
 5170SOL    HW216410   4.326   5.375   4.251
 5171SOL     OW16411   2.656   4.653   5.270
 5171SOL    HW116412   2.728   4.611   5.214
 5171SOL    HW216413   2.567   4.618   5.240
 5172SOL     OW16414   1.760   3.935   6.247
 5172SOL    HW116415   1.693   3.939   6.173
 5172SOL    HW216416   1.773   4.026   6.286
 5173SOL     OW16417   0.044   2.126   4.455
 5173SOL    HW116418   0.063   2.204   4.514
 5173SOL    HW216419   0.079   2.143   4.363
 5174SOL     OW16420   3.128   5.057   6.936
 5174SOL    HW116421   3.149   4.967   6.976
 5174SOL    HW216422   3.030   5.074   6.941
 5175SOL     OW16423   0.939   5.448   6.975
 5175SOL    HW116424   0.977   5.393   6.900
 5175SOL    HW216425   0.975   5.541   6.969
 5176SOL     OW16426   5.627   3.276   6.750
 5176SOL    HW116427   5.575   3.190   6.755
 5176SOL    HW216428   5.593   3.331   6.674
 5177SOL     OW16429   4.645   4.627   6.606
 5177SOL    HW116430   4.660   4.548   6.547
 5177SOL    HW216431   4.715   4.629   6.677
 5178SOL     OW16432   3.498   4.470   0.306
 5178SOL    HW116433   3.542   4.450   0.218
 5178SOL    HW216434   3.429   4.541   0.293
 5179SOL     OW16435   2.886   6.201   5.525
 5179SOL    HW116436   2.923   6.131   5.586
 5179SOL    HW216437   2.834   6.158   5.452
 5180SOL     OW16438   4.617   1.575   6.883
 5180SOL    HW116439   4.519   1.595   6.890
 5180SOL    HW216440   4.655   1.622   6.804
 5181SOL     OW16441   3.392   6.413   2.600
 5181SOL    HW116442   3.301   6.455   2.606
 5181SOL    HW216443   3.453   6.475   2.550
 5182SOL     OW16444   4.771   4.001   1.087
 5182SOL    HW116445   4.701   4.060   1.046
 5182SOL    HW216446   4.810   4.047   1.167
 5183SOL     OW16447   3.593   0.719   3.996
 5183SOL    HW116448   3.626   0.775   3.920
 5183SOL    HW216449   3.660   0.721   4.071
 5184SOL     OW16450   0.909   1.604   3.034
 5184SOL    HW116451   0.862   1.656   3.104
 5184SOL    HW216452   0.841   1.564   2.971
 5185SOL     OW16453   3.649   0.205   1.950
 5185SOL    HW116454   3.635   0.146   2.030
 5185SOL    HW216455   3.690   0.291   1.980
 5186SOL     OW16456   5.546   4.017   6.855
 5186SOL    HW116457   5.564   3.923   6.827
 5186SOL    HW216458   5.529   4.021   6.953
 5187SOL     OW16459   5.187   3.598   4.418
 5187SOL    HW116460   5.209   3.603   4.320
 5187SOL    HW216461   5.172   3.691   4.453
 5188SOL     OW16462   0.056   1.135   3.355
 5188SOL    HW116463   0.072   1.210   3.291
 5188SOL    HW216464   0.064   1.168   3.449
 5189SOL     OW16465   4.911   5.369   6.011
 5189SOL    HW116466   4.951   5.413   5.931
 5189SOL    HW216467   4.940   5.418   6.094
 5190SOL     OW16468   2.146   2.080   2.932
 5190SOL    HW116469   2.142   2.175   2.901
 5190SOL    HW216470   2.105   2.021   2.862
 5191SOL     OW16471   5.346   1.243   2.014
 5191SOL    HW116472   5.338   1.342   2.029
 5191SOL    HW216473   5.442   1.216   2.018
 5192SOL     OW16474   6.933   4.361   1.463
 5192SOL    HW116475   6.937   4.357   1.563
 5192SOL    HW216476   6.990   4.289   1.423
 5193SOL     OW16477   3.682   5.289   2.814
 5193SOL    HW116478   3.645   5.228   2.884
 5193SOL    HW216479   3.617   5.364   2.798
 5194SOL     OW16480   4.753   0.787   0.267
 5194SOL    HW116481   4.788   0.782   0.361
 5194SOL    HW216482   4.735   0.882   0.243
 5195SOL     OW16483   0.416   5.578   5.174
 5195SOL    HW116484   0.485   5.615   5.112
 5195SOL    HW216485   0.330   5.564   5.123
 5196SOL     OW16486   1.164   3.119   3.612
 5196SOL    HW116487   1.191   3.184   3.683
 5196SOL    HW216488   1.065   3.112   3.608
 5197SOL     OW16489   3.945   5.960   5.284
 5197SOL    HW116490   3.901   5.914   5.207
 5197SOL    HW216491   3.915   5.917   5.370
 5198SOL     OW16492   4.403   0.753   5.603
 5198SOL    HW116493   4.477   0.821   5.605
 5198SOL    HW216494   4.317   0.797   5.629
 5199SOL     OW16495   0.554   6.248   2.427
 5199SOL    HW116496   0.593   6.338   2.412
 5199SOL    HW216497   0.456   6.257   2.447
 5200SOL     OW16498   5.797   6.527   5.409
 5200SOL    HW116499   5.838   6.440   5.383
 5200SOL    HW216500   5.817   6.596   5.340
 5201SOL     OW16501   0.126   3.835   5.284
 5201SOL    HW116502   0.053   3.788   5.234
 5201SOL    HW216503   0.085   3.892   5.356
 5202SOL     OW16504   3.631   2.227   5.835
 5202SOL    HW116505   3.641   2.278   5.920
 5202SOL    HW216506   3.684   2.142   5.840
 5203SOL     OW16507   0.793   0.414   5.971
 5203SOL    HW116508   0.824   0.324   6.003
 5203SOL    HW216509   0.832   0.485   6.029
 5204SOL     OW16510   2.359   0.460   2.339
 5204SOL    HW116511   2.286   0.494   2.280
 5204SOL    HW216512   2.361   0.361   2.335
 5205SOL     OW16513   6.450   6.925   1.457
 5205SOL    HW116514   6.377   6.931   1.525
 5205SOL    HW216515   6.520   6.861   1.489
 5206SOL     OW16516   1.142   5.297   5.062
 5206SOL    HW116517   1.173   5.240   5.138
 5206SOL    HW216518   1.151   5.245   4.976
 5207SOL     OW16519   4.866   1.089   4.694
 5207SOL    HW116520   4.796   1.136   4.747
 5207SOL    HW216521   4.957   1.119   4.724
 5208SOL     OW16522   6.831   1.608   6.972
 5208SOL    HW116523   6.901   1.606   6.901
 5208SOL    HW216524   6.867   1.657   0.032
 5209SOL     OW16525   5.328   5.937   2.487
 5209SOL    HW116526   5.230   5.957   2.480
 5209SOL    HW216527   5.367   5.988   2.564
 5210SOL     OW16528   6.400   4.367   1.386
 5210SOL    HW116529   6.355   4.379   1.475
 5210SOL    HW216530   6.413   4.457   1.343
 5211SOL     OW16531   4.798   2.947   4.592
 5211SOL    HW116532   4.891   2.938   4.628
 5211SOL    HW216533   4.802   2.968   4.494
 5212SOL     OW16534   6.457   3.568   0.017
 5212SOL    HW116535   6.375   3.612   7.000
 5212SOL    HW216536   6.525   3.638   0.041
 5213SOL     OW16537   3.628   3.311   4.391
 5213SOL    HW116538   3.676   3.308   4.478
 5213SOL    HW216539   3.530   3.297   4.406
 5214SOL     OW16540   6.324   2.496   5.447
 5214SOL    HW116541   6.230   2.527   5.440
 5214SOL    HW216542   6.336   2.442   5.530
 5215SOL     OW16543   0.378   4.696   5.000
 5215SOL    HW116544   0.412   4.768   4.940
 5215SOL    HW216545   0.324   4.631   4.947
 5216SOL     OW16546   6.731   4.509   0.461
 5216SOL    HW116547   6.693   4.424   0.425
 5216SOL    HW216548   6.780   4.490   0.546
 5217SOL     OW16549   3.128   0.557   2.435
 5217SOL    HW116550   3.155   0.547   2.531
 5217SOL    HW216551   3.208   0.552   2.376
 5218SOL     OW16552   5.946   6.969   0.746
 5218SOL    HW116553   5.908   6.877   0.737
 5218SOL    HW216554   5.970   6.985   0.842
 5219SOL     OW16555   4.174   1.991   4.962
 5219SOL    HW116556   4.139   2.075   5.003
 5219SOL    HW216557   4.228   2.014   4.881
 5220SOL     OW16558   1.863   3.978   4.604
 5220SOL    HW116559   1.862   4.069   4.563
 5220SOL    HW216560   1.951   3.934   4.585
 5221SOL     OW16561   4.134   6.182   0.491
 5221SOL    HW116562   4.047   6.226   0.515
 5221SOL    HW216563   4.145   6.181   0.391
 5222SOL     OW16564   5.441   3.233   2.278
 5222SOL    HW116565   5.360   3.175   2.288
 5222SOL    HW216566   5.473   3.229   2.183
 5223SOL     OW16567   6.781   1.883   0.557
 5223SOL    HW116568   6.819   1.807   0.611
 5223SOL    HW216569   6.722   1.846   0.485
 5224SOL     OW16570   2.051   1.705   4.768
 5224SOL    HW116571   2.051   1.757   4.854
 5224SOL    HW216572   1.958   1.698   4.733
 5225SOL     OW16573   6.675   2.144   5.944
 5225SOL    HW116574   6.766   2.127   5.980
 5225SOL    HW216575   6.660   2.089   5.862
 5226SOL     OW16576   0.283   0.152   4.230
 5226SOL    HW116577   0.360   0.133   4.291
 5226SOL    HW216578   0.202   0.103   4.262
 5227SOL     OW16579   2.343   2.439   6.632
 5227SOL    HW116580   2.351   2.532   6.665
 5227SOL    HW216581   2.308   2.439   6.538
 5228SOL     OW16582   0.687   2.049   5.634
 5228SOL    HW116583   0.680   2.148   5.632
 5228SOL    HW216584   0.719   2.015   5.545
 5229SOL     OW16585   3.748   1.580   0.503
 5229SOL    HW116586   3.758   1.491   0.459
 5229SOL    HW216587   3.677   1.575   0.573
 5230SOL     OW16588   6.600   0.524   1.895
 5230SOL    HW116589   6.531   0.477   1.949
 5230SOL    HW216590   6.688   0.519   1.942
 5231SOL     OW16591   6.778   4.127   1.664
 5231SOL    HW116592   6.873   4.154   1.683
 5231SOL    HW216593   6.735   4.097   1.749
 5232SOL     OW16594   1.548   1.698   6.350
 5232SOL    HW116595   1.524   1.782   6.302
 5232SOL    HW216596   1.598   1.637   6.288
 5233SOL     OW16597   2.333   6.880   3.528
 5233SOL    HW116598   2.407   6.942   3.554
 5233SOL    HW216599   2.250   6.902   3.579
 5234SOL     OW16600   3.855   2.214   6.389
 5234SOL    HW116601   3.891   2.285   6.328
 5234SOL    HW216602   3.765   2.242   6.423
 5235SOL     OW16603   2.581   3.089   1.455
 5235SOL    HW116604   2.616   3.053   1.541
 5235SOL    HW216605   2.569   3.188   1.463
 5236SOL     OW16606   3.002   4.989   1.868
 5236SOL    HW116607   3.080   5.042   1.901
 5236SOL    HW216608   3.027   4.892   1.864
 5237SOL     OW16609   1.311   0.964   1.426
 5237SOL    HW116610   1.398   0.965   1.377
 5237SOL    HW216611   1.255   0.887   1.396
 5238SOL     OW16612   6.304   0.661   3.214
 5238SOL    HW116613   6.360   0.674   3.295
 5238SOL    HW216614   6.207   0.673   3.238
 5239SOL     OW16615   2.539   3.981   6.967
 5239SOL    HW116616   2.518   3.904   6.907
 5239SOL    HW216617   2.461   4.002   0.005
 5240SOL     OW16618   1.555   4.072   5.521
 5240SOL    HW116619   1.503   4.101   5.601
 5240SOL    HW216620   1.605   3.988   5.542
 5241SOL     OW16621   2.299   5.334   3.397
 5241SOL    HW116622   2.234   5.280   3.343
 5241SOL    HW216623   2.385   5.284   3.404
 5242SOL     OW16624   3.931   5.901   5.747
 5242SOL    HW116625   3.988   5.961   5.691
 5242SOL    HW216626   3.988   5.854   5.814
 5243SOL     OW16627   1.808   5.251   4.200
 5243SOL    HW116628   1.721   5.297   4.217
 5243SOL    HW216629   1.806   5.210   4.108
 5244SOL     OW16630   5.316   0.618   6.573
 5244SOL    HW116631   5.228   0.614   6.526
 5244SOL    HW216632   5.347   0.525   6.595
 5245SOL     OW16633   3.195   3.693   1.395
 5245SOL    HW116634   3.191   3.764   1.465
 5245SOL    HW216635   3.287   3.689   1.357
 5246SOL     OW16636   6.414   2.365   5.659
 5246SOL    HW116637   6.360   2.354   5.742
 5246SOL    HW216638   6.478   2.441   5.670
 5247SOL     OW16639   4.826   0.843   5.394
 5247SOL    HW116640   4.799   0.794   5.311
 5247SOL    HW216641   4.910   0.804   5.430
 5248SOL     OW16642   4.214   0.895   2.290
 5248SOL    HW116643   4.117   0.874   2.281
 5248SOL    HW216644   4.266   0.811   2.303
 5249SOL     OW16645   0.041   5.868   1.951
 5249SOL    HW116646   0.004   5.796   2.009
 5249SOL    HW216647   0.098   5.827   1.880
 5250SOL     OW16648   1.041   5.185   0.057
 5250SOL    HW116649   1.013   5.273   0.019
 5250SOL    HW216650   1.126   5.197   0.108
 5251SOL     OW16651   1.452   4.186   6.370
 5251SOL    HW116652   1.394   4.235   6.305
 5251SOL    HW216653   1.539   4.164   6.327
 5252SOL     OW16654   4.108   6.401   3.322
 5252SOL    HW116655   4.011   6.417   3.340
 5252SOL    HW216656   4.145   6.339   3.392
 5253SOL     OW16657   0.655   6.360   4.858
 5253SOL    HW116658   0.630   6.400   4.770
 5253SOL    HW216659   0.753   6.342   4.859
 5254SOL     OW16660   4.202   6.318   2.285
 5254SOL    HW116661   4.109   6.317   2.248
 5254SOL    HW216662   4.213   6.242   2.350
 5255SOL     OW16663   0.360   1.473   6.182
 5255SOL    HW116664   0.444   1.527   6.184
 5255SOL    HW216665   0.373   1.388   6.234
 5256SOL     OW16666   4.429   1.658   2.651
 5256SOL    HW116667   4.409   1.755   2.636
 5256SOL    HW216668   4.354   1.603   2.614
 5257SOL     OW16669   5.591   1.206   0.206
 5257SOL    HW116670   5.665   1.190   0.139
 5257SOL    HW216671   5.521   1.135   0.195
 5258SOL     OW16672   5.868   1.974   5.442
 5258SOL    HW116673   5.806   1.936   5.374
 5258SOL    HW216674   5.871   1.914   5.523
 5259SOL     OW16675   4.357   6.100   4.538
 5259SOL    HW116676   4.421   6.034   4.577
 5259SOL    HW216677   4.277   6.051   4.502
 5260SOL     OW16678   1.469   6.677   2.094
 5260SOL    HW116679   1.417   6.599   2.127
 5260SOL    HW216680   1.483   6.669   1.996
 5261SOL     OW16681   6.467   4.272   6.795
 5261SOL    HW116682   6.422   4.237   6.713
 5261SOL    HW216683   6.508   4.196   6.845
 5262SOL     OW16684   2.138   2.239   2.133
 5262SOL    HW116685   2.109   2.270   2.223
 5262SOL    HW216686   2.089   2.155   2.109
 5263SOL     OW16687   0.286   6.533   2.173
 5263SOL    HW116688   0.358   6.490   2.118
 5263SOL    HW216689   0.299   6.632   2.173
 5264SOL     OW16690   6.224   2.489   2.286
 5264SOL    HW116691   6.234   2.408   2.344
 5264SOL    HW216692   6.281   2.563   2.321
 5265SOL     OW16693   1.064   5.980   5.710
 5265SOL    HW116694   1.001   5.925   5.655
 5265SOL    HW216695   1.124   6.033   5.649
 5266SOL     OW16696   0.536   0.118   6.096
 5266SOL    HW116697   0.610   0.173   6.133
 5266SOL    HW216698   0.554   0.099   6.000
 5267SOL     OW16699   5.920   1.128   4.568
 5267SOL    HW116700   5.942   1.161   4.477
 5267SOL    HW216701   5.953   1.034   4.578
 5268SOL     OW16702   5.488   0.482   6.096
 5268SOL    HW116703   5.522   0.576   6.095
 5268SOL    HW216704   5.546   0.424   6.039
 5269SOL     OW16705   1.301   0.518   4.046
 5269SOL    HW116706   1.237   0.572   3.990
 5269SOL    HW216707   1.393   0.555   4.036
 5270SOL     OW16708   1.482   1.721   0.216
 5270SOL    HW116709   1.468   1.667   0.132
 5270SOL    HW216710   1.542   1.798   0.197
 5271SOL     OW16711   1.541   6.032   6.566
 5271SOL    HW116712   1.551   5.995   6.658
 5271SOL    HW216713   1.515   6.128   6.571
 5272SOL     OW16714   4.226   0.317   5.870
 5272SOL    HW116715   4.293   0.391   5.869
 5272SOL    HW216716   4.187   0.307   5.779
 5273SOL     OW16717   1.923   1.743   3.696
 5273SOL    HW116718   1.858   1.816   3.673
 5273SOL    HW216719   1.956   1.758   3.789
 5274SOL     OW16720   6.319   5.004   0.808
 5274SOL    HW116721   6.266   5.079   0.849
 5274SOL    HW216722   6.302   4.920   0.860
 5275SOL     OW16723   5.406   0.859   6.697
 5275SOL    HW116724   5.489   0.901   6.661
 5275SOL    HW216725   5.383   0.777   6.644
 5276SOL     OW16726   2.981   6.209   1.470
 5276SOL    HW116727   2.908   6.268   1.434
 5276SOL    HW216728   3.057   6.208   1.405
 5277SOL     OW16729   1.424   3.244   1.529
 5277SOL    HW116730   1.347   3.266   1.469
 5277SOL    HW216731   1.416   3.296   1.614
 5278SOL     OW16732   3.766   4.111   3.838
 5278SOL    HW116733   3.731   4.081   3.748
 5278SOL    HW216734   3.853   4.158   3.826
 5279SOL     OW16735   1.393   6.632   3.207
 5279SOL    HW116736   1.476   6.618   3.153
 5279SOL    HW216737   1.396   6.723   3.248
 5280SOL     OW16738   4.130   0.582   3.744
 5280SOL    HW116739   4.035   0.558   3.762
 5280SOL    HW216740   4.134   0.654   3.675
 5281SOL     OW16741   6.834   2.984   3.504
 5281SOL    HW116742   6.840   2.936   3.417
 5281SOL    HW216743   6.773   3.063   3.494
 5282SOL     OW16744   5.006   2.676   0.886
 5282SOL    HW116745   5.063   2.593   0.881
 5282SOL    HW216746   4.909   2.650   0.883
 5283SOL     OW16747   5.080   5.177   4.930
 5283SOL    HW116748   5.060   5.125   4.847
 5283SOL    HW216749   5.144   5.250   4.909
 5284SOL     OW16750   5.447   2.584   4.334
 5284SOL    HW116751   5.425   2.611   4.241
 5284SOL    HW216752   5.415   2.655   4.398
 5285SOL     OW16753   4.145   5.684   2.650
 5285SOL    HW116754   4.078   5.668   2.723
 5285SOL    HW216755   4.194   5.769   2.668
 5286SOL     OW16756   1.927   4.741   2.128
 5286SOL    HW116757   1.997   4.810   2.108
 5286SOL    HW216758   1.900   4.748   2.224
 5287SOL     OW16759   0.401   0.290   2.796
 5287SOL    HW116760   0.403   0.387   2.774
 5287SOL    HW216761   0.391   0.277   2.895
 5288SOL     OW16762   3.722   0.371   0.916
 5288SOL    HW116763   3.805   0.318   0.933
 5288SOL    HW216764   3.652   0.347   0.983
 5289SOL     OW16765   1.627   6.894   1.580
 5289SOL    HW116766   1.660   6.868   1.490
 5289SOL    HW216767   1.679   6.974   1.612
 5290SOL     OW16768   5.800   6.770   6.726
 5290SOL    HW116769   5.770   6.864   6.737
 5290SOL    HW216770   5.844   6.739   6.810
 5291SOL     OW16771   1.253   5.568   0.088
 5291SOL    HW116772   1.326   5.575   0.020
 5291SOL    HW216773   1.167   5.602   0.050
 5292SOL     OW16774   5.551   1.544   1.444
 5292SOL    HW116775   5.469   1.508   1.488
 5292SOL    HW216776   5.589   1.475   1.382
 5293SOL     OW16777   2.171   1.488   4.259
 5293SOL    HW116778   2.214   1.436   4.185
 5293SOL    HW216779   2.227   1.569   4.279
 5294SOL     OW16780   3.487   2.096   6.881
 5294SOL    HW116781   3.447   2.004   6.875
 5294SOL    HW216782   3.535   2.106   6.969
 5295SOL     OW16783   0.347   1.705   3.200
 5295SOL    HW116784   0.348   1.722   3.102
 5295SOL    HW216785   0.440   1.683   3.232
 5296SOL     OW16786   0.188   3.212   6.267
 5296SOL    HW116787   0.170   3.136   6.329
 5296SOL    HW216788   0.224   3.176   6.180
 5297SOL     OW16789   0.928   1.847   1.842
 5297SOL    HW116790   0.991   1.861   1.766
 5297SOL    HW216791   0.880   1.933   1.862
 5298SOL     OW16792   1.037   3.652   2.141
 5298SOL    HW116793   1.041   3.600   2.055
 5298SOL    HW216794   1.129   3.679   2.169
 5299SOL     OW16795   4.040   0.450   7.006
 5299SOL    HW116796   4.138   0.453   0.006
 5299SOL    HW216797   4.023   0.390   6.928
 5300SOL     OW16798   6.703   4.822   4.679
 5300SOL    HW116799   6.717   4.798   4.776
 5300SOL    HW216800   6.792   4.830   4.634
 5301SOL     OW16801   5.435   7.003   6.741
 5301SOL    HW116802   5.459   6.933   6.673
 5301SOL    HW216803   5.352   0.031   6.712
 5302SOL     OW16804   0.351   3.774   2.674
 5302SOL    HW116805   0.447   3.748   2.660
 5302SOL    HW216806   0.346   3.870   2.701
 5303SOL     OW16807   2.409   4.505   2.431
 5303SOL    HW116808   2.460   4.584   2.399
 5303SOL    HW216809   2.377   4.451   2.353
 5304SOL     OW16810   4.745   1.732   5.654
 5304SOL    HW116811   4.689   1.770   5.727
 5304SOL    HW216812   4.780   1.806   5.597
 5305SOL     OW16813   4.164   1.793   4.706
 5305SOL    HW116814   4.123   1.843   4.630
 5305SOL    HW216815   4.109   1.807   4.788
 5306SOL     OW16816   2.692   6.954   3.251
 5306SOL    HW116817   2.634   6.950   3.333
 5306SOL    HW216818   2.702   6.862   3.213
 5307SOL     OW16819   4.805   6.530   6.659
 5307SOL    HW116820   4.811   6.601   6.589
 5307SOL    HW216821   4.792   6.573   6.748
 5308SOL     OW16822   6.631   1.556   1.312
 5308SOL    HW116823   6.691   1.616   1.259
 5308SOL    HW216824   6.583   1.609   1.381
 5309SOL     OW16825   3.711   3.807   6.020
 5309SOL    HW116826   3.753   3.770   5.937
 5309SOL    HW216827   3.620   3.844   5.998
 5310SOL     OW16828   5.285   2.619   0.286
 5310SOL    HW116829   5.188   2.601   0.307
 5310SOL    HW216830   5.321   2.544   0.230
 5311SOL     OW16831   6.853   5.695   0.202
 5311SOL    HW116832   6.779   5.669   0.140
 5311SOL    HW216833   6.865   5.624   0.271
 5312SOL     OW16834   0.688   3.829   1.632
 5312SOL    HW116835   0.643   3.887   1.700
 5312SOL    HW216836   0.699   3.880   1.547
 5313SOL     OW16837   0.470   6.266   6.653
 5313SOL    HW116838   0.459   6.188   6.592
 5313SOL    HW216839   0.409   6.256   6.732
 5314SOL     OW16840   4.027   4.564   0.665
 5314SOL    HW116841   4.012   4.584   0.568
 5314SOL    HW216842   3.983   4.477   0.689
 5315SOL     OW16843   5.491   1.044   2.627
 5315SOL    HW116844   5.516   1.137   2.656
 5315SOL    HW216845   5.515   1.032   2.531
 5316SOL     OW16846   5.240   5.407   4.578
 5316SOL    HW116847   5.298   5.359   4.643
 5316SOL    HW216848   5.144   5.398   4.606
 5317SOL     OW16849   0.471   4.923   1.229
 5317SOL    HW116850   0.485   4.924   1.328
 5317SOL    HW216851   0.378   4.954   1.208
 5318SOL     OW16852   6.333   2.705   3.754
 5318SOL    HW116853   6.332   2.610   3.784
 5318SOL    HW216854   6.423   2.745   3.772
 5319SOL     OW16855   2.843   6.389   2.816
 5319SOL    HW116856   2.889   6.464   2.864
 5319SOL    HW216857   2.898   6.306   2.826
 5320SOL     OW16858   6.136   2.290   6.947
 5320SOL    HW116859   6.218   2.234   6.956
 5320SOL    HW216860   6.134   2.332   6.856
 5321SOL     OW16861   3.210   5.230   0.155
 5321SOL    HW116862   3.121   5.190   0.137
 5321SOL    HW216863   3.282   5.164   0.134
 5322SOL     OW16864   3.286   6.184   0.261
 5322SOL    HW116865   3.261   6.216   0.169
 5322SOL    HW216866   3.248   6.246   0.330
 5323SOL     OW16867   6.622   3.053   0.623
 5323SOL    HW116868   6.657   2.976   0.570
 5323SOL    HW216869   6.639   3.037   0.720
 5324SOL     OW16870   4.007   3.805   2.730
 5324SOL    HW116871   3.921   3.780   2.775
 5324SOL    HW216872   4.048   3.724   2.689
 5325SOL     OW16873   3.089   0.064   5.769
 5325SOL    HW116874   3.075   6.986   5.785
 5325SOL    HW216875   3.000   0.110   5.763
 5326SOL     OW16876   5.993   0.955   4.184
 5326SOL    HW116877   5.896   0.972   4.167
 5326SOL    HW216878   6.009   0.856   4.189
 5327SOL     OW16879   6.413   6.945   4.221
 5327SOL    HW116880   6.472   6.873   4.184
 5327SOL    HW216881   6.465   0.010   4.227
 5328SOL     OW16882   2.709   5.176   6.162
 5328SOL    HW116883   2.788   5.160   6.222
 5328SOL    HW216884   2.671   5.088   6.133
 5329SOL     OW16885   0.176   6.654   6.273
 5329SOL    HW116886   0.259   6.599   6.283
 5329SOL    HW216887   0.122   6.648   6.357
 5330SOL     OW16888   4.848   3.998   0.432
 5330SOL    HW116889   4.798   4.030   0.352
 5330SOL    HW216890   4.934   3.957   0.404
 5331SOL     OW16891   6.231   1.013   0.055
 5331SOL    HW116892   6.142   1.049   0.083
 5331SOL    HW216893   6.237   1.013   6.975
 5332SOL     OW16894   6.704   3.423   6.979
 5332SOL    HW116895   6.608   3.437   7.003
 5332SOL    HW216896   6.745   3.510   6.953
 5333SOL     OW16897   0.054   0.013   4.322
 5333SOL    HW116898   0.106   6.958   4.280
 5333SOL    HW216899   0.049   7.019   4.421
 5334SOL     OW16900   3.027   5.735   0.833
 5334SOL    HW116901   3.092   5.753   0.758
 5334SOL    HW216902   3.031   5.810   0.899
 5335SOL     OW16903   0.087   5.450   1.844
 5335SOL    HW116904   0.035   5.499   1.913
 5335SOL    HW216905   0.032   5.376   1.807
 5336SOL     OW16906   1.153   2.881   5.505
 5336SOL    HW116907   1.127   2.898   5.600
 5336SOL    HW216908   1.101   2.943   5.446
 5337SOL     OW16909   6.228   2.253   1.008
 5337SOL    HW116910   6.181   2.232   1.094
 5337SOL    HW216911   6.292   2.329   1.023
 5338SOL     OW16912   6.786   3.002   1.750
 5338SOL    HW116913   6.700   3.000   1.700
 5338SOL    HW216914   6.839   3.083   1.725
 5339SOL     OW16915   5.007   3.919   2.877
 5339SOL    HW116916   4.966   3.848   2.934
 5339SOL    HW216917   4.970   3.912   2.785
 5340SOL     OW16918   5.737   4.059   1.246
 5340SOL    HW116919   5.643   4.024   1.247
 5340SOL    HW216920   5.766   4.081   1.339
 5341SOL     OW16921   4.770   5.184   3.278
 5341SOL    HW116922   4.783   5.260   3.213
 5341SOL    HW216923   4.707   5.212   3.350
 5342SOL     OW16924   6.075   5.123   4.728
 5342SOL    HW116925   6.099   5.027   4.713
 5342SOL    HW216926   6.032   5.133   4.818
 5343SOL     OW16927   3.476   3.873   0.117
 5343SOL    HW116928   3.451   3.806   0.048
 5343SOL    HW216929   3.528   3.828   0.190
 5344SOL     OW16930   6.068   1.717   6.996
 5344SOL    HW116931   5.994   1.731   6.930
 5344SOL    HW216932   6.153   1.698   6.947
 5345SOL     OW16933   3.693   0.818   6.391
 5345SOL    HW116934   3.674   0.827   6.489
 5345SOL    HW216935   3.742   0.732   6.375
 5346SOL     OW16936   2.441   5.853   3.270
 5346SOL    HW116937   2.391   5.869   3.185
 5346SOL    HW216938   2.377   5.837   3.344
 5347SOL     OW16939   5.910   2.125   5.133
 5347SOL    HW116940   5.885   2.222   5.141
 5347SOL    HW216941   5.987   2.105   5.194
 5348SOL     OW16942   5.056   2.771   5.423
 5348SOL    HW116943   4.957   2.780   5.441
 5348SOL    HW216944   5.089   2.685   5.461
 5349SOL     OW16945   1.089   3.774   0.500
 5349SOL    HW116946   1.128   3.856   0.459
 5349SOL    HW216947   0.989   3.780   0.498
 5350SOL     OW16948   1.332   0.231   6.389
 5350SOL    HW116949   1.264   0.304   6.393
 5350SOL    HW216950   1.288   0.143   6.408
 5351SOL     OW16951   0.845   5.728   3.479
 5351SOL    HW116952   0.820   5.793   3.550
 5351SOL    HW216953   0.797   5.751   3.394
 5352SOL     OW16954   0.463   2.566   6.195
 5352SOL    HW116955   0.441   2.663   6.211
 5352SOL    HW216956   0.552   2.559   6.151
 5353SOL     OW16957   2.199   6.380   3.089
 5353SOL    HW116958   2.140   6.310   3.047
 5353SOL    HW216959   2.240   6.436   3.017
 5354SOL     OW16960   2.945   5.974   1.603
 5354SOL    HW116961   2.965   6.064   1.564
 5354SOL    HW216962   3.000   5.961   1.686
 5355SOL     OW16963   5.033   4.138   5.754
 5355SOL    HW116964   5.057   4.124   5.658
 5355SOL    HW216965   5.017   4.236   5.770
 5356SOL     OW16966   6.844   6.976   1.569
 5356SOL    HW116967   6.904   6.907   1.608
 5356SOL    HW216968   6.761   6.984   1.624
 5357SOL     OW16969   6.076   3.430   2.465
 5357SOL    HW116970   6.086   3.420   2.564
 5357SOL    HW216971   5.979   3.439   2.442
 5358SOL     OW16972   5.634   6.921   6.424
 5358SOL    HW116973   5.634   6.867   6.340
 5358SOL    HW216974   5.574   6.878   6.492
 5359SOL     OW16975   3.326   1.839   6.943
 5359SOL    HW116976   3.263   1.773   6.902
 5359SOL    HW216977   3.321   1.833   0.022
 5360SOL     OW16978   5.202   5.805   3.277
 5360SOL    HW116979   5.241   5.895   3.260
 5360SOL    HW216980   5.136   5.810   3.351
 5361SOL     OW16981   1.340   4.077   2.737
 5361SOL    HW116982   1.418   4.048   2.794
 5361SOL    HW216983   1.352   4.172   2.711
 5362SOL     OW16984   5.663   1.591   4.086
 5362SOL    HW116985   5.646   1.611   4.183
 5362SOL    HW216986   5.761   1.596   4.067
 5363SOL     OW16987   6.541   4.830   6.260
 5363SOL    HW116988   6.470   4.780   6.212
 5363SOL    HW216989   6.516   4.926   6.268
 5364SOL     OW16990   4.812   2.664   1.243
 5364SOL    HW116991   4.788   2.671   1.340
 5364SOL    HW216992   4.875   2.738   1.219
 5365SOL     OW16993   3.197   3.454   6.084
 5365SOL    HW116994   3.210   3.378   6.020
 5365SOL    HW216995   3.259   3.528   6.060
 5366SOL     OW16996   6.950   4.656   3.855
 5366SOL    HW116997   6.973   4.735   3.911
 5366SOL    HW216998   6.863   4.617   3.887
 5367SOL     OW16999   6.065   5.800   0.769
 5367SOL    HW117000   6.134   5.769   0.704
 5367SOL    HW217001   6.007   5.869   0.725
 5368SOL     OW17002   0.141   5.728   5.510
 5368SOL    HW117003   0.200   5.647   5.501
 5368SOL    HW217004   0.173   5.799   5.448
 5369SOL     OW17005   3.430   0.390   2.576
 5369SOL    HW117006   3.430   0.343   2.487
 5369SOL    HW217007   3.347   0.365   2.626
 5370SOL     OW17008   2.689   2.290   0.501
 5370SOL    HW117009   2.623   2.257   0.569
 5370SOL    HW217010   2.681   2.236   0.417
 5371SOL     OW17011   6.270   5.044   3.384
 5371SOL    HW117012   6.305   5.051   3.291
 5371SOL    HW217013   6.204   5.117   3.401
 5372SOL     OW17014   0.390   1.171   4.256
 5372SOL    HW117015   0.457   1.153   4.328
 5372SOL    HW217016   0.415   1.121   4.173
 5373SOL     OW17017   3.675   0.083   0.326
 5373SOL    HW117018   3.619   0.001   0.312
 5373SOL    HW217019   3.733   0.070   0.406
 5374SOL     OW17020   1.651   3.581   1.136
 5374SOL    HW117021   1.611   3.491   1.156
 5374SOL    HW217022   1.612   3.617   1.051
 5375SOL     OW17023   2.935   5.215   4.807
 5375SOL    HW117024   2.944   5.116   4.796
 5375SOL    HW217025   2.850   5.247   4.765
 5376SOL     OW17026   6.943   6.769   2.517
 5376SOL    HW117027   6.938   6.701   2.590
 5376SOL    HW217028   6.992   6.850   2.549
 5377SOL     OW17029   0.705   2.580   1.518
 5377SOL    HW117030   0.774   2.596   1.588
 5377SOL    HW217031   0.745   2.527   1.443
 5378SOL     OW17032   4.600   0.130   4.113
 5378SOL    HW117033   4.580   0.157   4.207
 5378SOL    HW217034   4.514   0.115   4.064
 5379SOL     OW17035   3.336   2.154   4.159
 5379SOL    HW117036   3.276   2.194   4.229
 5379SOL    HW217037   3.428   2.142   4.197
 5380SOL     OW17038   4.543   6.905   1.388
 5380SOL    HW117039   4.481   6.981   1.368
 5380SOL    HW217040   4.523   6.829   1.327
 5381SOL     OW17041   2.582   2.019   2.942
 5381SOL    HW117042   2.664   2.040   2.995
 5381SOL    HW217043   2.609   1.988   2.850
 5382SOL     OW17044   4.682   0.440   2.933
 5382SOL    HW117045   4.668   0.465   2.837
 5382SOL    HW217046   4.605   0.384   2.964
 5383SOL     OW17047   2.467   4.208   5.297
 5383SOL    HW117048   2.455   4.115   5.262
 5383SOL    HW217049   2.469   4.273   5.221
 5384SOL     OW17050   5.690   6.301   6.288
 5384SOL    HW117051   5.751   6.240   6.338
 5384SOL    HW217052   5.597   6.266   6.292
 5385SOL     OW17053   3.455   3.843   0.745
 5385SOL    HW117054   3.452   3.761   0.803
 5385SOL    HW217055   3.466   3.924   0.802
 5386SOL     OW17056   4.211   5.038   3.117
 5386SOL    HW117057   4.304   5.019   3.149
 5386SOL    HW217058   4.150   5.044   3.196
 5387SOL     OW17059   0.692   2.604   5.288
 5387SOL    HW117060   0.643   2.688   5.308
 5387SOL    HW217061   0.783   2.607   5.331
 5388SOL     OW17062   6.666   6.773   3.431
 5388SOL    HW117063   6.693   6.681   3.458
 5388SOL    HW217064   6.567   6.780   3.428
 5389SOL     OW17065   6.078   1.580   4.537
 5389SOL    HW117066   6.080   1.484   4.509
 5389SOL    HW217067   6.172   1.611   4.554
 5390SOL     OW17068   5.402   2.826   2.989
 5390SOL    HW117069   5.342   2.773   2.929
 5390SOL    HW217070   5.488   2.845   2.942
 5391SOL     OW17071   4.711   3.382   1.142
 5391SOL    HW117072   4.713   3.287   1.174
 5391SOL    HW217073   4.706   3.443   1.220
 5392SOL     OW17074   5.252   0.697   3.872
 5392SOL    HW117075   5.330   0.718   3.813
 5392SOL    HW217076   5.254   0.758   3.951
 5393SOL     OW17077   4.944   3.361   2.717
 5393SOL    HW117078   4.941   3.414   2.801
 5393SOL    HW217079   4.919   3.419   2.640
 5394SOL     OW17080   0.739   2.753   3.052
 5394SOL    HW117081   0.742   2.654   3.066
 5394SOL    HW217082   0.791   2.777   2.969
 5395SOL     OW17083   0.899   0.738   1.641
 5395SOL    HW117084   0.808   0.701   1.661
 5395SOL    HW217085   0.966   0.696   1.702
 5396SOL     OW17086   3.673   2.279   0.642
 5396SOL    HW117087   3.622   2.363   0.659
 5396SOL    HW217088   3.693   2.271   0.544
 5397SOL     OW17089   0.679   6.493   3.062
 5397SOL    HW117090   0.727   6.525   3.143
 5397SOL    HW217091   0.606   6.557   3.038
 5398SOL     OW17092   5.294   2.144   3.390
 5398SOL    HW117093   5.296   2.092   3.306
 5398SOL    HW217094   5.281   2.241   3.369
 5399SOL     OW17095   2.703   2.571   0.420
 5399SOL    HW117096   2.791   2.606   0.451
 5399SOL    HW217097   2.697   2.473   0.439
 5400SOL     OW17098   4.663   2.842   0.950
 5400SOL    HW117099   4.641   2.940   0.942
 5400SOL    HW217100   4.710   2.826   1.037
 5401SOL     OW17101   5.071   4.345   1.416
 5401SOL    HW117102   5.152   4.299   1.380
 5401SOL    HW217103   5.053   4.314   1.509
 5402SOL     OW17104   2.082   5.554   1.800
 5402SOL    HW117105   2.094   5.467   1.847
 5402SOL    HW217106   2.153   5.617   1.829
 5403SOL     OW17107   6.300   2.534   5.069
 5403SOL    HW117108   6.355   2.534   5.153
 5403SOL    HW217109   6.294   2.627   5.033
 5404SOL     OW17110   4.741   6.562   0.262
 5404SOL    HW117111   4.759   6.480   0.316
 5404SOL    HW217112   4.660   6.609   0.298
 5405SOL     OW17113   6.122   5.272   5.967
 5405SOL    HW117114   6.143   5.174   5.970
 5405SOL    HW217115   6.036   5.287   5.919
 5406SOL     OW17116   1.808   1.557   5.380
 5406SOL    HW117117   1.902   1.583   5.402
 5406SOL    HW217118   1.755   1.638   5.357
 5407SOL     OW17119   1.913   1.860   2.627
 5407SOL    HW117120   1.824   1.848   2.584
 5407SOL    HW217121   1.922   1.953   2.661
 5408SOL     OW17122   2.274   2.783   4.290
 5408SOL    HW117123   2.354   2.744   4.244
 5408SOL    HW217124   2.254   2.731   4.373
 5409SOL     OW17125   0.212   4.541   3.437
 5409SOL    HW117126   0.300   4.511   3.473
 5409SOL    HW217127   0.158   4.582   3.511
 5410SOL     OW17128   6.032   1.164   0.159
 5410SOL    HW117129   6.062   1.165   0.255
 5410SOL    HW217130   6.045   1.255   0.120
 5411SOL     OW17131   2.920   6.217   1.811
 5411SOL    HW117132   2.870   6.290   1.765
 5411SOL    HW217133   2.857   6.143   1.835
 5412SOL     OW17134   2.245   2.318   5.833
 5412SOL    HW117135   2.169   2.295   5.894
 5412SOL    HW217136   2.247   2.254   5.757
 5413SOL     OW17137   6.973   5.439   5.669
 5413SOL    HW117138   6.994   5.352   5.713
 5413SOL    HW217139   0.025   5.461   5.603
 5414SOL     OW17140   5.852   5.856   5.570
 5414SOL    HW117141   5.901   5.887   5.651
 5414SOL    HW217142   5.876   5.913   5.492
 5415SOL     OW17143   1.947   0.601   0.450
 5415SOL    HW117144   2.032   0.585   0.500
 5415SOL    HW217145   1.874   0.546   0.490
 5416SOL     OW17146   4.290   4.856   6.296
 5416SOL    HW117147   4.319   4.901   6.211
 5416SOL    HW217148   4.370   4.835   6.352
 5417SOL     OW17149   5.331   0.601   1.424
 5417SOL    HW117150   5.255   0.591   1.488
 5417SOL    HW217151   5.340   0.517   1.370
 5418SOL     OW17152   0.172   2.495   5.652
 5418SOL    HW117153   0.077   2.484   5.684
 5418SOL    HW217154   0.175   2.487   5.553
 5419SOL     OW17155   4.011   2.496   5.886
 5419SOL    HW117156   4.081   2.495   5.958
 5419SOL    HW217157   3.964   2.408   5.883
 5420SOL     OW17158   1.535   1.770   1.462
 5420SOL    HW117159   1.585   1.855   1.447
 5420SOL    HW217160   1.536   1.747   1.560
 5421SOL     OW17161   3.928   5.730   1.118
 5421SOL    HW117162   3.863   5.657   1.140
 5421SOL    HW217163   3.885   5.819   1.130
 5422SOL     OW17164   2.516   6.712   3.162
 5422SOL    HW117165   2.587   6.642   3.171
 5422SOL    HW217166   2.450   6.703   3.236
 5423SOL     OW17167   4.135   6.541   2.769
 5423SOL    HW117168   4.225   6.584   2.779
 5423SOL    HW217169   4.078   6.566   2.846
 5424SOL     OW17170   3.963   3.547   6.002
 5424SOL    HW117171   3.929   3.554   6.096
 5424SOL    HW217172   3.995   3.454   5.985
 5425SOL     OW17173   1.976   5.457   4.617
 5425SOL    HW117174   1.966   5.432   4.521
 5425SOL    HW217175   1.992   5.555   4.624
 5426SOL     OW17176   1.847   4.085   6.979
 5426SOL    HW117177   1.771   4.151   6.980
 5426SOL    HW217178   1.931   4.132   6.951
 5427SOL     OW17179   4.691   1.500   0.414
 5427SOL    HW117180   4.661   1.595   0.399
 5427SOL    HW217181   4.777   1.485   0.365
 5428SOL     OW17182   4.797   5.726   2.339
 5428SOL    HW117183   4.759   5.707   2.429
 5428SOL    HW217184   4.886   5.770   2.349
 5429SOL     OW17185   2.683   6.506   3.450
 5429SOL    HW117186   2.690   6.412   3.414
 5429SOL    HW217187   2.699   6.571   3.376
 5430SOL     OW17188   0.707   3.492   5.312
 5430SOL    HW117189   0.654   3.410   5.292
 5430SOL    HW217190   0.653   3.573   5.289
 5431SOL     OW17191   5.537   4.576   0.725
 5431SOL    HW117192   5.473   4.650   0.747
 5431SOL    HW217193   5.528   4.554   0.628
 5432SOL     OW17194   2.096   5.398   5.731
 5432SOL    HW117195   2.092   5.496   5.710
 5432SOL    HW217196   2.184   5.377   5.774
 5433SOL     OW17197   2.715   6.981   1.248
 5433SOL    HW117198   2.776   6.928   1.190
 5433SOL    HW217199   2.769   0.009   1.318
 5434SOL     OW17200   5.341   5.773   4.208
 5434SOL    HW117201   5.241   5.772   4.201
 5434SOL    HW217202   5.367   5.778   4.304
 5435SOL     OW17203   0.459   3.007   0.143
 5435SOL    HW117204   0.368   3.049   0.135
 5435SOL    HW217205   0.528   3.069   0.107
 5436SOL     OW17206   1.080   4.632   0.819
 5436SOL    HW117207   1.114   4.685   0.898
 5436SOL    HW217208   1.052   4.541   0.850
 5437SOL     OW17209   2.973   6.535   5.876
 5437SOL    HW117210   2.968   6.506   5.780
 5437SOL    HW217211   2.901   6.489   5.928
 5438SOL     OW17212   5.035   6.667   3.274
 5438SOL    HW117213   4.950   6.644   3.321
 5438SOL    HW217214   5.048   6.766   3.275
 5439SOL     OW17215   1.408   3.515   2.072
 5439SOL    HW117216   1.337   3.518   2.142
 5439SOL    HW217217   1.371   3.551   1.986
 5440SOL     OW17218   5.312   6.046   3.182
 5440SOL    HW117219   5.358   6.089   3.104
 5440SOL    HW217220   5.236   6.103   3.212
 5441SOL     OW17221   5.816   0.366   5.136
 5441SOL    HW117222   5.908   0.335   5.113
 5441SOL    HW217223   5.749   0.302   5.098
 5442SOL     OW17224   2.703   6.204   0.121
 5442SOL    HW117225   2.787   6.246   0.155
 5442SOL    HW217226   2.667   6.258   0.045
 5443SOL     OW17227   6.193   1.322   3.238
 5443SOL    HW117228   6.100   1.285   3.244
 5443SOL    HW217229   6.258   1.253   3.268
 5444SOL     OW17230   1.818   1.606   6.515
 5444SOL    HW117231   1.891   1.675   6.516
 5444SOL    HW217232   1.765   1.615   6.431
 5445SOL     OW17233   6.320   6.570   5.070
 5445SOL    HW117234   6.351   6.535   5.158
 5445SOL    HW217235   6.220   6.572   5.068
 5446SOL     OW17236   2.348   3.983   0.197
 5446SOL    HW117237   2.331   3.963   0.294
 5446SOL    HW217238   2.280   4.048   0.164
 5447SOL     OW17239   5.254   2.753   1.833
 5447SOL    HW117240   5.271   2.821   1.761
 5447SOL    HW217241   5.196   2.679   1.796
 5448SOL     OW17242   5.865   5.535   1.170
 5448SOL    HW117243   5.860   5.532   1.269
 5448SOL    HW217244   5.935   5.600   1.142
 5449SOL     OW17245   2.020   7.017   2.690
 5449SOL    HW117246   2.086   0.005   2.615
 5449SOL    HW217247   1.958   0.076   2.687
 5450SOL     OW17248   4.250   4.653   1.796
 5450SOL    HW117249   4.165   4.700   1.776
 5450SOL    HW217250   4.242   4.557   1.770
 5451SOL     OW17251   0.817   5.417   3.516
 5451SOL    HW117252   0.899   5.373   3.551
 5451SOL    HW217253   0.815   5.513   3.545
 5452SOL     OW17254   2.098   3.813   3.415
 5452SOL    HW117255   2.009   3.781   3.381
 5452SOL    HW217256   2.150   3.855   3.341
 5453SOL     OW17257   6.097   5.856   4.384
 5453SOL    HW117258   6.082   5.758   4.393
 5453SOL    HW217259   6.082   5.884   4.289
 5454SOL     OW17260   6.695   4.059   1.919
 5454SOL    HW117261   6.732   4.006   1.996
 5454SOL    HW217262   6.606   4.023   1.894
 5455SOL     OW17263   2.157   2.364   2.886
 5455SOL    HW117264   2.208   2.404   2.962
 5455SOL    HW217265   2.213   2.366   2.803
 5456SOL     OW17266   5.449   3.082   0.308
 5456SOL    HW117267   5.425   2.988   0.282
 5456SOL    HW217268   5.369   3.141   0.299
 5457SOL     OW17269   5.598   1.278   0.537
 5457SOL    HW117270   5.609   1.326   0.624
 5457SOL    HW217271   5.502   1.284   0.508
 5458SOL     OW17272   6.395   4.659   6.106
 5458SOL    HW117273   6.471   4.628   6.049
 5458SOL    HW217274   6.318   4.684   6.047
 5459SOL     OW17275   2.206   3.590   5.676
 5459SOL    HW117276   2.186   3.495   5.698
 5459SOL    HW217277   2.251   3.634   5.753
 5460SOL     OW17278   6.509   1.289   1.305
 5460SOL    HW117279   6.572   1.365   1.324
 5460SOL    HW217280   6.426   1.300   1.360
 5461SOL     OW17281   5.839   0.559   6.374
 5461SOL    HW117282   5.934   0.577   6.402
 5461SOL    HW217283   5.836   0.545   6.276
 5462SOL     OW17284   5.612   4.823   0.072
 5462SOL    HW117285   5.593   4.787   0.163
 5462SOL    HW217286   5.587   4.920   0.068
 5463SOL     OW17287   2.855   4.616   0.239
 5463SOL    HW117288   2.782   4.564   0.194
 5463SOL    HW217289   2.818   4.664   0.318
 5464SOL     OW17290   2.218   5.469   3.915
 5464SOL    HW117291   2.162   5.393   3.946
 5464SOL    HW217292   2.311   5.459   3.951
 5465SOL     OW17293   0.637   1.537   4.732
 5465SOL    HW117294   0.705   1.608   4.719
 5465SOL    HW217295   0.676   1.463   4.786
 5466SOL     OW17296   5.065   2.261   4.986
 5466SOL    HW117297   4.979   2.240   5.033
 5466SOL    HW217298   5.059   2.229   4.891
 5467SOL     OW17299   5.005   4.355   3.535
 5467SOL    HW117300   5.076   4.406   3.584
 5467SOL    HW217301   4.991   4.397   3.445
 5468SOL     OW17302   0.263   2.276   1.181
 5468SOL    HW117303   0.217   2.201   1.134
 5468SOL    HW217304   0.250   2.361   1.129
 5469SOL     OW17305   4.775   0.996   3.179
 5469SOL    HW117306   4.765   1.014   3.081
 5469SOL    HW217307   4.692   0.953   3.213
 5470SOL     OW17308   2.627   4.711   3.728
 5470SOL    HW117309   2.610   4.645   3.655
 5470SOL    HW217310   2.722   4.744   3.722
 5471SOL     OW17311   5.427   0.281   3.692
 5471SOL    HW117312   5.349   0.244   3.742
 5471SOL    HW217313   5.404   0.371   3.655
 5472SOL     OW17314   2.713   4.029   0.261
 5472SOL    HW117315   2.643   4.098   0.279
 5472SOL    HW217316   2.793   4.072   0.220
 5473SOL     OW17317   3.057   4.732   1.856
 5473SOL    HW117318   2.972   4.696   1.895
 5473SOL    HW217319   3.121   4.656   1.841
 5474SOL     OW17320   0.875   5.379   1.871
 5474SOL    HW117321   0.869   5.284   1.903
 5474SOL    HW217322   0.893   5.439   1.948
 5475SOL     OW17323   0.663   0.942   5.697
 5475SOL    HW117324   0.583   0.919   5.752
 5475SOL    HW217325   0.744   0.946   5.756
 5476SOL     OW17326   2.978   1.280   4.467
 5476SOL    HW117327   2.905   1.320   4.522
 5476SOL    HW217328   3.058   1.339   4.470
 5477SOL     OW17329   2.127   3.901   3.151
 5477SOL    HW117330   2.151   3.840   3.076
 5477SOL    HW217331   2.030   3.923   3.147
 5478SOL     OW17332   6.468   3.110   5.704
 5478SOL    HW117333   6.431   3.201   5.685
 5478SOL    HW217334   6.412   3.066   5.774
 5479SOL     OW17335   5.447   3.721   4.540
 5479SOL    HW117336   5.362   3.676   4.569
 5479SOL    HW217337   5.425   3.801   4.485
 5480SOL     OW17338   1.996   2.716   6.139
 5480SOL    HW117339   2.007   2.789   6.072
 5480SOL    HW217340   1.928   2.743   6.207
 5481SOL     OW17341   3.547   1.120   0.625
 5481SOL    HW117342   3.637   1.142   0.664
 5481SOL    HW217343   3.507   1.203   0.585
 5482SOL     OW17344   5.205   4.590   2.228
 5482SOL    HW117345   5.287   4.573   2.282
 5482SOL    HW217346   5.227   4.651   2.152
 5483SOL     OW17347   5.757   1.722   0.511
 5483SOL    HW117348   5.748   1.648   0.443
 5483SOL    HW217349   5.753   1.683   0.603
 5484SOL     OW17350   5.796   0.173   5.800
 5484SOL    HW117351   5.882   0.220   5.822
 5484SOL    HW217352   5.817   0.079   5.770
 5485SOL     OW17353   2.890   1.114   3.930
 5485SOL    HW117354   2.860   1.128   4.024
 5485SOL    HW217355   2.988   1.091   3.929
 5486SOL     OW17356   0.034   0.704   3.917
 5486SOL    HW117357   0.107   0.772   3.922
 5486SOL    HW217358   0.023   0.660   4.006
 5487SOL     OW17359   4.127   5.655   1.301
 5487SOL    HW117360   4.185   5.579   1.272
 5487SOL    HW217361   4.071   5.686   1.225
 5488SOL     OW17362   4.797   0.568   6.257
 5488SOL    HW117363   4.730   0.534   6.190
 5488SOL    HW217364   4.752   0.580   6.346
 5489SOL     OW17365   6.654   4.039   2.399
 5489SOL    HW117366   6.650   4.127   2.352
 5489SOL    HW217367   6.575   4.031   2.461
 5490SOL     OW17368   2.789   0.940   6.817
 5490SOL    HW117369   2.708   0.979   6.772
 5490SOL    HW217370   2.818   0.859   6.767
 5491SOL     OW17371   6.217   6.841   1.318
 5491SOL    HW117372   6.150   6.775   1.354
 5491SOL    HW217373   6.304   6.829   1.366
 5492SOL     OW17374   1.615   1.556   5.003
 5492SOL    HW117375   1.690   1.619   4.985
 5492SOL    HW217376   1.652   1.464   5.017
 5493SOL     OW17377   3.998   0.932   0.067
 5493SOL    HW117378   4.073   0.994   0.045
 5493SOL    HW217379   3.912   0.982   0.064
 5494SOL     OW17380   5.283   3.396   2.679
 5494SOL    HW117381   5.264   3.437   2.590
 5494SOL    HW217382   5.214   3.426   2.745
 5495SOL     OW17383   3.296   3.281   4.747
 5495SOL    HW117384   3.312   3.344   4.823
 5495SOL    HW217385   3.294   3.187   4.781
 5496SOL     OW17386   4.399   5.065   2.255
 5496SOL    HW117387   4.355   5.097   2.171
 5496SOL    HW217388   4.438   5.142   2.303
 5497SOL     OW17389   5.267   0.148   0.022
 5497SOL    HW117390   5.351   0.170   0.071
 5497SOL    HW217391   5.188   0.168   0.080
 5498SOL     OW17392   4.093   0.961   4.215
 5498SOL    HW117393   4.119   0.898   4.289
 5498SOL    HW217394   4.139   1.048   4.228
 5499SOL     OW17395   0.047   0.564   5.156
 5499SOL    HW117396   0.030   0.485   5.215
 5499SOL    HW217397   0.106   0.630   5.203
 5500SOL     OW17398   2.199   6.591   0.619
 5500SOL    HW117399   2.274   6.597   0.554
 5500SOL    HW217400   2.169   6.496   0.627
 5501SOL     OW17401   2.364   1.077   2.138
 5501SOL    HW117402   2.423   1.149   2.101
 5501SOL    HW217403   2.272   1.113   2.151
 5502SOL     OW17404   5.515   4.452   0.421
 5502SOL    HW117405   5.563   4.417   0.501
 5502SOL    HW217406   5.544   4.400   0.340
 5503SOL     OW17407   6.651   0.768   3.997
 5503SOL    HW117408   6.724   0.711   4.035
 5503SOL    HW217409   6.666   0.863   4.026
 5504SOL     OW17410   2.668   2.403   4.868
 5504SOL    HW117411   2.655   2.307   4.894
 5504SOL    HW217412   2.626   2.462   4.936
 5505SOL     OW17413   3.357   5.074   0.750
 5505SOL    HW117414   3.299   5.000   0.784
 5505SOL    HW217415   3.428   5.094   0.818
 5506SOL     OW17416   1.051   6.754   4.879
 5506SOL    HW117417   1.093   6.697   4.808
 5506SOL    HW217418   1.080   6.849   4.867
 5507SOL     OW17419   2.584   5.452   4.876
 5507SOL    HW117420   2.628   5.410   4.954
 5507SOL    HW217421   2.493   5.412   4.863
 5508SOL     OW17422   2.344   0.927   5.337
 5508SOL    HW117423   2.411   0.938   5.264
 5508SOL    HW217424   2.316   1.017   5.371
 5509SOL     OW17425   0.045   0.462   5.788
 5509SOL    HW117426   0.037   0.462   5.887
 5509SOL    HW217427   0.046   0.367   5.754
 5510SOL     OW17428   0.956   0.362   5.351
 5510SOL    HW117429   1.036   0.415   5.379
 5510SOL    HW217430   0.961   0.271   5.393
 5511SOL     OW17431   0.048   2.328   0.831
 5511SOL    HW117432   0.116   2.271   0.878
 5511SOL    HW217433   6.979   2.284   0.835
 5512SOL     OW17434   6.478   6.685   0.262
 5512SOL    HW117435   6.569   6.672   0.222
 5512SOL    HW217436   6.434   6.765   0.220
 5513SOL     OW17437   2.536   5.848   4.513
 5513SOL    HW117438   2.539   5.771   4.450
 5513SOL    HW217439   2.629   5.872   4.542
 5514SOL     OW17440   5.537   5.694   3.526
 5514SOL    HW117441   5.576   5.786   3.536
 5514SOL    HW217442   5.453   5.688   3.580
 5515SOL     OW17443   0.742   4.063   3.511
 5515SOL    HW117444   0.773   4.024   3.598
 5515SOL    HW217445   0.769   4.003   3.436
 5516SOL     OW17446   1.966   2.775   0.284
 5516SOL    HW117447   2.022   2.762   0.202
 5516SOL    HW217448   1.899   2.701   0.290
 5517SOL     OW17449   2.940   0.795   2.193
 5517SOL    HW117450   2.875   0.728   2.231
 5517SOL    HW217451   3.015   0.808   2.258
 5518SOL     OW17452   5.704   3.486   5.956
 5518SOL    HW117453   5.646   3.567   5.959
 5518SOL    HW217454   5.658   3.414   5.903
 5519SOL     OW17455   5.697   4.551   2.449
 5519SOL    HW117456   5.786   4.507   2.434
 5519SOL    HW217457   5.703   4.647   2.425
 5520SOL     OW17458   1.499   2.837   1.104
 5520SOL    HW117459   1.501   2.796   1.195
 5520SOL    HW217460   1.526   2.768   1.036
 5521SOL     OW17461   5.506   4.388   6.333
 5521SOL    HW117462   5.535   4.456   6.400
 5521SOL    HW217463   5.530   4.418   6.241
 5522SOL     OW17464   1.628   3.072   1.596
 5522SOL    HW117465   1.558   3.131   1.555
 5522SOL    HW217466   1.607   3.057   1.692
 5523SOL     OW17467   2.672   6.595   1.886
 5523SOL    HW117468   2.698   6.525   1.819
 5523SOL    HW217469   2.617   6.553   1.958
 5524SOL     OW17470   6.069   6.614   5.842
 5524SOL    HW117471   6.035   6.571   5.758
 5524SOL    HW217472   6.007   6.688   5.868
 5525SOL     OW17473   6.479   6.373   3.154
 5525SOL    HW117474   6.393   6.330   3.128
 5525SOL    HW217475   6.537   6.306   3.202
 5526SOL     OW17476   5.673   3.204   4.565
 5526SOL    HW117477   5.668   3.113   4.524
 5526SOL    HW217478   5.702   3.195   4.661
 5527SOL     OW17479   2.786   3.268   0.179
 5527SOL    HW117480   2.707   3.245   0.236
 5527SOL    HW217481   2.759   3.334   0.109
 5528SOL     OW17482   6.356   2.988   2.557
 5528SOL    HW117483   6.382   3.006   2.462
 5528SOL    HW217484   6.368   3.071   2.612
 5529SOL     OW17485   1.664   0.466   4.274
 5529SOL    HW117486   1.643   0.435   4.182
 5529SOL    HW217487   1.734   0.537   4.270
 5530SOL     OW17488   6.721   3.184   6.822
 5530SOL    HW117489   6.728   3.269   6.875
 5530SOL    HW217490   6.635   3.183   6.772
 5531SOL     OW17491   2.929   3.330   0.516
 5531SOL    HW117492   2.841   3.281   0.522
 5531SOL    HW217493   2.999   3.266   0.485
 5532SOL     OW17494   2.581   2.446   2.011
 5532SOL    HW117495   2.522   2.433   2.090
 5532SOL    HW217496   2.676   2.442   2.039
 5533SOL     OW17497   2.902   0.654   1.013
 5533SOL    HW117498   2.813   0.692   0.987
 5533SOL    HW217499   2.974   0.692   0.955
 5534SOL     OW17500   0.594   3.275   5.154
 5534SOL    HW117501   0.657   3.206   5.191
 5534SOL    HW217502   0.505   3.266   5.198
 5535SOL     OW17503   5.171   4.564   3.645
 5535SOL    HW117504   5.219   4.543   3.730
 5535SOL    HW217505   5.217   4.640   3.599
 5536SOL     OW17506   2.323   1.200   4.665
 5536SOL    HW117507   2.305   1.110   4.624
 5536SOL    HW217508   2.238   1.236   4.704
 5537SOL     OW17509   3.627   1.238   3.583
 5537SOL    HW117510   3.578   1.195   3.507
 5537SOL    HW217511   3.561   1.283   3.644
 5538SOL     OW17512   4.719   2.546   2.351
 5538SOL    HW117513   4.684   2.487   2.423
 5538SOL    HW217514   4.681   2.638   2.361
 5539SOL     OW17515   1.490   0.662   6.179
 5539SOL    HW117516   1.473   0.599   6.255
 5539SOL    HW217517   1.540   0.614   6.106
 5540SOL     OW17518   5.078   7.007   5.084
 5540SOL    HW117519   5.104   0.051   5.156
 5540SOL    HW217520   5.160   6.965   5.045
 5541SOL     OW17521   4.232   3.103   5.655
 5541SOL    HW117522   4.193   3.012   5.640
 5541SOL    HW217523   4.291   3.126   5.577
 5542SOL     OW17524   4.814   4.448   6.461
 5542SOL    HW117525   4.787   4.355   6.482
 5542SOL    HW217526   4.790   4.470   6.366
 5543SOL     OW17527   0.645   0.478   6.249
 5543SOL    HW117528   0.650   0.395   6.194
 5543SOL    HW217529   0.659   0.558   6.190
 5544SOL     OW17530   3.519   5.119   0.388
 5544SOL    HW117531   3.577   5.190   0.428
 5544SOL    HW217532   3.423   5.140   0.407
 5545SOL     OW17533   5.549   1.835   3.217
 5545SOL    HW117534   5.568   1.931   3.237
 5545SOL    HW217535   5.512   1.790   3.299
 5546SOL     OW17536   0.727   6.323   4.370
 5546SOL    HW117537   0.706   6.352   4.276
 5546SOL    HW217538   0.667   6.247   4.395
 5547SOL     OW17539   5.133   1.404   4.378
 5547SOL    HW117540   5.167   1.432   4.468
 5547SOL    HW217541   5.044   1.446   4.361
 5548SOL     OW17542   0.961   3.475   5.354
 5548SOL    HW117543   0.862   3.474   5.340
 5548SOL    HW217544   0.986   3.554   5.410
 5549SOL     OW17545   4.143   2.949   0.512
 5549SOL    HW117546   4.133   2.912   0.420
 5549SOL    HW217547   4.080   3.027   0.524
 5550SOL     OW17548   3.222   3.874   1.612
 5550SOL    HW117549   3.184   3.953   1.661
 5550SOL    HW217550   3.230   3.797   1.675
 5551SOL     OW17551   1.541   4.232   2.426
 5551SOL    HW117552   1.621   4.224   2.485
 5551SOL    HW217553   1.557   4.303   2.357
 5552SOL     OW17554   0.751   0.782   0.183
 5552SOL    HW117555   0.839   0.827   0.164
 5552SOL    HW217556   0.768   0.686   0.207
 5553SOL     OW17557   5.830   5.991   0.907
 5553SOL    HW117558   5.736   5.992   0.873
 5553SOL    HW217559   5.889   6.039   0.842
 5554SOL     OW17560   6.700   2.604   1.499
 5554SOL    HW117561   6.606   2.637   1.506
 5554SOL    HW217562   6.753   2.637   1.576
 5555SOL     OW17563   1.306   4.866   2.260
 5555SOL    HW117564   1.403   4.871   2.236
 5555SOL    HW217565   1.296   4.824   2.350
 5556SOL     OW17566   6.707   1.756   5.062
 5556SOL    HW117567   6.705   1.697   5.143
 5556SOL    HW217568   6.617   1.796   5.047
 5557SOL     OW17569   3.522   6.899   3.030
 5557SOL    HW117570   3.516   6.915   3.129
 5557SOL    HW217571   3.520   6.987   2.982
 5558SOL     OW17572   4.000   3.484   6.278
 5558SOL    HW117573   4.085   3.434   6.293
 5558SOL    HW217574   4.016   3.582   6.290
 5559SOL     OW17575   3.587   0.577   2.697
 5559SOL    HW117576   3.687   0.572   2.690
 5559SOL    HW217577   3.545   0.525   2.623
 5560SOL     OW17578   6.819   5.720   3.549
 5560SOL    HW117579   6.774   5.689   3.465
 5560SOL    HW217580   6.890   5.654   3.574
 5561SOL     OW17581   3.542   0.789   3.496
 5561SOL    HW117582   3.619   0.834   3.451
 5561SOL    HW217583   3.464   0.785   3.432
 5562SOL     OW17584   4.773   3.247   0.739
 5562SOL    HW117585   4.775   3.339   0.700
 5562SOL    HW217586   4.867   3.218   0.760
 5563SOL     OW17587   2.216   4.215   2.202
 5563SOL    HW117588   2.264   4.131   2.178
 5563SOL    HW217589   2.118   4.199   2.206
 5564SOL     OW17590   4.581   0.065   6.294
 5564SOL    HW117591   4.653   0.010   6.253
 5564SOL    HW217592   4.494   0.045   6.250
 5565SOL     OW17593   3.212   1.715   6.066
 5565SOL    HW117594   3.248   1.783   6.002
 5565SOL    HW217595   3.235   1.623   6.034
 5566SOL     OW17596   1.498   5.363   5.352
 5566SOL    HW117597   1.569   5.384   5.419
 5566SOL    HW217598   1.495   5.264   5.337
 5567SOL     OW17599   0.927   5.014   6.543
 5567SOL    HW117600   0.877   5.074   6.606
 5567SOL    HW217601   0.895   5.031   6.449
 5568SOL     OW17602   5.259   5.276   2.016
 5568SOL    HW117603   5.283   5.260   2.112
 5568SOL    HW217604   5.319   5.347   1.978
 5569SOL     OW17605   1.927   2.119   2.720
 5569SOL    HW117606   1.830   2.108   2.742
 5569SOL    HW217607   1.937   2.171   2.636
 5570SOL     OW17608   6.662   3.958   1.276
 5570SOL    HW117609   6.624   4.014   1.349
 5570SOL    HW217610   6.596   3.888   1.249
 5571SOL     OW17611   0.043   4.342   6.690
 5571SOL    HW117612   6.993   4.409   6.665
 5571SOL    HW217613   0.106   4.329   6.614
 5572SOL     OW17614   1.229   4.379   5.519
 5572SOL    HW117615   1.179   4.459   5.487
 5572SOL    HW217616   1.167   4.319   5.570
 5573SOL     OW17617   3.333   4.928   3.370
 5573SOL    HW117618   3.420   4.903   3.414
 5573SOL    HW217619   3.325   4.879   3.283
 5574SOL     OW17620   0.919   1.347   6.084
 5574SOL    HW117621   0.888   1.441   6.092
 5574SOL    HW217622   1.018   1.345   6.068
 5575SOL     OW17623   0.090   0.636   2.068
 5575SOL    HW117624   0.130   0.546   2.053
 5575SOL    HW217625   0.145   0.705   2.020
 5576SOL     OW17626   1.764   5.020   3.720
 5576SOL    HW117627   1.689   4.954   3.727
 5576SOL    HW217628   1.842   4.978   3.674
 5577SOL     OW17629   2.701   2.209   6.302
 5577SOL    HW117630   2.747   2.139   6.356
 5577SOL    HW217631   2.622   2.243   6.353
 5578SOL     OW17632   3.705   3.911   3.994
 5578SOL    HW117633   3.729   3.967   3.915
 5578SOL    HW217634   3.719   3.815   3.971
 5579SOL     OW17635   5.893   3.064   1.721
 5579SOL    HW117636   5.867   3.159   1.708
 5579SOL    HW217637   5.822   3.004   1.684
 5580SOL     OW17638   5.284   2.269   6.178
 5580SOL    HW117639   5.340   2.329   6.121
 5580SOL    HW217640   5.282   2.304   6.271
 5581SOL     OW17641   1.180   1.315   6.060
 5581SOL    HW117642   1.192   1.217   6.046
 5581SOL    HW217643   1.259   1.364   6.022
 5582SOL     OW17644   2.869   2.277   6.105
 5582SOL    HW117645   2.877   2.220   6.024
 5582SOL    HW217646   2.821   2.227   6.177
 5583SOL     OW17647   6.012   6.461   0.859
 5583SOL    HW117648   6.030   6.554   0.827
 5583SOL    HW217649   5.936   6.463   0.925
 5584SOL     OW17650   1.060   3.226   4.898
 5584SOL    HW117651   1.106   3.187   4.818
 5584SOL    HW217652   1.117   3.212   4.979
 5585SOL     OW17653   6.046   5.005   1.117
 5585SOL    HW117654   6.044   5.104   1.132
 5585SOL    HW217655   6.054   4.958   1.205
 5586SOL     OW17656   0.941   6.017   1.701
 5586SOL    HW117657   0.957   6.015   1.602
 5586SOL    HW217658   1.024   6.048   1.747
 5587SOL     OW17659   5.906   0.717   5.528
 5587SOL    HW117660   5.917   0.621   5.502
 5587SOL    HW217661   5.821   0.752   5.489
 5588SOL     OW17662   3.040   0.137   0.837
 5588SOL    HW117663   2.949   0.105   0.864
 5588SOL    HW217664   3.045   0.236   0.847
 5589SOL     OW17665   0.437   4.227   5.550
 5589SOL    HW117666   0.372   4.266   5.615
 5589SOL    HW217667   0.514   4.290   5.539
 5590SOL     OW17668   6.062   5.215   3.326
 5590SOL    HW117669   6.045   5.259   3.413
 5590SOL    HW217670   5.999   5.138   3.314
 5591SOL     OW17671   5.421   1.851   2.784
 5591SOL    HW117672   5.373   1.840   2.697
 5591SOL    HW217673   5.511   1.890   2.768
 5592SOL     OW17674   0.146   5.370   4.097
 5592SOL    HW117675   0.186   5.279   4.083
 5592SOL    HW217676   0.062   5.361   4.152
 5593SOL     OW17677   2.014   3.626   0.847
 5593SOL    HW117678   1.967   3.692   0.788
 5593SOL    HW217679   1.975   3.535   0.832
 5594SOL     OW17680   5.977   0.963   5.928
 5594SOL    HW117681   5.883   0.963   5.892
 5594SOL    HW217682   5.990   0.885   5.989
 5595SOL     OW17683   0.212   2.007   0.730
 5595SOL    HW117684   0.156   2.067   0.674
 5595SOL    HW217685   0.156   1.932   0.766
 5596SOL     OW17686   4.266   6.028   3.084
 5596SOL    HW117687   4.318   6.039   3.168
 5596SOL    HW217688   4.228   5.936   3.080
 5597SOL     OW17689   5.106   3.391   2.120
 5597SOL    HW117690   5.178   3.386   2.052
 5597SOL    HW217691   5.037   3.457   2.092
 5598SOL     OW17692   3.801   0.694   4.175
 5598SOL    HW117693   3.810   0.595   4.181
 5598SOL    HW217694   3.870   0.729   4.111
 5599SOL     OW17695   0.985   1.288   3.446
 5599SOL    HW117696   0.996   1.378   3.488
 5599SOL    HW217697   0.973   1.298   3.347
 5600SOL     OW17698   2.611   2.835   5.342
 5600SOL    HW117699   2.613   2.914   5.280
 5600SOL    HW217700   2.643   2.864   5.432
 5601SOL     OW17701   2.038   0.716   6.333
 5601SOL    HW117702   2.049   0.733   6.431
 5601SOL    HW217703   2.113   0.658   6.301
 5602SOL     OW17704   1.736   1.086   6.910
 5602SOL    HW117705   1.717   1.037   6.996
 5602SOL    HW217706   1.821   1.051   6.871
 5603SOL     OW17707   6.529   3.550   5.073
 5603SOL    HW117708   6.514   3.645   5.046
 5603SOL    HW217709   6.530   3.492   4.991
 5604SOL     OW17710   5.083   0.808   6.456
 5604SOL    HW117711   5.136   0.823   6.373
 5604SOL    HW217712   5.052   0.712   6.460
 5605SOL     OW17713   0.901   1.613   6.655
 5605SOL    HW117714   0.999   1.619   6.636
 5605SOL    HW217715   0.879   1.519   6.682
 5606SOL     OW17716   5.727   0.062   2.849
 5606SOL    HW117717   5.820   0.091   2.870
 5606SOL    HW217718   5.675   0.052   2.933
 5607SOL     OW17719   4.946   0.872   1.335
 5607SOL    HW117720   4.956   0.855   1.433
 5607SOL    HW217721   4.883   0.805   1.296
 5608SOL     OW17722   3.287   6.445   4.828
 5608SOL    HW117723   3.238   6.506   4.890
 5608SOL    HW217724   3.378   6.482   4.809
 5609SOL     OW17725   1.343   6.471   4.839
 5609SOL    HW117726   1.284   6.396   4.870
 5609SOL    HW217727   1.293   6.528   4.774
 5610SOL     OW17728   4.743   0.317   6.857
 5610SOL    HW117729   4.689   0.377   6.917
 5610SOL    HW217730   4.768   0.367   6.774
 5611SOL     OW17731   1.633   4.153   4.337
 5611SOL    HW117732   1.583   4.167   4.422
 5611SOL    HW217733   1.719   4.204   4.340
 5612SOL     OW17734   3.404   6.289   4.529
 5612SOL    HW117735   3.474   6.225   4.497
 5612SOL    HW217736   3.432   6.329   4.616
 5613SOL     OW17737   2.898   5.075   2.267
 5613SOL    HW117738   2.991   5.045   2.246
 5613SOL    HW217739   2.867   5.139   2.197
 5614SOL     OW17740   5.080   2.135   4.682
 5614SOL    HW117741   5.132   2.050   4.674
 5614SOL    HW217742   5.002   2.133   4.620
 5615SOL     OW17743   0.921   1.593   1.776
 5615SOL    HW117744   0.909   1.688   1.803
 5615SOL    HW217745   0.962   1.589   1.685
 5616SOL     OW17746   2.307   6.828   4.846
 5616SOL    HW117747   2.390   6.819   4.900
 5616SOL    HW217748   2.230   6.791   4.898
 5617SOL     OW17749   0.595   1.132   6.093
 5617SOL    HW117750   0.686   1.094   6.111
 5617SOL    HW217751   0.595   1.178   6.004
 5618SOL     OW17752   6.356   4.795   3.495
 5618SOL    HW117753   6.454   4.784   3.483
 5618SOL    HW217754   6.332   4.892   3.490
 5619SOL     OW17755   2.217   3.620   5.161
 5619SOL    HW117756   2.258   3.639   5.250
 5619SOL    HW217757   2.160   3.697   5.133
 5620SOL     OW17758   4.979   1.850   6.817
 5620SOL    HW117759   4.931   1.783   6.874
 5620SOL    HW217760   5.057   1.806   6.772
 5621SOL     OW17761   2.552   1.409   6.690
 5621SOL    HW117762   2.634   1.443   6.645
 5621SOL    HW217763   2.482   1.480   6.691
 5622SOL     OW17764   5.717   0.320   5.581
 5622SOL    HW117765   5.767   0.325   5.495
 5622SOL    HW217766   5.759   0.251   5.640
 5623SOL     OW17767   6.937   5.969   0.002
 5623SOL    HW117768   6.946   6.059   0.044
 5623SOL    HW217769   6.841   5.946   7.010
 5624SOL     OW17770   1.032   4.251   2.720
 5624SOL    HW117771   1.000   4.344   2.700
 5624SOL    HW217772   1.049   4.242   2.818
 5625SOL     OW17773   6.490   1.599   5.275
 5625SOL    HW117774   6.503   1.619   5.178
 5625SOL    HW217775   6.395   1.573   5.292
 5626SOL     OW17776   5.760   0.085   5.403
 5626SOL    HW117777   5.794   0.108   5.312
 5626SOL    HW217778   5.683   0.022   5.395
 5627SOL     OW17779   1.609   0.538   1.302
 5627SOL    HW117780   1.648   0.615   1.251
 5627SOL    HW217781   1.616   0.455   1.247
 5628SOL     OW17782   1.764   1.668   4.688
 5628SOL    HW117783   1.777   1.663   4.589
 5628SOL    HW217784   1.677   1.711   4.709
 5629SOL     OW17785   3.730   3.335   3.627
 5629SOL    HW117786   3.772   3.246   3.642
 5629SOL    HW217787   3.632   3.324   3.616
 5630SOL     OW17788   6.538   3.858   0.690
 5630SOL    HW117789   6.611   3.790   0.677
 5630SOL    HW217790   6.567   3.926   0.756
 5631SOL     OW17791   5.750   1.299   6.147
 5631SOL    HW117792   5.698   1.342   6.073
 5631SOL    HW217793   5.840   1.271   6.113
 5632SOL     OW17794   3.299   2.226   0.527
 5632SOL    HW117795   3.313   2.325   0.519
 5632SOL    HW217796   3.291   2.201   0.623
 5633SOL     OW17797   0.319   2.665   5.344
 5633SOL    HW117798   0.356   2.583   5.388
 5633SOL    HW217799   0.245   2.639   5.282
 5634SOL     OW17800   4.541   6.463   5.398
 5634SOL    HW117801   4.503   6.371   5.409
 5634SOL    HW217802   4.472   6.522   5.357
 5635SOL     OW17803   3.283   1.457   6.035
 5635SOL    HW117804   3.206   1.408   6.074
 5635SOL    HW217805   3.349   1.392   5.998
 5636SOL     OW17806   4.591   6.926   4.348
 5636SOL    HW117807   4.671   6.883   4.306
 5636SOL    HW217808   4.607   0.004   4.360
 5637SOL     OW17809   5.908   6.785   3.130
 5637SOL    HW117810   5.905   6.697   3.176
 5637SOL    HW217811   5.941   6.774   3.037
 5638SOL     OW17812   0.343   3.811   6.890
 5638SOL    HW117813   0.287   3.859   6.822
 5638SOL    HW217814   0.372   3.723   6.853
 5639SOL     OW17815   4.393   6.745   6.682
 5639SOL    HW117816   4.327   6.675   6.655
 5639SOL    HW217817   4.421   6.797   6.602
 5640SOL     OW17818   1.487   6.805   3.755
 5640SOL    HW117819   1.498   6.900   3.726
 5640SOL    HW217820   1.577   6.764   3.769
 5641SOL     OW17821   6.927   5.529   4.764
 5641SOL    HW117822   6.957   5.610   4.714
 5641SOL    HW217823   7.001   5.498   4.824
 5642SOL     OW17824   1.711   1.198   0.415
 5642SOL    HW117825   1.695   1.208   0.317
 5642SOL    HW217826   1.715   1.289   0.458
 5643SOL     OW17827   5.431   2.050   6.388
 5643SOL    HW117828   5.421   2.101   6.302
 5643SOL    HW217829   5.500   1.979   6.376
 5644SOL     OW17830   2.901   0.310   5.534
 5644SOL    HW117831   2.862   0.392   5.493
 5644SOL    HW217832   2.869   0.229   5.484
 5645SOL     OW17833   5.488   3.538   4.245
 5645SOL    HW117834   5.391   3.562   4.250
 5645SOL    HW217835   5.522   3.518   4.337
 5646SOL     OW17836   0.302   4.051   2.599
 5646SOL    HW117837   0.315   4.009   2.509
 5646SOL    HW217838   0.204   4.061   2.617
 5647SOL     OW17839   4.674   5.988   2.600
 5647SOL    HW117840   4.722   6.039   2.528
 5647SOL    HW217841   4.695   6.028   2.689
 5648SOL     OW17842   5.737   6.526   3.402
 5648SOL    HW117843   5.664   6.459   3.414
 5648SOL    HW217844   5.704   6.617   3.426
 5649SOL     OW17845   0.337   0.395   5.045
 5649SOL    HW117846   0.255   0.446   5.018
 5649SOL    HW217847   0.379   0.354   4.964
 5650SOL     OW17848   0.229   3.672   6.311
 5650SOL    HW117849   0.284   3.733   6.254
 5650SOL    HW217850   0.220   3.710   6.403
 5651SOL     OW17851   2.683   1.512   1.268
 5651SOL    HW117852   2.591   1.532   1.303
 5651SOL    HW217853   2.677   1.484   1.172
 5652SOL     OW17854   0.537   6.293   2.907
 5652SOL    HW117855   0.617   6.347   2.935
 5652SOL    HW217856   0.555   6.248   2.820
 5653SOL     OW17857   6.857   0.807   2.861
 5653SOL    HW117858   6.894   0.715   2.849
 5653SOL    HW217859   6.811   0.836   2.778
 5654SOL     OW17860   3.466   6.064   5.602
 5654SOL    HW117861   3.407   6.062   5.683
 5654SOL    HW217862   3.547   6.120   5.620
 5655SOL     OW17863   5.883   3.500   4.683
 5655SOL    HW117864   5.813   3.450   4.734
 5655SOL    HW217865   5.919   3.442   4.610
 5656SOL     OW17866   0.427   4.331   1.260
 5656SOL    HW117867   0.516   4.290   1.280
 5656SOL    HW217868   0.392   4.377   1.342
 5657SOL     OW17869   6.063   6.172   5.135
 5657SOL    HW117870   6.074   6.127   5.046
 5657SOL    HW217871   6.083   6.107   5.208
 5658SOL     OW17872   2.772   2.490   5.974
 5658SOL    HW117873   2.796   2.405   6.020
 5658SOL    HW217874   2.793   2.482   5.876
 5659SOL     OW17875   2.217   4.361   6.401
 5659SOL    HW117876   2.127   4.339   6.440
 5659SOL    HW217877   2.212   4.359   6.301
 5660SOL     OW17878   3.852   0.427   4.269
 5660SOL    HW117879   3.951   0.415   4.265
 5660SOL    HW217880   3.824   0.443   4.364
 5661SOL     OW17881   0.768   5.365   5.898
 5661SOL    HW117882   0.693   5.419   5.935
 5661SOL    HW217883   0.803   5.408   5.815
 5662SOL     OW17884   2.611   6.251   1.091
 5662SOL    HW117885   2.542   6.282   1.025
 5662SOL    HW217886   2.700   6.248   1.046
 5663SOL     OW17887   3.118   2.108   6.436
 5663SOL    HW117888   3.110   2.175   6.510
 5663SOL    HW217889   3.027   2.075   6.411
 5664SOL     OW17890   5.379   5.356   4.915
 5664SOL    HW117891   5.478   5.369   4.923
 5664SOL    HW217892   5.360   5.281   4.851
 5665SOL     OW17893   1.649   0.774   0.866
 5665SOL    HW117894   1.709   0.852   0.846
 5665SOL    HW217895   1.702   0.689   0.859
 5666SOL     OW17896   5.924   2.966   4.608
 5666SOL    HW117897   5.826   2.951   4.601
 5666SOL    HW217898   5.955   3.021   4.530
 5667SOL     OW17899   2.606   4.573   4.000
 5667SOL    HW117900   2.603   4.551   3.903
 5667SOL    HW217901   2.557   4.659   4.015
 5668SOL     OW17902   4.409   4.622   3.980
 5668SOL    HW117903   4.450   4.622   3.889
 5668SOL    HW217904   4.319   4.666   3.976
 5669SOL     OW17905   5.984   3.791   5.476
 5669SOL    HW117906   5.914   3.804   5.546
 5669SOL    HW217907   5.941   3.781   5.387
 5670SOL     OW17908   1.286   2.967   4.400
 5670SOL    HW117909   1.257   2.961   4.495
 5670SOL    HW217910   1.384   2.988   4.397
 5671SOL     OW17911   6.205   5.936   2.588
 5671SOL    HW117912   6.272   6.009   2.603
 5671SOL    HW217913   6.222   5.893   2.499
 5672SOL     OW17914   5.322   3.167   4.653
 5672SOL    HW117915   5.355   3.147   4.561
 5672SOL    HW217916   5.396   3.151   4.719
 5673SOL     OW17917   0.352   1.950   0.236
 5673SOL    HW117918   0.386   1.886   0.167
 5673SOL    HW217919   0.311   2.029   0.190
 5674SOL     OW17920   2.704   5.377   5.417
 5674SOL    HW117921   2.637   5.412   5.483
 5674SOL    HW217922   2.749   5.296   5.455
 5675SOL     OW17923   3.170   2.434   0.892
 5675SOL    HW117924   3.095   2.426   0.958
 5675SOL    HW217925   3.224   2.350   0.892
 5676SOL     OW17926   3.683   1.045   1.813
 5676SOL    HW117927   3.673   1.061   1.715
 5676SOL    HW217928   3.592   1.042   1.856
 5677SOL     OW17929   1.166   1.562   6.533
 5677SOL    HW117930   1.264   1.545   6.529
 5677SOL    HW217931   1.117   1.475   6.546
 5678SOL     OW17932   3.999   2.030   1.943
 5678SOL    HW117933   4.082   1.984   1.908
 5678SOL    HW217934   3.928   1.962   1.959
 5679SOL     OW17935   0.437   3.533   5.956
 5679SOL    HW117936   0.352   3.564   5.914
 5679SOL    HW217937   0.436   3.434   5.967
 5680SOL     OW17938   0.545   5.390   4.894
 5680SOL    HW117939   0.531   5.486   4.918
 5680SOL    HW217940   0.581   5.383   4.801
 5681SOL     OW17941   1.369   3.602   3.131
 5681SOL    HW117942   1.399   3.531   3.196
 5681SOL    HW217943   1.364   3.562   3.040
 5682SOL     OW17944   2.204   4.856   0.789
 5682SOL    HW117945   2.166   4.903   0.869
 5682SOL    HW217946   2.210   4.758   0.807
 5683SOL     OW17947   6.989   6.912   5.795
 5683SOL    HW117948   0.051   6.965   5.813
 5683SOL    HW217949   6.928   6.917   5.874
 5684SOL     OW17950   1.715   3.133   5.119
 5684SOL    HW117951   1.709   3.233   5.128
 5684SOL    HW217952   1.721   3.110   5.022
 5685SOL     OW17953   1.731   1.885   1.969
 5685SOL    HW117954   1.658   1.897   1.902
 5685SOL    HW217955   1.700   1.822   2.040
 5686SOL     OW17956   5.920   5.592   5.510
 5686SOL    HW117957   5.880   5.681   5.534
 5686SOL    HW217958   5.979   5.561   5.584
 5687SOL     OW17959   1.475   0.173   6.691
 5687SOL    HW117960   1.571   0.200   6.698
 5687SOL    HW217961   1.469   0.082   6.650
 5688SOL     OW17962   1.298   2.484   2.780
 5688SOL    HW117963   1.204   2.468   2.808
 5688SOL    HW217964   1.338   2.556   2.838
 5689SOL     OW17965   6.862   1.971   0.862
 5689SOL    HW117966   6.826   2.037   0.928
 5689SOL    HW217967   6.792   1.949   0.795
 5690SOL     OW17968   2.891   5.257   0.287
 5690SOL    HW117969   2.867   5.252   0.190
 5690SOL    HW217970   2.954   5.182   0.309
 5691SOL     OW17971   4.901   3.114   3.744
 5691SOL    HW117972   4.860   3.204   3.753
 5691SOL    HW217973   4.872   3.072   3.658
 5692SOL     OW17974   6.754   4.990   1.590
 5692SOL    HW117975   6.821   4.925   1.626
 5692SOL    HW217976   6.778   5.015   1.496
 5693SOL     OW17977   3.248   1.359   2.603
 5693SOL    HW117978   3.227   1.323   2.693
 5693SOL    HW217979   3.184   1.321   2.536
 5694SOL     OW17980   0.238   6.908   1.059
 5694SOL    HW117981   0.264   6.881   0.966
 5694SOL    HW217982   0.298   6.982   1.090
 5695SOL     OW17983   2.100   1.195   2.165
 5695SOL    HW117984   2.052   1.176   2.250
 5695SOL    HW217985   2.038   1.182   2.088
 5696SOL     OW17986   0.129   0.669   3.643
 5696SOL    HW117987   0.090   0.674   3.735
 5696SOL    HW217988   0.130   0.761   3.603
 5697SOL     OW17989   6.074   2.074   0.627
 5697SOL    HW117990   6.085   2.092   0.530
 5697SOL    HW217991   6.104   1.981   0.648
 5698SOL     OW17992   3.040   2.235   3.184
 5698SOL    HW117993   3.111   2.167   3.168
 5698SOL    HW217994   2.981   2.242   3.104
 5699SOL     OW17995   2.460   2.518   2.545
 5699SOL    HW117996   2.401   2.580   2.494
 5699SOL    HW217997   2.537   2.491   2.487
 5700SOL     OW17998   5.579   6.955   2.214
 5700SOL    HW117999   5.606   6.959   2.118
 5700SOL    HW218000   5.479   6.952   2.221
 5701SOL     OW18001   1.670   0.356   0.389
 5701SOL    HW118002   1.709   0.279   0.439
 5701SOL    HW218003   1.578   0.374   0.423
 5702SOL     OW18004   1.177   6.710   5.136
 5702SOL    HW118005   1.220   6.620   5.138
 5702SOL    HW218006   1.112   6.714   5.060
 5703SOL     OW18007   1.422   2.752   6.388
 5703SOL    HW118008   1.488   2.775   6.460
 5703SOL    HW218009   1.340   2.808   6.398
 5704SOL     OW18010   4.012   5.625   4.565
 5704SOL    HW118011   4.105   5.622   4.529
 5704SOL    HW218012   4.015   5.622   4.665
 5705SOL     OW18013   5.572   1.021   4.776
 5705SOL    HW118014   5.514   1.096   4.743
 5705SOL    HW218015   5.646   1.058   4.832
 5706SOL     OW18016   5.413   1.356   0.984
 5706SOL    HW118017   5.465   1.304   1.051
 5706SOL    HW218018   5.381   1.441   1.025
 5707SOL     OW18019   5.532   5.761   1.414
 5707SOL    HW118020   5.498   5.745   1.321
 5707SOL    HW218021   5.567   5.676   1.452
 5708SOL     OW18022   5.390   6.536   2.248
 5708SOL    HW118023   5.369   6.438   2.251
 5708SOL    HW218024   5.306   6.589   2.257
 5709SOL     OW18025   0.207   2.539   1.815
 5709SOL    HW118026   0.304   2.544   1.836
 5709SOL    HW218027   0.154   2.553   1.899
 5710SOL     OW18028   5.602   1.381   0.798
 5710SOL    HW118029   5.679   1.412   0.853
 5710SOL    HW218030   5.534   1.337   0.858
 5711SOL     OW18031   4.594   1.220   2.454
 5711SOL    HW118032   4.629   1.195   2.364
 5711SOL    HW218033   4.619   1.314   2.475
 5712SOL     OW18034   6.730   6.116   6.599
 5712SOL    HW118035   6.768   6.050   6.533
 5712SOL    HW218036   6.635   6.092   6.619
 5713SOL     OW18037   1.109   1.699   0.495
 5713SOL    HW118038   1.098   1.793   0.463
 5713SOL    HW218039   1.019   1.656   0.506
 5714SOL     OW18040   5.735   0.232   1.041
 5714SOL    HW118041   5.743   0.135   1.064
 5714SOL    HW218042   5.824   0.266   1.009
 5715SOL     OW18043   0.191   6.218   1.131
 5715SOL    HW118044   0.134   6.140   1.106
 5715SOL    HW218045   0.154   6.261   1.214
 5716SOL     OW18046   0.030   4.716   5.581
 5716SOL    HW118047   7.007   4.626   5.576
 5716SOL    HW218048   0.063   4.743   5.490
 5717SOL     OW18049   7.018   5.841   3.225
 5717SOL    HW118050   6.921   5.841   3.247
 5717SOL    HW218051   0.030   5.747   3.210
 5718SOL     OW18052   0.937   4.162   0.401
 5718SOL    HW118053   0.895   4.251   0.420
 5718SOL    HW218054   0.905   4.128   0.313
 5719SOL     OW18055   3.259   3.463   0.811
 5719SOL    HW118056   3.240   3.516   0.893
 5719SOL    HW218057   3.196   3.385   0.807
 5720SOL     OW18058   2.869   4.510   6.467
 5720SOL    HW118059   2.958   4.554   6.481
 5720SOL    HW218060   2.882   4.411   6.456
 5721SOL     OW18061   0.917   2.925   0.439
 5721SOL    HW118062   0.941   2.828   0.441
 5721SOL    HW218063   0.898   2.957   0.532
 5722SOL     OW18064   1.430   0.318   6.023
 5722SOL    HW118065   1.485   0.267   6.089
 5722SOL    HW218066   1.484   0.336   5.941
 5723SOL     OW18067   4.127   3.648   0.454
 5723SOL    HW118068   4.218   3.685   0.475
 5723SOL    HW218069   4.081   3.710   0.391
 5724SOL     OW18070   6.422   1.553   6.152
 5724SOL    HW118071   6.410   1.456   6.131
 5724SOL    HW218072   6.508   1.585   6.112
 5725SOL     OW18073   0.053   4.175   4.327
 5725SOL    HW118074   0.146   4.161   4.292
 5725SOL    HW218075   7.008   4.177   4.251
 5726SOL     OW18076   3.828   4.910   1.984
 5726SOL    HW118077   3.756   4.845   2.006
 5726SOL    HW218078   3.913   4.883   2.028
 5727SOL     OW18079   1.197   3.048   6.207
 5727SOL    HW118080   1.199   2.994   6.291
 5727SOL    HW218081   1.243   3.136   6.222
 5728SOL     OW18082   2.448   6.281   4.573
 5728SOL    HW118083   2.495   6.261   4.659
 5728SOL    HW218084   2.400   6.199   4.541
 5729SOL     OW18085   2.886   1.953   4.835
 5729SOL    HW118086   2.798   2.000   4.842
 5729SOL    HW218087   2.951   2.012   4.787
 5730SOL     OW18088   6.380   4.353   4.976
 5730SOL    HW118089   6.443   4.276   4.983
 5730SOL    HW218090   6.355   4.384   5.068
 5731SOL     OW18091   0.151   6.528   2.589
 5731SOL    HW118092   0.061   6.559   2.621
 5731SOL    HW218093   0.187   6.592   2.521
 5732SOL     OW18094   5.287   0.680   3.038
 5732SOL    HW118095   5.329   0.668   2.948
 5732SOL    HW218096   5.323   0.763   3.081
 5733SOL     OW18097   2.898   1.203   4.932
 5733SOL    HW118098   2.956   1.270   4.978
 5733SOL    HW218099   2.866   1.241   4.845
 5734SOL     OW18100   2.094   6.523   4.317
 5734SOL    HW118101   2.059   6.436   4.284
 5734SOL    HW218102   2.186   6.538   4.281
 5735SOL     OW18103   2.378   0.825   1.246
 5735SOL    HW118104   2.473   0.857   1.245
 5735SOL    HW218105   2.319   0.896   1.286
 5736SOL     OW18106   1.671   5.094   0.981
 5736SOL    HW118107   1.701   5.142   1.063
 5736SOL    HW218108   1.667   4.995   0.999
 5737SOL     OW18109   6.269   3.861   0.054
 5737SOL    HW118110   6.345   3.892   0.111
 5737SOL    HW218111   6.190   3.843   0.113
 5738SOL     OW18112   0.390   5.394   4.283
 5738SOL    HW118113   0.335   5.314   4.260
 5738SOL    HW218114   0.329   5.470   4.308
 5739SOL     OW18115   0.684   2.453   0.696
 5739SOL    HW118116   0.668   2.506   0.612
 5739SOL    HW218117   0.717   2.515   0.768
 5740SOL     OW18118   4.248   5.158   0.449
 5740SOL    HW118119   4.298   5.071   0.454
 5740SOL    HW218120   4.236   5.185   0.354
 5741SOL     OW18121   0.358   2.605   2.125
 5741SOL    HW118122   0.426   2.669   2.161
 5741SOL    HW218123   0.277   2.656   2.096
 5742SOL     OW18124   0.578   5.106   3.327
 5742SOL    HW118125   0.582   5.187   3.387
 5742SOL    HW218126   0.671   5.080   3.301
 5743SOL     OW18127   0.472   0.281   5.256
 5743SOL    HW118128   0.423   0.339   5.192
 5743SOL    HW218129   0.429   0.287   5.347
 5744SOL     OW18130   6.072   0.143   1.838
 5744SOL    HW118131   6.043   0.050   1.860
 5744SOL    HW218132   6.155   0.165   1.890
 5745SOL     OW18133   6.802   3.460   2.507
 5745SOL    HW118134   6.771   3.500   2.421
 5745SOL    HW218135   6.724   3.421   2.556
 5746SOL     OW18136   0.040   3.617   6.088
 5746SOL    HW118137   0.072   3.639   6.180
 5746SOL    HW218138   0.001   3.525   6.087
 5747SOL     OW18139   0.074   6.122   3.863
 5747SOL    HW118140   7.018   6.174   3.823
 5747SOL    HW218141   0.150   6.119   3.798
 5748SOL     OW18142   1.310   0.961   4.569
 5748SOL    HW118143   1.348   0.871   4.590
 5748SOL    HW218144   1.377   1.014   4.516
 5749SOL     OW18145   0.489   0.890   3.225
 5749SOL    HW118146   0.551   0.815   3.246
 5749SOL    HW218147   0.427   0.863   3.151
 5750SOL     OW18148   5.194   6.334   2.483
 5750SOL    HW118149   5.118   6.321   2.420
 5750SOL    HW218150   5.276   6.292   2.445
 5751SOL     OW18151   1.118   1.934   6.877
 5751SOL    HW118152   1.024   1.914   6.901
 5751SOL    HW218153   1.171   1.955   6.959
 5752SOL     OW18154   1.785   1.061   6.464
 5752SOL    HW118155   1.806   1.159   6.471
 5752SOL    HW218156   1.710   1.038   6.526
 5753SOL     OW18157   4.133   1.514   6.878
 5753SOL    HW118158   4.073   1.591   6.896
 5753SOL    HW218159   4.078   1.432   6.861
 5754SOL     OW18160   6.453   5.602   0.612
 5754SOL    HW118161   6.532   5.662   0.607
 5754SOL    HW218162   6.436   5.578   0.708
 5755SOL     OW18163   3.285   3.683   1.780
 5755SOL    HW118164   3.319   3.697   1.873
 5755SOL    HW218165   3.326   3.600   1.742
 5756SOL     OW18166   6.488   0.287   3.963
 5756SOL    HW118167   6.478   0.227   4.043
 5756SOL    HW218168   6.460   0.238   3.881
 5757SOL     OW18169   6.353   6.525   1.692
 5757SOL    HW118170   6.339   6.487   1.601
 5757SOL    HW218171   6.447   6.560   1.699
 5758SOL     OW18172   3.568   0.680   5.429
 5758SOL    HW118173   3.622   0.596   5.434
 5758SOL    HW218174   3.477   0.663   5.465
 5759SOL     OW18175   0.851   1.438   5.704
 5759SOL    HW118176   0.836   1.439   5.606
 5759SOL    HW218177   0.885   1.348   5.732
 5760SOL     OW18178   6.499   5.968   1.660
 5760SOL    HW118179   6.570   6.036   1.641
 5760SOL    HW218180   6.521   5.920   1.745
 5761SOL     OW18181   4.159   0.744   4.431
 5761SOL    HW118182   4.179   0.705   4.341
 5761SOL    HW218183   4.242   0.785   4.468
 5762SOL     OW18184   5.172   6.707   1.148
 5762SOL    HW118185   5.146   6.679   1.240
 5762SOL    HW218186   5.120   6.654   1.081
 5763SOL     OW18187   3.546   0.900   0.463
 5763SOL    HW118188   3.537   0.971   0.533
 5763SOL    HW218189   3.511   0.813   0.499
 5764SOL     OW18190   3.391   2.845   6.752
 5764SOL    HW118191   3.329   2.770   6.771
 5764SOL    HW218192   3.386   2.870   6.655
 5765SOL     OW18193   6.382   5.111   6.365
 5765SOL    HW118194   6.384   5.070   6.274
 5765SOL    HW218195   6.366   5.210   6.357
 5766SOL     OW18196   2.316   1.647   2.920
 5766SOL    HW118197   2.363   1.692   2.996
 5766SOL    HW218198   2.383   1.601   2.862
 5767SOL     OW18199   5.515   6.189   0.462
 5767SOL    HW118200   5.510   6.151   0.555
 5767SOL    HW218201   5.536   6.287   0.468
 5768SOL     OW18202   5.998   6.635   1.706
 5768SOL    HW118203   6.076   6.667   1.760
 5768SOL    HW218204   6.014   6.541   1.677
 5769SOL     OW18205   0.176   4.644   2.959
 5769SOL    HW118206   0.253   4.698   2.993
 5769SOL    HW218207   0.148   4.578   3.029
 5770SOL     OW18208   4.751   2.010   1.359
 5770SOL    HW118209   4.805   2.079   1.311
 5770SOL    HW218210   4.721   2.046   1.447
 5771SOL     OW18211   1.202   0.418   1.716
 5771SOL    HW118212   1.161   0.509   1.724
 5771SOL    HW218213   1.270   0.419   1.642
 5772SOL     OW18214   6.149   4.926   5.289
 5772SOL    HW118215   6.145   4.826   5.283
 5772SOL    HW218216   6.102   4.966   5.211
 5773SOL     OW18217   5.006   6.512   4.735
 5773SOL    HW118218   5.096   6.473   4.751
 5773SOL    HW218219   4.937   6.440   4.741
 5774SOL     OW18220   1.544   4.817   1.948
 5774SOL    HW118221   1.538   4.797   2.046
 5774SOL    HW218222   1.638   4.803   1.917
 5775SOL     OW18223   0.697   0.824   0.931
 5775SOL    HW118224   0.752   0.902   0.903
 5775SOL    HW218225   0.732   0.787   1.017
 5776SOL     OW18226   5.029   0.933   5.709
 5776SOL    HW118227   5.121   0.968   5.724
 5776SOL    HW218228   4.968   1.008   5.683
 5777SOL     OW18229   5.567   6.458   4.600
 5777SOL    HW118230   5.511   6.505   4.668
 5777SOL    HW218231   5.621   6.387   4.645
 5778SOL     OW18232   2.561   6.744   3.882
 5778SOL    HW118233   2.551   6.677   3.808
 5778SOL    HW218234   2.474   6.792   3.895
 5779SOL     OW18235   3.812   6.887   2.128
 5779SOL    HW118236   3.742   6.856   2.192
 5779SOL    HW218237   3.888   6.928   2.179
 5780SOL     OW18238   6.805   4.463   7.013
 5780SOL    HW118239   6.888   4.505   6.975
 5780SOL    HW218240   6.736   4.456   6.941
 5781SOL     OW18241   4.318   4.685   5.911
 5781SOL    HW118242   4.373   4.630   5.849
 5781SOL    HW218243   4.221   4.662   5.899
 5782SOL     OW18244   5.097   1.670   2.799
 5782SOL    HW118245   5.132   1.745   2.855
 5782SOL    HW218246   5.044   1.706   2.723
 5783SOL     OW18247   3.217   6.324   3.220
 5783SOL    HW118248   3.253   6.359   3.134
 5783SOL    HW218249   3.265   6.239   3.244
 5784SOL     OW18250   0.711   6.744   2.468
 5784SOL    HW118251   0.775   6.771   2.540
 5784SOL    HW218252   0.749   6.766   2.379
 5785SOL     OW18253   2.502   1.078   6.313
 5785SOL    HW118254   2.524   0.998   6.258
 5785SOL    HW218255   2.552   1.074   6.400
 5786SOL     OW18256   2.230   1.475   0.017
 5786SOL    HW118257   2.283   1.557   7.012
 5786SOL    HW218258   2.292   1.404   0.050
 5787SOL     OW18259   0.900   2.034   6.149
 5787SOL    HW118260   0.973   1.986   6.100
 5787SOL    HW218261   0.934   2.064   6.239
 5788SOL     OW18262   0.490   2.746   1.500
 5788SOL    HW118263   0.547   2.663   1.497
 5788SOL    HW218264   0.396   2.722   1.478
 5789SOL     OW18265   2.946   0.707   0.434
 5789SOL    HW118266   2.985   0.657   0.357
 5789SOL    HW218267   3.018   0.725   0.502
 5790SOL     OW18268   6.432   6.072   2.221
 5790SOL    HW118269   6.526   6.083   2.189
 5790SOL    HW218270   6.369   6.113   2.154
 5791SOL     OW18271   3.745   0.792   0.804
 5791SOL    HW118272   3.675   0.803   0.875
 5791SOL    HW218273   3.733   0.705   0.758
 5792SOL     OW18274   4.245   1.869   2.793
 5792SOL    HW118275   4.282   1.881   2.701
 5792SOL    HW218276   4.194   1.783   2.798
 5793SOL     OW18277   4.956   2.252   0.822
 5793SOL    HW118278   5.011   2.183   0.869
 5793SOL    HW218279   4.932   2.325   0.886
 5794SOL     OW18280   3.285   6.121   7.017
 5794SOL    HW118281   3.350   6.048   0.014
 5794SOL    HW218282   3.330   6.194   6.965
 5795SOL     OW18283   1.150   0.940   1.855
 5795SOL    HW118284   1.233   0.995   1.859
 5795SOL    HW218285   1.091   0.973   1.782
 5796SOL     OW18286   4.726   0.941   5.969
 5796SOL    HW118287   4.717   0.921   6.067
 5796SOL    HW218288   4.789   0.875   5.928
 5797SOL     OW18289   5.761   1.517   0.332
 5797SOL    HW118290   5.668   1.481   0.321
 5797SOL    HW218291   5.819   1.482   0.258
 5798SOL     OW18292   2.238   2.804   4.786
 5798SOL    HW118293   2.156   2.823   4.731
 5798SOL    HW218294   2.214   2.805   4.883
 5799SOL     OW18295   2.773   0.694   3.828
 5799SOL    HW118296   2.797   0.629   3.756
 5799SOL    HW218297   2.808   0.661   3.916
 5800SOL     OW18298   1.607   6.077   1.419
 5800SOL    HW118299   1.586   5.980   1.433
 5800SOL    HW218300   1.563   6.132   1.490
 5801SOL     OW18301   1.372   2.544   3.196
 5801SOL    HW118302   1.403   2.554   3.102
 5801SOL    HW218303   1.447   2.565   3.259
 5802SOL     OW18304   0.089   6.931   2.787
 5802SOL    HW118305   0.049   7.004   2.732
 5802SOL    HW218306   0.097   6.961   2.882
 5803SOL     OW18307   0.353   6.441   4.441
 5803SOL    HW118308   0.351   6.354   4.392
 5803SOL    HW218309   0.336   6.426   4.538
 5804SOL     OW18310   5.631   2.390   3.157
 5804SOL    HW118311   5.618   2.466   3.093
 5804SOL    HW218312   5.664   2.426   3.244
 5805SOL     OW18313   0.913   2.427   1.415
 5805SOL    HW118314   0.895   2.416   1.318
 5805SOL    HW218315   0.996   2.480   1.429
 5806SOL     OW18316   6.723   4.388   1.289
 5806SOL    HW118317   6.789   4.397   1.363
 5806SOL    HW218318   6.763   4.331   1.217
 5807SOL     OW18319   0.617   0.777   2.950
 5807SOL    HW118320   0.610   0.759   3.048
 5807SOL    HW218321   0.658   0.699   2.904
 5808SOL     OW18322   6.320   5.142   5.658
 5808SOL    HW118323   6.396   5.195   5.695
 5808SOL    HW218324   6.354   5.072   5.595
 5809SOL     OW18325   6.584   3.328   4.889
 5809SOL    HW118326   6.638   3.381   4.824
 5809SOL    HW218327   6.644   3.274   4.947
 5810SOL     OW18328   0.718   6.321   5.252
 5810SOL    HW118329   0.630   6.369   5.259
 5810SOL    HW218330   0.791   6.381   5.284
 5811SOL     OW18331   3.276   5.099   0.492
 5811SOL    HW118332   3.185   5.060   0.505
 5811SOL    HW218333   3.329   5.091   0.576
 5812SOL     OW18334   6.517   1.869   6.209
 5812SOL    HW118335   6.491   1.780   6.248
 5812SOL    HW218336   6.615   1.883   6.222
 5813SOL     OW18337   6.413   5.531   0.907
 5813SOL    HW118338   6.424   5.508   1.004
 5813SOL    HW218339   6.317   5.550   0.887
 5814SOL     OW18340   4.968   1.780   2.563
 5814SOL    HW118341   4.950   1.854   2.498
 5814SOL    HW218342   4.928   1.695   2.530
 5815SOL     OW18343   6.964   4.526   4.785
 5815SOL    HW118344   7.009   4.475   4.859
 5815SOL    HW218345   6.879   4.567   4.820
 5816SOL     OW18346   6.869   4.148   1.208
 5816SOL    HW118347   6.951   4.147   1.265
 5816SOL    HW218348   6.807   4.074   1.237
 5817SOL     OW18349   6.628   2.754   3.822
 5817SOL    HW118350   6.678   2.835   3.791
 5817SOL    HW218351   6.631   2.749   3.922
 5818SOL     OW18352   2.342   0.814   4.033
 5818SOL    HW118353   2.399   0.770   3.964
 5818SOL    HW218354   2.389   0.814   4.121
 5819SOL     OW18355   4.145   4.670   1.456
 5819SOL    HW118356   4.070   4.622   1.501
 5819SOL    HW218357   4.232   4.639   1.496
 5820SOL     OW18358   0.245   6.742   2.450
 5820SOL    HW118359   0.192   6.826   2.438
 5820SOL    HW218360   0.311   6.733   2.376
 5821SOL     OW18361   4.958   6.136   1.876
 5821SOL    HW118362   4.930   6.214   1.932
 5821SOL    HW218363   4.987   6.061   1.934
 5822SOL     OW18364   1.030   3.513   3.868
 5822SOL    HW118365   1.019   3.454   3.788
 5822SOL    HW218366   1.079   3.596   3.841
 5823SOL     OW18367   2.588   6.476   4.892
 5823SOL    HW118368   2.577   6.543   4.819
 5823SOL    HW218369   2.605   6.386   4.853
 5824SOL     OW18370   2.202   5.800   2.396
 5824SOL    HW118371   2.203   5.817   2.297
 5824SOL    HW218372   2.288   5.756   2.423
 5825SOL     OW18373   3.542   2.110   4.549
 5825SOL    HW118374   3.600   2.080   4.624
 5825SOL    HW218375   3.449   2.125   4.583
 5826SOL     OW18376   1.518   6.036   5.586
 5826SOL    HW118377   1.515   5.959   5.522
 5826SOL    HW218378   1.571   6.010   5.667
 5827SOL     OW18379   2.038   4.201   3.997
 5827SOL    HW118380   2.103   4.275   3.977
 5827SOL    HW218381   2.057   4.164   4.088
 5828SOL     OW18382   4.601   0.220   5.209
 5828SOL    HW118383   4.606   0.292   5.278
 5828SOL    HW218384   4.506   0.209   5.179
 5829SOL     OW18385   1.853   1.494   2.743
 5829SOL    HW118386   1.903   1.571   2.784
 5829SOL    HW218387   1.755   1.508   2.758
 5830SOL     OW18388   5.375   5.126   4.746
 5830SOL    HW118389   5.350   5.124   4.649
 5830SOL    HW218390   5.335   5.046   4.792
 5831SOL     OW18391   2.838   1.933   4.100
 5831SOL    HW118392   2.793   1.859   4.150
 5831SOL    HW218393   2.769   1.995   4.063
 5832SOL     OW18394   2.849   5.082   3.382
 5832SOL    HW118395   2.807   5.060   3.471
 5832SOL    HW218396   2.941   5.117   3.396
 5833SOL     OW18397   2.238   4.773   1.782
 5833SOL    HW118398   2.263   4.690   1.732
 5833SOL    HW218399   2.147   4.802   1.756
 5834SOL     OW18400   5.763   1.934   6.448
 5834SOL    HW118401   5.862   1.928   6.447
 5834SOL    HW218402   5.725   1.849   6.486
 5835SOL     OW18403   3.663   0.530   3.520
 5835SOL    HW118404   3.635   0.488   3.434
 5835SOL    HW218405   3.602   0.607   3.541
 5836SOL     OW18406   5.582   4.993   1.412
 5836SOL    HW118407   5.682   4.990   1.410
 5836SOL    HW218408   5.546   4.900   1.419
 5837SOL     OW18409   1.987   3.919   0.119
 5837SOL    HW118410   1.932   3.966   0.050
 5837SOL    HW218411   2.037   3.986   0.173
 5838SOL     OW18412   2.803   3.088   0.984
 5838SOL    HW118413   2.765   3.116   0.896
 5838SOL    HW218414   2.877   3.022   0.969
 5839SOL     OW18415   2.770   1.719   1.106
 5839SOL    HW118416   2.686   1.773   1.102
 5839SOL    HW218417   2.755   1.639   1.164
 5840SOL     OW18418   6.259   3.752   2.166
 5840SOL    HW118419   6.196   3.774   2.091
 5840SOL    HW218420   6.230   3.667   2.210
 5841SOL     OW18421   4.861   1.883   0.619
 5841SOL    HW118422   4.881   1.785   0.628
 5841SOL    HW218423   4.822   1.916   0.705
 5842SOL     OW18424   3.578   2.080   2.294
 5842SOL    HW118425   3.570   1.999   2.236
 5842SOL    HW218426   3.627   2.151   2.245
 5843SOL     OW18427   3.163   2.561   1.430
 5843SOL    HW118428   3.109   2.497   1.483
 5843SOL    HW218429   3.214   2.511   1.359
 5844SOL     OW18430   6.557   5.509   5.423
 5844SOL    HW118431   6.488   5.437   5.423
 5844SOL    HW218432   6.571   5.542   5.517
 5845SOL     OW18433   2.252   5.831   3.045
 5845SOL    HW118434   2.220   5.761   2.980
 5845SOL    HW218435   2.325   5.884   3.003
 5846SOL     OW18436   0.777   4.290   5.442
 5846SOL    HW118437   0.771   4.384   5.475
 5846SOL    HW218438   0.739   4.283   5.350
 5847SOL     OW18439   2.284   3.671   5.418
 5847SOL    HW118440   2.368   3.703   5.460
 5847SOL    HW218441   2.218   3.647   5.489
 5848SOL     OW18442   2.906   6.736   1.663
 5848SOL    HW118443   2.824   6.792   1.669
 5848SOL    HW218444   2.920   6.707   1.568
 5849SOL     OW18445   2.636   5.999   6.558
 5849SOL    HW118446   2.580   6.027   6.636
 5849SOL    HW218447   2.641   5.899   6.554
 5850SOL     OW18448   5.384   2.363   1.281
 5850SOL    HW118449   5.445   2.409   1.345
 5850SOL    HW218450   5.406   2.265   1.278
 5851SOL     OW18451   1.127   2.767   6.017
 5851SOL    HW118452   1.125   2.779   6.116
 5851SOL    HW218453   1.082   2.845   5.973
 5852SOL     OW18454   4.109   5.005   3.371
 5852SOL    HW118455   4.056   4.922   3.391
 5852SOL    HW218456   4.139   5.047   3.456
 5853SOL     OW18457   4.048   4.548   6.599
 5853SOL    HW118458   3.985   4.474   6.620
 5853SOL    HW218459   4.142   4.518   6.613
 5854SOL     OW18460   2.701   4.322   5.429
 5854SOL    HW118461   2.636   4.266   5.378
 5854SOL    HW218462   2.789   4.324   5.381
 5855SOL     OW18463   1.736   2.064   4.433
 5855SOL    HW118464   1.805   2.019   4.490
 5855SOL    HW218465   1.732   2.018   4.344
 5856SOL     OW18466   0.559   0.826   2.221
 5856SOL    HW118467   0.618   0.841   2.301
 5856SOL    HW218468   0.505   0.743   2.235
 5857SOL     OW18469   6.358   5.565   6.552
 5857SOL    HW118470   6.385   5.520   6.467
 5857SOL    HW218471   6.373   5.503   6.629
 5858SOL     OW18472   2.621   1.616   1.702
 5858SOL    HW118473   2.625   1.566   1.615
 5858SOL    HW218474   2.714   1.633   1.735
 5859SOL     OW18475   5.930   5.168   1.436
 5859SOL    HW118476   5.847   5.221   1.423
 5859SOL    HW218477   6.003   5.205   1.378
 5860SOL     OW18478   1.906   2.682   1.704
 5860SOL    HW118479   1.899   2.696   1.605
 5860SOL    HW218480   1.818   2.701   1.747
 5861SOL     OW18481   5.321   7.004   4.539
 5861SOL    HW118482   5.396   6.960   4.489
 5861SOL    HW218483   5.250   0.012   4.474
 5862SOL     OW18484   0.729   5.133   1.224
 5862SOL    HW118485   0.734   5.133   1.124
 5862SOL    HW218486   0.638   5.163   1.253
 5863SOL     OW18487   4.044   6.754   6.055
 5863SOL    HW118488   3.972   6.821   6.072
 5863SOL    HW218489   4.083   6.725   6.143
 5864SOL     OW18490   3.505   3.574   3.518
 5864SOL    HW118491   3.443   3.630   3.464
 5864SOL    HW218492   3.458   3.543   3.601
 5865SOL     OW18493   6.808   6.322   1.398
 5865SOL    HW118494   6.752   6.302   1.318
 5865SOL    HW218495   6.858   6.407   1.384
 5866SOL     OW18496   2.964   3.441   4.260
 5866SOL    HW118497   3.000   3.533   4.248
 5866SOL    HW218498   2.952   3.422   4.357
 5867SOL     OW18499   4.478   0.954   0.728
 5867SOL    HW118500   4.425   0.957   0.644
 5867SOL    HW218501   4.417   0.938   0.806
 5868SOL     OW18502   1.554   1.033   0.602
 5868SOL    HW118503   1.610   1.069   0.527
 5868SOL    HW218504   1.569   1.088   0.684
 5869SOL     OW18505   2.067   5.076   3.856
 5869SOL    HW118506   2.054   5.167   3.896
 5869SOL    HW218507   2.060   5.007   3.928
 5870SOL     OW18508   3.866   6.488   3.401
 5870SOL    HW118509   3.875   6.524   3.494
 5870SOL    HW218510   3.837   6.561   3.340
 5871SOL     OW18511   3.588   2.899   3.340
 5871SOL    HW118512   3.585   2.942   3.430
 5871SOL    HW218513   3.671   2.928   3.292
 5872SOL     OW18514   3.752   5.309   1.535
 5872SOL    HW118515   3.675   5.354   1.489
 5872SOL    HW218516   3.838   5.346   1.499
 5873SOL     OW18517   4.108   6.825   2.645
 5873SOL    HW118518   4.168   6.848   2.568
 5873SOL    HW218519   4.112   6.727   2.662
 5874SOL     OW18520   0.181   3.446   4.355
 5874SOL    HW118521   0.203   3.533   4.400
 5874SOL    HW218522   0.136   3.385   4.419
 5875SOL     OW18523   4.981   2.843   1.149
 5875SOL    HW118524   4.993   2.942   1.146
 5875SOL    HW218525   5.003   2.804   1.059
 5876SOL     OW18526   3.264   3.394   2.963
 5876SOL    HW118527   3.244   3.426   3.056
 5876SOL    HW218528   3.183   3.351   2.924
 5877SOL     OW18529   4.734   4.329   1.527
 5877SOL    HW118530   4.688   4.389   1.592
 5877SOL    HW218531   4.831   4.320   1.552
 5878SOL     OW18532   0.041   3.469   1.538
 5878SOL    HW118533   0.049   3.521   1.452
 5878SOL    HW218534   0.061   3.373   1.520
 5879SOL     OW18535   1.695   4.413   4.981
 5879SOL    HW118536   1.633   4.346   4.940
 5879SOL    HW218537   1.774   4.365   5.020
 5880SOL     OW18538   2.559   4.946   0.279
 5880SOL    HW118539   2.575   4.928   0.182
 5880SOL    HW218540   2.526   5.039   0.290
 5881SOL     OW18541   1.596   6.522   4.317
 5881SOL    HW118542   1.549   6.591   4.262
 5881SOL    HW218543   1.647   6.566   4.391
 5882SOL     OW18544   4.949   0.930   3.354
 5882SOL    HW118545   4.873   0.954   3.294
 5882SOL    HW218546   4.988   0.843   3.325
 5883SOL     OW18547   0.704   3.373   5.582
 5883SOL    HW118548   0.720   3.283   5.541
 5883SOL    HW218549   0.791   3.410   5.616
 5884SOL     OW18550   6.991   1.272   3.574
 5884SOL    HW118551   0.032   1.345   3.604
 5884SOL    HW218552   6.937   1.239   3.651
 5885SOL     OW18553   6.119   6.152   0.480
 5885SOL    HW118554   6.165   6.238   0.458
 5885SOL    HW218555   6.182   6.093   0.530
 5886SOL     OW18556   5.792   1.776   5.649
 5886SOL    HW118557   5.736   1.806   5.726
 5886SOL    HW218558   5.864   1.714   5.682
 5887SOL     OW18559   3.196   0.108   2.390
 5887SOL    HW118560   3.142   0.031   2.358
 5887SOL    HW218561   3.151   0.194   2.368
 5888SOL     OW18562   6.279   6.283   1.776
 5888SOL    HW118563   6.309   6.218   1.706
 5888SOL    HW218564   6.322   6.372   1.758
 5889SOL     OW18565   3.069   6.943   0.675
 5889SOL    HW118566   3.054   0.004   0.732
 5889SOL    HW218567   3.022   6.954   0.587
 5890SOL     OW18568   4.386   5.268   6.171
 5890SOL    HW118569   4.462   5.205   6.158
 5890SOL    HW218570   4.351   5.258   6.265
 5891SOL     OW18571   2.228   2.782   6.693
 5891SOL    HW118572   2.204   2.845   6.767
 5891SOL    HW218573   2.241   2.834   6.609
 5892SOL     OW18574   2.799   5.510   1.685
 5892SOL    HW118575   2.800   5.411   1.672
 5892SOL    HW218576   2.730   5.533   1.754
 5893SOL     OW18577   1.044   2.915   2.027
 5893SOL    HW118578   1.056   2.868   1.940
 5893SOL    HW218579   1.058   2.850   2.102
 5894SOL     OW18580   1.745   3.777   3.557
 5894SOL    HW118581   1.788   3.735   3.476
 5894SOL    HW218582   1.814   3.827   3.608
 5895SOL     OW18583   5.250   5.134   2.614
 5895SOL    HW118584   5.248   5.174   2.705
 5895SOL    HW218585   5.203   5.046   2.615
 5896SOL     OW18586   5.946   1.512   5.648
 5896SOL    HW118587   6.039   1.549   5.656
 5896SOL    HW218588   5.928   1.487   5.553
 5897SOL     OW18589   4.481   4.453   0.733
 5897SOL    HW118590   4.438   4.502   0.809
 5897SOL    HW218591   4.497   4.516   0.657
 5898SOL     OW18592   1.558   5.802   2.713
 5898SOL    HW118593   1.513   5.891   2.715
 5898SOL    HW218594   1.645   5.810   2.664
 5899SOL     OW18595   5.154   0.709   3.364
 5899SOL    HW118596   5.195   0.773   3.429
 5899SOL    HW218597   5.199   0.719   3.275
 5900SOL     OW18598   3.706   5.191   1.778
 5900SOL    HW118599   3.724   5.270   1.837
 5900SOL    HW218600   3.724   5.216   1.683
 5901SOL     OW18601   3.171   6.523   3.410
 5901SOL    HW118602   3.168   6.443   3.350
 5901SOL    HW218603   3.145   6.497   3.503
 5902SOL     OW18604   5.849   2.393   6.930
 5902SOL    HW118605   5.936   2.396   6.882
 5902SOL    HW218606   5.843   2.472   6.992
 5903SOL     OW18607   0.658   1.943   6.258
 5903SOL    HW118608   0.724   1.991   6.200
 5903SOL    HW218609   0.673   1.967   6.353
 5904SOL     OW18610   0.844   3.110   1.538
 5904SOL    HW118611   0.771   3.108   1.470
 5904SOL    HW218612   0.889   3.021   1.542
 5905SOL     OW18613   6.921   3.692   2.292
 5905SOL    HW118614   6.980   3.693   2.211
 5905SOL    HW218615   6.915   3.785   2.330
 5906SOL     OW18616   6.410   1.250   3.397
 5906SOL    HW118617   6.407   1.346   3.370
 5906SOL    HW218618   6.491   1.233   3.453
 5907SOL     OW18619   1.642   1.014   2.578
 5907SOL    HW118620   1.629   1.064   2.492
 5907SOL    HW218621   1.553   0.990   2.617
 5908SOL     OW18622   0.623   2.833   5.607
 5908SOL    HW118623   0.631   2.734   5.620
 5908SOL    HW218624   0.711   2.877   5.630
 5909SOL     OW18625   6.940   4.327   6.318
 5909SOL    HW118626   6.911   4.231   6.315
 5909SOL    HW218627   0.014   4.333   6.353
 5910SOL     OW18628   1.590   1.687   3.454
 5910SOL    HW118629   1.672   1.634   3.433
 5910SOL    HW218630   1.594   1.776   3.409
 5911SOL     OW18631   5.933   5.441   6.613
 5911SOL    HW118632   5.868   5.367   6.631
 5911SOL    HW218633   6.021   5.402   6.589
 5912SOL     OW18634   0.979   1.733   2.281
 5912SOL    HW118635   0.889   1.777   2.289
 5912SOL    HW218636   0.980   1.673   2.201
 5913SOL     OW18637   0.125   3.723   1.006
 5913SOL    HW118638   0.095   3.663   0.932
 5913SOL    HW218639   0.195   3.676   1.060
 5914SOL     OW18640   1.435   6.689   0.811
 5914SOL    HW118641   1.469   6.607   0.764
 5914SOL    HW218642   1.390   6.662   0.896
 5915SOL     OW18643   4.231   0.431   4.988
 5915SOL    HW118644   4.322   0.454   5.023
 5915SOL    HW218645   4.164   0.438   5.062
 5916SOL     OW18646   0.850   0.254   2.920
 5916SOL    HW118647   0.780   0.197   2.877
 5916SOL    HW218648   0.941   0.217   2.901
 5917SOL     OW18649   3.369   3.465   0.364
 5917SOL    HW118650   3.340   3.525   0.439
 5917SOL    HW218651   3.417   3.386   0.402
 5918SOL     OW18652   3.471   6.650   4.710
 5918SOL    HW118653   3.440   6.633   4.617
 5918SOL    HW218654   3.405   6.708   4.757
 5919SOL     OW18655   3.065   3.527   4.925
 5919SOL    HW118656   3.137   3.489   4.982
 5919SOL    HW218657   3.106   3.593   4.860
 5920SOL     OW18658   1.350   0.274   5.376
 5920SOL    HW118659   1.324   0.269   5.280
 5920SOL    HW218660   1.302   0.349   5.421
 5921SOL     OW18661   2.655   4.565   1.058
 5921SOL    HW118662   2.693   4.590   0.969
 5921SOL    HW218663   2.704   4.615   1.130
 5922SOL     OW18664   4.881   2.881   2.510
 5922SOL    HW118665   4.811   2.839   2.453
 5922SOL    HW218666   4.919   2.961   2.464
 5923SOL     OW18667   6.012   1.134   2.475
 5923SOL    HW118668   6.083   1.099   2.537
 5923SOL    HW218669   5.944   1.185   2.527
 5924SOL     OW18670   0.184   6.100   3.309
 5924SOL    HW118671   0.108   6.036   3.317
 5924SOL    HW218672   0.179   6.166   3.384
 5925SOL     OW18673   4.421   0.693   0.937
 5925SOL    HW118674   4.439   0.598   0.965
 5925SOL    HW218675   4.331   0.698   0.895
 5926SOL     OW18676   4.879   3.434   3.512
 5926SOL    HW118677   4.845   3.526   3.531
 5926SOL    HW218678   4.887   3.382   3.598
 5927SOL     OW18679   1.412   0.279   1.519
 5927SOL    HW118680   1.469   0.235   1.449
 5927SOL    HW218681   1.468   0.302   1.598
 5928SOL     OW18682   2.765   0.054   0.249
 5928SOL    HW118683   2.699   0.032   0.321
 5928SOL    HW218684   2.723   0.039   0.159
 5929SOL     OW18685   0.747   1.165   1.424
 5929SOL    HW118686   0.764   1.190   1.329
 5929SOL    HW218687   0.796   1.081   1.446
 5930SOL     OW18688   0.740   4.905   1.714
 5930SOL    HW118689   0.818   4.849   1.738
 5930SOL    HW218690   0.684   4.921   1.795
 5931SOL     OW18691   4.790   0.320   4.512
 5931SOL    HW118692   4.840   0.235   4.498
 5931SOL    HW218693   4.833   0.393   4.460
 5932SOL     OW18694   3.204   5.820   0.652
 5932SOL    HW118695   3.160   5.898   0.609
 5932SOL    HW218696   3.205   5.743   0.588
 5933SOL     OW18697   6.752   5.942   4.177
 5933SOL    HW118698   6.729   5.870   4.241
 5933SOL    HW218699   6.676   6.007   4.171
 5934SOL     OW18700   3.266   4.383   6.992
 5934SOL    HW118701   3.254   4.365   0.069
 5934SOL    HW218702   3.177   4.374   6.945
 5935SOL     OW18703   1.782   0.913   5.501
 5935SOL    HW118704   1.733   0.932   5.416
 5935SOL    HW218705   1.717   0.903   5.576
 5936SOL     OW18706   4.040   3.068   2.061
 5936SOL    HW118707   4.130   3.057   2.020
 5936SOL    HW218708   3.979   2.996   2.027
 5937SOL     OW18709   0.888   2.657   0.359
 5937SOL    HW118710   0.917   2.563   0.341
 5937SOL    HW218711   0.842   2.694   0.278
 5938SOL     OW18712   0.479   3.400   4.091
 5938SOL    HW118713   0.387   3.364   4.107
 5938SOL    HW218714   0.490   3.418   3.993
 5939SOL     OW18715   4.965   1.461   6.205
 5939SOL    HW118716   5.029   1.484   6.278
 5939SOL    HW218717   4.993   1.375   6.162
 5940SOL     OW18718   5.168   4.904   1.182
 5940SOL    HW118719   5.175   4.815   1.137
 5940SOL    HW218720   5.151   4.974   1.113
 5941SOL     OW18721   1.630   1.285   3.128
 5941SOL    HW118722   1.711   1.228   3.140
 5941SOL    HW218723   1.658   1.380   3.115
 5942SOL     OW18724   4.722   2.071   6.261
 5942SOL    HW118725   4.813   2.083   6.299
 5942SOL    HW218726   4.662   2.143   6.297
 5943SOL     OW18727   1.910   4.204   2.267
 5943SOL    HW118728   1.859   4.281   2.231
 5943SOL    HW218729   1.854   4.121   2.261
 5944SOL     OW18730   7.015   3.357   5.722
 5944SOL    HW118731   0.070   3.423   5.719
 5944SOL    HW218732   6.935   3.400   5.766
 5945SOL     OW18733   0.210   6.843   4.172
 5945SOL    HW118734   0.129   6.797   4.134
 5945SOL    HW218735   0.283   6.776   4.187
 5946SOL     OW18736   3.134   2.948   6.497
 5946SOL    HW118737   3.089   2.883   6.558
 5946SOL    HW218738   3.087   3.036   6.502
 5947SOL     OW18739   3.506   3.834   5.400
 5947SOL    HW118740   3.433   3.778   5.360
 5947SOL    HW218741   3.517   3.810   5.497
 5948SOL     OW18742   4.610   3.866   1.719
 5948SOL    HW118743   4.647   3.959   1.719
 5948SOL    HW218744   4.521   3.866   1.673
 5949SOL     OW18745   1.647   4.705   4.189
 5949SOL    HW118746   1.719   4.680   4.252
 5949SOL    HW218747   1.649   4.644   4.109
 5950SOL     OW18748   1.761   6.627   5.006
 5950SOL    HW118749   1.811   6.660   5.086
 5950SOL    HW218750   1.665   6.652   5.013
 5951SOL     OW18751   0.007   3.065   6.593
 5951SOL    HW118752   0.002   3.164   6.607
 5951SOL    HW218753   6.969   3.019   6.661
 5952SOL     OW18754   3.526   4.166   1.945
 5952SOL    HW118755   3.499   4.242   2.004
 5952SOL    HW218756   3.446   4.130   1.897
 5953SOL     OW18757   6.552   2.815   6.995
 5953SOL    HW118758   6.586   2.832   0.067
 5953SOL    HW218759   6.620   2.765   6.942
 5954SOL     OW18760   2.780   5.027   3.639
 5954SOL    HW118761   2.829   4.949   3.678
 5954SOL    HW218762   2.693   4.995   3.601
 5955SOL     OW18763   4.395   2.509   0.476
 5955SOL    HW118764   4.437   2.597   0.495
 5955SOL    HW218765   4.438   2.438   0.532
 5956SOL     OW18766   4.106   2.514   6.841
 5956SOL    HW118767   4.166   2.593   6.832
 5956SOL    HW218768   4.038   2.530   6.912
 5957SOL     OW18769   0.006   2.576   3.820
 5957SOL    HW118770   6.997   2.616   3.734
 5957SOL    HW218771   0.071   2.502   3.802
 5958SOL     OW18772   2.275   6.217   2.151
 5958SOL    HW118773   2.300   6.157   2.075
 5958SOL    HW218774   2.292   6.312   2.126
 5959SOL     OW18775   4.890   4.599   3.088
 5959SOL    HW118776   4.917   4.694   3.071
 5959SOL    HW218777   4.949   4.560   3.158
 5960SOL     OW18778   6.105   6.935   6.805
 5960SOL    HW118779   6.170   6.885   6.746
 5960SOL    HW218780   6.033   6.873   6.835
 5961SOL     OW18781   1.630   1.955   3.372
 5961SOL    HW118782   1.557   2.022   3.384
 5961SOL    HW218783   1.713   2.001   3.341
 5962SOL     OW18784   5.060   5.232   0.336
 5962SOL    HW118785   5.021   5.270   0.420
 5962SOL    HW218786   5.152   5.198   0.355
 5963SOL     OW18787   2.180   4.160   1.000
 5963SOL    HW118788   2.225   4.105   1.070
 5963SOL    HW218789   2.247   4.188   0.931
 5964SOL     OW18790   1.751   6.586   3.953
 5964SOL    HW118791   1.788   6.622   3.868
 5964SOL    HW218792   1.801   6.625   4.031
 5965SOL     OW18793   2.088   0.249   1.613
 5965SOL    HW118794   2.137   0.285   1.692
 5965SOL    HW218795   2.009   0.307   1.594
 5966SOL     OW18796   2.796   1.971   5.685
 5966SOL    HW118797   2.847   1.897   5.728
 5966SOL    HW218798   2.831   1.987   5.592
 5967SOL     OW18799   4.633   2.317   5.631
 5967SOL    HW118800   4.729   2.340   5.620
 5967SOL    HW218801   4.578   2.401   5.635
 5968SOL     OW18802   6.349   2.120   3.156
 5968SOL    HW118803   6.315   2.175   3.080
 5968SOL    HW218804   6.448   2.133   3.165
 5969SOL     OW18805   4.993   6.509   1.797
 5969SOL    HW118806   4.983   6.440   1.726
 5969SOL    HW218807   5.084   6.501   1.838
 5970SOL     OW18808   5.828   1.948   0.349
 5970SOL    HW118809   5.925   1.966   0.335
 5970SOL    HW218810   5.816   1.859   0.392
 5971SOL     OW18811   6.894   5.278   3.619
 5971SOL    HW118812   6.847   5.293   3.532
 5971SOL    HW218813   6.934   5.364   3.650
 5972SOL     OW18814   5.998   4.997   0.319
 5972SOL    HW118815   5.975   4.900   0.332
 5972SOL    HW218816   5.999   5.043   0.408
 5973SOL     OW18817   3.448   0.993   1.971
 5973SOL    HW118818   3.368   0.933   1.972
 5973SOL    HW218819   3.477   1.011   2.065
 5974SOL     OW18820   5.237   1.153   4.355
 5974SOL    HW118821   5.265   1.150   4.259
 5974SOL    HW218822   5.190   1.240   4.373
 5975SOL     OW18823   3.909   4.582   0.430
 5975SOL    HW118824   3.901   4.664   0.373
 5975SOL    HW218825   3.817   4.553   0.457
 5976SOL     OW18826   0.874   2.157   6.404
 5976SOL    HW118827   0.825   2.215   6.469
 5976SOL    HW218828   0.939   2.212   6.352
 5977SOL     OW18829   0.896   5.461   1.580
 5977SOL    HW118830   0.905   5.455   1.679
 5977SOL    HW218831   0.958   5.531   1.545
 5978SOL     OW18832   2.859   3.852   6.275
 5978SOL    HW118833   2.906   3.803   6.201
 5978SOL    HW218834   2.908   3.837   6.361
 5979SOL     OW18835   5.672   0.837   1.594
 5979SOL    HW118836   5.769   0.855   1.612
 5979SOL    HW218837   5.663   0.752   1.544
 5980SOL     OW18838   3.677   2.554   0.853
 5980SOL    HW118839   3.598   2.517   0.804
 5980SOL    HW218840   3.731   2.610   0.790
 5981SOL     OW18841   4.220   2.234   0.917
 5981SOL    HW118842   4.260   2.260   0.829
 5981SOL    HW218843   4.124   2.262   0.920
 5982SOL     OW18844   5.523   2.751   1.395
 5982SOL    HW118845   5.563   2.702   1.318
 5982SOL    HW218846   5.449   2.810   1.363
 5983SOL     OW18847   6.741   1.473   3.746
 5983SOL    HW118848   6.755   1.386   3.699
 5983SOL    HW218849   6.824   1.529   3.737
 5984SOL     OW18850   6.225   5.833   1.440
 5984SOL    HW118851   6.222   5.782   1.526
 5984SOL    HW218852   6.211   5.930   1.458
 5985SOL     OW18853   0.161   4.446   2.736
 5985SOL    HW118854   0.158   4.497   2.822
 5985SOL    HW218855   0.087   4.477   2.676
 5986SOL     OW18856   3.975   3.161   2.773
 5986SOL    HW118857   3.998   3.150   2.677
 5986SOL    HW218858   3.935   3.077   2.808
 5987SOL     OW18859   0.131   6.251   4.542
 5987SOL    HW118860   0.074   6.273   4.464
 5987SOL    HW218861   0.205   6.190   4.514
 5988SOL     OW18862   2.005   2.193   0.647
 5988SOL    HW118863   2.029   2.287   0.669
 5988SOL    HW218864   1.906   2.181   0.654
 5989SOL     OW18865   2.560   6.877   5.763
 5989SOL    HW118866   2.476   6.839   5.725
 5989SOL    HW218867   2.640   6.834   5.721
 5990SOL     OW18868   2.230   3.805   1.638
 5990SOL    HW118869   2.148   3.807   1.695
 5990SOL    HW218870   2.287   3.884   1.658
 5991SOL     OW18871   5.110   1.228   0.574
 5991SOL    HW118872   5.118   1.130   0.594
 5991SOL    HW218873   5.180   1.277   0.626
 5992SOL     OW18874   2.644   4.684   3.279
 5992SOL    HW118875   2.648   4.657   3.183
 5992SOL    HW218876   2.737   4.698   3.313
 5993SOL     OW18877   5.338   1.296   0.425
 5993SOL    HW118878   5.375   1.375   0.375
 5993SOL    HW218879   5.238   1.304   0.431
 5994SOL     OW18880   0.981   4.476   1.034
 5994SOL    HW118881   0.929   4.550   1.076
 5994SOL    HW218882   0.931   4.442   0.954
 5995SOL     OW18883   5.619   4.522   0.978
 5995SOL    HW118884   5.616   4.509   0.879
 5995SOL    HW218885   5.697   4.579   1.002
 5996SOL     OW18886   2.208   0.540   1.828
 5996SOL    HW118887   2.140   0.563   1.758
 5996SOL    HW218888   2.299   0.569   1.797
 5997SOL     OW18889   6.360   0.423   4.511
 5997SOL    HW118890   6.373   0.519   4.535
 5997SOL    HW218891   6.331   0.372   4.592
 5998SOL     OW18892   6.170   6.333   6.844
 5998SOL    HW118893   6.205   6.417   6.885
 5998SOL    HW218894   6.086   6.353   6.794
 5999SOL     OW18895   5.506   3.990   0.911
 5999SOL    HW118896   5.553   4.069   0.872
 5999SOL    HW218897   5.432   4.021   0.970
 6000SOL     OW18898   0.771   5.161   2.003
 6000SOL    HW118899   0.769   5.175   2.102
 6000SOL    HW218900   0.693   5.105   1.975
 6001SOL     OW18901   0.099   6.313   5.756
 6001SOL    HW118902   0.141   6.342   5.842
 6001SOL    HW218903   0.164   6.258   5.704
 6002SOL     OW18904   5.636   4.725   4.766
 6002SOL    HW118905   5.651   4.817   4.731
 6002SOL    HW218906   5.719   4.671   4.757
 6003SOL     OW18907   2.717   1.153   5.298
 6003SOL    HW118908   2.689   1.114   5.386
 6003SOL    HW218909   2.719   1.253   5.305
 6004SOL     OW18910   5.434   3.115   5.077
 6004SOL    HW118911   5.425   3.031   5.129
 6004SOL    HW218912   5.470   3.095   4.985
 6005SOL     OW18913   3.903   3.805   0.238
 6005SOL    HW118914   3.941   3.783   0.148
 6005SOL    HW218915   3.808   3.775   0.242
 6006SOL     OW18916   2.803   6.215   5.848
 6006SOL    HW118917   2.829   6.292   5.790
 6006SOL    HW218918   2.704   6.213   5.859
 6007SOL     OW18919   3.317   6.608   4.487
 6007SOL    HW118920   3.238   6.663   4.515
 6007SOL    HW218921   3.287   6.519   4.455
 6008SOL     OW18922   2.242   3.944   6.807
 6008SOL    HW118923   2.154   3.897   6.807
 6008SOL    HW218924   2.309   3.890   6.755
 6009SOL     OW18925   2.202   5.437   2.486
 6009SOL    HW118926   2.173   5.480   2.401
 6009SOL    HW218927   2.125   5.387   2.526
 6010SOL     OW18928   0.215   5.255   6.006
 6010SOL    HW118929   0.199   5.334   6.065
 6010SOL    HW218930   0.139   5.245   5.941
 6011SOL     OW18931   5.637   2.102   3.212
 6011SOL    HW118932   5.642   2.202   3.210
 6011SOL    HW218933   5.728   2.065   3.229
 6012SOL     OW18934   6.414   0.952   5.562
 6012SOL    HW118935   6.425   1.051   5.554
 6012SOL    HW218936   6.357   0.932   5.642
 6013SOL     OW18937   5.906   1.589   2.690
 6013SOL    HW118938   5.966   1.658   2.729
 6013SOL    HW218939   5.881   1.616   2.596
 6014SOL     OW18940   4.109   3.603   4.067
 6014SOL    HW118941   4.122   3.504   4.064
 6014SOL    HW218942   4.091   3.637   3.975
 6015SOL     OW18943   6.836   0.528   3.307
 6015SOL    HW118944   6.755   0.586   3.316
 6015SOL    HW218945   6.837   0.461   3.381
 6016SOL     OW18946   4.196   1.709   4.265
 6016SOL    HW118947   4.139   1.743   4.190
 6016SOL    HW218948   4.283   1.675   4.230
 6017SOL     OW18949   1.414   2.571   4.978
 6017SOL    HW118950   1.364   2.487   5.001
 6017SOL    HW218951   1.512   2.556   4.993
 6018SOL     OW18952   2.142   0.828   3.833
 6018SOL    HW118953   2.186   0.846   3.920
 6018SOL    HW218954   2.174   0.894   3.765
 6019SOL     OW18955   6.649   3.198   6.449
 6019SOL    HW118956   6.589   3.161   6.378
 6019SOL    HW218957   6.605   3.188   6.538
 6020SOL     OW18958   0.726   5.824   4.632
 6020SOL    HW118959   0.631   5.822   4.600
 6020SOL    HW218960   0.763   5.732   4.632
 6021SOL     OW18961   4.997   0.141   3.905
 6021SOL    HW118962   4.985   0.071   3.834
 6021SOL    HW218963   4.942   0.117   3.985
 6022SOL     OW18964   6.574   3.948   0.927
 6022SOL    HW118965   6.580   3.883   1.003
 6022SOL    HW218966   6.491   4.003   0.937
 6023SOL     OW18967   4.136   0.016   2.815
 6023SOL    HW118968   4.195   6.987   2.878
 6023SOL    HW218969   4.070   6.973   2.775
 6024SOL     OW18970   0.507   6.654   6.942
 6024SOL    HW118971   0.494   6.646   6.843
 6024SOL    HW218972   0.502   6.563   6.984
 6025SOL     OW18973   3.814   0.577   6.035
 6025SOL    HW118974   3.867   0.658   6.057
 6025SOL    HW218975   3.862   0.496   6.070
 6026SOL     OW18976   5.158   6.030   3.584
 6026SOL    HW118977   5.162   6.059   3.679
 6026SOL    HW218978   5.088   5.960   3.573
 6027SOL     OW18979   6.356   4.014   5.338
 6027SOL    HW118980   6.321   3.920   5.339
 6027SOL    HW218981   6.293   4.073   5.390
 6028SOL     OW18982   5.764   5.675   6.596
 6028SOL    HW118983   5.833   5.607   6.619
 6028SOL    HW218984   5.695   5.635   6.536
 6029SOL     OW18985   2.573   1.380   2.435
 6029SOL    HW118986   2.559   1.444   2.359
 6029SOL    HW218987   2.655   1.325   2.419
 6030SOL     OW18988   6.100   2.973   4.812
 6030SOL    HW118989   6.019   2.973   4.753
 6030SOL    HW218990   6.176   3.016   4.764
 6031SOL     OW18991   0.071   0.400   3.673
 6031SOL    HW118992   0.139   0.328   3.689
 6031SOL    HW218993   0.118   0.487   3.659
 6032SOL     OW18994   3.190   6.669   2.935
 6032SOL    HW118995   3.189   6.734   3.010
 6032SOL    HW218996   3.245   6.590   2.960
 6033SOL     OW18997   0.902   1.256   2.853
 6033SOL    HW118998   0.832   1.324   2.873
 6033SOL    HW218999   0.977   1.298   2.803
 6034SOL     OW19000   0.778   0.562   0.863
 6034SOL    HW119001   0.755   0.658   0.882
 6034SOL    HW219002   0.694   0.509   0.858
 6035SOL     OW19003   1.839   1.399   2.463
 6035SOL    HW119004   1.845   1.431   2.557
 6035SOL    HW219005   1.820   1.476   2.402
 6036SOL     OW19006   0.271   3.834   0.580
 6036SOL    HW119007   0.338   3.763   0.560
 6036SOL    HW219008   0.179   3.797   0.571
 6037SOL     OW19009   4.731   0.677   6.507
 6037SOL    HW119010   4.737   0.767   6.550
 6037SOL    HW219011   4.635   0.657   6.485
 6038SOL     OW19012   2.144   1.088   7.003
 6038SOL    HW119013   2.125   0.995   0.016
 6038SOL    HW219014   2.074   1.151   0.016
 6039SOL     OW19015   3.625   2.894   4.468
 6039SOL    HW119016   3.606   2.796   4.460
 6039SOL    HW219017   3.539   2.944   4.479
 6040SOL     OW19018   6.802   1.204   0.883
 6040SOL    HW119019   6.888   1.170   0.846
 6040SOL    HW219020   6.821   1.270   0.956
 6041SOL     OW19021   0.376   3.021   4.635
 6041SOL    HW119022   0.392   3.119   4.640
 6041SOL    HW219023   0.455   2.975   4.594
 6042SOL     OW19024   2.860   6.103   3.661
 6042SOL    HW119025   2.891   6.129   3.569
 6042SOL    HW219026   2.760   6.101   3.664
 6043SOL     OW19027   2.120   5.276   1.568
 6043SOL    HW119028   2.190   5.238   1.628
 6043SOL    HW219029   2.046   5.315   1.623
 6044SOL     OW19030   6.859   3.969   0.213
 6044SOL    HW119031   6.922   3.925   0.276
 6044SOL    HW219032   6.875   4.068   0.212
 6045SOL     OW19033   4.829   1.683   3.944
 6045SOL    HW119034   4.899   1.659   4.011
 6045SOL    HW219035   4.809   1.780   3.949
 6046SOL     OW19036   3.384   3.858   2.576
 6046SOL    HW119037   3.293   3.816   2.578
 6046SOL    HW219038   3.375   3.957   2.587
 6047SOL     OW19039   7.017   1.345   0.078
 6047SOL    HW119040   6.921   1.356   0.050
 6047SOL    HW219041   0.004   1.355   0.177
 6048SOL     OW19042   6.374   5.730   3.618
 6048SOL    HW119043   6.297   5.781   3.657
 6048SOL    HW219044   6.413   5.782   3.542
 6049SOL     OW19045   5.180   4.548   6.850
 6049SOL    HW119046   5.229   4.465   6.822
 6049SOL    HW219047   5.239   4.627   6.837
 6050SOL     OW19048   2.026   5.258   2.931
 6050SOL    HW119049   1.988   5.335   2.983
 6050SOL    HW219050   1.959   5.183   2.929
 6051SOL     OW19051   0.834   1.679   2.566
 6051SOL    HW119052   0.810   1.647   2.474
 6051SOL    HW219053   0.826   1.779   2.570
 6052SOL     OW19054   5.193   5.949   6.634
 6052SOL    HW119055   5.257   5.890   6.684
 6052SOL    HW219056   5.099   5.923   6.658
 6053SOL     OW19057   3.671   1.942   5.766
 6053SOL    HW119058   3.654   1.909   5.673
 6053SOL    HW219059   3.589   1.927   5.822
 6054SOL     OW19060   4.359   3.783   6.362
 6054SOL    HW119061   4.426   3.827   6.301
 6054SOL    HW219062   4.394   3.784   6.456
 6055SOL     OW19063   2.780   4.456   1.363
 6055SOL    HW119064   2.741   4.365   1.351
 6055SOL    HW219065   2.750   4.494   1.450
 6056SOL     OW19066   5.090   6.515   3.041
 6056SOL    HW119067   5.109   6.562   2.955
 6056SOL    HW219068   5.066   6.581   3.112
 6057SOL     OW19069   5.790   1.186   3.993
 6057SOL    HW119070   5.740   1.162   4.077
 6057SOL    HW219071   5.760   1.127   3.918
 6058SOL     OW19072   6.822   3.125   6.155
 6058SOL    HW119073   6.727   3.152   6.137
 6058SOL    HW219074   6.823   3.047   6.218
 6059SOL     OW19075   4.400   2.456   6.417
 6059SOL    HW119076   4.383   2.522   6.490
 6059SOL    HW219077   4.402   2.504   6.329
 6060SOL     OW19078   2.286   2.399   1.249
 6060SOL    HW119079   2.382   2.393   1.223
 6060SOL    HW219080   2.273   2.353   1.337
 6061SOL     OW19081   2.498   4.667   6.904
 6061SOL    HW119082   2.529   4.691   6.812
 6061SOL    HW219083   2.399   4.654   6.904
 6062SOL     OW19084   2.099   2.583   5.788
 6062SOL    HW119085   2.131   2.572   5.694
 6062SOL    HW219086   2.103   2.495   5.835
 6063SOL     OW19087   4.574   3.886   6.218
 6063SOL    HW119088   4.635   3.965   6.212
 6063SOL    HW219089   4.618   3.813   6.269
 6064SOL     OW19090   5.879   5.754   0.181
 6064SOL    HW119091   5.817   5.783   0.253
 6064SOL    HW219092   5.888   5.826   0.112
 6065SOL     OW19093   1.751   5.759   1.275
 6065SOL    HW119094   1.665   5.785   1.319
 6065SOL    HW219095   1.770   5.822   1.199
 6066SOL     OW19096   5.882   5.674   2.110
 6066SOL    HW119097   5.886   5.637   2.203
 6066SOL    HW219098   5.788   5.698   2.087
 6067SOL     OW19099   6.748   4.595   5.376
 6067SOL    HW119100   6.668   4.536   5.388
 6067SOL    HW219101   6.814   4.577   5.448
 6068SOL     OW19102   4.089   2.149   3.732
 6068SOL    HW119103   4.153   2.188   3.666
 6068SOL    HW219104   4.016   2.216   3.751
 6069SOL     OW19105   0.744   5.006   5.165
 6069SOL    HW119106   0.713   5.099   5.143
 6069SOL    HW219107   0.712   4.982   5.257
 6070SOL     OW19108   2.578   1.083   1.016
 6070SOL    HW119109   2.572   1.182   1.006
 6070SOL    HW219110   2.658   1.049   0.966
 6071SOL     OW19111   6.099   0.246   6.264
 6071SOL    HW119112   6.170   0.253   6.194
 6071SOL    HW219113   6.136   0.201   6.345
 6072SOL     OW19114   6.840   3.123   0.279
 6072SOL    HW119115   6.859   3.031   0.244
 6072SOL    HW219116   6.762   3.162   0.230
 6073SOL     OW19117   4.479   4.111   0.274
 6073SOL    HW119118   4.467   4.071   0.364
 6073SOL    HW219119   4.422   4.063   0.208
 6074SOL     OW19120   1.318   6.006   2.723
 6074SOL    HW119121   1.219   6.018   2.726
 6074SOL    HW219122   1.360   6.082   2.674
 6075SOL     OW19123   6.060   0.344   6.709
 6075SOL    HW119124   6.013   0.262   6.745
 6075SOL    HW219125   6.141   0.316   6.659
 6076SOL     OW19126   0.080   6.545   3.141
 6076SOL    HW119127   0.148   6.472   3.141
 6076SOL    HW219128   7.012   6.509   3.108
 6077SOL     OW19129   5.396   6.132   2.738
 6077SOL    HW119130   5.301   6.161   2.754
 6077SOL    HW219131   5.450   6.210   2.707
 6078SOL     OW19132   5.819   4.540   0.207
 6078SOL    HW119133   5.898   4.481   0.193
 6078SOL    HW219134   5.737   4.495   0.171
 6079SOL     OW19135   3.578   1.784   0.163
 6079SOL    HW119136   3.659   1.752   0.213
 6079SOL    HW219137   3.526   1.705   0.131
 6080SOL     OW19138   6.578   3.702   5.434
 6080SOL    HW119139   6.499   3.739   5.386
 6080SOL    HW219140   6.652   3.770   5.435
 6081SOL     OW19141   2.115   3.838   4.562
 6081SOL    HW119142   2.141   3.782   4.484
 6081SOL    HW219143   2.165   3.809   4.644
 6082SOL     OW19144   3.948   0.918   0.686
 6082SOL    HW119145   3.861   0.869   0.694
 6082SOL    HW219146   3.969   0.964   0.772
 6083SOL     OW19147   5.028   0.665   5.476
 6083SOL    HW119148   5.069   0.590   5.527
 6083SOL    HW219149   4.953   0.630   5.419
 6084SOL     OW19150   6.626   4.833   3.192
 6084SOL    HW119151   6.563   4.784   3.132
 6084SOL    HW219152   6.597   4.928   3.202
 6085SOL     OW19153   0.638   6.370   1.137
 6085SOL    HW119154   0.638   6.391   1.040
 6085SOL    HW219155   0.582   6.288   1.153
 6086SOL     OW19156   4.657   3.504   0.646
 6086SOL    HW119157   4.683   3.565   0.721
 6086SOL    HW219158   4.577   3.450   0.672
 6087SOL     OW19159   4.008   0.397   0.577
 6087SOL    HW119160   4.049   0.306   0.564
 6087SOL    HW219161   3.910   0.392   0.558
 6088SOL     OW19162   3.708   5.899   2.663
 6088SOL    HW119163   3.702   5.901   2.763
 6088SOL    HW219164   3.750   5.814   2.634
 6089SOL     OW19165   6.168   5.628   2.915
 6089SOL    HW119166   6.120   5.543   2.936
 6089SOL    HW219167   6.232   5.649   2.989
 6090SOL     OW19168   3.748   5.726   4.736
 6090SOL    HW119169   3.662   5.715   4.785
 6090SOL    HW219170   3.824   5.696   4.794
 6091SOL     OW19171   0.589   2.977   1.936
 6091SOL    HW119172   0.637   2.974   1.849
 6091SOL    HW219173   0.641   3.032   2.002
 6092SOL     OW19174   1.919   6.772   0.894
 6092SOL    HW119175   1.921   6.721   0.808
 6092SOL    HW219176   1.826   6.776   0.929
 6093SOL     OW19177   3.472   3.164   2.569
 6093SOL    HW119178   3.469   3.213   2.656
 6093SOL    HW219179   3.380   3.159   2.531
 6094SOL     OW19180   0.669   6.986   5.899
 6094SOL    HW119181   0.597   0.010   5.846
 6094SOL    HW219182   0.730   6.936   5.838
 6095SOL     OW19183   5.056   5.460   2.274
 6095SOL    HW119184   4.988   5.394   2.308
 6095SOL    HW219185   5.090   5.515   2.350
 6096SOL     OW19186   5.036   5.999   2.771
 6096SOL    HW119187   5.081   6.088   2.782
 6096SOL    HW219188   5.038   5.950   2.858
 6097SOL     OW19189   2.641   5.151   1.517
 6097SOL    HW119190   2.582   5.225   1.486
 6097SOL    HW219191   2.714   5.188   1.574
 6098SOL     OW19192   5.818   1.411   5.147
 6098SOL    HW119193   5.752   1.383   5.078
 6098SOL    HW219194   5.902   1.358   5.137
 6099SOL     OW19195   3.778   0.012   5.298
 6099SOL    HW119196   3.742   7.004   5.387
 6099SOL    HW219197   3.702   0.032   5.236
 6100SOL     OW19198   0.193   5.444   6.179
 6100SOL    HW119199   0.206   5.542   6.162
 6100SOL    HW219200   0.120   5.431   6.246
 6101SOL     OW19201   0.707   2.691   0.868
 6101SOL    HW119202   0.661   2.723   0.951
 6101SOL    HW219203   0.689   2.755   0.793
 6102SOL     OW19204   2.955   0.483   2.850
 6102SOL    HW119205   2.909   0.571   2.840
 6102SOL    HW219206   3.029   0.491   2.917
 6103SOL     OW19207   5.915   0.453   2.260
 6103SOL    HW119208   5.885   0.442   2.354
 6103SOL    HW219209   5.880   0.540   2.224
 6104SOL     OW19210   6.155   1.180   4.895
 6104SOL    HW119211   6.162   1.258   4.833
 6104SOL    HW219212   6.181   1.096   4.846
 6105SOL     OW19213   3.801   4.917   6.409
 6105SOL    HW119214   3.772   4.943   6.501
 6105SOL    HW219215   3.810   4.817   6.404
 6106SOL     OW19216   6.525   4.142   4.869
 6106SOL    HW119217   6.600   4.155   4.804
 6106SOL    HW219218   6.457   4.080   4.829
 6107SOL     OW19219   5.996   5.107   5.108
 6107SOL    HW119220   5.972   5.159   5.190
 6107SOL    HW219221   5.960   5.154   5.028
 6108SOL     OW19222   3.191   0.550   6.175
 6108SOL    HW119223   3.158   0.497   6.097
 6108SOL    HW219224   3.121   0.614   6.205
 6109SOL     OW19225   6.919   6.544   4.039
 6109SOL    HW119226   6.869   6.630   4.043
 6109SOL    HW219227   6.970   6.531   4.124
 6110SOL     OW19228   1.137   1.927   3.744
 6110SOL    HW119229   1.096   1.974   3.666
 6110SOL    HW219230   1.069   1.866   3.785
 6111SOL     OW19231   3.005   2.865   0.879
 6111SOL    HW119232   2.972   2.805   0.806
 6111SOL    HW219233   2.982   2.824   0.968
 6112SOL     OW19234   4.925   6.453   3.777
 6112SOL    HW119235   4.886   6.522   3.838
 6112SOL    HW219236   5.008   6.416   3.818
 6113SOL     OW19237   3.210   5.285   1.092
 6113SOL    HW119238   3.147   5.242   1.028
 6113SOL    HW219239   3.259   5.359   1.046
 6114SOL     OW19240   5.046   3.772   1.649
 6114SOL    HW119241   5.070   3.700   1.584
 6114SOL    HW219242   5.125   3.830   1.665
 6115SOL     OW19243   6.114   0.846   4.853
 6115SOL    HW119244   6.200   0.794   4.854
 6115SOL    HW219245   6.096   0.879   4.760
 6116SOL     OW19246   6.011   2.755   0.428
 6116SOL    HW119247   6.096   2.719   0.391
 6116SOL    HW219248   5.942   2.758   0.356
 6117SOL     OW19249   2.421   2.559   0.966
 6117SOL    HW119250   2.417   2.547   0.866
 6117SOL    HW219251   2.344   2.615   0.996
 6118SOL     OW19252   5.964   0.578   1.308
 6118SOL    HW119253   6.054   0.612   1.337
 6118SOL    HW219254   5.941   0.496   1.360
 6119SOL     OW19255   0.253   1.008   6.357
 6119SOL    HW119256   0.215   0.943   6.423
 6119SOL    HW219257   0.353   1.007   6.363
 6120SOL     OW19258   3.328   1.128   3.748
 6120SOL    HW119259   3.279   1.079   3.820
 6120SOL    HW219260   3.304   1.089   3.659
 6121SOL     OW19261   3.138   1.206   5.360
 6121SOL    HW119262   3.162   1.183   5.266
 6121SOL    HW219263   3.202   1.161   5.423
 6122SOL     OW19264   4.740   4.707   4.957
 6122SOL    HW119265   4.724   4.759   5.041
 6122SOL    HW219266   4.812   4.751   4.903
 6123SOL     OW19267   6.182   1.751   4.922
 6123SOL    HW119268   6.175   1.734   5.020
 6123SOL    HW219269   6.195   1.848   4.905
 6124SOL     OW19270   2.326   6.113   4.193
 6124SOL    HW119271   2.404   6.088   4.135
 6124SOL    HW219272   2.243   6.071   4.156
 6125SOL     OW19273   3.372   0.965   5.771
 6125SOL    HW119274   3.410   0.917   5.850
 6125SOL    HW219275   3.373   1.063   5.789
 6126SOL     OW19276   5.952   2.879   6.290
 6126SOL    HW119277   5.893   2.820   6.235
 6126SOL    HW219278   6.048   2.861   6.267
 6127SOL     OW19279   4.826   1.900   2.769
 6127SOL    HW119280   4.764   1.826   2.796
 6127SOL    HW219281   4.888   1.868   2.697
 6128SOL     OW19282   5.912   5.816   5.089
 6128SOL    HW119283   5.998   5.814   5.140
 6128SOL    HW219284   5.876   5.723   5.080
 6129SOL     OW19285   2.087   5.986   3.165
 6129SOL    HW119286   2.072   6.064   3.105
 6129SOL    HW219287   2.152   5.923   3.122
 6130SOL     OW19288   6.131   2.656   6.803
 6130SOL    HW119289   6.075   2.591   6.752
 6130SOL    HW219290   6.076   2.694   6.878
 6131SOL     OW19291   5.877   3.028   2.679
 6131SOL    HW119292   5.920   3.075   2.602
 6131SOL    HW219293   5.786   2.996   2.653
 6132SOL     OW19294   4.352   6.148   6.166
 6132SOL    HW119295   4.365   6.060   6.213
 6132SOL    HW219296   4.265   6.147   6.117
 6133SOL     OW19297   0.513   2.475   3.841
 6133SOL    HW119298   0.524   2.492   3.744
 6133SOL    HW219299   0.522   2.377   3.860
 6134SOL     OW19300   0.341   6.842   5.434
 6134SOL    HW119301   0.394   6.826   5.351
 6134SOL    HW219302   0.403   6.865   5.509
 6135SOL     OW19303   6.244   5.904   7.000
 6135SOL    HW119304   6.334   5.948   7.002
 6135SOL    HW219305   6.254   5.805   7.005
 6136SOL     OW19306   1.197   2.159   3.280
 6136SOL    HW119307   1.160   2.243   3.319
 6136SOL    HW219308   1.126   2.089   3.278
 6137SOL     OW19309   0.193   4.993   1.030
 6137SOL    HW119310   0.176   4.895   1.018
 6137SOL    HW219311   0.163   5.043   0.948
 6138SOL     OW19312   5.569   0.818   2.271
 6138SOL    HW119313   5.574   0.759   2.352
 6138SOL    HW219314   5.475   0.821   2.237
 6139SOL     OW19315   2.209   2.203   5.598
 6139SOL    HW119316   2.298   2.224   5.558
 6139SOL    HW219317   2.156   2.287   5.607
 6140SOL     OW19318   2.126   0.223   3.842
 6140SOL    HW119319   2.121   0.220   3.942
 6140SOL    HW219320   2.034   0.216   3.804
 6141SOL     OW19321   1.309   6.942   0.487
 6141SOL    HW119322   1.397   6.921   0.447
 6141SOL    HW219323   1.318   0.002   0.547
 6142SOL     OW19324   0.420   0.093   1.902
 6142SOL    HW119325   0.426   0.135   1.993
 6142SOL    HW219326   0.402   7.015   1.911
 6143SOL     OW19327   0.799   3.135   5.489
 6143SOL    HW119328   0.893   3.168   5.495
 6143SOL    HW219329   0.784   3.089   5.402
 6144SOL     OW19330   3.331   5.861   2.382
 6144SOL    HW119331   3.271   5.829   2.456
 6144SOL    HW219332   3.410   5.908   2.421
 6145SOL     OW19333   5.374   3.077   4.380
 6145SOL    HW119334   5.412   3.052   4.291
 6145SOL    HW219335   5.327   3.165   4.373
 6146SOL     OW19336   5.813   1.422   5.422
 6146SOL    HW119337   5.734   1.478   5.447
 6146SOL    HW219338   5.810   1.403   5.324
 6147SOL     OW19339   1.394   1.914   6.039
 6147SOL    HW119340   1.427   1.989   5.982
 6147SOL    HW219341   1.423   1.929   6.134
 6148SOL     OW19342   4.003   4.838   6.938
 6148SOL    HW119343   4.066   4.770   6.976
 6148SOL    HW219344   3.915   4.832   6.985
 6149SOL     OW19345   4.121   1.654   1.490
 6149SOL    HW119346   4.040   1.609   1.452
 6149SOL    HW219347   4.119   1.751   1.467
 6150SOL     OW19348   0.657   4.914   4.135
 6150SOL    HW119349   0.728   4.860   4.181
 6150SOL    HW219350   0.591   4.948   4.202
 6151SOL     OW19351   4.082   5.409   2.575
 6151SOL    HW119352   4.031   5.365   2.649
 6151SOL    HW219353   4.105   5.502   2.602
 6152SOL     OW19354   0.468   4.123   3.152
 6152SOL    HW119355   0.415   4.197   3.194
 6152SOL    HW219356   0.411   4.074   3.086
 6153SOL     OW19357   5.848   6.182   1.112
 6153SOL    HW119358   5.822   6.126   1.033
 6153SOL    HW219359   5.927   6.140   1.158
 6154SOL     OW19360   4.343   4.688   2.803
 6154SOL    HW119361   4.265   4.712   2.860
 6154SOL    HW219362   4.334   4.731   2.713
 6155SOL     OW19363   1.949   1.781   3.972
 6155SOL    HW119364   1.853   1.811   3.965
 6155SOL    HW219365   1.959   1.721   4.052
 6156SOL     OW19366   4.501   4.573   2.506
 6156SOL    HW119367   4.461   4.482   2.513
 6156SOL    HW219368   4.516   4.596   2.410
 6157SOL     OW19369   0.341   2.847   1.249
 6157SOL    HW119370   0.392   2.761   1.243
 6157SOL    HW219371   0.395   2.915   1.299
 6158SOL     OW19372   3.362   0.644   5.841
 6158SOL    HW119373   3.362   0.656   5.742
 6158SOL    HW219374   3.423   0.711   5.883
 6159SOL     OW19375   5.886   2.133   1.135
 6159SOL    HW119376   5.933   2.190   1.203
 6159SOL    HW219377   5.943   2.054   1.112
 6160SOL     OW19378   0.859   6.814   1.101
 6160SOL    HW119379   0.926   6.741   1.093
 6160SOL    HW219380   0.814   6.829   1.013
 6161SOL     OW19381   5.865   3.754   0.141
 6161SOL    HW119382   5.781   3.721   0.184
 6161SOL    HW219383   5.916   3.812   0.205
 6162SOL     OW19384   6.153   6.256   1.187
 6162SOL    HW119385   6.230   6.213   1.233
 6162SOL    HW219386   6.099   6.309   1.253
 6163SOL     OW19387   5.919   6.038   3.143
 6163SOL    HW119388   5.881   6.053   3.052
 6163SOL    HW219389   5.930   5.940   3.158
 6164SOL     OW19390   3.348   3.787   4.523
 6164SOL    HW119391   3.265   3.807   4.575
 6164SOL    HW219392   3.334   3.810   4.427
 6165SOL     OW19393   3.055   0.529   0.243
 6165SOL    HW119394   3.009   0.441   0.232
 6165SOL    HW219395   3.147   0.524   0.203
 6166SOL     OW19396   3.460   1.235   5.950
 6166SOL    HW119397   3.559   1.245   5.958
 6166SOL    HW219398   3.425   1.182   6.028
 6167SOL     OW19399   1.276   3.204   2.921
 6167SOL    HW119400   1.335   3.284   2.909
 6167SOL    HW219401   1.187   3.233   2.957
 6168SOL     OW19402   0.839   3.356   4.079
 6168SOL    HW119403   0.807   3.273   4.124
 6168SOL    HW219404   0.820   3.435   4.137
 6169SOL     OW19405   2.511   1.159   0.420
 6169SOL    HW119406   2.591   1.098   0.426
 6169SOL    HW219407   2.537   1.251   0.450
 6170SOL     OW19408   2.907   4.707   1.191
 6170SOL    HW119409   2.940   4.622   1.231
 6170SOL    HW219410   2.847   4.754   1.255
 6171SOL     OW19411   2.266   4.197   1.552
 6171SOL    HW119412   2.173   4.210   1.518
 6171SOL    HW219413   2.328   4.260   1.505
 6172SOL     OW19414   2.720   4.812   1.402
 6172SOL    HW119415   2.767   4.900   1.407
 6172SOL    HW219416   2.660   4.801   1.481
 6173SOL     OW19417   1.336   5.471   2.576
 6173SOL    HW119418   1.279   5.505   2.651
 6173SOL    HW219419   1.431   5.468   2.605
 6174SOL     OW19420   6.081   4.823   1.339
 6174SOL    HW119421   5.998   4.849   1.390
 6174SOL    HW219422   6.078   4.725   1.319
 6175SOL     OW19423   5.641   0.045   4.166
 6175SOL    HW119424   5.549   0.021   4.137
 6175SOL    HW219425   5.707   7.002   4.123
 6176SOL     OW19426   6.122   3.192   0.363
 6176SOL    HW119427   6.213   3.153   0.351
 6176SOL    HW219428   6.087   3.222   0.274
 6177SOL     OW19429   5.948   2.384   2.661
 6177SOL    HW119430   5.976   2.479   2.654
 6177SOL    HW219431   5.889   2.360   2.583
 6178SOL     OW19432   6.565   2.901   1.138
 6178SOL    HW119433   6.553   2.946   1.226
 6178SOL    HW219434   6.515   2.814   1.138
 6179SOL     OW19435   0.758   1.448   5.128
 6179SOL    HW119436   0.673   1.438   5.077
 6179SOL    HW219437   0.835   1.447   5.064
 6180SOL     OW19438   3.162   0.942   6.641
 6180SOL    HW119439   3.186   1.027   6.593
 6180SOL    HW219440   3.153   0.868   6.574
 6181SOL     OW19441   4.198   6.118   6.528
 6181SOL    HW119442   4.251   6.201   6.545
 6181SOL    HW219443   4.257   6.048   6.488
 6182SOL     OW19444   4.944   7.001   5.459
 6182SOL    HW119445   5.000   0.045   5.406
 6182SOL    HW219446   4.867   6.970   5.404
 6183SOL     OW19447   2.883   0.676   2.525
 6183SOL    HW119448   2.972   0.636   2.504
 6183SOL    HW219449   2.822   0.667   2.446
 6184SOL     OW19450   6.607   0.730   5.538
 6184SOL    HW119451   6.657   0.801   5.588
 6184SOL    HW219452   6.513   0.759   5.523
 6185SOL     OW19453   2.567   2.569   7.015
 6185SOL    HW119454   2.634   2.495   7.006
 6185SOL    HW219455   2.537   2.597   6.924
 6186SOL     OW19456   4.386   1.027   4.138
 6186SOL    HW119457   4.391   1.068   4.229
 6186SOL    HW219458   4.470   1.049   4.087
 6187SOL     OW19459   3.152   4.862   4.328
 6187SOL    HW119460   3.070   4.894   4.376
 6187SOL    HW219461   3.135   4.863   4.229
 6188SOL     OW19462   2.861   0.173   2.151
 6188SOL    HW119463   2.784   0.118   2.118
 6188SOL    HW219464   2.945   0.118   2.148
 6189SOL     OW19465   5.013   4.853   3.140
 6189SOL    HW119466   5.104   4.814   3.133
 6189SOL    HW219467   5.013   4.927   3.207
 6190SOL     OW19468   5.074   2.730   5.877
 6190SOL    HW119469   5.009   2.775   5.817
 6190SOL    HW219470   5.026   2.665   5.936
 6191SOL     OW19471   6.891   1.749   6.700
 6191SOL    HW119472   6.796   1.719   6.696
 6191SOL    HW219473   6.935   1.731   6.612
 6192SOL     OW19474   3.445   1.946   0.485
 6192SOL    HW119475   3.385   2.021   0.513
 6192SOL    HW219476   3.533   1.954   0.532
 6193SOL     OW19477   0.164   0.243   1.819
 6193SOL    HW119478   0.103   0.311   1.778
 6193SOL    HW219479   0.251   0.243   1.771
 6194SOL     OW19480   2.521   0.390   0.615
 6194SOL    HW119481   2.451   0.427   0.676
 6194SOL    HW219482   2.500   0.417   0.520
 6195SOL     OW19483   2.572   0.337   5.685
 6195SOL    HW119484   2.632   0.257   5.678
 6195SOL    HW219485   2.597   0.404   5.615
 6196SOL     OW19486   1.199   1.982   5.621
 6196SOL    HW119487   1.266   2.043   5.663
 6196SOL    HW219488   1.107   2.018   5.638
 6197SOL     OW19489   2.714   2.798   1.526
 6197SOL    HW119490   2.661   2.750   1.595
 6197SOL    HW219491   2.680   2.775   1.435
 6198SOL     OW19492   3.481   5.478   2.785
 6198SOL    HW119493   3.483   5.561   2.729
 6198SOL    HW219494   3.504   5.500   2.879
 6199SOL     OW19495   0.379   0.327   6.854
 6199SOL    HW119496   0.358   0.417   6.892
 6199SOL    HW219497   0.305   0.298   6.794
 6200SOL     OW19498   3.729   0.177   5.924
 6200SOL    HW119499   3.674   0.105   5.966
 6200SOL    HW219500   3.798   0.137   5.864
 6201SOL     OW19501   2.323   4.981   4.539
 6201SOL    HW119502   2.276   4.893   4.544
 6201SOL    HW219503   2.422   4.966   4.550
 6202SOL     OW19504   1.954   2.082   1.388
 6202SOL    HW119505   1.855   2.078   1.404
 6202SOL    HW219506   1.988   2.174   1.409
 6203SOL     OW19507   5.620   2.542   3.947
 6203SOL    HW119508   5.562   2.624   3.940
 6203SOL    HW219509   5.566   2.467   3.985
 6204SOL     OW19510   1.188   6.717   5.580
 6204SOL    HW119511   1.195   6.621   5.552
 6204SOL    HW219512   1.210   6.725   5.677
 6205SOL     OW19513   4.920   6.502   0.071
 6205SOL    HW119514   4.905   6.557   7.008
 6205SOL    HW219515   4.850   6.525   0.139
 6206SOL     OW19516   4.837   6.903   3.885
 6206SOL    HW119517   4.907   6.851   3.837
 6206SOL    HW219518   4.769   6.936   3.819
 6207SOL     OW19519   2.050   4.225   4.660
 6207SOL    HW119520   2.082   4.169   4.736
 6207SOL    HW219521   2.050   4.170   4.576
 6208SOL     OW19522   5.464   4.792   5.605
 6208SOL    HW119523   5.372   4.764   5.634
 6208SOL    HW219524   5.508   4.715   5.558
 6209SOL     OW19525   2.168   5.508   0.964
 6209SOL    HW119526   2.245   5.520   0.901
 6209SOL    HW219527   2.118   5.426   0.939
 6210SOL     OW19528   0.023   4.211   2.904
 6210SOL    HW119529   0.069   4.136   2.952
 6210SOL    HW219530   6.961   4.176   2.859
 6211SOL     OW19531   2.882   0.776   5.404
 6211SOL    HW119532   2.923   0.792   5.493
 6211SOL    HW219533   2.783   0.791   5.409
 6212SOL     OW19534   6.604   0.581   3.803
 6212SOL    HW119535   6.696   0.542   3.801
 6212SOL    HW219536   6.598   0.648   3.877
 6213SOL     OW19537   6.683   6.939   0.136
 6213SOL    HW119538   6.643   6.994   0.209
 6213SOL    HW219539   6.688   6.843   0.165
 6214SOL     OW19540   4.999   4.607   1.871
 6214SOL    HW119541   4.992   4.517   1.914
 6214SOL    HW219542   4.910   4.652   1.872
 6215SOL     OW19543   3.070   4.517   1.309
 6215SOL    HW119544   2.977   4.482   1.320
 6215SOL    HW219545   3.134   4.455   1.354
 6216SOL     OW19546   6.762   2.665   2.596
 6216SOL    HW119547   6.807   2.720   2.666
 6216SOL    HW219548   6.826   2.595   2.562
 6217SOL     OW19549   4.263   1.613   1.732
 6217SOL    HW119550   4.213   1.629   1.647
 6217SOL    HW219551   4.299   1.520   1.733
 6218SOL     OW19552   4.652   5.705   4.489
 6218SOL    HW119553   4.734   5.649   4.501
 6218SOL    HW219554   4.675   5.801   4.503
 6219SOL     OW19555   0.137   1.308   4.231
 6219SOL    HW119556   0.229   1.282   4.263
 6219SOL    HW219557   0.089   1.357   4.303
 6220SOL     OW19558   1.186   3.059   5.130
 6220SOL    HW119559   1.241   3.091   5.207
 6220SOL    HW219560   1.126   2.984   5.161
 6221SOL     OW19561   4.435   4.615   4.404
 6221SOL    HW119562   4.514   4.658   4.359
 6221SOL    HW219563   4.376   4.573   4.334
 6222SOL     OW19564   6.623   2.043   1.170
 6222SOL    HW119565   6.589   2.110   1.104
 6222SOL    HW219566   6.596   2.070   1.263
 6223SOL     OW19567   5.443   4.229   3.949
 6223SOL    HW119568   5.426   4.188   4.038
 6223SOL    HW219569   5.507   4.172   3.897
 6224SOL     OW19570   2.448   0.057   4.335
 6224SOL    HW119571   2.493   0.071   4.423
 6224SOL    HW219572   2.349   0.072   4.346
 6225SOL     OW19573   3.830   1.920   6.722
 6225SOL    HW119574   3.853   1.955   6.813
 6225SOL    HW219575   3.873   1.977   6.652
 6226SOL     OW19576   7.013   6.275   4.333
 6226SOL    HW119577   6.960   6.226   4.264
 6226SOL    HW219578   0.019   6.365   4.298
 6227SOL     OW19579   2.418   4.233   6.537
 6227SOL    HW119580   2.492   4.296   6.559
 6227SOL    HW219581   2.354   4.278   6.475
 6228SOL     OW19582   0.186   2.458   2.638
 6228SOL    HW119583   0.231   2.375   2.672
 6228SOL    HW219584   0.183   2.527   2.711
 6229SOL     OW19585   1.379   2.276   1.802
 6229SOL    HW119586   1.399   2.222   1.720
 6229SOL    HW219587   1.443   2.353   1.807
 6230SOL     OW19588   1.975   2.191   3.926
 6230SOL    HW119589   2.067   2.153   3.935
 6230SOL    HW219590   1.924   2.138   3.858
 6231SOL     OW19591   6.497   4.977   1.654
 6231SOL    HW119592   6.591   4.984   1.620
 6231SOL    HW219593   6.490   4.898   1.715
 6232SOL     OW19594   1.222   0.799   7.013
 6232SOL    HW119595   1.298   0.863   0.006
 6232SOL    HW219596   1.187   0.771   0.082
 6233SOL     OW19597   3.829   1.080   6.464
 6233SOL    HW119598   3.872   1.028   6.537
 6233SOL    HW219599   3.737   1.044   6.447
 6234SOL     OW19600   2.670   2.115   3.943
 6234SOL    HW119601   2.600   2.067   3.890
 6234SOL    HW219602   2.757   2.110   3.895
 6235SOL     OW19603   2.248   5.499   2.175
 6235SOL    HW119604   2.307   5.545   2.242
 6235SOL    HW219605   2.154   5.497   2.210
 6236SOL     OW19606   0.476   4.065   0.172
 6236SOL    HW119607   0.474   3.974   0.130
 6236SOL    HW219608   0.422   4.064   0.256
 6237SOL     OW19609   3.680   5.911   6.220
 6237SOL    HW119610   3.721   5.994   6.182
 6237SOL    HW219611   3.706   5.901   6.316
 6238SOL     OW19612   5.134   3.672   1.023
 6238SOL    HW119613   5.165   3.719   0.940
 6238SOL    HW219614   5.079   3.592   0.996
 6239SOL     OW19615   3.569   6.339   3.454
 6239SOL    HW119616   3.654   6.357   3.405
 6239SOL    HW219617   3.509   6.419   3.447
 6240SOL     OW19618   2.779   3.781   0.364
 6240SOL    HW119619   2.806   3.867   0.321
 6240SOL    HW219620   2.772   3.709   0.295
 6241SOL     OW19621   4.706   6.835   2.248
 6241SOL    HW119622   4.775   6.808   2.316
 6241SOL    HW219623   4.746   6.901   2.184
 6242SOL     OW19624   3.435   2.051   2.721
 6242SOL    HW119625   3.394   2.119   2.661
 6242SOL    HW219626   3.534   2.061   2.720
 6243SOL     OW19627   6.290   5.633   3.146
 6243SOL    HW119628   6.294   5.549   3.200
 6243SOL    HW219629   6.259   5.709   3.204
 6244SOL     OW19630   1.490   1.677   1.709
 6244SOL    HW119631   1.562   1.635   1.764
 6244SOL    HW219632   1.424   1.608   1.681
 6245SOL     OW19633   2.322   3.961   0.484
 6245SOL    HW119634   2.255   3.955   0.558
 6245SOL    HW219635   2.405   3.912   0.510
 6246SOL     OW19636   4.089   6.683   0.278
 6246SOL    HW119637   4.043   6.616   0.338
 6246SOL    HW219638   4.188   6.666   0.281
 6247SOL     OW19639   6.637   6.803   2.660
 6247SOL    HW119640   6.542   6.821   2.684
 6247SOL    HW219641   6.691   6.791   2.743
 6248SOL     OW19642   0.899   6.048   0.586
 6248SOL    HW119643   0.975   6.096   0.629
 6248SOL    HW219644   0.813   6.081   0.624
 6249SOL     OW19645   6.206   2.820   5.770
 6249SOL    HW119646   6.181   2.915   5.753
 6249SOL    HW219647   6.131   2.760   5.741
 6250SOL     OW19648   6.593   4.504   5.933
 6250SOL    HW119649   6.527   4.539   5.866
 6250SOL    HW219650   6.676   4.476   5.885
 6251SOL     OW19651   4.337   1.069   0.994
 6251SOL    HW119652   4.245   1.030   1.004
 6251SOL    HW219653   4.367   1.106   1.081
 6252SOL     OW19654   1.809   6.361   4.884
 6252SOL    HW119655   1.805   6.459   4.907
 6252SOL    HW219656   1.858   6.350   4.798
 6253SOL     OW19657   2.529   3.355   1.471
 6253SOL    HW119658   2.604   3.372   1.535
 6253SOL    HW219659   2.550   3.397   1.383
 6254SOL     OW19660   4.867   0.416   0.322
 6254SOL    HW119661   4.898   0.484   0.255
 6254SOL    HW219662   4.926   0.335   0.318
 6255SOL     OW19663   0.542   3.151   3.086
 6255SOL    HW119664   0.548   3.060   3.126
 6255SOL    HW219665   0.447   3.183   3.088
 6256SOL     OW19666   3.809   5.237   4.212
 6256SOL    HW119667   3.764   5.151   4.234
 6256SOL    HW219668   3.902   5.236   4.249
 6257SOL     OW19669   3.972   2.836   6.701
 6257SOL    HW119670   3.910   2.885   6.763
 6257SOL    HW219671   3.919   2.777   6.641
 6258SOL     OW19672   4.616   2.063   3.087
 6258SOL    HW119673   4.634   1.997   3.014
 6258SOL    HW219674   4.517   2.073   3.099
 6259SOL     OW19675   3.496   2.203   1.679
 6259SOL    HW119676   3.481   2.111   1.714
 6259SOL    HW219677   3.566   2.249   1.734
 6260SOL     OW19678   3.388   4.401   1.226
 6260SOL    HW119679   3.367   4.462   1.149
 6260SOL    HW219680   3.304   4.358   1.258
 6261SOL     OW19681   4.804   6.624   6.180
 6261SOL    HW119682   4.852   6.624   6.092
 6261SOL    HW219683   4.866   6.594   6.252
 6262SOL     OW19684   6.969   5.577   5.174
 6262SOL    HW119685   6.935   5.486   5.202
 6262SOL    HW219686   6.892   5.639   5.164
 6263SOL     OW19687   6.672   0.794   1.369
 6263SOL    HW119688   6.662   0.874   1.310
 6263SOL    HW219689   6.650   0.711   1.317
 6264SOL     OW19690   2.608   1.427   0.463
 6264SOL    HW119691   2.698   1.416   0.504
 6264SOL    HW219692   2.617   1.471   0.373
 6265SOL     OW19693   6.006   3.464   0.418
 6265SOL    HW119694   5.911   3.442   0.441
 6265SOL    HW219695   6.057   3.379   0.402
 6266SOL     OW19696   2.495   0.111   2.599
 6266SOL    HW119697   2.557   0.087   2.525
 6266SOL    HW219698   2.435   0.034   2.619
 6267SOL     OW19699   2.913   6.438   0.174
 6267SOL    HW119700   2.987   6.375   0.195
 6267SOL    HW219701   2.913   6.513   0.239
 6268SOL     OW19702   2.070   5.963   2.163
 6268SOL    HW119703   2.062   6.033   2.234
 6268SOL    HW219704   2.131   5.997   2.091
 6269SOL     OW19705   6.678   4.402   6.436
 6269SOL    HW119706   6.663   4.312   6.477
 6269SOL    HW219707   6.770   4.406   6.397
 6270SOL     OW19708   0.345   1.326   3.898
 6270SOL    HW119709   0.249   1.345   3.917
 6270SOL    HW219710   0.395   1.412   3.886
 6271SOL     OW19711   5.956   1.549   1.353
 6271SOL    HW119712   6.010   1.607   1.292
 6271SOL    HW219713   6.008   1.531   1.437
 6272SOL     OW19714   2.621   2.520   3.800
 6272SOL    HW119715   2.635   2.486   3.892
 6272SOL    HW219716   2.523   2.530   3.783
 6273SOL     OW19717   4.002   1.143   2.670
 6273SOL    HW119718   4.082   1.094   2.634
 6273SOL    HW219719   4.011   1.151   2.769
 6274SOL     OW19720   2.729   5.983   6.956
 6274SOL    HW119721   2.768   6.007   6.867
 6274SOL    HW219722   2.715   6.066   7.010
 6275SOL     OW19723   3.722   1.005   4.913
 6275SOL    HW119724   3.647   1.038   4.971
 6275SOL    HW219725   3.702   1.028   4.817
 6276SOL     OW19726   1.290   5.082   3.530
 6276SOL    HW119727   1.367   5.051   3.474
 6276SOL    HW219728   1.315   5.075   3.627
 6277SOL     OW19729   6.105   3.501   4.063
 6277SOL    HW119730   6.183   3.482   4.122
 6277SOL    HW219731   6.055   3.580   4.099
 6278SOL     OW19732   4.601   1.213   3.369
 6278SOL    HW119733   4.567   1.258   3.286
 6278SOL    HW219734   4.651   1.130   3.344
 6279SOL     OW19735   4.146   1.905   5.942
 6279SOL    HW119736   4.087   1.862   5.873
 6279SOL    HW219737   4.178   1.835   6.006
 6280SOL     OW19738   1.408   5.398   5.650
 6280SOL    HW119739   1.413   5.394   5.749
 6280SOL    HW219740   1.391   5.307   5.613
 6281SOL     OW19741   3.305   5.921   4.621
 6281SOL    HW119742   3.346   5.985   4.557
 6281SOL    HW219743   3.332   5.828   4.598
 6282SOL     OW19744   0.769   6.825   4.108
 6282SOL    HW119745   0.739   6.912   4.146
 6282SOL    HW219746   0.867   6.814   4.122
 6283SOL     OW19747   0.791   2.693   4.940
 6283SOL    HW119748   0.883   2.693   4.900
 6283SOL    HW219749   0.771   2.602   4.977
 6284SOL     OW19750   2.376   5.027   6.930
 6284SOL    HW119751   2.347   4.990   6.842
 6284SOL    HW219752   2.452   4.973   6.965
 6285SOL     OW19753   1.809   4.029   2.058
 6285SOL    HW119754   1.722   3.985   2.035
 6285SOL    HW219755   1.800   4.128   2.045
 6286SOL     OW19756   6.637   6.149   4.433
 6286SOL    HW119757   6.648   6.055   4.466
 6286SOL    HW219758   6.678   6.213   4.497
 6287SOL     OW19759   3.623   4.969   2.798
 6287SOL    HW119760   3.617   4.951   2.700
 6287SOL    HW219761   3.540   4.935   2.843
 6288SOL     OW19762   6.133   3.476   0.693
 6288SOL    HW119763   6.070   3.452   0.767
 6288SOL    HW219764   6.083   3.524   0.620
 6289SOL     OW19765   0.740   6.490   2.690
 6289SOL    HW119766   0.670   6.552   2.725
 6289SOL    HW219767   0.721   6.468   2.595
 6290SOL     OW19768   5.967   4.035   3.931
 6290SOL    HW119769   5.900   4.003   3.863
 6290SOL    HW219770   5.956   4.133   3.945
 6291SOL     OW19771   3.361   3.936   3.672
 6291SOL    HW119772   3.365   4.000   3.595
 6291SOL    HW219773   3.316   3.980   3.750
 6292SOL     OW19774   0.103   0.928   1.466
 6292SOL    HW119775   0.033   0.997   1.487
 6292SOL    HW219776   0.191   0.973   1.451
 6293SOL     OW19777   5.797   4.990   5.697
 6293SOL    HW119778   5.787   4.891   5.710
 6293SOL    HW219779   5.888   5.010   5.663
 6294SOL     OW19780   3.195   6.427   1.591
 6294SOL    HW119781   3.233   6.343   1.552
 6294SOL    HW219782   3.106   6.445   1.551
 6295SOL     OW19783   6.834   5.672   6.178
 6295SOL    HW119784   6.863   5.677   6.274
 6295SOL    HW219785   6.751   5.617   6.172
 6296SOL     OW19786   5.837   1.721   3.258
 6296SOL    HW119787   5.844   1.817   3.284
 6296SOL    HW219788   5.914   1.696   3.199
 6297SOL     OW19789   5.637   1.362   5.909
 6297SOL    HW119790   5.596   1.445   5.872
 6297SOL    HW219791   5.669   1.304   5.834
 6298SOL     OW19792   6.290   2.472   4.140
 6298SOL    HW119793   6.238   2.551   4.173
 6298SOL    HW219794   6.234   2.389   4.150
 6299SOL     OW19795   0.063   2.604   0.195
 6299SOL    HW119796   7.004   2.551   0.227
 6299SOL    HW219797   0.141   2.588   0.255
 6300SOL     OW19798   5.110   1.206   3.582
 6300SOL    HW119799   5.024   1.217   3.533
 6300SOL    HW219800   5.186   1.218   3.519
 6301SOL     OW19801   3.290   0.500   1.073
 6301SOL    HW119802   3.278   0.570   1.002
 6301SOL    HW219803   3.200   0.472   1.108
 6302SOL     OW19804   6.486   0.178   2.863
 6302SOL    HW119805   6.470   0.138   2.953
 6302SOL    HW219806   6.456   0.273   2.862
 6303SOL     OW19807   2.517   5.210   4.338
 6303SOL    HW119808   2.535   5.304   4.309
 6303SOL    HW219809   2.497   5.209   4.436
 6304SOL     OW19810   4.657   0.859   4.782
 6304SOL    HW119811   4.708   0.865   4.868
 6304SOL    HW219812   4.697   0.788   4.725
 6305SOL     OW19813   5.507   0.406   2.625
 6305SOL    HW119814   5.522   0.420   2.723
 6305SOL    HW219815   5.546   0.318   2.598
 6306SOL     OW19816   6.085   3.044   4.027
 6306SOL    HW119817   6.143   3.009   3.954
 6306SOL    HW219818   5.992   3.057   3.993
 6307SOL     OW19819   1.820   4.734   0.281
 6307SOL    HW119820   1.790   4.750   0.375
 6307SOL    HW219821   1.868   4.816   0.247
 6308SOL     OW19822   4.350   2.316   6.106
 6308SOL    HW119823   4.250   2.318   6.108
 6308SOL    HW219824   4.383   2.237   6.158
 6309SOL     OW19825   6.061   2.123   5.338
 6309SOL    HW119826   6.025   2.210   5.371
 6309SOL    HW219827   6.000   2.049   5.367
 6310SOL     OW19828   0.030   5.617   4.431
 6310SOL    HW119829   0.013   5.518   4.428
 6310SOL    HW219830   6.987   5.663   4.368
 6311SOL     OW19831   6.089   6.934   4.509
 6311SOL    HW119832   6.153   6.952   4.435
 6311SOL    HW219833   6.052   6.842   4.499
 6312SOL     OW19834   5.770   3.890   5.682
 6312SOL    HW119835   5.683   3.937   5.696
 6312SOL    HW219836   5.813   3.874   5.770
 6313SOL     OW19837   2.263   5.186   4.186
 6313SOL    HW119838   2.295   5.183   4.091
 6313SOL    HW219839   2.340   5.176   4.248
 6314SOL     OW19840   1.304   0.319   3.587
 6314SOL    HW119841   1.215   0.277   3.569
 6314SOL    HW219842   1.369   0.292   3.517
 6315SOL     OW19843   1.973   3.128   0.384
 6315SOL    HW119844   1.914   3.130   0.464
 6315SOL    HW219845   1.925   3.083   0.308
 6316SOL     OW19846   4.191   1.207   4.804
 6316SOL    HW119847   4.196   1.306   4.795
 6316SOL    HW219848   4.172   1.183   4.900
 6317SOL     OW19849   6.688   5.440   4.627
 6317SOL    HW119850   6.766   5.448   4.690
 6317SOL    HW219851   6.678   5.344   4.599
 6318SOL     OW19852   1.932   2.170   4.215
 6318SOL    HW119853   1.881   2.208   4.137
 6318SOL    HW219854   1.939   2.239   4.287
 6319SOL     OW19855   1.308   1.765   3.265
 6319SOL    HW119856   1.395   1.811   3.245
 6319SOL    HW219857   1.325   1.669   3.287
 6320SOL     OW19858   0.632   2.306   2.864
 6320SOL    HW119859   0.540   2.331   2.894
 6320SOL    HW219860   0.628   2.224   2.806
 6321SOL     OW19861   1.899   3.758   5.839
 6321SOL    HW119862   1.891   3.846   5.885
 6321SOL    HW219863   1.815   3.739   5.787
 6322SOL     OW19864   2.531   6.851   6.830
 6322SOL    HW119865   2.550   6.824   6.736
 6322SOL    HW219866   2.579   6.790   6.893
 6323SOL     OW19867   4.662   1.592   2.180
 6323SOL    HW119868   4.598   1.596   2.256
 6323SOL    HW219869   4.613   1.569   2.096
 6324SOL     OW19870   3.402   1.753   0.733
 6324SOL    HW119871   3.439   1.756   0.826
 6324SOL    HW219872   3.315   1.801   0.730
 6325SOL     OW19873   1.599   3.105   3.165
 6325SOL    HW119874   1.685   3.078   3.209
 6325SOL    HW219875   1.619   3.160   3.084
 6326SOL     OW19876   4.646   6.639   1.282
 6326SOL    HW119877   4.703   6.558   1.295
 6326SOL    HW219878   4.660   6.676   1.190
 6327SOL     OW19879   3.949   5.150   5.288
 6327SOL    HW119880   3.963   5.151   5.388
 6327SOL    HW219881   3.982   5.063   5.252
 6328SOL     OW19882   2.690   4.304   6.815
 6328SOL    HW119883   2.747   4.374   6.858
 6328SOL    HW219884   2.735   4.215   6.823
 6329SOL     OW19885   0.609   1.913   3.706
 6329SOL    HW119886   0.601   1.879   3.799
 6329SOL    HW219887   0.525   1.962   3.681
 6330SOL     OW19888   3.301   0.502   6.925
 6330SOL    HW119889   3.303   0.405   6.898
 6330SOL    HW219890   3.300   0.559   6.844
 6331SOL     OW19891   5.213   3.170   1.437
 6331SOL    HW119892   5.155   3.211   1.507
 6331SOL    HW219893   5.264   3.242   1.389
 6332SOL     OW19894   4.606   6.048   2.188
 6332SOL    HW119895   4.590   6.119   2.119
 6332SOL    HW219896   4.530   5.983   2.188
 6333SOL     OW19897   2.369   5.241   2.522
 6333SOL    HW119898   2.366   5.216   2.619
 6333SOL    HW219899   2.290   5.297   2.499
 6334SOL     OW19900   2.275   0.844   2.202
 6334SOL    HW119901   2.194   0.866   2.258
 6334SOL    HW219902   2.330   0.926   2.189
 6335SOL     OW19903   6.655   0.809   6.961
 6335SOL    HW119904   6.693   0.882   7.017
 6335SOL    HW219905   6.642   0.841   6.868
 6336SOL     OW19906   1.634   2.744   5.299
 6336SOL    HW119907   1.684   2.831   5.307
 6336SOL    HW219908   1.537   2.760   5.320
 6337SOL     OW19909   0.606   4.544   5.093
 6337SOL    HW119910   0.661   4.627   5.094
 6337SOL    HW219911   0.531   4.554   5.028
 6338SOL     OW19912   3.555   1.305   4.715
 6338SOL    HW119913   3.640   1.358   4.726
 6338SOL    HW219914   3.575   1.208   4.721
 6339SOL     OW19915   6.594   2.618   4.152
 6339SOL    HW119916   6.688   2.651   4.148
 6339SOL    HW219917   6.531   2.694   4.139
 6340SOL     OW19918   2.991   5.453   3.165
 6340SOL    HW119919   2.958   5.412   3.080
 6340SOL    HW219920   3.091   5.457   3.164
 6341SOL     OW19921   6.100   5.197   2.098
 6341SOL    HW119922   6.106   5.221   2.195
 6341SOL    HW219923   6.160   5.256   2.045
 6342SOL     OW19924   1.245   3.533   0.555
 6342SOL    HW119925   1.183   3.455   0.555
 6342SOL    HW219926   1.195   3.615   0.526
 6343SOL     OW19927   3.914   1.411   0.180
 6343SOL    HW119928   3.904   1.354   0.099
 6343SOL    HW219929   4.002   1.394   0.223
 6344SOL     OW19930   6.199   4.662   4.644
 6344SOL    HW119931   6.196   4.723   4.723
 6344SOL    HW219932   6.255   4.582   4.665
 6345SOL     OW19933   1.876   1.852   1.168
 6345SOL    HW119934   1.951   1.830   1.231
 6345SOL    HW219935   1.907   1.921   1.103
 6346SOL     OW19936   0.703   5.326   3.959
 6346SOL    HW119937   0.638   5.302   3.887
 6346SOL    HW219938   0.675   5.412   4.002
 6347SOL     OW19939   2.749   0.920   0.754
 6347SOL    HW119940   2.830   0.863   0.740
 6347SOL    HW219941   2.666   0.864   0.744
 6348SOL     OW19942   0.241   2.324   4.220
 6348SOL    HW119943   0.154   2.336   4.171
 6348SOL    HW219944   0.258   2.403   4.279
 6349SOL     OW19945   1.034   0.972   0.445
 6349SOL    HW119946   0.978   0.978   0.528
 6349SOL    HW219947   1.130   0.974   0.470
 6350SOL     OW19948   6.739   5.848   3.233
 6350SOL    HW119949   6.673   5.778   3.259
 6350SOL    HW219950   6.691   5.926   3.193
 6351SOL     OW19951   0.192   2.211   3.333
 6351SOL    HW119952   0.099   2.208   3.370
 6351SOL    HW219953   0.230   2.119   3.329
 6352SOL     OW19954   6.543   4.403   2.501
 6352SOL    HW119955   6.447   4.403   2.531
 6352SOL    HW219956   6.603   4.398   2.581
 6353SOL     OW19957   6.668   6.805   2.280
 6353SOL    HW119958   6.744   6.759   2.325
 6353SOL    HW219959   6.634   6.878   2.340
 6354SOL     OW19960   6.307   0.262   4.778
 6354SOL    HW119961   6.211   0.288   4.791
 6354SOL    HW219962   6.364   0.319   4.836
 6355SOL     OW19963   1.366   1.912   1.273
 6355SOL    HW119964   1.393   1.835   1.332
 6355SOL    HW219965   1.295   1.882   1.210
 6356SOL     OW19966   3.450   3.620   1.290
 6356SOL    HW119967   3.442   3.682   1.211
 6356SOL    HW219968   3.546   3.605   1.311
 6357SOL     OW19969   5.171   1.765   1.215
 6357SOL    HW119970   5.156   1.779   1.117
 6357SOL    HW219971   5.114   1.690   1.248
 6358SOL     OW19972   0.969   2.622   5.372
 6358SOL    HW119973   0.986   2.575   5.459
 6358SOL    HW219974   1.023   2.579   5.300
 6359SOL     OW19975   0.032   0.630   6.639
 6359SOL    HW119976   0.056   0.718   6.598
 6359SOL    HW219977   0.073   0.624   6.730
 6360SOL     OW19978   2.240   4.882   4.233
 6360SOL    HW119979   2.146   4.881   4.198
 6360SOL    HW219980   2.248   4.949   4.307
 6361SOL     OW19981   2.928   6.413   5.158
 6361SOL    HW119982   2.869   6.335   5.134
 6361SOL    HW219983   2.997   6.383   5.224
 6362SOL     OW19984   7.013   5.224   5.818
 6362SOL    HW119985   0.042   5.141   5.790
 6362SOL    HW219986   6.933   5.199   5.872
 6363SOL     OW19987   1.097   5.606   3.812
 6363SOL    HW119988   1.128   5.529   3.756
 6363SOL    HW219989   0.999   5.619   3.800
 6364SOL     OW19990   2.550   1.598   6.444
 6364SOL    HW119991   2.506   1.541   6.375
 6364SOL    HW219992   2.645   1.568   6.457
 6365SOL     OW19993   3.817   5.662   2.562
 6365SOL    HW119994   3.901   5.649   2.509
 6365SOL    HW219995   3.741   5.616   2.516
 6366SOL     OW19996   0.990   4.144   5.373
 6366SOL    HW119997   0.929   4.201   5.427
 6366SOL    HW219998   0.935   4.086   5.312
 6367SOL     OW19999   5.360   5.569   1.865
 6367SOL    HW120000   5.337   5.586   1.960
 6367SOL    HW220001   5.386   5.655   1.821
 6368SOL     OW20002   2.922   1.683   2.322
 6368SOL    HW120003   2.826   1.699   2.345
 6368SOL    HW220004   2.930   1.658   2.226
 6369SOL     OW20005   2.379   6.367   5.279
 6369SOL    HW120006   2.287   6.390   5.312
 6369SOL    HW220007   2.372   6.325   5.188
 6370SOL     OW20008   5.575   2.942   2.158
 6370SOL    HW120009   5.529   2.911   2.241
 6370SOL    HW220010   5.621   2.864   2.115
 6371SOL     OW20011   4.279   1.249   3.368
 6371SOL    HW120012   4.313   1.342   3.352
 6371SOL    HW220013   4.340   1.203   3.432
 6372SOL     OW20014   2.777   0.178   2.798
 6372SOL    HW120015   2.789   0.135   2.709
 6372SOL    HW220016   2.755   0.108   2.866
 6373SOL     OW20017   3.657   4.458   0.096
 6373SOL    HW120018   3.744   4.506   0.103
 6373SOL    HW220019   3.674   4.362   0.074
 6374SOL     OW20020   3.318   2.914   4.161
 6374SOL    HW120021   3.267   2.853   4.101
 6374SOL    HW220022   3.301   3.009   4.134
 6375SOL     OW20023   2.133   6.092   1.858
 6375SOL    HW120024   2.080   6.009   1.844
 6375SOL    HW220025   2.186   6.112   1.776
 6376SOL     OW20026   1.431   1.555   5.214
 6376SOL    HW120027   1.351   1.614   5.215
 6376SOL    HW220028   1.494   1.584   5.142
 6377SOL     OW20029   0.938   2.388   3.816
 6377SOL    HW120030   0.902   2.398   3.723
 6377SOL    HW220031   0.918   2.470   3.869
 6378SOL     OW20032   3.748   4.844   3.830
 6378SOL    HW120033   3.743   4.922   3.768
 6378SOL    HW220034   3.843   4.813   3.838
 6379SOL     OW20035   2.273   4.728   2.109
 6379SOL    HW120036   2.358   4.754   2.064
 6379SOL    HW220037   2.216   4.809   2.124
 6380SOL     OW20038   1.360   0.892   6.104
 6380SOL    HW120039   1.418   0.970   6.126
 6380SOL    HW220040   1.403   0.808   6.137
 6381SOL     OW20041   3.444   3.345   2.765
 6381SOL    HW120042   3.395   3.367   2.849
 6381SOL    HW220043   3.468   3.429   2.716
 6382SOL     OW20044   1.380   4.631   4.870
 6382SOL    HW120045   1.424   4.617   4.782
 6382SOL    HW220046   1.300   4.572   4.878
 6383SOL     OW20047   4.001   1.500   3.957
 6383SOL    HW120048   4.059   1.581   3.959
 6383SOL    HW220049   3.992   1.468   3.863
 6384SOL     OW20050   0.038   4.157   1.706
 6384SOL    HW120051   0.063   4.109   1.791
 6384SOL    HW220052   0.076   4.108   1.628
 6385SOL     OW20053   1.132   5.788   5.311
 6385SOL    HW120054   1.188   5.708   5.331
 6385SOL    HW220055   1.035   5.765   5.326
 6386SOL     OW20056   1.981   5.378   2.652
 6386SOL    HW120057   1.975   5.296   2.710
 6386SOL    HW220058   1.921   5.449   2.688
 6387SOL     OW20059   5.998   0.870   5.117
 6387SOL    HW120060   6.027   0.871   5.021
 6387SOL    HW220061   5.899   0.874   5.122
 6388SOL     OW20062   2.251   4.850   2.629
 6388SOL    HW120063   2.349   4.838   2.643
 6388SOL    HW220064   2.225   4.943   2.656
 6389SOL     OW20065   1.603   3.750   0.880
 6389SOL    HW120066   1.532   3.732   0.812
 6389SOL    HW220067   1.670   3.814   0.842
 6390SOL     OW20068   0.555   3.281   4.733
 6390SOL    HW120069   0.650   3.264   4.705
 6390SOL    HW220070   0.521   3.362   4.686
 6391SOL     OW20071   3.664   0.618   0.341
 6391SOL    HW120072   3.713   0.555   0.281
 6391SOL    HW220073   3.727   0.688   0.375
 6392SOL     OW20074   1.413   5.692   4.250
 6392SOL    HW120075   1.502   5.677   4.207
 6392SOL    HW220076   1.380   5.784   4.227
 6393SOL     OW20077   4.659   1.289   6.913
 6393SOL    HW120078   4.584   1.224   6.901
 6393SOL    HW220079   4.621   1.382   6.917
 6394SOL     OW20080   3.930   5.654   1.912
 6394SOL    HW120081   3.883   5.733   1.872
 6394SOL    HW220082   3.988   5.685   1.988
 6395SOL     OW20083   5.469   2.076   0.065
 6395SOL    HW120084   5.539   2.090   7.014
 6395SOL    HW220085   5.514   2.058   0.152
 6396SOL     OW20086   6.423   2.595   6.553
 6396SOL    HW120087   6.433   2.531   6.476
 6396SOL    HW220088   6.371   2.675   6.523
 6397SOL     OW20089   6.518   0.565   0.682
 6397SOL    HW120090   6.600   0.561   0.624
 6397SOL    HW220091   6.459   0.487   0.661
 6398SOL     OW20092   4.268   0.843   1.673
 6398SOL    HW120093   4.311   0.882   1.591
 6398SOL    HW220094   4.238   0.749   1.652
 6399SOL     OW20095   0.983   6.150   6.144
 6399SOL    HW120096   1.032   6.074   6.187
 6399SOL    HW220097   0.892   6.158   6.185
 6400SOL     OW20098   3.029   4.955   4.781
 6400SOL    HW120099   3.106   4.911   4.827
 6400SOL    HW220100   2.945   4.903   4.800
 6401SOL     OW20101   0.113   4.965   5.752
 6401SOL    HW120102   0.098   4.889   5.689
 6401SOL    HW220103   0.210   4.986   5.758
 6402SOL     OW20104   2.024   3.388   3.004
 6402SOL    HW120105   1.992   3.310   2.950
 6402SOL    HW220106   1.991   3.379   3.098
 6403SOL     OW20107   0.238   6.424   1.723
 6403SOL    HW120108   0.173   6.463   1.658
 6403SOL    HW220109   0.193   6.410   1.811
 6404SOL     OW20110   5.122   1.025   2.556
 6404SOL    HW120111   5.160   0.934   2.539
 6404SOL    HW220112   5.192   1.082   2.599
 6405SOL     OW20113   3.573   0.515   1.703
 6405SOL    HW120114   3.617   0.431   1.672
 6405SOL    HW220115   3.641   0.588   1.706
 6406SOL     OW20116   2.352   1.983   3.346
 6406SOL    HW120117   2.436   1.943   3.384
 6406SOL    HW220118   2.357   1.983   3.247
 6407SOL     OW20119   4.595   6.243   6.730
 6407SOL    HW120120   4.543   6.263   6.813
 6407SOL    HW220121   4.691   6.225   6.754
 6408SOL     OW20122   5.887   2.514   1.075
 6408SOL    HW120123   5.918   2.438   1.019
 6408SOL    HW220124   5.943   2.519   1.158
 6409SOL     OW20125   1.047   5.148   1.647
 6409SOL    HW120126   0.975   5.132   1.579
 6409SOL    HW220127   1.007   5.149   1.738
 6410SOL     OW20128   0.278   0.118   1.520
 6410SOL    HW120129   0.348   0.170   1.570
 6410SOL    HW220130   0.241   0.174   1.446
 6411SOL     OW20131   1.798   1.520   3.093
 6411SOL    HW120132   1.828   1.616   3.092
 6411SOL    HW220133   1.878   1.460   3.101
 6412SOL     OW20134   5.864   2.030   4.880
 6412SOL    HW120135   5.836   1.935   4.871
 6412SOL    HW220136   5.884   2.050   4.976
 6413SOL     OW20137   0.503   5.191   0.862
 6413SOL    HW120138   0.530   5.263   0.798
 6413SOL    HW220139   0.459   5.233   0.942
 6414SOL     OW20140   6.050   0.678   3.378
 6414SOL    HW120141   6.070   0.776   3.372
 6414SOL    HW220142   6.049   0.651   3.474
 6415SOL     OW20143   1.255   1.390   1.706
 6415SOL    HW120144   1.254   1.315   1.639
 6415SOL    HW220145   1.220   1.357   1.794
 6416SOL     OW20146   2.712   6.219   6.433
 6416SOL    HW120147   2.698   6.132   6.479
 6416SOL    HW220148   2.803   6.222   6.392
 6417SOL     OW20149   0.251   5.641   4.298
 6417SOL    HW120150   0.220   5.675   4.209
 6417SOL    HW220151   0.173   5.634   4.360
 6418SOL     OW20152   6.905   4.927   2.122
 6418SOL    HW120153   6.841   4.995   2.085
 6418SOL    HW220154   6.885   4.838   2.081
 6419SOL     OW20155   2.509   2.688   0.236
 6419SOL    HW120156   2.571   2.645   0.302
 6419SOL    HW220157   2.534   2.660   0.143
 6420SOL     OW20158   0.541   2.206   7.008
 6420SOL    HW120159   0.460   2.159   6.972
 6420SOL    HW220160   0.602   2.139   0.031
 6421SOL     OW20161   5.427   1.691   0.378
 6421SOL    HW120162   5.432   1.711   0.476
 6421SOL    HW220163   5.468   1.602   0.361
 6422SOL     OW20164   5.569   2.588   2.974
 6422SOL    HW120165   5.515   2.668   3.001
 6422SOL    HW220166   5.560   2.574   2.875
 6423SOL     OW20167   5.293   4.344   0.670
 6423SOL    HW120168   5.228   4.268   0.683
 6423SOL    HW220169   5.250   4.415   0.614
 6424SOL     OW20170   6.079   3.433   5.041
 6424SOL    HW120171   6.143   3.504   5.070
 6424SOL    HW220172   6.128   3.346   5.028
 6425SOL     OW20173   0.898   5.853   0.793
 6425SOL    HW120174   0.920   5.916   0.719
 6425SOL    HW220175   0.974   5.789   0.806
 6426SOL     OW20176   6.325   3.447   3.365
 6426SOL    HW120177   6.409   3.470   3.415
 6426SOL    HW220178   6.348   3.388   3.287
 6427SOL     OW20179   0.699   3.544   5.908
 6427SOL    HW120180   0.603   3.561   5.932
 6427SOL    HW220181   0.740   3.628   5.874
 6428SOL     OW20182   6.180   3.704   5.084
 6428SOL    HW120183   6.236   3.775   5.040
 6428SOL    HW220184   6.083   3.729   5.077
 6429SOL     OW20185   1.226   1.364   5.464
 6429SOL    HW120186   1.187   1.453   5.441
 6429SOL    HW220187   1.317   1.356   5.425
 6430SOL     OW20188   6.443   3.254   0.237
 6430SOL    HW120189   6.463   3.248   0.140
 6430SOL    HW220190   6.396   3.171   0.267
 6431SOL     OW20191   5.692   1.412   2.353
 6431SOL    HW120192   5.749   1.385   2.276
 6431SOL    HW220193   5.621   1.342   2.368
 6432SOL     OW20194   6.081   3.934   0.245
 6432SOL    HW120195   6.075   4.034   0.253
 6432SOL    HW220196   6.103   3.895   0.335
 6433SOL     OW20197   2.220   3.475   1.523
 6433SOL    HW120198   2.296   3.526   1.482
 6433SOL    HW220199   2.136   3.494   1.474
 6434SOL     OW20200   1.649   6.199   0.833
 6434SOL    HW120201   1.717   6.250   0.886
 6434SOL    HW220202   1.635   6.109   0.875
 6435SOL     OW20203   5.546   3.698   1.174
 6435SOL    HW120204   5.478   3.625   1.166
 6435SOL    HW220205   5.630   3.669   1.127
 6436SOL     OW20206   2.535   2.425   1.153
 6436SOL    HW120207   2.485   2.473   1.081
 6436SOL    HW220208   2.567   2.492   1.221
 6437SOL     OW20209   0.347   1.375   1.347
 6437SOL    HW120210   0.404   1.368   1.265
 6437SOL    HW220211   0.256   1.405   1.321
 6438SOL     OW20212   0.806   3.112   4.742
 6438SOL    HW120213   0.760   3.055   4.674
 6438SOL    HW220214   0.861   3.182   4.696
 6439SOL     OW20215   0.142   6.070   2.667
 6439SOL    HW120216   0.142   6.092   2.569
 6439SOL    HW220217   0.163   6.152   2.720
 6440SOL     OW20218   0.533   0.463   2.193
 6440SOL    HW120219   0.568   0.466   2.286
 6440SOL    HW220220   0.572   0.538   2.140
 6441SOL     OW20221   5.197   1.737   3.458
 6441SOL    HW120222   5.185   1.735   3.557
 6441SOL    HW220223   5.123   1.789   3.416
 6442SOL     OW20224   1.745   1.937   3.629
 6442SOL    HW120225   1.689   1.912   3.708
 6442SOL    HW220226   1.688   1.937   3.546
 6443SOL     OW20227   2.009   0.838   1.134
 6443SOL    HW120228   2.071   0.763   1.155
 6443SOL    HW220229   2.034   0.878   1.045
 6444SOL     OW20230   0.706   1.063   2.526
 6444SOL    HW120231   0.636   1.129   2.499
 6444SOL    HW220232   0.683   1.024   2.615
 6445SOL     OW20233   3.275   4.568   6.124
 6445SOL    HW120234   3.184   4.609   6.126
 6445SOL    HW220235   3.345   4.640   6.131
 6446SOL     OW20236   0.334   1.127   0.998
 6446SOL    HW120237   0.242   1.160   0.973
 6446SOL    HW220238   0.334   1.027   0.998
 6447SOL     OW20239   1.985   1.006   3.523
 6447SOL    HW120240   1.936   0.977   3.605
 6447SOL    HW220241   1.935   0.976   3.442
 6448SOL     OW20242   6.323   2.723   2.547
 6448SOL    HW120243   6.225   2.706   2.539
 6448SOL    HW220244   6.339   2.820   2.564
 6449SOL     OW20245   4.019   2.248   0.559
 6449SOL    HW120246   3.963   2.211   0.633
 6449SOL    HW220247   3.986   2.339   0.535
 6450SOL     OW20248   6.508   2.516   0.244
 6450SOL    HW120249   6.529   2.428   0.201
 6450SOL    HW220250   6.466   2.577   0.177
 6451SOL     OW20251   3.130   6.252   4.306
 6451SOL    HW120252   3.159   6.165   4.345
 6451SOL    HW220253   3.119   6.242   4.207
 6452SOL     OW20254   3.692   6.089   4.162
 6452SOL    HW120255   3.710   5.994   4.136
 6452SOL    HW220256   3.774   6.129   4.201
 6453SOL     OW20257   2.255   4.864   6.707
 6453SOL    HW120258   2.259   4.821   6.617
 6453SOL    HW220259   2.178   4.927   6.712
 6454SOL     OW20260   3.900   0.940   4.589
 6454SOL    HW120261   3.993   0.954   4.622
 6454SOL    HW220262   3.902   0.902   4.497
 6455SOL     OW20263   6.422   3.504   0.368
 6455SOL    HW120264   6.391   3.431   0.306
 6455SOL    HW220265   6.521   3.502   0.374
 6456SOL     OW20266   6.171   1.781   4.195
 6456SOL    HW120267   6.168   1.681   4.197
 6456SOL    HW220268   6.131   1.814   4.110
 6457SOL     OW20269   5.437   3.562   2.229
 6457SOL    HW120270   5.463   3.476   2.185
 6457SOL    HW220271   5.518   3.621   2.237
 6458SOL     OW20272   1.551   5.523   3.845
 6458SOL    HW120273   1.465   5.540   3.892
 6458SOL    HW220274   1.550   5.570   3.757
 6459SOL     OW20275   5.901   4.172   7.005
 6459SOL    HW120276   5.887   4.244   6.937
 6459SOL    HW220277   5.997   4.170   0.013
 6460SOL     OW20278   3.793   4.904   1.602
 6460SOL    HW120279   3.730   4.887   1.526
 6460SOL    HW220280   3.884   4.922   1.567
 6461SOL     OW20281   2.950   5.680   4.712
 6461SOL    HW120282   3.011   5.701   4.636
 6461SOL    HW220283   2.986   5.721   4.796
 6462SOL     OW20284   2.143   3.770   2.600
 6462SOL    HW120285   2.131   3.676   2.568
 6462SOL    HW220286   2.239   3.787   2.621
 6463SOL     OW20287   2.000   3.235   6.350
 6463SOL    HW120288   1.947   3.317   6.374
 6463SOL    HW220289   2.043   3.249   6.261
 6464SOL     OW20290   1.017   5.052   1.955
 6464SOL    HW120291   1.015   4.960   1.994
 6464SOL    HW220292   0.928   5.095   1.968
 6465SOL     OW20293   6.378   0.465   2.806
 6465SOL    HW120294   6.430   0.535   2.854
 6465SOL    HW220295   6.424   0.442   2.720
 6466SOL     OW20296   6.019   2.937   4.292
 6466SOL    HW120297   6.089   2.961   4.359
 6466SOL    HW220298   6.050   2.961   4.200
 6467SOL     OW20299   3.815   6.923   6.042
 6467SOL    HW120300   3.856   6.920   5.951
 6467SOL    HW220301   3.716   6.920   6.034
 6468SOL     OW20302   6.439   4.756   1.803
 6468SOL    HW120303   6.381   4.675   1.813
 6468SOL    HW220304   6.535   4.729   1.815
 6469SOL     OW20305   5.979   1.876   6.075
 6469SOL    HW120306   6.067   1.895   6.032
 6469SOL    HW220307   5.949   1.784   6.051
 6470SOL     OW20308   6.646   6.342   4.639
 6470SOL    HW120309   6.549   6.368   4.643
 6470SOL    HW220310   6.697   6.414   4.592
 6471SOL     OW20311   6.461   6.558   4.835
 6471SOL    HW120312   6.540   6.616   4.852
 6471SOL    HW220313   6.406   6.550   4.918
 6472SOL     OW20314   1.544   6.698   1.818
 6472SOL    HW120315   1.576   6.793   1.825
 6472SOL    HW220316   1.555   6.667   1.723
 6473SOL     OW20317   2.154   1.179   5.656
 6473SOL    HW120318   2.137   1.178   5.754
 6473SOL    HW220319   2.093   1.113   5.612
 6474SOL     OW20320   1.774   3.302   6.659
 6474SOL    HW120321   1.836   3.223   6.658
 6474SOL    HW220322   1.778   3.349   6.571
 6475SOL     OW20323   4.097   5.125   3.952
 6475SOL    HW120324   4.002   5.156   3.957
 6475SOL    HW220325   4.115   5.061   4.026
 6476SOL     OW20326   4.892   5.744   2.988
 6476SOL    HW120327   4.908   5.705   2.897
 6476SOL    HW220328   4.962   5.813   3.007
 6477SOL     OW20329   6.640   6.352   0.034
 6477SOL    HW120330   6.739   6.366   0.029
 6477SOL    HW220331   6.618   6.302   0.117
 6478SOL     OW20332   4.058   6.233   1.297
 6478SOL    HW120333   4.053   6.162   1.227
 6478SOL    HW220334   4.152   6.265   1.304
 6479SOL     OW20335   2.955   5.609   2.814
 6479SOL    HW120336   2.918   5.527   2.858
 6479SOL    HW220337   2.937   5.605   2.716
 6480SOL     OW20338   2.311   0.510   0.321
 6480SOL    HW120339   2.300   0.505   0.222
 6480SOL    HW220340   2.343   0.602   0.346
 6481SOL     OW20341   4.663   0.537   1.177
 6481SOL    HW120342   4.596   0.535   1.104
 6481SOL    HW220343   4.699   0.444   1.192
 6482SOL     OW20344   0.422   0.245   5.543
 6482SOL    HW120345   0.501   0.306   5.531
 6482SOL    HW220346   0.446   0.173   5.608
 6483SOL     OW20347   1.432   5.135   1.820
 6483SOL    HW120348   1.446   5.059   1.757
 6483SOL    HW220349   1.519   5.161   1.861
 6484SOL     OW20350   4.827   0.087   3.031
 6484SOL    HW120351   4.875   0.126   3.109
 6484SOL    HW220352   4.877   0.109   2.947
 6485SOL     OW20353   0.315   2.943   2.070
 6485SOL    HW120354   0.349   2.946   1.976
 6485SOL    HW220355   0.215   2.931   2.069
 6486SOL     OW20356   1.299   2.873   3.546
 6486SOL    HW120357   1.246   2.940   3.598
 6486SOL    HW220358   1.253   2.852   3.460
 6487SOL     OW20359   5.959   5.715   3.269
 6487SOL    HW120360   5.877   5.686   3.218
 6487SOL    HW220361   5.984   5.643   3.334
 6488SOL     OW20362   3.388   5.220   4.200
 6488SOL    HW120363   3.317   5.193   4.266
 6488SOL    HW220364   3.439   5.299   4.235
 6489SOL     OW20365   2.818   1.187   6.453
 6489SOL    HW120366   2.865   1.267   6.415
 6489SOL    HW220367   2.843   1.106   6.400
 6490SOL     OW20368   4.631   1.146   0.439
 6490SOL    HW120369   4.598   1.180   0.527
 6490SOL    HW220370   4.728   1.126   0.444
 6491SOL     OW20371   5.519   1.111   6.012
 6491SOL    HW120372   5.556   1.200   5.984
 6491SOL    HW220373   5.424   1.123   6.041
 6492SOL     OW20374   6.055   5.539   5.732
 6492SOL    HW120375   6.013   5.461   5.779
 6492SOL    HW220376   6.144   5.511   5.695
 6493SOL     OW20377   0.084   0.119   5.225
 6493SOL    HW120378   0.128   0.140   5.138
 6493SOL    HW220379   0.071   0.020   5.233
 6494SOL     OW20380   0.384   2.410   3.333
 6494SOL    HW120381   0.454   2.398   3.264
 6494SOL    HW220382   0.335   2.324   3.347
 6495SOL     OW20383   5.470   4.558   1.911
 6495SOL    HW120384   5.503   4.650   1.887
 6495SOL    HW220385   5.383   4.541   1.865
 6496SOL     OW20386   0.585   6.337   3.268
 6496SOL    HW120387   0.622   6.363   3.179
 6496SOL    HW220388   0.577   6.238   3.273
 6497SOL     OW20389   0.904   6.721   1.526
 6497SOL    HW120390   0.969   6.791   1.557
 6497SOL    HW220391   0.938   6.679   1.442
 6498SOL     OW20392   1.397   3.441   4.521
 6498SOL    HW120393   1.426   3.369   4.457
 6498SOL    HW220394   1.430   3.418   4.613
 6499SOL     OW20395   6.385   1.543   3.155
 6499SOL    HW120396   6.313   1.473   3.162
 6499SOL    HW220397   6.346   1.628   3.121
 6500SOL     OW20398   5.684   4.915   2.059
 6500SOL    HW120399   5.706   4.999   2.107
 6500SOL    HW220400   5.764   4.884   2.007
 6501SOL     OW20401   6.648   4.561   0.893
 6501SOL    HW120402   6.559   4.597   0.864
 6501SOL    HW220403   6.634   4.480   0.950
 6502SOL     OW20404   0.878   5.756   1.322
 6502SOL    HW120405   0.871   5.856   1.332
 6502SOL    HW220406   0.922   5.718   1.404
 6503SOL     OW20407   4.378   0.493   3.794
 6503SOL    HW120408   4.435   0.528   3.719
 6503SOL    HW220409   4.292   0.544   3.796
 6504SOL     OW20410   2.298   2.549   0.339
 6504SOL    HW120411   2.250   2.636   0.337
 6504SOL    HW220412   2.393   2.562   0.310
 6505SOL     OW20413   5.651   5.215   0.702
 6505SOL    HW120414   5.654   5.315   0.702
 6505SOL    HW220415   5.736   5.179   0.740
 6506SOL     OW20416   2.157   1.280   1.555
 6506SOL    HW120417   2.216   1.291   1.635
 6506SOL    HW220418   2.061   1.284   1.583
 6507SOL     OW20419   3.113   1.012   1.632
 6507SOL    HW120420   3.104   1.071   1.712
 6507SOL    HW220421   3.025   0.970   1.610
 6508SOL     OW20422   1.394   2.813   1.679
 6508SOL    HW120423   1.422   2.889   1.738
 6508SOL    HW220424   1.470   2.786   1.620
 6509SOL     OW20425   1.487   2.952   3.996
 6509SOL    HW120426   1.469   3.050   4.005
 6509SOL    HW220427   1.550   2.936   3.920
 6510SOL     OW20428   6.293   4.482   6.286
 6510SOL    HW120429   6.228   4.545   6.327
 6510SOL    HW220430   6.349   4.530   6.219
 6511SOL     OW20431   6.890   6.796   6.025
 6511SOL    HW120432   6.895   6.847   6.111
 6511SOL    HW220433   6.795   6.766   6.010
 6512SOL     OW20434   5.261   6.329   4.090
 6512SOL    HW120435   5.274   6.231   4.103
 6512SOL    HW220436   5.291   6.378   4.172
 6513SOL     OW20437   1.381   6.691   3.511
 6513SOL    HW120438   1.386   6.737   3.600
 6513SOL    HW220439   1.459   6.718   3.455
 6514SOL     OW20440   3.099   0.367   3.724
 6514SOL    HW120441   3.040   0.378   3.804
 6514SOL    HW220442   3.178   0.311   3.748
 6515SOL     OW20443   1.375   0.713   3.395
 6515SOL    HW120444   1.284   0.757   3.397
 6515SOL    HW220445   1.417   0.728   3.305
 6516SOL     OW20446   1.740   1.279   5.404
 6516SOL    HW120447   1.759   1.378   5.402
 6516SOL    HW220448   1.819   1.231   5.442
 6517SOL     OW20449   2.555   2.179   1.045
 6517SOL    HW120450   2.620   2.137   1.108
 6517SOL    HW220451   2.544   2.275   1.070
 6518SOL     OW20452   5.791   6.451   1.038
 6518SOL    HW120453   5.701   6.479   1.072
 6518SOL    HW220454   5.802   6.352   1.049
 6519SOL     OW20455   0.918   1.811   3.873
 6519SOL    HW120456   0.883   1.867   3.948
 6519SOL    HW220457   0.911   1.715   3.897
 6520SOL     OW20458   5.655   5.437   1.006
 6520SOL    HW120459   5.696   5.439   0.915
 6520SOL    HW220460   5.727   5.442   1.075
 6521SOL     OW20461   1.381   2.164   5.746
 6521SOL    HW120462   1.404   2.170   5.843
 6521SOL    HW220463   1.325   2.243   5.720
 6522SOL     OW20464   2.659   4.619   4.354
 6522SOL    HW120465   2.722   4.588   4.424
 6522SOL    HW220466   2.566   4.587   4.374
 6523SOL     OW20467   2.343   2.475   0.622
 6523SOL    HW120468   2.323   2.573   0.623
 6523SOL    HW220469   2.349   2.443   0.528
 6524SOL     OW20470   4.000   2.485   5.555
 6524SOL    HW120471   4.035   2.535   5.634
 6524SOL    HW220472   3.965   2.396   5.584
 6525SOL     OW20473   0.654   2.426   4.221
 6525SOL    HW120474   0.674   2.347   4.162
 6525SOL    HW220475   0.583   2.400   4.287
 6526SOL     OW20476   1.632   5.992   3.355
 6526SOL    HW120477   1.672   5.991   3.264
 6526SOL    HW220478   1.697   5.953   3.421
 6527SOL     OW20479   1.818   1.157   4.438
 6527SOL    HW120480   1.742   1.215   4.408
 6527SOL    HW220481   1.870   1.205   4.509
 6528SOL     OW20482   0.118   0.520   3.254
 6528SOL    HW120483   0.060   0.476   3.186
 6528SOL    HW220484   0.106   0.620   3.248
 6529SOL     OW20485   6.227   3.179   2.732
 6529SOL    HW120486   6.198   3.275   2.720
 6529SOL    HW220487   6.176   3.121   2.668
 6530SOL     OW20488   0.225   1.645   0.081
 6530SOL    HW120489   0.230   1.548   0.059
 6530SOL    HW220490   0.289   1.666   0.154
 6531SOL     OW20491   5.179   2.263   5.631
 6531SOL    HW120492   5.157   2.169   5.606
 6531SOL    HW220493   5.260   2.265   5.688
 6532SOL     OW20494   1.458   1.623   6.922
 6532SOL    HW120495   1.491   1.581   6.837
 6532SOL    HW220496   1.360   1.608   6.930
 6533SOL     OW20497   5.052   0.329   0.533
 6533SOL    HW120498   5.147   0.316   0.562
 6533SOL    HW220499   5.024   0.423   0.555
 6534SOL     OW20500   3.354   2.397   6.800
 6534SOL    HW120501   3.426   2.327   6.803
 6534SOL    HW220502   3.392   2.482   6.763
 6535SOL     OW20503   2.096   3.377   5.205
 6535SOL    HW120504   2.140   3.462   5.177
 6535SOL    HW220505   2.102   3.369   5.305
 6536SOL     OW20506   0.152   1.468   0.494
 6536SOL    HW120507   0.163   1.438   0.589
 6536SOL    HW220508   0.087   1.408   0.448
 6537SOL     OW20509   0.354   0.601   6.616
 6537SOL    HW120510   0.263   0.584   6.578
 6537SOL    HW220511   0.347   0.612   6.715
 6538SOL     OW20512   3.013   2.641   5.695
 6538SOL    HW120513   3.026   2.571   5.625
 6538SOL    HW220514   3.018   2.599   5.786
 6539SOL     OW20515   3.148   1.269   0.008
 6539SOL    HW120516   3.194   1.212   0.076
 6539SOL    HW220517   3.073   1.217   6.987
 6540SOL     OW20518   3.855   2.172   2.902
 6540SOL    HW120519   3.874   2.259   2.857
 6540SOL    HW220520   3.828   2.188   2.997
 6541SOL     OW20521   2.899   2.229   5.167
 6541SOL    HW120522   2.930   2.185   5.083
 6541SOL    HW220523   2.968   2.294   5.198
 6542SOL     OW20524   4.527   4.467   2.917
 6542SOL    HW120525   4.506   4.479   3.014
 6542SOL    HW220526   4.450   4.501   2.863
 6543SOL     OW20527   1.295   6.195   5.789
 6543SOL    HW120528   1.323   6.283   5.752
 6543SOL    HW220529   1.323   6.122   5.726
 6544SOL     OW20530   0.469   5.776   2.852
 6544SOL    HW120531   0.504   5.682   2.854
 6544SOL    HW220532   0.373   5.776   2.879
 6545SOL     OW20533   6.024   2.519   6.066
 6545SOL    HW120534   6.083   2.472   6.131
 6545SOL    HW220535   5.963   2.453   6.022
 6546SOL     OW20536   3.434   4.759   6.492
 6546SOL    HW120537   3.505   4.785   6.559
 6546SOL    HW220538   3.423   4.833   6.426
 6547SOL     OW20539   4.305   1.302   6.550
 6547SOL    HW120540   4.384   1.244   6.528
 6547SOL    HW220541   4.225   1.269   6.499
 6548SOL     OW20542   4.918   4.131   6.037
 6548SOL    HW120543   4.940   4.119   5.940
 6548SOL    HW220544   5.002   4.149   6.089
 6549SOL     OW20545   2.665   2.450   2.350
 6549SOL    HW120546   2.575   2.442   2.307
 6549SOL    HW220547   2.736   2.429   2.282
 6550SOL     OW20548   0.729   6.057   2.493
 6550SOL    HW120549   0.670   6.136   2.473
 6550SOL    HW220550   0.822   6.077   2.463
 6551SOL     OW20551   3.674   5.152   2.240
 6551SOL    HW120552   3.620   5.215   2.185
 6551SOL    HW220553   3.653   5.166   2.337
 6552SOL     OW20554   4.519   4.787   5.606
 6552SOL    HW120555   4.616   4.803   5.625
 6552SOL    HW220556   4.482   4.720   5.671
 6553SOL     OW20557   0.020   3.345   3.129
 6553SOL    HW120558   7.004   3.351   3.222
 6553SOL    HW220559   0.089   3.417   3.115
 6554SOL     OW20560   6.726   3.470   4.719
 6554SOL    HW120561   6.719   3.425   4.630
 6554SOL    HW220562   6.736   3.569   4.706
 6555SOL     OW20563   0.969   1.696   1.187
 6555SOL    HW120564   0.965   1.778   1.245
 6555SOL    HW220565   0.881   1.648   1.191
 6556SOL     OW20566   3.789   0.185   3.260
 6556SOL    HW120567   3.852   0.230   3.324
 6556SOL    HW220568   3.833   0.173   3.172
 6557SOL     OW20569   5.309   6.072   0.764
 6557SOL    HW120570   5.295   6.043   0.859
 6557SOL    HW220571   5.354   6.161   0.763
 6558SOL     OW20572   6.482   6.794   5.569
 6558SOL    HW120573   6.574   6.756   5.574
 6558SOL    HW220574   6.416   6.722   5.591
 6559SOL     OW20575   2.830   3.694   1.216
 6559SOL    HW120576   2.922   3.667   1.189
 6559SOL    HW220577   2.811   3.659   1.308
 6560SOL     OW20578   4.386   1.723   1.157
 6560SOL    HW120579   4.405   1.636   1.202
 6560SOL    HW220580   4.290   1.747   1.170
 6561SOL     OW20581   3.834   4.012   4.606
 6561SOL    HW120582   3.897   3.935   4.619
 6561SOL    HW220583   3.837   4.071   4.686
 6562SOL     OW20584   0.655   4.304   5.189
 6562SOL    HW120585   0.563   4.267   5.174
 6562SOL    HW220586   0.658   4.399   5.159
 6563SOL     OW20587   0.915   5.801   2.225
 6563SOL    HW120588   0.882   5.895   2.214
 6563SOL    HW220589   0.944   5.787   2.319
 6564SOL     OW20590   1.802   5.050   2.948
 6564SOL    HW120591   1.743   5.031   2.870
 6564SOL    HW220592   1.746   5.068   3.029
 6565SOL     OW20593   6.776   3.264   5.043
 6565SOL    HW120594   6.834   3.190   5.077
 6565SOL    HW220595   6.767   3.334   5.113
 6566SOL     OW20596   4.005   1.245   0.624
 6566SOL    HW120597   3.980   1.235   0.528
 6566SOL    HW220598   4.023   1.341   0.644
 6567SOL     OW20599   6.477   2.635   0.764
 6567SOL    HW120600   6.496   2.664   0.671
 6567SOL    HW220601   6.450   2.714   0.819
 6568SOL     OW20602   5.372   3.379   1.673
 6568SOL    HW120603   5.402   3.459   1.622
 6568SOL    HW220604   5.428   3.300   1.649
 6569SOL     OW20605   1.405   3.901   5.386
 6569SOL    HW120606   1.314   3.932   5.411
 6569SOL    HW220607   1.473   3.965   5.423
 6570SOL     OW20608   0.072   4.323   2.023
 6570SOL    HW120609   0.027   4.252   1.969
 6570SOL    HW220610   0.163   4.290   2.051
 6571SOL     OW20611   2.285   5.264   3.665
 6571SOL    HW120612   2.298   5.316   3.581
 6571SOL    HW220613   2.225   5.187   3.648
 6572SOL     OW20614   2.010   3.866   5.600
 6572SOL    HW120615   1.982   3.844   5.693
 6572SOL    HW220616   2.099   3.826   5.581
 6573SOL     OW20617   1.556   2.099   1.638
 6573SOL    HW120618   1.644   2.132   1.672
 6573SOL    HW220619   1.560   2.089   1.539
 6574SOL     OW20620   2.197   4.766   4.602
 6574SOL    HW120621   2.211   4.773   4.700
 6574SOL    HW220622   2.206   4.670   4.574
 6575SOL     OW20623   1.444   1.804   2.470
 6575SOL    HW120624   1.397   1.891   2.486
 6575SOL    HW220625   1.473   1.765   2.557
 6576SOL     OW20626   0.346   5.825   4.001
 6576SOL    HW120627   0.350   5.727   3.984
 6576SOL    HW220628   0.362   5.875   3.917
 6577SOL     OW20629   0.197   3.526   5.670
 6577SOL    HW120630   0.291   3.495   5.656
 6577SOL    HW220631   0.152   3.536   5.581
 6578SOL     OW20632   6.214   5.877   3.760
 6578SOL    HW120633   6.198   5.976   3.766
 6578SOL    HW220634   6.130   5.828   3.786
 6579SOL     OW20635   0.692   3.817   3.733
 6579SOL    HW120636   0.605   3.866   3.735
 6579SOL    HW220637   0.700   3.761   3.816
 6580SOL     OW20638   5.684   2.443   0.746
 6580SOL    HW120639   5.754   2.378   0.715
 6580SOL    HW220640   5.596   2.418   0.707
 6581SOL     OW20641   2.782   2.306   5.411
 6581SOL    HW120642   2.824   2.266   5.329
 6581SOL    HW220643   2.708   2.368   5.384
 6582SOL     OW20644   6.718   0.874   2.633
 6582SOL    HW120645   6.654   0.927   2.688
 6582SOL    HW220646   6.761   0.934   2.565
 6583SOL     OW20647   6.843   1.034   6.237
 6583SOL    HW120648   6.897   1.116   6.256
 6583SOL    HW220649   6.826   1.028   6.138
 6584SOL     OW20650   5.855   2.386   0.386
 6584SOL    HW120651   5.921   2.350   0.320
 6584SOL    HW220652   5.894   2.467   0.431
 6585SOL     OW20653   2.867   0.895   2.717
 6585SOL    HW120654   2.868   0.809   2.665
 6585SOL    HW220655   2.932   0.959   2.677
 6586SOL     OW20656   5.885   2.032   6.902
 6586SOL    HW120657   5.972   2.074   6.927
 6586SOL    HW220658   5.820   2.104   6.877
 6587SOL     OW20659   1.208   5.714   1.870
 6587SOL    HW120660   1.223   5.616   1.882
 6587SOL    HW220661   1.114   5.729   1.838
 6588SOL     OW20662   3.294   2.904   0.492
 6588SOL    HW120663   3.256   2.914   0.584
 6588SOL    HW220664   3.366   2.834   0.493
 6589SOL     OW20665   5.097   1.429   5.858
 6589SOL    HW120666   5.024   1.362   5.874
 6589SOL    HW220667   5.094   1.499   5.929
 6590SOL     OW20668   6.273   1.833   5.412
 6590SOL    HW120669   6.255   1.736   5.394
 6590SOL    HW220670   6.187   1.884   5.405
 6591SOL     OW20671   4.920   0.557   2.196
 6591SOL    HW120672   4.960   0.641   2.234
 6591SOL    HW220673   4.993   0.496   2.166
 6592SOL     OW20674   5.671   4.623   5.288
 6592SOL    HW120675   5.725   4.555   5.237
 6592SOL    HW220676   5.601   4.662   5.227
 6593SOL     OW20677   5.385   1.225   3.042
 6593SOL    HW120678   5.444   1.202   3.120
 6593SOL    HW220679   5.304   1.274   3.076
 6594SOL     OW20680   5.289   1.114   0.023
 6594SOL    HW120681   5.303   1.212   0.016
 6594SOL    HW220682   5.221   1.095   0.094
 6595SOL     OW20683   3.765   2.654   6.141
 6595SOL    HW120684   3.864   2.668   6.141
 6595SOL    HW220685   3.719   2.739   6.115
 6596SOL     OW20686   2.478   5.780   4.815
 6596SOL    HW120687   2.453   5.755   4.722
 6596SOL    HW220688   2.423   5.728   4.880
 6597SOL     OW20689   0.322   4.186   6.691
 6597SOL    HW120690   0.230   4.145   6.694
 6597SOL    HW220691   0.380   4.144   6.760
 6598SOL     OW20692   3.420   6.180   4.058
 6598SOL    HW120693   3.517   6.162   4.075
 6598SOL    HW220694   3.389   6.252   4.120
 6599SOL     OW20695   4.197   3.556   6.634
 6599SOL    HW120696   4.161   3.593   6.548
 6599SOL    HW220697   4.243   3.469   6.615
 6600SOL     OW20698   4.244   4.761   4.987
 6600SOL    HW120699   4.282   4.669   4.976
 6600SOL    HW220700   4.201   4.769   5.077
 6601SOL     OW20701   1.190   1.284   1.952
 6601SOL    HW120702   1.230   1.361   2.002
 6601SOL    HW220703   1.220   1.198   1.995
 6602SOL     OW20704   5.769   1.444   1.005
 6602SOL    HW120705   5.750   1.492   1.090
 6602SOL    HW220706   5.863   1.408   1.006
 6603SOL     OW20707   2.498   2.050   1.367
 6603SOL    HW120708   2.590   2.065   1.331
 6603SOL    HW220709   2.502   1.986   1.444
 6604SOL     OW20710   4.065   5.339   5.094
 6604SOL    HW120711   4.036   5.292   5.177
 6604SOL    HW220712   4.125   5.415   5.118
 6605SOL     OW20713   5.599   6.220   0.886
 6605SOL    HW120714   5.607   6.149   0.816
 6605SOL    HW220715   5.526   6.284   0.860
 6606SOL     OW20716   0.598   2.333   3.164
 6606SOL    HW120717   0.555   2.341   3.074
 6606SOL    HW220718   0.696   2.353   3.157
 6607SOL     OW20719   1.579   3.181   2.616
 6607SOL    HW120720   1.664   3.143   2.579
 6607SOL    HW220721   1.576   3.163   2.715
 6608SOL     OW20722   5.286   4.228   4.681
 6608SOL    HW120723   5.304   4.305   4.742
 6608SOL    HW220724   5.308   4.143   4.728
 6609SOL     OW20725   5.123   2.305   6.662
 6609SOL    HW120726   5.095   2.381   6.720
 6609SOL    HW220727   5.049   2.238   6.656
 6610SOL     OW20728   3.816   1.590   0.862
 6610SOL    HW120729   3.787   1.620   0.953
 6610SOL    HW220730   3.758   1.515   0.832
 6611SOL     OW20731   5.418   3.750   2.515
 6611SOL    HW120732   5.330   3.706   2.502
 6611SOL    HW220733   5.430   3.822   2.447
 6612SOL     OW20734   0.659   5.915   6.319
 6612SOL    HW120735   0.615   6.004   6.305
 6612SOL    HW220736   0.719   5.895   6.242
 6613SOL     OW20737   6.026   5.123   0.559
 6613SOL    HW120738   6.106   5.182   0.545
 6613SOL    HW220739   5.992   5.135   0.652
 6614SOL     OW20740   5.779   4.310   5.855
 6614SOL    HW120741   5.860   4.314   5.914
 6614SOL    HW220742   5.776   4.392   5.798
 6615SOL     OW20743   0.401   3.713   4.964
 6615SOL    HW120744   0.408   3.811   4.977
 6615SOL    HW220745   0.335   3.693   4.892
 6616SOL     OW20746   4.888   1.013   3.853
 6616SOL    HW120747   4.920   0.955   3.928
 6616SOL    HW220748   4.883   1.108   3.883
 6617SOL     OW20749   4.358   0.211   4.593
 6617SOL    HW120750   4.377   0.293   4.540
 6617SOL    HW220751   4.295   0.152   4.542
 6618SOL     OW20752   0.389   4.421   0.970
 6618SOL    HW120753   0.425   4.514   0.959
 6618SOL    HW220754   0.421   4.383   1.057
 6619SOL     OW20755   6.684   6.243   2.205
 6619SOL    HW120756   6.724   6.319   2.154
 6619SOL    HW220757   6.639   6.277   2.287
 6620SOL     OW20758   4.526   3.237   5.591
 6620SOL    HW120759   4.605   3.277   5.637
 6620SOL    HW220760   4.513   3.282   5.503
 6621SOL     OW20761   3.162   2.991   0.707
 6621SOL    HW120762   3.108   2.937   0.772
 6621SOL    HW220763   3.140   3.088   0.717
 6622SOL     OW20764   5.843   5.185   0.104
 6622SOL    HW120765   5.852   5.159   0.008
 6622SOL    HW220766   5.893   5.119   0.160
 6623SOL     OW20767   3.187   4.012   2.883
 6623SOL    HW120768   3.151   4.041   2.794
 6623SOL    HW220769   3.169   3.914   2.896
 6624SOL     OW20770   4.890   5.063   4.007
 6624SOL    HW120771   4.944   4.994   4.054
 6624SOL    HW220772   4.859   5.028   3.919
 6625SOL     OW20773   5.356   6.680   0.170
 6625SOL    HW120774   5.407   6.745   0.113
 6625SOL    HW220775   5.270   6.721   0.199
 6626SOL     OW20776   2.651   5.292   3.933
 6626SOL    HW120777   2.650   5.214   3.996
 6626SOL    HW220778   2.702   5.268   3.851
 6627SOL     OW20779   0.503   0.938   1.739
 6627SOL    HW120780   0.441   0.977   1.807
 6627SOL    HW220781   0.495   0.988   1.653
 6628SOL     OW20782   4.236   6.257   3.560
 6628SOL    HW120783   4.312   6.305   3.603
 6628SOL    HW220784   4.172   6.227   3.630
 6629SOL     OW20785   2.860   4.295   0.292
 6629SOL    HW120786   2.871   4.254   0.201
 6629SOL    HW220787   2.764   4.321   0.305
 6630SOL     OW20788   3.776   0.989   6.191
 6630SOL    HW120789   3.806   1.066   6.246
 6630SOL    HW220790   3.701   0.941   6.238
 6631SOL     OW20791   3.241   6.862   1.443
 6631SOL    HW120792   3.194   6.941   1.405
 6631SOL    HW220793   3.318   6.893   1.499
 6632SOL     OW20794   6.082   3.281   1.964
 6632SOL    HW120795   6.056   3.300   1.869
 6632SOL    HW220796   6.181   3.266   1.969
 6633SOL     OW20797   1.055   6.015   2.737
 6633SOL    HW120798   0.979   5.956   2.709
 6633SOL    HW220799   1.024   6.075   2.812
 6634SOL     OW20800   6.495   1.835   5.900
 6634SOL    HW120801   6.472   1.897   5.975
 6634SOL    HW220802   6.570   1.873   5.847
 6635SOL     OW20803   4.361   4.950   3.791
 6635SOL    HW120804   4.438   4.983   3.736
 6635SOL    HW220805   4.279   5.001   3.767
 6636SOL     OW20806   1.675   3.193   2.890
 6636SOL    HW120807   1.758   3.138   2.900
 6636SOL    HW220808   1.698   3.290   2.892
 6637SOL     OW20809   6.855   2.830   0.773
 6637SOL    HW120810   6.861   2.839   0.674
 6637SOL    HW220811   6.793   2.900   0.809
 6638SOL     OW20812   1.669   0.647   6.462
 6638SOL    HW120813   1.616   0.722   6.502
 6638SOL    HW220814   1.606   0.578   6.425
 6639SOL     OW20815   3.987   5.276   6.103
 6639SOL    HW120816   3.964   5.258   6.199
 6639SOL    HW220817   4.039   5.198   6.066
 6640SOL     OW20818   5.907   4.002   3.040
 6640SOL    HW120819   5.864   3.920   3.078
 6640SOL    HW220820   5.974   4.038   3.104
 6641SOL     OW20821   2.360   5.734   6.756
 6641SOL    HW120822   2.428   5.785   6.808
 6641SOL    HW220823   2.348   5.775   6.666
 6642SOL     OW20824   6.671   6.547   5.708
 6642SOL    HW120825   6.687   6.559   5.806
 6642SOL    HW220826   6.751   6.503   5.666
 6643SOL     OW20827   4.372   5.936   0.592
 6643SOL    HW120828   4.302   5.989   0.544
 6643SOL    HW220829   4.333   5.848   0.620
 6644SOL     OW20830   1.024   3.664   1.825
 6644SOL    HW120831   1.040   3.579   1.875
 6644SOL    HW220832   0.983   3.644   1.736
 6645SOL     OW20833   6.943   4.469   5.572
 6645SOL    HW120834   6.969   4.381   5.532
 6645SOL    HW220835   6.926   4.457   5.670
 6646SOL     OW20836   1.995   5.171   3.554
 6646SOL    HW120837   1.991   5.137   3.648
 6646SOL    HW220838   1.995   5.271   3.556
 6647SOL     OW20839   4.435   1.384   1.714
 6647SOL    HW120840   4.523   1.420   1.683
 6647SOL    HW220841   4.434   1.284   1.705
 6648SOL     OW20842   3.489   5.356   2.112
 6648SOL    HW120843   3.557   5.430   2.116
 6648SOL    HW220844   3.459   5.344   2.018
 6649SOL     OW20845   3.975   1.704   5.503
 6649SOL    HW120846   4.063   1.736   5.468
 6649SOL    HW220847   3.964   1.607   5.485
 6650SOL     OW20848   3.724   1.492   4.077
 6650SOL    HW120849   3.813   1.473   4.035
 6650SOL    HW220850   3.680   1.568   4.030
 6651SOL     OW20851   0.549   1.292   0.856
 6651SOL    HW120852   0.493   1.210   0.843
 6651SOL    HW220853   0.618   1.296   0.785
 6652SOL     OW20854   1.016   5.134   3.468
 6652SOL    HW120855   0.993   5.141   3.370
 6652SOL    HW220856   1.115   5.128   3.478
 6653SOL     OW20857   3.649   4.023   3.623
 6653SOL    HW120858   3.585   4.092   3.590
 6653SOL    HW220859   3.635   3.938   3.573
 6654SOL     OW20860   1.816   3.554   1.609
 6654SOL    HW120861   1.892   3.592   1.661
 6654SOL    HW220862   1.765   3.490   1.667
 6655SOL     OW20863   1.375   1.182   6.850
 6655SOL    HW120864   1.371   1.103   6.912
 6655SOL    HW220865   1.298   1.179   6.787
 6656SOL     OW20866   6.298   2.576   1.918
 6656SOL    HW120867   6.320   2.525   1.835
 6656SOL    HW220868   6.209   2.546   1.953
 6657SOL     OW20869   3.458   4.911   5.388
 6657SOL    HW120870   3.511   4.920   5.304
 6657SOL    HW220871   3.408   4.825   5.386
 6658SOL     OW20872   6.767   0.197   5.484
 6658SOL    HW120873   6.731   0.258   5.414
 6658SOL    HW220874   6.711   0.203   5.566
 6659SOL     OW20875   2.015   3.143   0.009
 6659SOL    HW120876   1.971   3.087   0.078
 6659SOL    HW220877   2.033   3.234   0.046
 6660SOL     OW20878   0.222   6.623   2.914
 6660SOL    HW120879   0.164   6.617   2.995
 6660SOL    HW220880   0.169   6.597   2.833
 6661SOL     OW20881   6.901   0.219   4.232
 6661SOL    HW120882   6.959   0.138   4.241
 6661SOL    HW220883   6.920   0.264   4.145
 6662SOL     OW20884   0.999   3.634   6.540
 6662SOL    HW120885   0.965   3.592   6.456
 6662SOL    HW220886   0.922   3.656   6.600
 6663SOL     OW20887   0.345   5.142   1.787
 6663SOL    HW120888   0.428   5.181   1.748
 6663SOL    HW220889   0.317   5.196   1.866
 6664SOL     OW20890   6.770   2.150   2.137
 6664SOL    HW120891   6.700   2.208   2.094
 6664SOL    HW220892   6.832   2.207   2.191
 6665SOL     OW20893   2.272   6.236   3.593
 6665SOL    HW120894   2.335   6.283   3.655
 6665SOL    HW220895   2.187   6.217   3.641
 6666SOL     OW20896   5.387   1.032   0.344
 6666SOL    HW120897   5.399   0.976   0.426
 6666SOL    HW220898   5.363   1.126   0.371
 6667SOL     OW20899   5.571   4.985   5.118
 6667SOL    HW120900   5.637   5.005   5.190
 6667SOL    HW220901   5.495   5.050   5.123
 6668SOL     OW20902   6.176   6.088   0.980
 6668SOL    HW120903   6.148   6.131   1.066
 6668SOL    HW220904   6.109   6.110   0.909
 6669SOL     OW20905   0.842   5.067   3.190
 6669SOL    HW120906   0.871   5.144   3.134
 6669SOL    HW220907   0.808   4.993   3.131
 6670SOL     OW20908   5.027   4.733   6.979
 6670SOL    HW120909   5.075   4.651   6.948
 6670SOL    HW220910   5.006   4.791   6.900
 6671SOL     OW20911   0.491   2.450   5.382
 6671SOL    HW120912   0.554   2.527   5.371
 6671SOL    HW220913   0.542   2.364   5.385
 6672SOL     OW20914   0.069   0.806   4.972
 6672SOL    HW120915   6.999   0.828   4.933
 6672SOL    HW220916   0.101   0.884   5.027
 6673SOL     OW20917   3.931   6.038   1.971
 6673SOL    HW120918   4.014   6.053   1.917
 6673SOL    HW220919   3.879   5.961   1.933
 6674SOL     OW20920   0.678   6.095   5.115
 6674SOL    HW120921   0.764   6.050   5.092
 6674SOL    HW220922   0.697   6.186   5.152
 6675SOL     OW20923   6.516   6.369   6.185
 6675SOL    HW120924   6.447   6.327   6.126
 6675SOL    HW220925   6.478   6.384   6.276
 6676SOL     OW20926   0.380   1.507   0.766
 6676SOL    HW120927   0.283   1.487   0.778
 6676SOL    HW220928   0.434   1.425   0.787
 6677SOL     OW20929   0.453   4.928   0.794
 6677SOL    HW120930   0.468   5.021   0.827
 6677SOL    HW220931   0.414   4.931   0.702
 6678SOL     OW20932   0.807   3.328   3.815
 6678SOL    HW120933   0.742   3.403   3.805
 6678SOL    HW220934   0.841   3.326   3.909
 6679SOL     OW20935   2.507   1.159   4.907
 6679SOL    HW120936   2.442   1.190   4.837
 6679SOL    HW220937   2.572   1.095   4.866
 6680SOL     OW20938   2.642   0.190   6.352
 6680SOL    HW120939   2.609   0.162   6.263
 6680SOL    HW220940   2.652   0.110   6.411
 6681SOL     OW20941   5.698   5.573   6.180
 6681SOL    HW120942   5.647   5.574   6.266
 6681SOL    HW220943   5.787   5.615   6.195
 6682SOL     OW20944   6.153   5.320   2.348
 6682SOL    HW120945   6.204   5.394   2.391
 6682SOL    HW220946   6.161   5.236   2.402
 6683SOL     OW20947   5.058   2.955   4.085
 6683SOL    HW120948   4.959   2.946   4.072
 6683SOL    HW220949   5.105   2.932   4.000
 6684SOL     OW20950   1.950   1.096   1.977
 6684SOL    HW120951   2.029   1.042   1.948
 6684SOL    HW220952   1.902   1.130   1.896
 6685SOL     OW20953   5.742   2.838   6.785
 6685SOL    HW120954   5.736   2.739   6.801
 6685SOL    HW220955   5.768   2.855   6.690
 6686SOL     OW20956   5.054   4.348   4.022
 6686SOL    HW120957   5.020   4.437   3.993
 6686SOL    HW220958   5.039   4.337   4.121
 6687SOL     OW20959   0.832   0.343   0.148
 6687SOL    HW120960   0.841   0.269   0.215
 6687SOL    HW220961   0.736   0.355   0.124
 6688SOL     OW20962   0.575   4.939   2.821
 6688SOL    HW120963   0.644   4.920   2.891
 6688SOL    HW220964   0.565   4.859   2.762
 6689SOL     OW20965   5.406   4.139   0.311
 6689SOL    HW120966   5.472   4.203   0.272
 6689SOL    HW220967   5.325   4.190   0.342
 6690SOL     OW20968   0.641   1.280   0.360
 6690SOL    HW120969   0.659   1.182   0.347
 6690SOL    HW220970   0.563   1.308   0.304
 6691SOL     OW20971   1.432   5.496   1.033
 6691SOL    HW120972   1.335   5.522   1.041
 6691SOL    HW220973   1.449   5.414   1.087
 6692SOL     OW20974   4.556   3.445   6.512
 6692SOL    HW120975   4.636   3.387   6.496
 6692SOL    HW220976   4.496   3.401   6.579
 6693SOL     OW20977   4.268   3.428   6.376
 6693SOL    HW120978   4.325   3.481   6.314
 6693SOL    HW220979   4.324   3.392   6.451
 6694SOL     OW20980   2.904   5.768   6.985
 6694SOL    HW120981   2.844   5.847   6.978
 6694SOL    HW220982   2.921   5.731   6.894
 6695SOL     OW20983   1.785   1.578   0.256
 6695SOL    HW120984   1.754   1.622   0.172
 6695SOL    HW220985   1.858   1.633   0.298
 6696SOL     OW20986   1.597   2.057   1.364
 6696SOL    HW120987   1.527   2.030   1.299
 6696SOL    HW220988   1.644   2.139   1.331
 6697SOL     OW20989   5.370   3.437   4.654
 6697SOL    HW120990   5.335   3.344   4.666
 6697SOL    HW220991   5.303   3.502   4.689
 6698SOL     OW20992   2.857   4.220   6.460
 6698SOL    HW120993   2.813   4.131   6.476
 6698SOL    HW220994   2.943   4.206   6.411
 6699SOL     OW20995   1.991   3.562   6.796
 6699SOL    HW120996   1.939   3.494   6.849
 6699SOL    HW220997   1.928   3.611   6.735
 6700SOL     OW20998   0.232   6.495   6.632
 6700SOL    HW120999   0.315   6.451   6.597
 6700SOL    HW221000   0.223   6.476   6.730
 6701SOL     OW21001   1.521   2.478   0.230
 6701SOL    HW121002   1.553   2.529   0.150
 6701SOL    HW221003   1.435   2.518   0.263
 6702SOL     OW21004   2.645   3.418   1.195
 6702SOL    HW121005   2.723   3.372   1.238
 6702SOL    HW221006   2.671   3.448   1.103
 6703SOL     OW21007   0.190   2.224   0.113
 6703SOL    HW121008   0.103   2.190   0.078
 6703SOL    HW221009   0.174   2.295   0.181
 6704SOL     OW21010   5.201   3.668   2.863
 6704SOL    HW121011   5.159   3.682   2.773
 6704SOL    HW221012   5.130   3.654   2.932
 6705SOL     OW21013   5.293   1.943   1.454
 6705SOL    HW121014   5.243   2.003   1.516
 6705SOL    HW221015   5.235   1.919   1.377
 6706SOL     OW21016   1.727   6.509   6.979
 6706SOL    HW121017   1.628   6.512   6.977
 6706SOL    HW221018   1.758   6.434   0.017
 6707SOL     OW21019   1.624   5.353   3.104
 6707SOL    HW121020   1.634   5.296   3.186
 6707SOL    HW221021   1.587   5.297   3.030
 6708SOL     OW21022   2.255   6.103   1.089
 6708SOL    HW121023   2.172   6.113   1.143
 6708SOL    HW221024   2.334   6.126   1.145
 6709SOL     OW21025   5.160   2.137   3.955
 6709SOL    HW121026   5.172   2.043   3.926
 6709SOL    HW221027   5.076   2.174   3.914
 6710SOL     OW21028   2.288   2.753   0.626
 6710SOL    HW121029   2.194   2.757   0.659
 6710SOL    HW221030   2.304   2.826   0.560
 6711SOL     OW21031   5.631   3.546   6.616
 6711SOL    HW121032   5.550   3.517   6.565
 6711SOL    HW221033   5.604   3.583   6.705
 6712SOL     OW21034   3.171   6.233   1.292
 6712SOL    HW121035   3.168   6.233   1.192
 6712SOL    HW221036   3.258   6.272   1.324
 6713SOL     OW21037   0.883   2.139   2.811
 6713SOL    HW121038   0.926   2.067   2.865
 6713SOL    HW221039   0.827   2.197   2.871
 6714SOL     OW21040   6.440   0.482   4.940
 6714SOL    HW121041   6.385   0.432   5.008
 6714SOL    HW221042   6.500   0.547   4.988
 6715SOL     OW21043   5.506   2.616   0.435
 6715SOL    HW121044   5.507   2.521   0.466
 6715SOL    HW221045   5.416   2.637   0.397
 6716SOL     OW21046   3.590   6.281   0.798
 6716SOL    HW121047   3.616   6.257   0.891
 6716SOL    HW221048   3.555   6.200   0.751
 6717SOL     OW21049   3.932   0.705   6.944
 6717SOL    HW121050   3.931   0.615   6.990
 6717SOL    HW221051   3.981   0.771   7.002
 6718SOL     OW21052   3.958   0.208   6.527
 6718SOL    HW121053   3.868   0.230   6.489
 6718SOL    HW221054   4.029   0.236   6.462
 6719SOL     OW21055   0.831   1.881   5.125
 6719SOL    HW121056   0.876   1.805   5.077
 6719SOL    HW221057   0.886   1.907   5.204
 6720SOL     OW21058   1.236   4.585   1.106
 6720SOL    HW121059   1.216   4.680   1.082
 6720SOL    HW221060   1.150   4.534   1.111
 6721SOL     OW21061   6.223   6.251   3.092
 6721SOL    HW121062   6.160   6.303   3.034
 6721SOL    HW221063   6.232   6.158   3.057
 6722SOL     OW21064   3.900   4.298   7.016
 6722SOL    HW121065   3.910   4.395   0.018
 6722SOL    HW221066   3.978   4.269   6.960
 6723SOL     OW21067   3.675   1.612   2.848
 6723SOL    HW121068   3.577   1.630   2.840
 6723SOL    HW221069   3.690   1.532   2.905
 6724SOL     OW21070   3.015   4.468   5.902
 6724SOL    HW121071   2.930   4.490   5.855
 6724SOL    HW221072   3.010   4.500   5.997
 6725SOL     OW21073   1.068   5.981   1.455
 6725SOL    HW121074   1.012   6.018   1.380
 6725SOL    HW221075   1.160   5.963   1.421
 6726SOL     OW21076   2.214   2.394   1.911
 6726SOL    HW121077   2.189   2.310   1.958
 6726SOL    HW221078   2.281   2.444   1.965
 6727SOL     OW21079   2.951   3.834   0.716
 6727SOL    HW121080   2.855   3.853   0.739
 6727SOL    HW221081   2.954   3.783   0.630
 6728SOL     OW21082   4.235   1.145   3.951
 6728SOL    HW121083   4.303   1.106   4.013
 6728SOL    HW221084   4.150   1.163   4.001
 6729SOL     OW21085   4.344   5.721   4.019
 6729SOL    HW121086   4.386   5.697   3.931
 6729SOL    HW221087   4.285   5.646   4.049
 6730SOL     OW21088   1.126   6.761   2.812
 6730SOL    HW121089   1.181   6.833   2.853
 6730SOL    HW221090   1.041   6.750   2.864
 6731SOL     OW21091   1.570   3.451   1.756
 6731SOL    HW121092   1.477   3.422   1.779
 6731SOL    HW221093   1.577   3.550   1.760
 6732SOL     OW21094   3.331   6.102   0.712
 6732SOL    HW121095   3.294   6.014   0.744
 6732SOL    HW221096   3.417   6.086   0.664
 6733SOL     OW21097   6.549   6.127   4.105
 6733SOL    HW121098   6.558   6.190   4.182
 6733SOL    HW221099   6.455   6.095   4.098
 6734SOL     OW21100   2.497   3.573   6.875
 6734SOL    HW121101   2.434   3.618   6.938
 6734SOL    HW221102   2.467   3.479   6.858
 6735SOL     OW21103   0.599   6.612   5.869
 6735SOL    HW121104   0.684   6.629   5.919
 6735SOL    HW221105   0.621   6.579   5.777
 6736SOL     OW21106   1.951   4.371   1.900
 6736SOL    HW121107   1.984   4.279   1.881
 6736SOL    HW221108   2.027   4.436   1.894
 6737SOL     OW21109   1.581   6.874   1.203
 6737SOL    HW121110   1.598   6.783   1.241
 6737SOL    HW221111   1.496   6.911   1.242
 6738SOL     OW21112   5.395   1.559   1.187
 6738SOL    HW121113   5.471   1.610   1.148
 6738SOL    HW221114   5.328   1.623   1.226
 6739SOL     OW21115   3.466   6.409   5.703
 6739SOL    HW121116   3.520   6.325   5.704
 6739SOL    HW221117   3.411   6.413   5.620
 6740SOL     OW21118   5.687   2.281   5.767
 6740SOL    HW121119   5.734   2.263   5.853
 6740SOL    HW221120   5.738   2.237   5.692
 6741SOL     OW21121   0.706   0.503   5.736
 6741SOL    HW121122   0.769   0.570   5.697
 6741SOL    HW221123   0.741   0.470   5.824
 6742SOL     OW21124   6.385   5.902   4.811
 6742SOL    HW121125   6.386   5.802   4.805
 6742SOL    HW221126   6.358   5.940   4.722
 6743SOL     OW21127   5.665   2.183   1.261
 6743SOL    HW121128   5.747   2.141   1.222
 6743SOL    HW221129   5.613   2.228   1.189
 6744SOL     OW21130   4.599   1.087   4.000
 6744SOL    HW121131   4.608   1.076   3.901
 6744SOL    HW221132   4.630   1.003   4.045
 6745SOL     OW21133   0.890   3.846   2.900
 6745SOL    HW121134   0.891   3.747   2.885
 6745SOL    HW221135   0.804   3.884   2.868
 6746SOL     OW21136   6.171   0.727   0.371
 6746SOL    HW121137   6.082   0.764   0.343
 6746SOL    HW221138   6.190   0.755   0.465
 6747SOL     OW21139   5.188   5.287   6.538
 6747SOL    HW121140   5.153   5.232   6.462
 6747SOL    HW221141   5.165   5.242   6.624
 6748SOL     OW21142   6.627   6.284   2.606
 6748SOL    HW121143   6.708   6.234   2.576
 6748SOL    HW221144   6.628   6.376   2.567
 6749SOL     OW21145   2.933   5.271   1.204
 6749SOL    HW121146   2.878   5.265   1.121
 6749SOL    HW221147   2.905   5.350   1.258
 6750SOL     OW21148   2.356   3.154   5.369
 6750SOL    HW121149   2.401   3.243   5.371
 6750SOL    HW221150   2.389   3.102   5.291
 6751SOL     OW21151   4.268   2.585   5.683
 6751SOL    HW121152   4.365   2.587   5.658
 6751SOL    HW221153   4.242   2.491   5.707
 6752SOL     OW21154   6.759   1.086   0.007
 6752SOL    HW121155   6.766   1.185   7.012
 6752SOL    HW221156   6.677   1.067   0.061
 6753SOL     OW21157   5.937   0.570   6.744
 6753SOL    HW121158   5.883   0.551   6.826
 6753SOL    HW221159   5.983   0.486   6.714
 6754SOL     OW21160   4.362   1.682   6.866
 6754SOL    HW121161   4.315   1.718   6.946
 6754SOL    HW221162   4.305   1.613   6.822
 6755SOL     OW21163   5.304   1.736   2.994
 6755SOL    HW121164   5.362   1.772   2.921
 6755SOL    HW221165   5.349   1.658   3.038
 6756SOL     OW21166   4.480   4.914   3.305
 6756SOL    HW121167   4.439   4.823   3.310
 6756SOL    HW221168   4.564   4.910   3.250
 6757SOL     OW21169   6.205   4.223   1.229
 6757SOL    HW121170   6.283   4.265   1.275
 6757SOL    HW221171   6.184   4.274   1.146
 6758SOL     OW21172   6.939   2.478   2.509
 6758SOL    HW121173   7.017   2.467   2.571
 6758SOL    HW221174   6.940   2.403   2.442
 6759SOL     OW21175   0.338   5.305   3.806
 6759SOL    HW121176   0.401   5.241   3.760
 6759SOL    HW221177   0.289   5.257   3.878
 6760SOL     OW21178   0.672   3.722   4.865
 6760SOL    HW121179   0.573   3.735   4.861
 6760SOL    HW221180   0.693   3.637   4.914
 6761SOL     OW21181   6.262   2.826   6.615
 6761SOL    HW121182   6.265   2.776   6.702
 6761SOL    HW221183   6.241   2.922   6.632
 6762SOL     OW21184   6.768   2.435   4.265
 6762SOL    HW121185   6.777   2.335   4.266
 6762SOL    HW221186   6.714   2.462   4.185
 6763SOL     OW21187   5.934   6.095   5.754
 6763SOL    HW121188   6.034   6.101   5.746
 6763SOL    HW221189   5.893   6.132   5.670
 6764SOL     OW21190   1.716   3.737   6.949
 6764SOL    HW121191   1.729   3.734   0.028
 6764SOL    HW221192   1.727   3.645   6.911
 6765SOL     OW21193   4.662   5.265   2.001
 6765SOL    HW121194   4.573   5.269   1.955
 6765SOL    HW221195   4.660   5.322   2.082
 6766SOL     OW21196   2.957   2.556   5.318
 6766SOL    HW121197   3.016   2.508   5.254
 6766SOL    HW221198   2.872   2.505   5.330
 6767SOL     OW21199   0.474   2.798   5.848
 6767SOL    HW121200   0.473   2.828   5.752
 6767SOL    HW221201   0.404   2.729   5.862
 6768SOL     OW21202   6.951   0.820   6.018
 6768SOL    HW121203   7.013   0.800   5.943
 6768SOL    HW221204   6.862   0.847   5.981
 6769SOL     OW21205   0.750   2.278   6.014
 6769SOL    HW121206   0.772   2.213   6.088
 6769SOL    HW221207   0.744   2.370   6.052
 6770SOL     OW21208   0.559   1.693   3.525
 6770SOL    HW121209   0.592   1.773   3.576
 6770SOL    HW221210   0.467   1.670   3.556
 6771SOL     OW21211   5.490   2.559   2.282
 6771SOL    HW121212   5.541   2.562   2.196
 6771SOL    HW221213   5.541   2.505   2.349
 6772SOL     OW21214   0.944   0.193   1.837
 6772SOL    HW121215   1.044   0.197   1.844
 6772SOL    HW221216   0.916   0.226   1.747
 6773SOL     OW21217   1.971   1.275   3.474
 6773SOL    HW121218   1.970   1.176   3.488
 6773SOL    HW221219   1.883   1.313   3.504
 6774SOL     OW21220   4.075   1.343   5.640
 6774SOL    HW121221   4.154   1.283   5.649
 6774SOL    HW221222   4.010   1.325   5.714
 6775SOL     OW21223   1.829   2.762   4.901
 6775SOL    HW121224   1.736   2.793   4.879
 6775SOL    HW221225   1.885   2.841   4.927
 6776SOL     OW21226   3.296   3.400   3.865
 6776SOL    HW121227   3.342   3.466   3.924
 6776SOL    HW221228   3.261   3.446   3.784
 6777SOL     OW21229   0.493   0.554   5.379
 6777SOL    HW121230   0.528   0.644   5.404
 6777SOL    HW221231   0.563   0.485   5.397
 6778SOL     OW21232   6.023   6.141   2.084
 6778SOL    HW121233   5.993   6.210   2.151
 6778SOL    HW221234   6.049   6.058   2.133
 6779SOL     OW21235   5.952   3.442   5.816
 6779SOL    HW121236   5.883   3.473   5.881
 6779SOL    HW221237   5.909   3.382   5.748
 6780SOL     OW21238   4.842   0.858   2.191
 6780SOL    HW121239   4.744   0.877   2.186
 6780SOL    HW221240   4.887   0.897   2.111
 6781SOL     OW21241   5.797   3.765   3.177
 6781SOL    HW121242   5.769   3.844   3.232
 6781SOL    HW221243   5.726   3.695   3.180
 6782SOL     OW21244   6.899   2.341   3.044
 6782SOL    HW121245   6.867   2.258   2.997
 6782SOL    HW221246   6.842   2.357   3.124
 6783SOL     OW21247   0.971   6.277   6.743
 6783SOL    HW121248   0.912   6.257   6.666
 6783SOL    HW221249   0.994   6.375   6.744
 6784SOL     OW21250   1.691   4.696   6.688
 6784SOL    HW121251   1.759   4.736   6.750
 6784SOL    HW221252   1.600   4.702   6.729
 6785SOL     OW21253   5.456   4.407   2.156
 6785SOL    HW121254   5.398   4.446   2.228
 6785SOL    HW221255   5.450   4.463   2.074
 6786SOL     OW21256   6.380   1.128   6.313
 6786SOL    HW121257   6.284   1.103   6.329
 6786SOL    HW221258   6.393   1.225   6.334
 6787SOL     OW21259   4.340   2.682   1.359
 6787SOL    HW121260   4.374   2.589   1.367
 6787SOL    HW221261   4.250   2.690   1.402
 6788SOL     OW21262   1.642   4.347   0.931
 6788SOL    HW121263   1.670   4.351   1.027
 6788SOL    HW221264   1.607   4.256   0.910
 6789SOL     OW21265   5.852   2.555   3.005
 6789SOL    HW121266   5.760   2.579   2.976
 6789SOL    HW221267   5.893   2.633   3.052
 6790SOL     OW21268   0.825   5.839   6.961
 6790SOL    HW121269   0.757   5.794   7.020
 6790SOL    HW221270   0.789   5.846   6.868
 6791SOL     OW21271   1.896   6.142   4.036
 6791SOL    HW121272   1.827   6.208   4.006
 6791SOL    HW221273   1.975   6.146   3.975
 6792SOL     OW21274   3.211   5.641   0.471
 6792SOL    HW121275   3.133   5.666   0.415
 6792SOL    HW221276   3.211   5.542   0.487
 6793SOL     OW21277   1.621   3.638   6.224
 6793SOL    HW121278   1.548   3.654   6.290
 6793SOL    HW221279   1.692   3.708   6.235
 6794SOL     OW21280   4.691   2.285   4.615
 6794SOL    HW121281   4.672   2.298   4.713
 6794SOL    HW221282   4.628   2.342   4.562
 6795SOL     OW21283   0.882   0.374   2.446
 6795SOL    HW121284   0.830   0.289   2.432
 6795SOL    HW221285   0.975   0.352   2.474
 6796SOL     OW21286   6.713   2.463   2.353
 6796SOL    HW121287   6.644   2.396   2.381
 6796SOL    HW221288   6.765   2.492   2.433
 6797SOL     OW21289   1.578   3.636   0.334
 6797SOL    HW121290   1.602   3.573   0.407
 6797SOL    HW221291   1.657   3.691   0.308
 6798SOL     OW21292   5.056   2.080   1.768
 6798SOL    HW121293   5.012   2.149   1.825
 6798SOL    HW221294   5.096   2.124   1.687
 6799SOL     OW21295   4.679   0.167   2.447
 6799SOL    HW121296   4.712   0.241   2.388
 6799SOL    HW221297   4.648   0.090   2.391
 6800SOL     OW21298   6.685   2.898   2.470
 6800SOL    HW121299   6.690   2.815   2.526
 6800SOL    HW221300   6.755   2.963   2.499
 6801SOL     OW21301   2.103   5.105   5.206
 6801SOL    HW121302   2.025   5.163   5.231
 6801SOL    HW221303   2.106   5.025   5.267
 6802SOL     OW21304   2.626   4.093   1.653
 6802SOL    HW121305   2.534   4.056   1.669
 6802SOL    HW221306   2.675   4.033   1.590
 6803SOL     OW21307   6.326   5.439   5.919
 6803SOL    HW121308   6.355   5.478   6.006
 6803SOL    HW221309   6.235   5.397   5.930
 6804SOL     OW21310   3.063   5.509   1.740
 6804SOL    HW121311   2.963   5.517   1.731
 6804SOL    HW221312   3.098   5.447   1.669
 6805SOL     OW21313   0.714   4.185   4.041
 6805SOL    HW121314   0.688   4.278   4.066
 6805SOL    HW221315   0.803   4.164   4.082
 6806SOL     OW21316   6.456   3.918   1.884
 6806SOL    HW121317   6.461   3.846   1.815
 6806SOL    HW221318   6.461   3.876   1.975
 6807SOL     OW21319   4.016   3.894   3.001
 6807SOL    HW121320   4.035   3.878   2.904
 6807SOL    HW221321   4.090   3.856   3.057
 6808SOL     OW21322   2.964   6.484   4.320
 6808SOL    HW121323   2.893   6.491   4.390
 6808SOL    HW221324   3.032   6.416   4.347
 6809SOL     OW21325   6.143   2.751   0.693
 6809SOL    HW121326   6.153   2.735   0.595
 6809SOL    HW221327   6.162   2.666   0.743
 6810SOL     OW21328   3.125   0.108   4.960
 6810SOL    HW121329   3.212   0.113   5.010
 6810SOL    HW221330   3.124   0.177   4.887
 6811SOL     OW21331   6.453   2.293   1.527
 6811SOL    HW121332   6.409   2.206   1.508
 6811SOL    HW221333   6.551   2.287   1.507
 6812SOL     OW21334   3.276   4.691   5.324
 6812SOL    HW121335   3.282   4.614   5.388
 6812SOL    HW221336   3.182   4.701   5.293
 6813SOL     OW21337   0.494   3.619   1.661
 6813SOL    HW121338   0.538   3.533   1.685
 6813SOL    HW221339   0.563   3.686   1.634
 6814SOL     OW21340   4.484   2.274   1.681
 6814SOL    HW121341   4.447   2.191   1.721
 6814SOL    HW221342   4.482   2.347   1.749
 6815SOL     OW21343   1.885   6.266   1.006
 6815SOL    HW121344   1.936   6.347   1.035
 6815SOL    HW221345   1.886   6.198   1.079
 6816SOL     OW21346   5.521   0.339   3.222
 6816SOL    HW121347   5.482   0.398   3.293
 6816SOL    HW221348   5.615   0.315   3.247
 6817SOL     OW21349   5.847   1.129   1.166
 6817SOL    HW121350   5.795   1.105   1.083
 6817SOL    HW221351   5.879   1.045   1.210
 6818SOL     OW21352   6.964   0.212   5.655
 6818SOL    HW121353   0.032   0.182   5.618
 6818SOL    HW221354   6.891   0.185   5.593
 6819SOL     OW21355   6.088   3.760   0.511
 6819SOL    HW121356   6.039   3.760   0.598
 6819SOL    HW221357   6.182   3.729   0.526
 6820SOL     OW21358   2.282   4.562   0.992
 6820SOL    HW121359   2.342   4.642   0.991
 6820SOL    HW221360   2.324   4.490   1.047
 6821SOL     OW21361   2.374   3.248   5.938
 6821SOL    HW121362   2.393   3.321   6.003
 6821SOL    HW221363   2.443   3.249   5.866
 6822SOL     OW21364   0.291   4.519   4.755
 6822SOL    HW121365   0.195   4.502   4.733
 6822SOL    HW221366   0.345   4.437   4.732
 6823SOL     OW21367   6.916   3.378   5.341
 6823SOL    HW121368   6.857   3.434   5.283
 6823SOL    HW221369   6.858   3.324   5.404
 6824SOL     OW21370   0.945   0.692   4.063
 6824SOL    HW121371   0.954   0.593   4.075
 6824SOL    HW221372   0.940   0.736   4.152
 6825SOL     OW21373   4.896   5.276   1.351
 6825SOL    HW121374   4.906   5.375   1.342
 6825SOL    HW221375   4.939   5.246   1.436
 6826SOL     OW21376   5.881   0.332   4.342
 6826SOL    HW121377   5.811   0.327   4.271
 6826SOL    HW221378   5.894   0.242   4.383
 6827SOL     OW21379   4.946   5.091   5.523
 6827SOL    HW121380   5.013   5.099   5.597
 6827SOL    HW221381   4.942   5.177   5.472
 6828SOL     OW21382   2.363   2.091   2.679
 6828SOL    HW121383   2.342   2.007   2.629
 6828SOL    HW221384   2.456   2.087   2.715
 6829SOL     OW21385   5.643   6.500   5.024
 6829SOL    HW121386   5.566   6.539   4.974
 6829SOL    HW221387   5.610   6.433   5.090
 6830SOL     OW21388   3.591   6.701   2.653
 6830SOL    HW121389   3.566   6.797   2.659
 6830SOL    HW221390   3.546   6.660   2.573
 6831SOL     OW21391   2.218   0.372   0.031
 6831SOL    HW121392   2.191   0.308   0.102
 6831SOL    HW221393   2.246   0.322   6.968
 6832SOL     OW21394   3.635   3.760   0.306
 6832SOL    HW121395   3.605   3.845   0.351
 6832SOL    HW221396   3.628   3.685   0.371
 6833SOL     OW21397   4.235   5.322   0.192
 6833SOL    HW121398   4.140   5.348   0.211
 6833SOL    HW221399   4.294   5.403   0.203
 6834SOL     OW21400   6.677   5.668   5.194
 6834SOL    HW121401   6.687   5.623   5.106
 6834SOL    HW221402   6.649   5.602   5.264
 6835SOL     OW21403   4.133   0.478   2.749
 6835SOL    HW121404   4.035   0.491   2.763
 6835SOL    HW221405   4.166   0.545   2.682
 6836SOL     OW21406   0.913   4.597   6.456
 6836SOL    HW121407   0.945   4.570   6.547
 6836SOL    HW221408   0.992   4.612   6.396
 6837SOL     OW21409   6.154   2.272   1.816
 6837SOL    HW121410   6.151   2.189   1.760
 6837SOL    HW221411   6.211   2.341   1.772
 6838SOL     OW21412   2.051   4.286   6.943
 6838SOL    HW121413   2.116   4.317   6.873
 6838SOL    HW221414   2.000   4.365   6.977
 6839SOL     OW21415   6.445   2.264   5.355
 6839SOL    HW121416   6.401   2.354   5.346
 6839SOL    HW221417   6.544   2.275   5.353
 6840SOL     OW21418   3.241   0.589   4.256
 6840SOL    HW121419   3.241   0.681   4.217
 6840SOL    HW221420   3.294   0.528   4.198
 6841SOL     OW21421   4.622   5.791   0.613
 6841SOL    HW121422   4.581   5.736   0.685
 6841SOL    HW221423   4.647   5.881   0.649
 6842SOL     OW21424   0.258   3.149   3.431
 6842SOL    HW121425   0.296   3.065   3.469
 6842SOL    HW221426   0.169   3.168   3.473
 6843SOL     OW21427   4.393   3.099   1.731
 6843SOL    HW121428   4.466   3.048   1.776
 6843SOL    HW221429   4.359   3.047   1.653
 6844SOL     OW21430   3.241   6.434   3.988
 6844SOL    HW121431   3.168   6.367   4.002
 6844SOL    HW221432   3.292   6.446   4.074
 6845SOL     OW21433   3.603   4.193   0.046
 6845SOL    HW121434   3.657   4.113   0.021
 6845SOL    HW221435   3.614   4.211   0.144
 6846SOL     OW21436   3.742   3.236   4.139
 6846SOL    HW121437   3.723   3.300   4.064
 6846SOL    HW221438   3.704   3.272   4.224
 6847SOL     OW21439   5.117   3.821   1.271
 6847SOL    HW121440   5.104   3.759   1.194
 6847SOL    HW221441   5.049   3.894   1.268
 6848SOL     OW21442   0.956   6.224   4.583
 6848SOL    HW121443   1.033   6.246   4.524
 6848SOL    HW221444   0.871   6.254   4.540
 6849SOL     OW21445   2.596   0.366   4.472
 6849SOL    HW121446   2.617   0.379   4.376
 6849SOL    HW221447   2.560   0.273   4.486
 6850SOL     OW21448   6.495   2.879   1.969
 6850SOL    HW121449   6.446   2.892   1.883
 6850SOL    HW221450   6.511   2.781   1.983
 6851SOL     OW21451   2.125   5.401   0.590
 6851SOL    HW121452   2.099   5.372   0.682
 6851SOL    HW221453   2.053   5.376   0.526
 6852SOL     OW21454   4.879   4.748   2.513
 6852SOL    HW121455   4.807   4.715   2.575
 6852SOL    HW221456   4.900   4.678   2.446
 6853SOL     OW21457   5.707   4.390   4.524
 6853SOL    HW121458   5.752   4.379   4.435
 6853SOL    HW221459   5.771   4.433   4.588
 6854SOL     OW21460   6.156   0.994   6.802
 6854SOL    HW121461   6.072   1.021   6.755
 6854SOL    HW221462   6.196   0.914   6.756
 6855SOL     OW21463   2.548   6.704   2.484
 6855SOL    HW121464   2.505   6.615   2.466
 6855SOL    HW221465   2.496   6.754   2.552
 6856SOL     OW21466   1.043   5.181   5.536
 6856SOL    HW121467   0.978   5.112   5.567
 6856SOL    HW221468   1.089   5.222   5.615
 6857SOL     OW21469   4.349   0.820   6.761
 6857SOL    HW121470   4.337   0.916   6.787
 6857SOL    HW221471   4.282   0.796   6.690
 6858SOL     OW21472   3.371   3.063   6.287
 6858SOL    HW121473   3.319   3.141   6.251
 6858SOL    HW221474   3.356   3.056   6.385
 6859SOL     OW21475   4.366   6.853   1.642
 6859SOL    HW121476   4.341   6.804   1.559
 6859SOL    HW221477   4.454   6.820   1.675
 6860SOL     OW21478   4.753   3.103   6.897
 6860SOL    HW121479   4.745   3.074   6.801
 6860SOL    HW221480   4.715   3.032   6.956
 6861SOL     OW21481   6.638   3.775   0.143
 6861SOL    HW121482   6.581   3.780   0.225
 6861SOL    HW221483   6.729   3.811   0.163
 6862SOL     OW21484   2.610   4.645   4.650
 6862SOL    HW121485   2.582   4.559   4.608
 6862SOL    HW221486   2.544   4.671   4.721
 6863SOL     OW21487   1.263   3.231   3.836
 6863SOL    HW121488   1.334   3.246   3.904
 6863SOL    HW221489   1.177   3.208   3.882
 6864SOL     OW21490   3.256   5.538   6.192
 6864SOL    HW121491   3.319   5.611   6.217
 6864SOL    HW221492   3.202   5.566   6.113
 6865SOL     OW21493   0.892   2.309   5.502
 6865SOL    HW121494   0.901   2.268   5.411
 6865SOL    HW221495   0.806   2.280   5.543
 6866SOL     OW21496   0.336   4.034   2.895
 6866SOL    HW121497   0.278   4.114   2.884
 6866SOL    HW221498   0.432   4.061   2.891
 6867SOL     OW21499   2.817   5.328   3.634
 6867SOL    HW121500   2.824   5.371   3.543
 6867SOL    HW221501   2.777   5.237   3.624
 6868SOL     OW21502   1.618   5.344   5.025
 6868SOL    HW121503   1.548   5.280   4.992
 6868SOL    HW221504   1.597   5.436   4.991
 6869SOL     OW21505   0.255   2.526   4.411
 6869SOL    HW121506   0.351   2.550   4.430
 6869SOL    HW221507   0.208   2.605   4.373
 6870SOL     OW21508   5.456   3.950   3.002
 6870SOL    HW121509   5.450   3.896   2.917
 6870SOL    HW221510   5.551   3.975   3.019
 6871SOL     OW21511   4.404   6.227   2.055
 6871SOL    HW121512   4.340   6.263   2.123
 6871SOL    HW221513   4.482   6.289   2.046
 6872SOL     OW21514   3.373   4.133   0.673
 6872SOL    HW121515   3.297   4.076   0.642
 6872SOL    HW221516   3.379   4.215   0.617
 6873SOL     OW21517   5.329   5.103   5.419
 6873SOL    HW121518   5.357   5.130   5.327
 6873SOL    HW221519   5.256   5.034   5.413
 6874SOL     OW21520   1.557   1.869   6.568
 6874SOL    HW121521   1.464   1.848   6.596
 6874SOL    HW221522   1.585   1.805   6.496
 6875SOL     OW21523   3.662   7.019   4.994
 6875SOL    HW121524   3.614   6.935   4.970
 6875SOL    HW221525   3.748   0.004   4.944
 6876SOL     OW21526   3.095   6.342   4.559
 6876SOL    HW121527   3.111   6.280   4.482
 6876SOL    HW221528   3.183   6.374   4.594
 6877SOL     OW21529   1.798   3.760   0.225
 6877SOL    HW121530   1.862   3.822   0.181
 6877SOL    HW221531   1.849   3.690   0.276
 6878SOL     OW21532   2.104   1.731   5.065
 6878SOL    HW121533   2.093   1.631   5.068
 6878SOL    HW221534   2.195   1.756   5.097
 6879SOL     OW21535   6.032   1.446   5.970
 6879SOL    HW121536   6.067   1.537   5.992
 6879SOL    HW221537   6.009   1.441   5.873
 6880SOL     OW21538   0.966   4.355   4.801
 6880SOL    HW121539   0.936   4.305   4.882
 6880SOL    HW221540   0.980   4.291   4.725
 6881SOL     OW21541   4.984   6.194   1.286
 6881SOL    HW121542   4.950   6.114   1.336
 6881SOL    HW221543   5.083   6.187   1.277
 6882SOL     OW21544   2.718   5.916   5.735
 6882SOL    HW121545   2.638   5.856   5.735
 6882SOL    HW221546   2.695   6.003   5.779
 6883SOL     OW21547   2.874   6.713   2.040
 6883SOL    HW121548   2.809   6.669   1.978
 6883SOL    HW221549   2.874   6.666   2.128
 6884SOL     OW21550   1.595   4.883   3.144
 6884SOL    HW121551   1.523   4.849   3.082
 6884SOL    HW221552   1.662   4.810   3.159
 6885SOL     OW21553   4.089   4.830   4.654
 6885SOL    HW121554   4.155   4.755   4.665
 6885SOL    HW221555   4.093   4.890   4.733
 6886SOL     OW21556   5.159   6.659   0.650
 6886SOL    HW121557   5.185   6.565   0.628
 6886SOL    HW221558   5.100   6.694   0.577
 6887SOL     OW21559   6.329   1.044   4.712
 6887SOL    HW121560   6.413   1.085   4.749
 6887SOL    HW221561   6.316   1.075   4.618
 6888SOL     OW21562   6.678   6.975   3.780
 6888SOL    HW121563   6.621   6.895   3.759
 6888SOL    HW221564   6.729   6.958   3.864
 6889SOL     OW21565   2.137   3.980   6.165
 6889SOL    HW121566   2.136   3.885   6.196
 6889SOL    HW221567   2.133   4.041   6.244
 6890SOL     OW21568   1.409   0.578   1.487
 6890SOL    HW121569   1.466   0.552   1.409
 6890SOL    HW221570   1.325   0.620   1.454
 6891SOL     OW21571   4.738   5.475   5.672
 6891SOL    HW121572   4.828   5.449   5.707
 6891SOL    HW221573   4.731   5.575   5.668
 6892SOL     OW21574   3.119   1.896   4.253
 6892SOL    HW121575   3.150   1.991   4.254
 6892SOL    HW221576   3.031   1.890   4.206
 6893SOL     OW21577   4.942   6.883   1.145
 6893SOL    HW121578   5.020   6.845   1.194
 6893SOL    HW221579   4.917   6.972   1.184
 6894SOL     OW21580   6.203   4.649   5.907
 6894SOL    HW121581   6.132   4.711   5.942
 6894SOL    HW221582   6.224   4.673   5.813
 6895SOL     OW21583   4.988   4.990   4.740
 6895SOL    HW121584   4.899   4.963   4.705
 6895SOL    HW221585   5.035   4.910   4.777
 6896SOL     OW21586   5.378   2.304   2.237
 6896SOL    HW121587   5.286   2.271   2.218
 6896SOL    HW221588   5.374   2.402   2.258
 6897SOL     OW21589   3.893   1.219   1.834
 6897SOL    HW121590   3.978   1.170   1.815
 6897SOL    HW221591   3.818   1.154   1.840
 6898SOL     OW21592   3.863   1.452   2.208
 6898SOL    HW121593   3.796   1.383   2.180
 6898SOL    HW221594   3.951   1.430   2.167
 6899SOL     OW21595   5.810   4.742   5.773
 6899SOL    HW121596   5.777   4.677   5.704
 6899SOL    HW221597   5.871   4.696   5.836
 6900SOL     OW21598   4.081   0.338   6.083
 6900SOL    HW121599   4.124   0.413   6.133
 6900SOL    HW221600   4.117   0.335   5.990
 6901SOL     OW21601   1.584   0.564   0.010
 6901SOL    HW121602   1.634   0.607   6.954
 6901SOL    HW221603   1.642   0.496   0.054
 6902SOL     OW21604   6.601   5.748   2.712
 6902SOL    HW121605   6.573   5.800   2.793
 6902SOL    HW221606   6.560   5.657   2.714
 6903SOL     OW21607   6.092   4.437   6.713
 6903SOL    HW121608   6.108   4.341   6.688
 6903SOL    HW221609   6.047   4.484   6.638
 6904SOL     OW21610   0.498   1.254   2.714
 6904SOL    HW121611   0.427   1.201   2.761
 6904SOL    HW221612   0.480   1.351   2.725
 6905SOL     OW21613   3.826   5.481   0.723
 6905SOL    HW121614   3.874   5.406   0.769
 6905SOL    HW221615   3.728   5.463   0.725
 6906SOL     OW21616   6.184   6.309   2.467
 6906SOL    HW121617   6.195   6.378   2.538
 6906SOL    HW221618   6.200   6.350   2.377
 6907SOL     OW21619   3.411   0.736   1.539
 6907SOL    HW121620   3.330   0.683   1.515
 6907SOL    HW221621   3.469   0.683   1.600
 6908SOL     OW21622   5.134   6.840   0.245
 6908SOL    HW121623   5.091   6.877   0.163
 6908SOL    HW221624   5.163   6.915   0.304
 6909SOL     OW21625   2.714   2.354   6.986
 6909SOL    HW121626   2.795   2.375   6.931
 6909SOL    HW221627   2.637   2.333   6.925
 6910SOL     OW21628   4.620   0.880   1.027
 6910SOL    HW121629   4.590   0.830   0.946
 6910SOL    HW221630   4.541   0.917   1.075
 6911SOL     OW21631   3.644   6.752   4.908
 6911SOL    HW121632   3.589   6.718   4.832
 6911SOL    HW221633   3.595   6.739   4.994
 6912SOL     OW21634   3.774   5.855   1.832
 6912SOL    HW121635   3.778   5.880   1.735
 6912SOL    HW221636   3.681   5.865   1.865
 6913SOL     OW21637   4.147   6.054   5.615
 6913SOL    HW121638   4.132   6.153   5.608
 6913SOL    HW221639   4.231   6.037   5.667
 6914SOL     OW21640   0.147   5.211   7.002
 6914SOL    HW121641   0.153   5.111   7.011
 6914SOL    HW221642   0.101   5.249   0.062
 6915SOL     OW21643   0.981   6.802   6.951
 6915SOL    HW121644   0.910   6.732   6.957
 6915SOL    HW221645   0.941   6.887   6.915
 6916SOL     OW21646   6.067   0.486   6.129
 6916SOL    HW121647   5.971   0.509   6.113
 6916SOL    HW221648   6.072   0.402   6.182
 6917SOL     OW21649   4.333   6.457   5.939
 6917SOL    HW121650   4.268   6.475   6.013
 6917SOL    HW221651   4.424   6.442   5.978
 6918SOL     OW21652   2.340   2.445   3.082
 6918SOL    HW121653   2.332   2.473   3.177
 6918SOL    HW221654   2.408   2.372   3.074
 6919SOL     OW21655   1.822   5.923   3.679
 6919SOL    HW121656   1.872   6.002   3.645
 6919SOL    HW221657   1.886   5.856   3.715
 6920SOL     OW21658   5.795   5.732   4.251
 6920SOL    HW121659   5.844   5.723   4.338
 6920SOL    HW221660   5.711   5.679   4.254
 6921SOL     OW21661   1.937   4.794   2.764
 6921SOL    HW121662   1.988   4.819   2.846
 6921SOL    HW221663   1.879   4.716   2.783
 6922SOL     OW21664   1.914   6.100   1.494
 6922SOL    HW121665   1.899   6.152   1.578
 6922SOL    HW221666   1.902   6.002   1.513
 6923SOL     OW21667   5.081   5.651   4.205
 6923SOL    HW121668   5.021   5.726   4.179
 6923SOL    HW221669   5.057   5.569   4.153
 6924SOL     OW21670   5.514   5.952   2.260
 6924SOL    HW121671   5.447   5.929   2.331
 6924SOL    HW221672   5.603   5.970   2.302
 6925SOL     OW21673   4.479   5.509   1.963
 6925SOL    HW121674   4.465   5.512   1.864
 6925SOL    HW221675   4.546   5.579   1.990
 6926SOL     OW21676   2.682   3.626   5.697
 6926SOL    HW121677   2.777   3.646   5.670
 6926SOL    HW221678   2.675   3.530   5.723
 6927SOL     OW21679   4.206   3.746   0.747
 6927SOL    HW121680   4.120   3.745   0.695
 6927SOL    HW221681   4.281   3.720   0.687
 6928SOL     OW21682   6.744   0.688   6.676
 6928SOL    HW121683   6.822   0.681   6.614
 6928SOL    HW221684   6.729   0.600   6.721
 6929SOL     OW21685   3.029   5.859   1.091
 6929SOL    HW121686   2.977   5.892   1.169
 6929SOL    HW221687   3.046   5.761   1.102
 6930SOL     OW21688   0.138   1.086   3.095
 6930SOL    HW121689   0.086   1.039   3.024
 6930SOL    HW221690   0.095   1.069   3.184
 6931SOL     OW21691   2.403   0.435   1.115
 6931SOL    HW121692   2.501   0.438   1.134
 6931SOL    HW221693   2.386   0.380   1.034
 6932SOL     OW21694   3.188   2.479   0.253
 6932SOL    HW121695   3.167   2.574   0.231
 6932SOL    HW221696   3.193   2.425   0.169
 6933SOL     OW21697   3.068   5.986   5.344
 6933SOL    HW121698   2.979   5.953   5.313
 6933SOL    HW221699   3.130   5.993   5.265
 6934SOL     OW21700   5.539   4.781   6.264
 6934SOL    HW121701   5.573   4.771   6.358
 6934SOL    HW221702   5.616   4.799   6.203
 6935SOL     OW21703   4.187   5.291   3.405
 6935SOL    HW121704   4.264   5.279   3.342
 6935SOL    HW221705   4.101   5.289   3.354
 6936SOL     OW21706   0.705   4.517   0.662
 6936SOL    HW121707   0.715   4.615   0.675
 6936SOL    HW221708   0.610   4.495   0.640
 6937SOL     OW21709   4.432   5.912   6.277
 6937SOL    HW121710   4.527   5.918   6.306
 6937SOL    HW221711   4.374   5.884   6.353
 6938SOL     OW21712   6.557   1.955   5.443
 6938SOL    HW121713   6.601   1.999   5.520
 6938SOL    HW221714   6.524   1.864   5.470
 6939SOL     OW21715   6.941   4.638   1.544
 6939SOL    HW121716   6.937   4.730   1.583
 6939SOL    HW221717   6.969   4.573   1.614
 6940SOL     OW21718   4.569   0.484   4.254
 6940SOL    HW121719   4.510   0.445   4.325
 6940SOL    HW221720   4.533   0.461   4.164
 6941SOL     OW21721   3.342   2.843   5.086
 6941SOL    HW121722   3.287   2.795   5.155
 6941SOL    HW221723   3.282   2.877   5.014
 6942SOL     OW21724   6.369   1.360   6.440
 6942SOL    HW121725   6.336   1.362   6.535
 6942SOL    HW221726   6.312   1.421   6.385
 6943SOL     OW21727   5.937   4.674   6.874
 6943SOL    HW121728   5.948   4.709   6.781
 6943SOL    HW221729   6.008   4.606   6.893
 6944SOL     OW21730   1.778   0.075   0.470
 6944SOL    HW121731   1.850   0.006   0.466
 6944SOL    HW221732   1.702   0.048   0.411
 6945SOL     OW21733   3.776   1.281   6.966
 6945SOL    HW121734   3.836   1.265   6.887
 6945SOL    HW221735   3.760   1.194   7.013
 6946SOL     OW21736   6.383   4.161   2.154
 6946SOL    HW121737   6.300   4.153   2.100
 6946SOL    HW221738   6.438   4.078   2.144
 6947SOL     OW21739   3.470   6.543   0.973
 6947SOL    HW121740   3.524   6.545   1.057
 6947SOL    HW221741   3.529   6.560   0.894
 6948SOL     OW21742   3.070   1.517   5.829
 6948SOL    HW121743   3.111   1.501   5.738
 6948SOL    HW221744   3.140   1.505   5.899
 6949SOL     OW21745   5.147   0.427   2.093
 6949SOL    HW121746   5.225   0.368   2.072
 6949SOL    HW221747   5.178   0.506   2.146
 6950SOL     OW21748   3.733   1.420   3.039
 6950SOL    HW121749   3.789   1.352   2.992
 6950SOL    HW221750   3.718   1.393   3.134
 6951SOL     OW21751   4.723   3.841   5.630
 6951SOL    HW121752   4.797   3.813   5.569
 6951SOL    HW221753   4.649   3.775   5.625
 6952SOL     OW21754   0.178   3.791   6.566
 6952SOL    HW121755   0.133   3.740   6.639
 6952SOL    HW221756   0.133   3.880   6.554
 6953SOL     OW21757   5.635   2.340   4.652
 6953SOL    HW121758   5.631   2.348   4.752
 6953SOL    HW221759   5.679   2.253   4.628
 6954SOL     OW21760   0.223   4.720   1.625
 6954SOL    HW121761   0.225   4.817   1.605
 6954SOL    HW221762   0.235   4.667   1.541
 6955SOL     OW21763   0.030   1.049   3.969
 6955SOL    HW121764   0.041   1.144   3.941
 6955SOL    HW221765   6.975   1.008   3.918
 6956SOL     OW21766   3.450   3.962   1.519
 6956SOL    HW121767   3.361   3.928   1.551
 6956SOL    HW221768   3.484   4.031   1.583
 6957SOL     OW21769   1.223   4.381   0.663
 6957SOL    HW121770   1.183   4.298   0.703
 6957SOL    HW221771   1.167   4.460   0.686
 6958SOL     OW21772   1.663   3.199   5.834
 6958SOL    HW121773   1.681   3.101   5.829
 6958SOL    HW221774   1.592   3.216   5.903
 6959SOL     OW21775   4.425   0.928   4.919
 6959SOL    HW121776   4.364   0.863   4.875
 6959SOL    HW221777   4.519   0.891   4.919
 6960SOL     OW21778   1.209   5.752   6.708
 6960SOL    HW121779   1.213   5.803   6.622
 6960SOL    HW221780   1.211   5.654   6.689
 6961SOL     OW21781   5.979   1.072   3.369
 6961SOL    HW121782   5.948   1.142   3.305
 6961SOL    HW221783   5.919   1.070   3.449
 6962SOL     OW21784   3.173   3.775   0.920
 6962SOL    HW121785   3.106   3.782   0.846
 6962SOL    HW221786   3.242   3.846   0.910
 6963SOL     OW21787   6.228   5.900   1.866
 6963SOL    HW121788   6.279   5.961   1.805
 6963SOL    HW221789   6.150   5.950   1.905
 6964SOL     OW21790   3.827   5.121   5.780
 6964SOL    HW121791   3.871   5.033   5.763
 6964SOL    HW221792   3.894   5.187   5.813
 6965SOL     OW21793   5.987   1.202   6.054
 6965SOL    HW121794   6.006   1.294   6.020
 6965SOL    HW221795   6.017   1.134   5.987
 6966SOL     OW21796   4.730   1.916   3.984
 6966SOL    HW121797   4.636   1.893   4.011
 6966SOL    HW221798   4.785   1.933   4.066
 6967SOL     OW21799   2.809   2.746   6.364
 6967SOL    HW121800   2.829   2.668   6.423
 6967SOL    HW221801   2.840   2.726   6.271
 6968SOL     OW21802   4.206   0.564   3.431
 6968SOL    HW121803   4.171   0.644   3.382
 6968SOL    HW221804   4.292   0.535   3.389
 6969SOL     OW21805   3.208   3.342   1.229
 6969SOL    HW121806   3.156   3.266   1.189
 6969SOL    HW221807   3.157   3.427   1.217
 6970SOL     OW21808   5.260   4.457   0.211
 6970SOL    HW121809   5.226   4.550   0.197
 6970SOL    HW221810   5.360   4.456   0.205
 6971SOL     OW21811   5.975   1.638   2.227
 6971SOL    HW121812   5.919   1.556   2.240
 6971SOL    HW221813   6.009   1.641   2.132
 6972SOL     OW21814   5.119   5.817   4.460
 6972SOL    HW121815   5.089   5.896   4.407
 6972SOL    HW221816   5.046   5.749   4.462
 6973SOL     OW21817   1.397   3.956   3.753
 6973SOL    HW121818   1.309   3.976   3.708
 6973SOL    HW221819   1.423   3.861   3.734
 6974SOL     OW21820   3.356   4.088   4.966
 6974SOL    HW121821   3.339   4.114   5.062
 6974SOL    HW221822   3.430   4.022   4.962
 6975SOL     OW21823   1.676   6.387   6.035
 6975SOL    HW121824   1.579   6.408   6.045
 6975SOL    HW221825   1.697   6.302   6.083
 6976SOL     OW21826   1.364   6.261   0.788
 6976SOL    HW121827   1.436   6.193   0.779
 6976SOL    HW221828   1.327   6.258   0.881
 6977SOL     OW21829   5.266   2.907   1.378
 6977SOL    HW121830   5.235   2.866   1.292
 6977SOL    HW221831   5.246   3.005   1.376
 6978SOL     OW21832   4.457   2.451   3.492
 6978SOL    HW121833   4.498   2.397   3.566
 6978SOL    HW221834   4.372   2.407   3.462
 6979SOL     OW21835   0.222   3.559   4.740
 6979SOL    HW121836   0.143   3.607   4.702
 6979SOL    HW221837   0.194   3.506   4.820
 6980SOL     OW21838   4.916   1.826   5.122
 6980SOL    HW121839   4.857   1.752   5.092
 6980SOL    HW221840   5.006   1.817   5.079
 6981SOL     OW21841   3.505   3.694   6.281
 6981SOL    HW121842   3.452   3.667   6.361
 6981SOL    HW221843   3.600   3.665   6.291
 6982SOL     OW21844   0.488   0.330   4.816
 6982SOL    HW121845   0.496   0.317   4.717
 6982SOL    HW221846   0.573   0.368   4.852
 6983SOL     OW21847   6.085   1.009   3.108
 6983SOL    HW121848   6.037   0.939   3.054
 6983SOL    HW221849   6.033   1.028   3.191
 6984SOL     OW21850   1.556   1.306   6.087
 6984SOL    HW121851   1.622   1.235   6.059
 6984SOL    HW221852   1.579   1.392   6.042
 6985SOL     OW21853   5.374   6.763   4.026
 6985SOL    HW121854   5.392   6.673   3.986
 6985SOL    HW221855   5.318   6.752   4.107
 6986SOL     OW21856   2.041   6.123   5.220
 6986SOL    HW121857   2.070   6.215   5.245
 6986SOL    HW221858   1.956   6.128   5.166
 6987SOL     OW21859   6.813   3.421   6.425
 6987SOL    HW121860   6.777   3.329   6.443
 6987SOL    HW221861   6.877   3.417   6.348
 6988SOL     OW21862   5.632   1.713   6.554
 6988SOL    HW121863   5.665   1.668   6.637
 6988SOL    HW221864   5.533   1.702   6.547
 6989SOL     OW21865   1.913   3.361   4.579
 6989SOL    HW121866   1.889   3.395   4.488
 6989SOL    HW221867   1.879   3.424   4.648
 6990SOL     OW21868   4.229   3.484   1.758
 6990SOL    HW121869   4.218   3.583   1.749
 6990SOL    HW221870   4.310   3.454   1.707
 6991SOL     OW21871   4.283   4.524   5.473
 6991SOL    HW121872   4.292   4.445   5.533
 6991SOL    HW221873   4.256   4.604   5.526
 6992SOL     OW21874   6.391   6.414   4.618
 6992SOL    HW121875   6.407   6.465   4.702
 6992SOL    HW221876   6.293   6.393   4.610
 6993SOL     OW21877   0.562   6.984   3.096
 6993SOL    HW121878   0.540   0.019   3.015
 6993SOL    HW221879   0.660   6.964   3.097
 6994SOL     OW21880   1.748   2.165   0.597
 6994SOL    HW121881   1.729   2.079   0.550
 6994SOL    HW221882   1.682   2.234   0.566
 6995SOL     OW21883   1.345   5.050   3.824
 6995SOL    HW121884   1.354   5.108   3.905
 6995SOL    HW221885   1.432   5.006   3.804
 6996SOL     OW21886   1.729   6.456   5.276
 6996SOL    HW121887   1.653   6.510   5.238
 6996SOL    HW221888   1.695   6.368   5.307
 6997SOL     OW21889   4.367   5.086   4.222
 6997SOL    HW121890   4.429   5.047   4.154
 6997SOL    HW221891   4.320   5.013   4.271
 6998SOL     OW21892   2.588   2.010   2.387
 6998SOL    HW121893   2.672   2.057   2.362
 6998SOL    HW221894   2.528   2.004   2.307
 6999SOL     OW21895   5.224   1.774   6.670
 6999SOL    HW121896   5.315   1.783   6.709
 6999SOL    HW221897   5.232   1.755   6.572
 7000SOL     OW21898   6.939   6.971   1.299
 7000SOL    HW121899   7.005   6.896   1.303
 7000SOL    HW221900   6.874   6.962   1.375
 7001SOL     OW21901   2.790   1.493   6.591
 7001SOL    HW121902   2.865   1.471   6.527
 7001SOL    HW221903   2.816   1.572   6.646
 7002SOL     OW21904   2.688   4.913   1.956
 7002SOL    HW121905   2.786   4.924   1.970
 7002SOL    HW221906   2.663   4.817   1.973
 7003SOL     OW21907   1.881   6.310   5.522
 7003SOL    HW121908   1.827   6.342   5.599
 7003SOL    HW221909   1.896   6.386   5.458
 7004SOL     OW21910   1.987   3.814   6.378
 7004SOL    HW121911   1.919   3.873   6.333
 7004SOL    HW221912   2.052   3.871   6.429
 7005SOL     OW21913   6.304   0.299   6.103
 7005SOL    HW121914   6.377   0.314   6.170
 7005SOL    HW221915   6.331   0.341   6.016
 7006SOL     OW21916   5.045   5.407   4.103
 7006SOL    HW121917   5.017   5.340   4.034
 7006SOL    HW221918   4.997   5.388   4.189
 7007SOL     OW21919   5.290   5.047   1.850
 7007SOL    HW121920   5.265   5.083   1.760
 7007SOL    HW221921   5.282   5.120   1.918
 7008SOL     OW21922   0.655   6.061   4.459
 7008SOL    HW121923   0.673   5.997   4.533
 7008SOL    HW221924   0.714   6.040   4.381
 7009SOL     OW21925   0.051   4.579   1.262
 7009SOL    HW121926   7.017   4.600   1.344
 7009SOL    HW221927   7.014   4.527   1.198
 7010SOL     OW21928   5.586   4.136   5.980
 7010SOL    HW121929   5.638   4.213   5.943
 7010SOL    HW221930   5.567   4.070   5.906
 7011SOL     OW21931   1.085   0.113   5.519
 7011SOL    HW121932   1.079   0.128   5.618
 7011SOL    HW221933   1.181   0.103   5.493
 7012SOL     OW21934   0.509   0.734   1.461
 7012SOL    HW121935   0.567   0.711   1.540
 7012SOL    HW221936   0.413   0.735   1.490
 7013SOL     OW21937   6.091   2.297   1.302
 7013SOL    HW121938   6.133   2.251   1.380
 7013SOL    HW221939   6.091   2.396   1.318
 7014SOL     OW21940   2.459   5.014   0.800
 7014SOL    HW121941   2.381   4.952   0.792
 7014SOL    HW221942   2.427   5.102   0.837
 7015SOL     OW21943   4.788   2.377   2.168
 7015SOL    HW121944   4.759   2.450   2.231
 7015SOL    HW221945   4.771   2.406   2.074
 7016SOL     OW21946   4.613   4.431   0.361
 7016SOL    HW121947   4.533   4.387   0.320
 7016SOL    HW221948   4.676   4.361   0.393
 7017SOL     OW21949   5.399   2.263   5.404
 7017SOL    HW121950   5.324   2.261   5.471
 7017SOL    HW221951   5.361   2.263   5.312
 7018SOL     OW21952   0.586   3.838   3.061
 7018SOL    HW121953   0.576   3.901   3.138
 7018SOL    HW221954   0.541   3.751   3.083
 7019SOL     OW21955   6.851   6.112   2.555
 7019SOL    HW121956   6.841   6.013   2.552
 7019SOL    HW221957   6.948   6.136   2.559
 7020SOL     OW21958   0.344   5.620   6.998
 7020SOL    HW121959   0.261   5.656   0.020
 7020SOL    HW221960   0.365   5.673   6.916
 7021SOL     OW21961   3.024   6.745   5.197
 7021SOL    HW121962   2.986   6.681   5.264
 7021SOL    HW221963   3.068   6.821   5.245
 7022SOL     OW21964   3.768   5.099   6.049
 7022SOL    HW121965   3.832   5.174   6.062
 7022SOL    HW221966   3.778   5.062   5.957
 7023SOL     OW21967   4.010   5.149   2.419
 7023SOL    HW121968   4.073   5.220   2.452
 7023SOL    HW221969   3.926   5.151   2.473
 7024SOL     OW21970   5.813   6.430   1.879
 7024SOL    HW121971   5.884   6.453   1.813
 7024SOL    HW221972   5.751   6.508   1.892
 7025SOL     OW21973   2.808   0.258   1.161
 7025SOL    HW121974   2.807   0.186   1.231
 7025SOL    HW221975   2.784   0.345   1.202
 7026SOL     OW21976   4.814   2.613   0.565
 7026SOL    HW121977   4.891   2.664   0.525
 7026SOL    HW221978   4.792   2.535   0.506
 7027SOL     OW21979   5.959   5.796   4.801
 7027SOL    HW121980   6.005   5.708   4.790
 7027SOL    HW221981   5.953   5.818   4.899
 7028SOL     OW21982   3.323   1.181   4.524
 7028SOL    HW121983   3.326   1.280   4.534
 7028SOL    HW221984   3.392   1.152   4.457
 7029SOL     OW21985   4.018   0.775   3.991
 7029SOL    HW121986   4.057   0.848   4.048
 7029SOL    HW221987   4.090   0.735   3.935
 7030SOL     OW21988   1.553   3.652   3.938
 7030SOL    HW121989   1.584   3.557   3.936
 7030SOL    HW221990   1.510   3.671   4.027
 7031SOL     OW21991   1.883   0.731   4.535
 7031SOL    HW121992   1.906   0.639   4.566
 7031SOL    HW221993   1.911   0.742   4.440
 7032SOL     OW21994   5.733   2.740   3.310
 7032SOL    HW121995   5.755   2.650   3.347
 7032SOL    HW221996   5.634   2.748   3.296
 7033SOL     OW21997   0.072   1.252   4.685
 7033SOL    HW121998   0.070   1.159   4.648
 7033SOL    HW221999   0.130   1.254   4.766
 7034SOL     OW22000   0.239   5.111   3.575
 7034SOL    HW122001   0.315   5.047   3.572
 7034SOL    HW222002   0.170   5.078   3.640
 7035SOL     OW22003   0.175   4.871   1.295
 7035SOL    HW122004   0.155   4.925   1.213
 7035SOL    HW222005   0.121   4.787   1.293
 7036SOL     OW22006   6.577   5.093   0.377
 7036SOL    HW122007   6.643   5.094   0.301
 7036SOL    HW222008   6.485   5.080   0.340
 7037SOL     OW22009   1.160   0.441   6.375
 7037SOL    HW122010   1.173   0.532   6.416
 7037SOL    HW222011   1.065   0.412   6.390
 7038SOL     OW22012   2.085   2.983   4.359
 7038SOL    HW122013   2.096   3.071   4.314
 7038SOL    HW222014   2.162   2.923   4.336
 7039SOL     OW22015   3.934   1.702   6.897
 7039SOL    HW122016   3.859   1.637   6.909
 7039SOL    HW222017   3.911   1.767   6.825
 7040SOL     OW22018   6.000   2.425   6.715
 7040SOL    HW122019   5.907   2.423   6.679
 7040SOL    HW222020   6.057   2.361   6.663
 7041SOL     OW22021   2.069   1.588   3.521
 7041SOL    HW122022   2.060   1.611   3.424
 7041SOL    HW222023   2.006   1.645   3.574
 7042SOL     OW22024   1.960   0.968   6.818
 7042SOL    HW122025   2.018   0.973   6.900
 7042SOL    HW222026   2.007   0.914   6.748
 7043SOL     OW22027   1.696   2.837   1.470
 7043SOL    HW122028   1.665   2.928   1.498
 7043SOL    HW222029   1.795   2.839   1.452
 7044SOL     OW22030   0.027   5.705   0.820
 7044SOL    HW122031   6.952   5.675   0.810
 7044SOL    HW222032   0.088   5.637   0.780
 7045SOL     OW22033   0.357   4.919   0.546
 7045SOL    HW122034   0.416   4.948   0.470
 7045SOL    HW222035   0.282   4.864   0.511
 7046SOL     OW22036   2.909   2.230   3.847
 7046SOL    HW122037   2.920   2.329   3.843
 7046SOL    HW222038   2.999   2.188   3.861
 7047SOL     OW22039   1.669   6.841   3.378
 7047SOL    HW122040   1.680   6.773   3.306
 7047SOL    HW222041   1.759   6.870   3.411
 7048SOL     OW22042   0.079   5.371   0.250
 7048SOL    HW122043   0.121   5.437   0.312
 7048SOL    HW222044   0.017   5.311   0.302
 7049SOL     OW22045   2.385   0.878   6.903
 7049SOL    HW122046   2.435   0.829   6.831
 7049SOL    HW222047   2.353   0.965   6.868
 7050SOL     OW22048   4.307   3.402   5.485
 7050SOL    HW122049   4.331   3.381   5.579
 7050SOL    HW222050   4.389   3.423   5.433
 7051SOL     OW22051   6.024   6.341   2.945
 7051SOL    HW122052   5.954   6.271   2.932
 7051SOL    HW222053   5.983   6.431   2.929
 7052SOL     OW22054   6.351   0.313   5.139
 7052SOL    HW122055   6.381   0.228   5.181
 7052SOL    HW222056   6.342   0.384   5.209
 7053SOL     OW22057   6.394   3.362   5.997
 7053SOL    HW122058   6.360   3.437   6.054
 7053SOL    HW222059   6.331   3.349   5.919
 7054SOL     OW22060   6.212   2.297   2.683
 7054SOL    HW122061   6.213   2.224   2.614
 7054SOL    HW222062   6.118   2.326   2.699
 7055SOL     OW22063   4.369   1.784   3.579
 7055SOL    HW122064   4.443   1.850   3.592
 7055SOL    HW222065   4.401   1.692   3.600
 7056SOL     OW22066   4.594   5.424   4.440
 7056SOL    HW122067   4.543   5.348   4.399
 7056SOL    HW222068   4.531   5.482   4.491
 7057SOL     OW22069   5.571   5.822   3.027
 7057SOL    HW122070   5.562   5.867   3.116
 7057SOL    HW222071   5.633   5.744   3.037
 7058SOL     OW22072   0.105   3.918   4.448
 7058SOL    HW122073   0.081   4.007   4.409
 7058SOL    HW222074   0.197   3.892   4.416
 7059SOL     OW22075   1.801   0.738   2.345
 7059SOL    HW122076   1.747   0.790   2.280
 7059SOL    HW222077   1.770   0.758   2.438
 7060SOL     OW22078   3.342   0.236   0.711
 7060SOL    HW122079   3.301   0.220   0.801
 7060SOL    HW222080   3.291   0.307   0.664
 7061SOL     OW22081   0.737   1.004   2.832
 7061SOL    HW122082   0.785   1.092   2.829
 7061SOL    HW222083   0.700   0.990   2.924
 7062SOL     OW22084   6.688   1.055   5.714
 7062SOL    HW122085   6.737   1.052   5.627
 7062SOL    HW222086   6.593   1.082   5.698
 7063SOL     OW22087   1.845   6.286   1.691
 7063SOL    HW122088   1.906   6.356   1.655
 7063SOL    HW222089   1.862   6.274   1.789
 7064SOL     OW22090   3.380   2.473   0.456
 7064SOL    HW122091   3.474   2.492   0.426
 7064SOL    HW222092   3.316   2.493   0.382
 7065SOL     OW22093   3.255   3.428   2.548
 7065SOL    HW122094   3.203   3.514   2.540
 7065SOL    HW222095   3.353   3.448   2.541
 7066SOL     OW22096   2.526   4.799   1.602
 7066SOL    HW122097   2.554   4.720   1.657
 7066SOL    HW222098   2.507   4.876   1.662
 7067SOL     OW22099   0.945   4.229   5.044
 7067SOL    HW122100   1.004   4.151   5.021
 7067SOL    HW222101   0.897   4.210   5.130
 7068SOL     OW22102   0.312   0.896   2.848
 7068SOL    HW122103   0.299   0.848   2.935
 7068SOL    HW222104   0.408   0.887   2.819
 7069SOL     OW22105   1.595   4.641   5.332
 7069SOL    HW122106   1.674   4.581   5.347
 7069SOL    HW222107   1.583   4.656   5.234
 7070SOL     OW22108   5.517   5.173   3.177
 7070SOL    HW122109   5.480   5.264   3.194
 7070SOL    HW222110   5.476   5.134   3.095
 7071SOL     OW22111   1.380   6.253   5.257
 7071SOL    HW122112   1.309   6.323   5.265
 7071SOL    HW222113   1.442   6.260   5.336
 7072SOL     OW22114   0.415   0.064   6.345
 7072SOL    HW122115   0.452   0.152   6.374
 7072SOL    HW222116   0.443   0.046   6.251
 7073SOL     OW22117   1.778   2.422   6.927
 7073SOL    HW122118   1.760   2.409   6.830
 7073SOL    HW222119   1.703   2.474   6.968
 7074SOL     OW22120   3.832   1.472   6.580
 7074SOL    HW122121   3.755   1.500   6.522
 7074SOL    HW222122   3.890   1.552   6.598
 7075SOL     OW22123   1.097   6.237   2.971
 7075SOL    HW122124   0.998   6.234   2.960
 7075SOL    HW222125   1.120   6.254   3.067
 7076SOL     OW22126   3.589   1.230   6.351
 7076SOL    HW122127   3.520   1.186   6.408
 7076SOL    HW222128   3.659   1.271   6.409
 7077SOL     OW22129   1.251   5.759   6.407
 7077SOL    HW122130   1.256   5.672   6.357
 7077SOL    HW222131   1.158   5.795   6.402
 7078SOL     OW22132   0.635   0.681   1.701
 7078SOL    HW122133   0.595   0.769   1.725
 7078SOL    HW222134   0.576   0.607   1.732
 7079SOL     OW22135   5.282   6.402   4.362
 7079SOL    HW122136   5.281   6.328   4.430
 7079SOL    HW222137   5.261   6.489   4.407
 7080SOL     OW22138   5.806   0.794   3.644
 7080SOL    HW122139   5.787   0.800   3.546
 7080SOL    HW222140   5.896   0.752   3.658
 7081SOL     OW22141   4.695   1.019   4.478
 7081SOL    HW122142   4.683   0.922   4.459
 7081SOL    HW222143   4.767   1.030   4.547
 7082SOL     OW22144   6.146   1.133   0.415
 7082SOL    HW122145   6.050   1.147   0.439
 7082SOL    HW222146   6.182   1.055   0.467
 7083SOL     OW22147   4.154   0.316   5.229
 7083SOL    HW122148   4.233   0.284   5.176
 7083SOL    HW222149   4.109   0.239   5.273
 7084SOL     OW22150   6.232   5.779   0.292
 7084SOL    HW122151   6.165   5.840   0.250
 7084SOL    HW222152   6.264   5.713   0.223
 7085SOL     OW22153   4.921   1.519   1.569
 7085SOL    HW122154   4.892   1.609   1.535
 7085SOL    HW222155   5.006   1.492   1.524
 7086SOL     OW22156   1.190   1.003   5.895
 7086SOL    HW122157   1.201   0.932   5.965
 7086SOL    HW222158   1.279   1.037   5.867
 7087SOL     OW22159   2.493   2.644   4.668
 7087SOL    HW122160   2.566   2.622   4.732
 7087SOL    HW222161   2.422   2.698   4.714
 7088SOL     OW22162   6.746   2.111   4.405
 7088SOL    HW122163   6.730   2.062   4.319
 7088SOL    HW222164   6.842   2.102   4.431
 7089SOL     OW22165   3.042   1.981   1.773
 7089SOL    HW122166   2.958   1.962   1.825
 7089SOL    HW222167   3.040   2.075   1.740
 7090SOL     OW22168   3.005   1.483   5.059
 7090SOL    HW122169   2.983   1.557   4.995
 7090SOL    HW222170   3.097   1.449   5.041
 7091SOL     OW22171   6.843   5.886   0.404
 7091SOL    HW122172   6.937   5.919   0.410
 7091SOL    HW222173   6.840   5.808   0.341
 7092SOL     OW22174   3.642   2.014   0.649
 7092SOL    HW122175   3.711   1.944   0.663
 7092SOL    HW222176   3.683   2.105   0.658
 7093SOL     OW22177   3.922   3.097   6.369
 7093SOL    HW122178   3.933   3.184   6.417
 7093SOL    HW222179   3.825   3.080   6.353
 7094SOL     OW22180   6.232   0.793   6.656
 7094SOL    HW122181   6.326   0.816   6.680
 7094SOL    HW222182   6.230   0.702   6.613
 7095SOL     OW22183   0.961   4.166   1.273
 7095SOL    HW122184   1.020   4.131   1.200
 7095SOL    HW222185   0.965   4.104   1.351
 7096SOL     OW22186   3.831   6.876   3.238
 7096SOL    HW122187   3.929   6.868   3.256
 7096SOL    HW222188   3.809   6.830   3.153
 7097SOL     OW22189   1.797   1.323   1.583
 7097SOL    HW122190   1.820   1.419   1.570
 7097SOL    HW222191   1.741   1.291   1.506
 7098SOL     OW22192   1.185   0.420   6.087
 7098SOL    HW122193   1.273   0.379   6.063
 7098SOL    HW222194   1.182   0.438   6.186
 7099SOL     OW22195   6.828   1.222   5.159
 7099SOL    HW122196   6.905   1.191   5.216
 7099SOL    HW222197   6.842   1.319   5.136
 7100SOL     OW22198   5.517   1.808   1.376
 7100SOL    HW122199   5.428   1.847   1.400
 7100SOL    HW222200   5.517   1.710   1.393
 7101SOL     OW22201   1.858   0.682   4.952
 7101SOL    HW122202   1.784   0.712   4.892
 7101SOL    HW222203   1.877   0.754   5.020
 7102SOL     OW22204   4.410   2.393   0.744
 7102SOL    HW122205   4.324   2.439   0.722
 7102SOL    HW222206   4.434   2.412   0.840
 7103SOL     OW22207   2.223   6.961   5.833
 7103SOL    HW122208   2.203   6.961   5.931
 7103SOL    HW222209   2.283   0.018   5.811
 7104SOL     OW22210   0.553   3.125   1.443
 7104SOL    HW122211   0.471   3.176   1.418
 7104SOL    HW222212   0.617   3.125   1.367
 7105SOL     OW22213   2.394   2.717   5.471
 7105SOL    HW122214   2.414   2.731   5.568
 7105SOL    HW222215   2.454   2.776   5.416
 7106SOL     OW22216   3.111   3.014   5.235
 7106SOL    HW122217   3.025   3.038   5.280
 7106SOL    HW222218   3.152   2.935   5.282
 7107SOL     OW22219   1.583   1.335   0.144
 7107SOL    HW122220   1.622   1.424   0.167
 7107SOL    HW222221   1.610   1.310   0.051
 7108SOL     OW22222   4.807   6.889   1.860
 7108SOL    HW122223   4.710   6.868   1.869
 7108SOL    HW222224   4.831   6.896   1.763
 7109SOL     OW22225   4.651   5.854   6.699
 7109SOL    HW122226   4.656   5.838   6.798
 7109SOL    HW222227   4.555   5.861   6.671
 7110SOL     OW22228   3.685   5.017   4.349
 7110SOL    HW122229   3.739   4.986   4.428
 7110SOL    HW222230   3.593   4.981   4.356
 7111SOL     OW22231   1.302   2.648   3.705
 7111SOL    HW122232   1.318   2.737   3.664
 7111SOL    HW222233   1.274   2.659   3.800
 7112SOL     OW22234   1.764   6.286   3.196
 7112SOL    HW122235   1.664   6.286   3.196
 7112SOL    HW222236   1.797   6.195   3.173
 7113SOL     OW22237   3.987   3.974   6.108
 7113SOL    HW122238   4.061   3.916   6.142
 7113SOL    HW222239   3.927   3.999   6.184
 7114SOL     OW22240   3.664   6.706   0.850
 7114SOL    HW122241   3.632   6.799   0.868
 7114SOL    HW222242   3.736   6.682   0.916
 7115SOL     OW22243   4.011   2.891   1.119
 7115SOL    HW122244   4.079   2.937   1.062
 7115SOL    HW222245   4.032   2.909   1.216
 7116SOL     OW22246   6.058   4.455   3.587
 7116SOL    HW122247   6.126   4.521   3.619
 7116SOL    HW222248   6.078   4.365   3.626
 7117SOL     OW22249   5.325   6.826   2.434
 7117SOL    HW122250   5.275   6.847   2.517
 7117SOL    HW222251   5.317   6.903   2.370
 7118SOL     OW22252   6.791   3.425   3.680
 7118SOL    HW122253   6.819   3.416   3.584
 7118SOL    HW222254   6.715   3.362   3.698
 7119SOL     OW22255   0.828   1.970   2.601
 7119SOL    HW122256   0.855   2.031   2.675
 7119SOL    HW222257   0.841   2.016   2.513
 7120SOL     OW22258   4.734   6.172   4.014
 7120SOL    HW122259   4.755   6.223   4.097
 7120SOL    HW222260   4.753   6.228   3.934
 7121SOL     OW22261   2.045   6.412   1.205
 7121SOL    HW122262   1.975   6.480   1.226
 7121SOL    HW222263   2.128   6.458   1.174
 7122SOL     OW22264   0.076   5.984   0.374
 7122SOL    HW122265   0.101   6.052   0.305
 7122SOL    HW222266   0.159   5.944   0.413
 7123SOL     OW22267   3.085   5.101   0.949
 7123SOL    HW122268   2.997   5.054   0.950
 7123SOL    HW222269   3.158   5.034   0.936
 7124SOL     OW22270   0.112   6.143   6.649
 7124SOL    HW122271   0.087   6.056   6.691
 7124SOL    HW222272   0.055   6.160   6.569
 7125SOL     OW22273   1.129   5.951   3.307
 7125SOL    HW122274   1.225   5.973   3.289
 7125SOL    HW222275   1.108   5.971   3.403
 7126SOL     OW22276   1.576   3.604   1.476
 7126SOL    HW122277   1.646   3.650   1.530
 7126SOL    HW222278   1.609   3.512   1.452
 7127SOL     OW22279   2.273   0.529   5.134
 7127SOL    HW122280   2.231   0.479   5.058
 7127SOL    HW222281   2.258   0.628   5.121
 7128SOL     OW22282   3.114   3.273   2.722
 7128SOL    HW122283   3.041   3.241   2.662
 7128SOL    HW222284   3.168   3.342   2.675
 7129SOL     OW22285   3.305   2.162   0.787
 7129SOL    HW122286   3.385   2.123   0.832
 7129SOL    HW222287   3.224   2.147   0.844
 7130SOL     OW22288   1.850   0.472   2.900
 7130SOL    HW122289   1.788   0.428   2.966
 7130SOL    HW222290   1.926   0.513   2.949
 7131SOL     OW22291   2.556   1.162   3.483
 7131SOL    HW122292   2.457   1.172   3.470
 7131SOL    HW222293   2.585   1.073   3.449
 7132SOL     OW22294   2.909   3.654   2.258
 7132SOL    HW122295   3.005   3.659   2.234
 7132SOL    HW222296   2.854   3.699   2.187
 7133SOL     OW22297   6.556   4.141   1.452
 7133SOL    HW122298   6.642   4.161   1.497
 7133SOL    HW222299   6.516   4.226   1.416
 7134SOL     OW22300   4.536   4.647   2.254
 7134SOL    HW122301   4.498   4.612   2.168
 7134SOL    HW222302   4.571   4.739   2.239
 7135SOL     OW22303   0.268   1.620   5.869
 7135SOL    HW122304   0.325   1.660   5.941
 7135SOL    HW222305   0.258   1.522   5.885
 7136SOL     OW22306   1.622   1.839   6.840
 7136SOL    HW122307   1.578   1.753   6.865
 7136SOL    HW222308   1.607   1.856   6.742
 7137SOL     OW22309   5.352   1.983   4.989
 7137SOL    HW122310   5.413   1.929   4.932
 7137SOL    HW222311   5.365   2.080   4.969
 7138SOL     OW22312   2.183   2.138   6.640
 7138SOL    HW122313   2.171   2.222   6.694
 7138SOL    HW222314   2.269   2.094   6.666
 7139SOL     OW22315   2.609   1.820   0.448
 7139SOL    HW122316   2.594   1.906   0.400
 7139SOL    HW222317   2.691   1.827   0.504
 7140SOL     OW22318   6.936   4.663   4.304
 7140SOL    HW122319   7.009   4.599   4.326
 7140SOL    HW222320   6.851   4.613   4.290
 7141SOL     OW22321   0.892   0.076   2.148
 7141SOL    HW122322   0.881   0.008   2.076
 7141SOL    HW222323   0.877   0.167   2.111
 7142SOL     OW22324   3.562   6.409   3.762
 7142SOL    HW122325   3.462   6.418   3.756
 7142SOL    HW222326   3.600   6.393   3.671
 7143SOL     OW22327   1.507   2.408   3.489
 7143SOL    HW122328   1.568   2.482   3.519
 7143SOL    HW222329   1.512   2.333   3.555
 7144SOL     OW22330   1.343   3.504   3.648
 7144SOL    HW122331   1.407   3.580   3.647
 7144SOL    HW222332   1.335   3.468   3.741
 7145SOL     OW22333   3.944   5.637   6.765
 7145SOL    HW122334   3.906   5.627   6.673
 7145SOL    HW222335   3.942   5.549   6.812
 7146SOL     OW22336   3.418   4.990   1.748
 7146SOL    HW122337   3.386   4.952   1.661
 7146SOL    HW222338   3.366   5.073   1.769
 7147SOL     OW22339   0.422   1.043   3.431
 7147SOL    HW122340   0.497   1.109   3.430
 7147SOL    HW222341   0.426   0.987   3.349
 7148SOL     OW22342   6.590   1.739   0.156
 7148SOL    HW122343   6.603   1.640   0.162
 7148SOL    HW222344   6.562   1.763   0.063
 7149SOL     OW22345   1.196   0.606   4.686
 7149SOL    HW122346   1.126   0.677   4.677
 7149SOL    HW222347   1.280   0.637   4.642
 7150SOL     OW22348   5.812   2.859   5.853
 7150SOL    HW122349   5.770   2.887   5.939
 7150SOL    HW222350   5.888   2.920   5.832
 7151SOL     OW22351   1.756   0.213   6.995
 7151SOL    HW122352   1.744   0.293   0.034
 7151SOL    HW222353   1.799   0.139   0.027
 7152SOL     OW22354   1.298   2.296   5.089
 7152SOL    HW122355   1.337   2.263   5.175
 7152SOL    HW222356   1.277   2.218   5.030
 7153SOL     OW22357   4.127   2.002   3.044
 7153SOL    HW122358   4.126   1.926   2.979
 7153SOL    HW222359   4.065   1.981   3.119
 7154SOL     OW22360   3.445   0.001   4.775
 7154SOL    HW122361   3.428   0.074   4.842
 7154SOL    HW222362   3.417   6.933   4.813
 7155SOL     OW22363   2.408   1.197   3.737
 7155SOL    HW122364   2.506   1.192   3.718
 7155SOL    HW222365   2.390   1.269   3.804
 7156SOL     OW22366   2.423   5.670   5.454
 7156SOL    HW122367   2.482   5.661   5.373
 7156SOL    HW222368   2.328   5.681   5.425
 7157SOL     OW22369   5.182   4.711   0.196
 7157SOL    HW122370   5.222   4.793   0.237
 7157SOL    HW222371   5.126   4.736   0.117
 7158SOL     OW22372   3.883   0.656   3.271
 7158SOL    HW122373   3.961   0.610   3.228
 7158SOL    HW222374   3.835   0.592   3.331
 7159SOL     OW22375   1.523   6.288   6.967
 7159SOL    HW122376   1.496   6.348   0.022
 7159SOL    HW222377   1.471   6.311   6.884
 7160SOL     OW22378   6.771   0.789   2.100
 7160SOL    HW122379   6.834   0.764   2.174
 7160SOL    HW222380   6.680   0.755   2.120
 7161SOL     OW22381   3.247   4.140   4.682
 7161SOL    HW122382   3.233   4.222   4.738
 7161SOL    HW222383   3.282   4.066   4.739
 7162SOL     OW22384   3.379   4.968   4.092
 7162SOL    HW122385   3.399   5.058   4.129
 7162SOL    HW222386   3.280   4.951   4.098
 7163SOL     OW22387   1.167   6.312   3.607
 7163SOL    HW122388   1.219   6.233   3.638
 7163SOL    HW222389   1.228   6.391   3.598
 7164SOL     OW22390   3.464   1.718   4.433
 7164SOL    HW122391   3.562   1.731   4.417
 7164SOL    HW222392   3.446   1.718   4.531
 7165SOL     OW22393   4.286   5.234   2.084
 7165SOL    HW122394   4.216   5.216   2.153
 7165SOL    HW222395   4.264   5.318   2.035
 7166SOL     OW22396   3.469   6.607   2.387
 7166SOL    HW122397   3.553   6.600   2.334
 7166SOL    HW222398   3.429   6.698   2.374
 7167SOL     OW22399   5.753   3.604   0.739
 7167SOL    HW122400   5.680   3.672   0.730
 7167SOL    HW222401   5.842   3.648   0.721
 7168SOL     OW22402   6.899   1.582   4.324
 7168SOL    HW122403   6.974   1.547   4.379
 7168SOL    HW222404   6.929   1.598   4.230
 7169SOL     OW22405   2.471   2.657   6.783
 7169SOL    HW122406   2.549   2.680   6.725
 7169SOL    HW222407   2.392   2.714   6.757
 7170SOL     OW22408   4.930   3.658   4.106
 7170SOL    HW122409   4.873   3.590   4.152
 7170SOL    HW222410   4.927   3.744   4.156
 7171SOL     OW22411   3.847   3.986   5.641
 7171SOL    HW122412   3.879   3.977   5.735
 7171SOL    HW222413   3.878   3.906   5.588
 7172SOL     OW22414   6.376   5.779   1.194
 7172SOL    HW122415   6.354   5.794   1.290
 7172SOL    HW222416   6.389   5.868   1.148
 7173SOL     OW22417   6.775   6.598   4.558
 7173SOL    HW122418   6.752   6.682   4.606
 7173SOL    HW222419   6.872   6.578   4.572
 7174SOL     OW22420   1.111   5.841   5.931
 7174SOL    HW122421   1.206   5.814   5.917
 7174SOL    HW222422   1.082   5.901   5.857
 7175SOL     OW22423   6.721   3.544   5.261
 7175SOL    HW122424   6.642   3.545   5.200
 7175SOL    HW222425   6.700   3.595   5.345
 7176SOL     OW22426   1.098   3.355   1.138
 7176SOL    HW122427   1.031   3.345   1.065
 7176SOL    HW222428   1.166   3.423   1.112
 7177SOL     OW22429   1.065   5.156   1.291
 7177SOL    HW122430   0.980   5.128   1.337
 7177SOL    HW222431   1.118   5.213   1.353
 7178SOL     OW22432   6.317   0.522   6.470
 7178SOL    HW122433   6.403   0.559   6.435
 7178SOL    HW222434   6.241   0.578   6.437
 7179SOL     OW22435   0.390   3.916   5.534
 7179SOL    HW122436   0.432   4.003   5.509
 7179SOL    HW222437   0.459   3.844   5.535
 7180SOL     OW22438   6.729   0.446   2.251
 7180SOL    HW122439   6.724   0.526   2.310
 7180SOL    HW222440   6.810   0.452   2.193
 7181SOL     OW22441   5.364   5.680   2.358
 7181SOL    HW122442   5.429   5.624   2.410
 7181SOL    HW222443   5.343   5.763   2.409
 7182SOL     OW22444   4.251   3.611   6.020
 7182SOL    HW122445   4.330   3.562   6.056
 7182SOL    HW222446   4.197   3.548   5.963
 7183SOL     OW22447   2.272   2.794   3.109
 7183SOL    HW122448   2.263   2.730   3.033
 7183SOL    HW222449   2.304   2.745   3.190
 7184SOL     OW22450   2.131   5.144   3.206
 7184SOL    HW122451   2.201   5.149   3.136
 7184SOL    HW222452   2.166   5.094   3.285
 7185SOL     OW22453   5.015   2.430   6.907
 7185SOL    HW122454   5.089   2.480   6.953
 7185SOL    HW222455   5.013   2.336   6.941
 7186SOL     OW22456   0.913   6.538   4.627
 7186SOL    HW122457   0.852   6.590   4.568
 7186SOL    HW222458   0.860   6.491   4.698
 7187SOL     OW22459   1.698   4.929   1.607
 7187SOL    HW122460   1.747   4.863   1.663
 7187SOL    HW222461   1.614   4.887   1.571
 7188SOL     OW22462   4.917   0.743   1.602
 7188SOL    HW122463   4.994   0.681   1.617
 7188SOL    HW222464   4.837   0.691   1.572
 7189SOL     OW22465   5.856   0.655   5.804
 7189SOL    HW122466   5.860   0.695   5.713
 7189SOL    HW222467   5.936   0.597   5.819
 7190SOL     OW22468   4.885   5.314   2.879
 7190SOL    HW122469   4.963   5.252   2.885
 7190SOL    HW222470   4.811   5.270   2.827
 7191SOL     OW22471   0.747   2.878   1.366
 7191SOL    HW122472   0.822   2.842   1.422
 7191SOL    HW222473   0.660   2.858   1.411
 7192SOL     OW22474   3.087   4.064   6.044
 7192SOL    HW122475   3.105   4.127   5.968
 7192SOL    HW222476   3.052   4.116   6.122
 7193SOL     OW22477   5.784   1.740   4.878
 7193SOL    HW122478   5.686   1.737   4.899
 7193SOL    HW222479   5.836   1.736   4.963
 7194SOL     OW22480   3.094   1.138   2.125
 7194SOL    HW122481   3.016   1.106   2.180
 7194SOL    HW222482   3.179   1.125   2.176
 7195SOL     OW22483   0.533   0.032   2.773
 7195SOL    HW122484   0.457   6.988   2.754
 7195SOL    HW222485   0.498   0.125   2.773
 7196SOL     OW22486   3.777   3.631   1.867
 7196SOL    HW122487   3.856   3.644   1.927
 7196SOL    HW222488   3.779   3.700   1.794
 7197SOL     OW22489   1.904   0.978   4.245
 7197SOL    HW122490   1.961   1.045   4.198
 7197SOL    HW222491   1.870   1.017   4.330
 7198SOL     OW22492   0.446   0.070   5.779
 7198SOL    HW122493   0.354   0.097   5.809
 7198SOL    HW222494   0.440   7.008   5.722
 7199SOL     OW22495   6.158   5.577   2.027
 7199SOL    HW122496   6.184   5.546   1.936
 7199SOL    HW222497   6.062   5.605   2.027
 7200SOL     OW22498   1.355   2.404   2.441
 7200SOL    HW122499   1.427   2.421   2.508
 7200SOL    HW222500   1.390   2.343   2.370
 7201SOL     OW22501   1.640   4.159   4.044
 7201SOL    HW122502   1.717   4.138   3.983
 7201SOL    HW222503   1.674   4.174   4.137
 7202SOL     OW22504   2.319   6.826   6.199
 7202SOL    HW122505   2.410   6.826   6.159
 7202SOL    HW222506   2.282   6.734   6.198
 7203SOL     OW22507   5.401   0.215   0.259
 7203SOL    HW122508   5.327   0.263   0.306
 7203SOL    HW222509   5.485   0.268   0.267
 7204SOL     OW22510   0.244   2.602   2.919
 7204SOL    HW122511   0.151   2.566   2.931
 7204SOL    HW222512   0.255   2.683   2.976
 7205SOL     OW22513   1.276   3.985   1.467
 7205SOL    HW122514   1.178   3.969   1.456
 7205SOL    HW222515   1.291   4.079   1.498
 7206SOL     OW22516   6.370   0.912   1.384
 7206SOL    HW122517   6.440   0.908   1.313
 7206SOL    HW222518   6.378   0.999   1.433
 7207SOL     OW22519   4.235   6.859   1.327
 7207SOL    HW122520   4.192   6.909   1.402
 7207SOL    HW222521   4.285   6.923   1.269
 7208SOL     OW22522   2.545   0.581   5.167
 7208SOL    HW122523   2.447   0.578   5.149
 7208SOL    HW222524   2.571   0.673   5.196
 7209SOL     OW22525   3.217   3.790   5.106
 7209SOL    HW122526   3.118   3.782   5.094
 7209SOL    HW222527   3.237   3.869   5.165
 7210SOL     OW22528   4.861   6.746   4.401
 7210SOL    HW122529   4.946   6.696   4.413
 7210SOL    HW222530   4.814   6.714   4.319
 7211SOL     OW22531   0.774   5.217   2.645
 7211SOL    HW122532   0.837   5.151   2.603
 7211SOL    HW222533   0.790   5.307   2.605
 7212SOL     OW22534   5.469   6.854   3.293
 7212SOL    HW122535   5.446   6.941   3.337
 7212SOL    HW222536   5.461   6.864   3.193
 7213SOL     OW22537   5.934   6.164   6.032
 7213SOL    HW122538   5.844   6.176   6.075
 7213SOL    HW222539   5.923   6.165   5.933
 7214SOL     OW22540   1.268   5.114   5.860
 7214SOL    HW122541   1.262   5.110   5.760
 7214SOL    HW222542   1.324   5.193   5.886
 7215SOL     OW22543   1.174   3.031   1.194
 7215SOL    HW122544   1.217   2.998   1.279
 7215SOL    HW222545   1.155   3.129   1.202
 7216SOL     OW22546   2.882   1.480   2.668
 7216SOL    HW122547   2.899   1.487   2.570
 7216SOL    HW222548   2.956   1.428   2.711
 7217SOL     OW22549   0.276   3.444   1.865
 7217SOL    HW122550   0.249   3.427   1.771
 7217SOL    HW222551   0.299   3.541   1.877
 7218SOL     OW22552   6.269   2.979   3.839
 7218SOL    HW122553   6.342   2.917   3.866
 7218SOL    HW222554   6.297   3.031   3.758
 7219SOL     OW22555   2.671   1.226   1.631
 7219SOL    HW122556   2.603   1.266   1.568
 7219SOL    HW222557   2.655   1.128   1.640
 7220SOL     OW22558   6.995   1.854   3.255
 7220SOL    HW122559   6.903   1.832   3.225
 7220SOL    HW222560   0.027   1.893   3.179
 7221SOL     OW22561   6.995   4.130   4.640
 7221SOL    HW122562   6.897   4.143   4.621
 7221SOL    HW222563   0.005   4.043   4.602
 7222SOL     OW22564   6.775   0.202   2.856
 7222SOL    HW122565   6.817   0.191   2.946
 7222SOL    HW222566   6.679   0.228   2.867
 7223SOL     OW22567   4.782   1.285   4.260
 7223SOL    HW122568   4.794   1.193   4.297
 7223SOL    HW222569   4.690   1.318   4.282
 7224SOL     OW22570   5.520   1.495   3.449
 7224SOL    HW122571   5.455   1.487   3.525
 7224SOL    HW222572   5.595   1.556   3.476
 7225SOL     OW22573   2.878   0.504   1.499
 7225SOL    HW122574   2.917   0.523   1.409
 7225SOL    HW222575   2.929   0.431   1.543
 7226SOL     OW22576   5.928   6.681   5.201
 7226SOL    HW122577   5.872   6.741   5.145
 7226SOL    HW222578   5.973   6.613   5.143
 7227SOL     OW22579   0.275   3.083   6.027
 7227SOL    HW122580   0.297   2.986   6.019
 7227SOL    HW222581   0.205   3.108   5.960
 7228SOL     OW22582   1.809   0.235   2.708
 7228SOL    HW122583   1.769   0.264   2.621
 7228SOL    HW222584   1.846   0.314   2.756
 7229SOL     OW22585   6.843   6.909   3.243
 7229SOL    HW122586   6.801   6.873   3.326
 7229SOL    HW222587   6.942   6.915   3.256
 7230SOL     OW22588   6.322   5.326   1.247
 7230SOL    HW122589   6.383   5.404   1.231
 7230SOL    HW222590   6.376   5.244   1.263
 7231SOL     OW22591   5.397   0.517   0.011
 7231SOL    HW122592   5.410   0.449   6.958
 7231SOL    HW222593   5.322   0.578   7.007
 7232SOL     OW22594   3.150   3.985   0.602
 7232SOL    HW122595   3.219   3.925   0.561
 7232SOL    HW222596   3.076   3.929   0.640
 7233SOL     OW22597   0.960   2.044   5.709
 7233SOL    HW122598   0.877   1.992   5.729
 7233SOL    HW222599   0.955   2.133   5.754
 7234SOL     OW22600   5.284   2.627   4.112
 7234SOL    HW122601   5.271   2.528   4.109
 7234SOL    HW222602   5.247   2.668   4.029
 7235SOL     OW22603   6.286   2.775   4.929
 7235SOL    HW122604   6.360   2.779   4.862
 7235SOL    HW222605   6.210   2.833   4.899
 7236SOL     OW22606   1.127   1.529   3.268
 7236SOL    HW122607   1.145   1.447   3.214
 7236SOL    HW222608   1.175   1.522   3.356
 7237SOL     OW22609   5.802   6.159   4.975
 7237SOL    HW122610   5.874   6.135   5.040
 7237SOL    HW222611   5.838   6.157   4.882
 7238SOL     OW22612   1.574   0.048   2.569
 7238SOL    HW122613   1.611   0.046   2.662
 7238SOL    HW222614   1.611   0.127   2.520
 7239SOL     OW22615   4.771   2.201   2.392
 7239SOL    HW122616   4.708   2.250   2.452
 7239SOL    HW222617   4.802   2.262   2.320
 7240SOL     OW22618   3.404   3.316   3.299
 7240SOL    HW122619   3.354   3.279   3.377
 7240SOL    HW222620   3.349   3.388   3.255
 7241SOL     OW22621   4.597   0.193   4.372
 7241SOL    HW122622   4.550   0.204   4.460
 7241SOL    HW222623   4.684   0.241   4.375
 7242SOL     OW22624   6.481   6.140   0.469
 7242SOL    HW122625   6.413   6.070   0.494
 7242SOL    HW222626   6.433   6.221   0.435
 7243SOL     OW22627   0.777   5.920   1.041
 7243SOL    HW122628   0.831   5.959   1.116
 7243SOL    HW222629   0.838   5.882   0.972
 7244SOL     OW22630   5.745   1.895   1.706
 7244SOL    HW122631   5.711   1.985   1.735
 7244SOL    HW222632   5.742   1.889   1.606
 7245SOL     OW22633   5.730   1.665   3.507
 7245SOL    HW122634   5.744   1.686   3.411
 7245SOL    HW222635   5.814   1.684   3.558
 7246SOL     OW22636   0.801   5.683   5.197
 7246SOL    HW122637   0.808   5.585   5.217
 7246SOL    HW222638   0.842   5.702   5.108
 7247SOL     OW22639   3.967   5.473   4.092
 7247SOL    HW122640   3.910   5.537   4.144
 7247SOL    HW222641   3.913   5.392   4.069
 7248SOL     OW22642   3.261   1.342   5.030
 7248SOL    HW122643   3.270   1.244   5.016
 7248SOL    HW222644   3.352   1.383   5.040
 7249SOL     OW22645   4.560   2.986   6.417
 7249SOL    HW122646   4.488   3.021   6.357
 7249SOL    HW222647   4.589   2.896   6.384
 7250SOL     OW22648   3.100   2.954   0.038
 7250SOL    HW122649   3.050   3.014   0.100
 7250SOL    HW222650   3.148   3.009   6.989
 7251SOL     OW22651   5.749   1.210   5.568
 7251SOL    HW122652   5.759   1.296   5.519
 7251SOL    HW222653   5.660   1.169   5.546
 7252SOL     OW22654   4.548   3.378   5.342
 7252SOL    HW122655   4.585   3.460   5.298
 7252SOL    HW222656   4.596   3.297   5.308
 7253SOL     OW22657   5.345   4.899   6.522
 7253SOL    HW122658   5.385   4.822   6.572
 7253SOL    HW222659   5.299   4.864   6.440
 7254SOL     OW22660   5.194   6.327   5.230
 7254SOL    HW122661   5.202   6.424   5.250
 7254SOL    HW222662   5.151   6.281   5.308
 7255SOL     OW22663   3.500   3.150   3.075
 7255SOL    HW122664   3.461   3.197   3.154
 7255SOL    HW222665   3.441   3.166   2.995
 7256SOL     OW22666   3.116   5.921   3.414
 7256SOL    HW122667   3.095   5.906   3.510
 7256SOL    HW222668   3.063   5.999   3.380
 7257SOL     OW22669   6.031   5.517   2.604
 7257SOL    HW122670   6.017   5.431   2.654
 7257SOL    HW222671   6.098   5.573   2.653
 7258SOL     OW22672   2.751   0.434   6.341
 7258SOL    HW122673   2.714   0.341   6.348
 7258SOL    HW222674   2.804   0.456   6.423
 7259SOL     OW22675   3.393   4.370   5.952
 7259SOL    HW122676   3.358   4.443   6.010
 7259SOL    HW222677   3.325   4.296   5.948
 7260SOL     OW22678   4.290   2.243   2.707
 7260SOL    HW122679   4.268   2.146   2.698
 7260SOL    HW222680   4.294   2.286   2.617
 7261SOL     OW22681   2.510   4.816   1.217
 7261SOL    HW122682   2.431   4.769   1.255
 7261SOL    HW222683   2.590   4.800   1.274
 7262SOL     OW22684   5.914   0.355   4.652
 7262SOL    HW122685   5.853   0.280   4.678
 7262SOL    HW222686   5.989   0.319   4.596
 7263SOL     OW22687   5.177   5.161   1.343
 7263SOL    HW122688   5.133   5.222   1.277
 7263SOL    HW222689   5.220   5.085   1.295
 7264SOL     OW22690   0.048   6.991   4.601
 7264SOL    HW122691   0.006   0.055   4.634
 7264SOL    HW222692   0.148   7.001   4.602
 7265SOL     OW22693   4.532   2.787   6.938
 7265SOL    HW122694   4.502   2.860   6.878
 7265SOL    HW222695   4.577   2.826   7.019
 7266SOL     OW22696   3.968   1.432   2.854
 7266SOL    HW122697   3.901   1.408   2.783
 7266SOL    HW222698   3.945   1.521   2.893
 7267SOL     OW22699   4.857   2.180   4.035
 7267SOL    HW122700   4.871   2.195   3.937
 7267SOL    HW222701   4.840   2.083   4.052
 7268SOL     OW22702   4.035   6.460   0.042
 7268SOL    HW122703   4.105   6.443   0.112
 7268SOL    HW222704   3.944   6.445   0.082
 7269SOL     OW22705   1.652   0.046   2.829
 7269SOL    HW122706   1.653   0.033   2.928
 7269SOL    HW222707   1.697   0.132   2.806
 7270SOL     OW22708   3.321   2.416   1.657
 7270SOL    HW122709   3.396   2.349   1.662
 7270SOL    HW222710   3.245   2.377   1.604
 7271SOL     OW22711   5.848   5.466   3.710
 7271SOL    HW122712   5.897   5.418   3.782
 7271SOL    HW222713   5.871   5.563   3.713
 7272SOL     OW22714   5.832   1.226   1.714
 7272SOL    HW122715   5.766   1.185   1.778
 7272SOL    HW222716   5.797   1.315   1.683
 7273SOL     OW22717   6.296   5.301   4.719
 7273SOL    HW122718   6.315   5.337   4.628
 7273SOL    HW222719   6.228   5.228   4.713
 7274SOL     OW22720   5.689   5.013   3.688
 7274SOL    HW122721   5.699   5.105   3.649
 7274SOL    HW222722   5.632   5.019   3.771
 7275SOL     OW22723   6.008   6.767   2.358
 7275SOL    HW122724   5.988   6.720   2.272
 7275SOL    HW222725   6.056   6.853   2.338
 7276SOL     OW22726   4.028   1.705   2.928
 7276SOL    HW122727   3.956   1.723   2.995
 7276SOL    HW222728   3.998   1.739   2.838
 7277SOL     OW22729   6.081   2.385   3.769
 7277SOL    HW122730   6.011   2.362   3.837
 7277SOL    HW222731   6.055   2.468   3.721
 7278SOL     OW22732   3.659   1.087   3.158
 7278SOL    HW122733   3.578   1.101   3.214
 7278SOL    HW222734   3.728   1.038   3.211
 7279SOL     OW22735   3.514   3.811   1.921
 7279SOL    HW122736   3.544   3.767   1.836
 7279SOL    HW222737   3.593   3.838   1.974
 7280SOL     OW22738   6.633   1.454   5.736
 7280SOL    HW122739   6.647   1.433   5.640
 7280SOL    HW222740   6.629   1.370   5.789
 7281SOL     OW22741   3.759   6.425   3.973
 7281SOL    HW122742   3.703   6.398   3.895
 7281SOL    HW222743   3.793   6.518   3.959
 7282SOL     OW22744   0.530   3.833   1.242
 7282SOL    HW122745   0.549   3.906   1.176
 7282SOL    HW222746   0.486   3.872   1.323
 7283SOL     OW22747   2.945   6.257   3.129
 7283SOL    HW122748   2.915   6.310   3.049
 7283SOL    HW222749   3.040   6.280   3.149
 7284SOL     OW22750   0.649   0.424   3.754
 7284SOL    HW122751   0.679   0.511   3.794
 7284SOL    HW222752   0.679   0.348   3.811
 7285SOL     OW22753   4.901   2.440   1.709
 7285SOL    HW122754   4.906   2.485   1.798
 7285SOL    HW222755   4.929   2.504   1.637
 7286SOL     OW22756   6.561   1.222   4.787
 7286SOL    HW122757   6.621   1.173   4.850
 7286SOL    HW222758   6.614   1.256   4.710
 7287SOL     OW22759   3.175   1.724   4.458
 7287SOL    HW122760   3.156   1.762   4.368
 7287SOL    HW222761   3.274   1.711   4.468
 7288SOL     OW22762   2.776   2.011   1.606
 7288SOL    HW122763   2.793   1.983   1.512
 7288SOL    HW222764   2.861   2.044   1.648
 7289SOL     OW22765   6.769   2.434   1.311
 7289SOL    HW122766   6.768   2.341   1.348
 7289SOL    HW222767   6.747   2.499   1.385
 7290SOL     OW22768   3.353   2.105   4.951
 7290SOL    HW122769   3.439   2.136   4.991
 7290SOL    HW222770   3.281   2.171   4.972
 7291SOL     OW22771   0.916   0.968   0.848
 7291SOL    HW122772   0.960   1.047   0.891
 7291SOL    HW222773   0.986   0.903   0.819
 7292SOL     OW22774   3.940   1.367   2.523
 7292SOL    HW122775   3.967   1.280   2.564
 7292SOL    HW222776   3.920   1.354   2.426
 7293SOL     OW22777   6.421   1.221   4.164
 7293SOL    HW122778   6.334   1.180   4.135
 7293SOL    HW222779   6.446   1.185   4.253
 7294SOL     OW22780   2.528   1.089   2.816
 7294SOL    HW122781   2.575   1.173   2.788
 7294SOL    HW222782   2.440   1.082   2.770
 7295SOL     OW22783   5.308   4.238   1.376
 7295SOL    HW122784   5.356   4.280   1.299
 7295SOL    HW222785   5.375   4.205   1.443
 7296SOL     OW22786   3.319   0.095   2.743
 7296SOL    HW122787   3.256   0.171   2.723
 7296SOL    HW222788   3.384   0.124   2.813
 7297SOL     OW22789   4.218   0.005   0.321
 7297SOL    HW122790   4.169   6.984   0.244
 7297SOL    HW222791   4.299   0.053   0.287
 7298SOL     OW22792   3.852   4.495   0.967
 7298SOL    HW122793   3.813   4.410   0.931
 7298SOL    HW222794   3.950   4.484   0.980
 7299SOL     OW22795   6.879   3.438   0.202
 7299SOL    HW122796   6.973   3.424   0.171
 7299SOL    HW222797   6.819   3.443   0.123
 7300SOL     OW22798   0.778   4.356   1.800
 7300SOL    HW122799   0.851   4.340   1.734
 7300SOL    HW222800   0.712   4.281   1.796
 7301SOL     OW22801   4.023   1.733   0.503
 7301SOL    HW122802   3.960   1.753   0.578
 7301SOL    HW222803   3.971   1.709   0.421
 7302SOL     OW22804   5.496   1.865   6.778
 7302SOL    HW122805   5.453   1.955   6.778
 7302SOL    HW222806   5.578   1.867   6.836
 7303SOL     OW22807   3.680   2.336   1.382
 7303SOL    HW122808   3.763   2.282   1.393
 7303SOL    HW222809   3.689   2.422   1.432
 7304SOL     OW22810   2.548   0.141   0.765
 7304SOL    HW122811   2.562   0.227   0.716
 7304SOL    HW222812   2.633   0.115   0.811
 7305SOL     OW22813   6.812   0.194   6.327
 7305SOL    HW122814   6.858   0.256   6.391
 7305SOL    HW222815   6.763   0.247   6.258
 7306SOL     OW22816   1.863   3.414   0.998
 7306SOL    HW122817   1.784   3.474   0.985
 7306SOL    HW222818   1.892   3.418   1.094
 7307SOL     OW22819   4.070   6.741   2.021
 7307SOL    HW122820   3.979   6.708   1.996
 7307SOL    HW222821   4.094   6.710   2.113
 7308SOL     OW22822   3.584   1.795   3.132
 7308SOL    HW122823   3.667   1.823   3.083
 7308SOL    HW222824   3.605   1.717   3.191
 7309SOL     OW22825   2.394   4.807   3.806
 7309SOL    HW122826   2.392   4.823   3.905
 7309SOL    HW222827   2.485   4.776   3.779
 7310SOL     OW22828   4.466   2.779   0.514
 7310SOL    HW122829   4.539   2.844   0.537
 7310SOL    HW222830   4.406   2.821   0.445
 7311SOL     OW22831   1.407   6.454   5.653
 7311SOL    HW122832   1.456   6.541   5.650
 7311SOL    HW222833   1.315   6.466   5.615
 7312SOL     OW22834   5.778   2.064   4.080
 7312SOL    HW122835   5.689   2.024   4.059
 7312SOL    HW222836   5.778   2.161   4.056
 7313SOL     OW22837   3.563   0.674   3.121
 7313SOL    HW122838   3.521   0.765   3.118
 7313SOL    HW222839   3.629   0.666   3.047
 7314SOL     OW22840   2.542   5.541   4.498
 7314SOL    HW122841   2.472   5.489   4.546
 7314SOL    HW222842   2.632   5.519   4.537
 7315SOL     OW22843   2.180   4.730   2.402
 7315SOL    HW122844   2.225   4.666   2.339
 7315SOL    HW222845   2.241   4.750   2.479
 7316SOL     OW22846   3.548   1.014   2.229
 7316SOL    HW122847   3.523   0.929   2.276
 7316SOL    HW222848   3.572   1.084   2.296
 7317SOL     OW22849   6.295   1.573   1.762
 7317SOL    HW122850   6.263   1.642   1.826
 7317SOL    HW222851   6.226   1.501   1.753
 7318SOL     OW22852   4.442   6.184   1.750
 7318SOL    HW122853   4.409   6.211   1.841
 7318SOL    HW222854   4.507   6.109   1.759
 7319SOL     OW22855   4.602   5.112   6.058
 7319SOL    HW122856   4.627   5.181   5.990
 7319SOL    HW222857   4.684   5.060   6.083
 7320SOL     OW22858   1.480   3.150   0.557
 7320SOL    HW122859   1.397   3.144   0.503
 7320SOL    HW222860   1.464   3.208   0.637
 7321SOL     OW22861   2.445   2.248   5.420
 7321SOL    HW122862   2.495   2.334   5.427
 7321SOL    HW222863   2.369   2.258   5.356
 7322SOL     OW22864   2.514   1.942   4.219
 7322SOL    HW122865   2.557   2.019   4.268
 7322SOL    HW222866   2.455   1.978   4.147
 7323SOL     OW22867   2.080   1.603   0.341
 7323SOL    HW122868   2.098   1.609   0.243
 7323SOL    HW222869   2.122   1.520   0.378
 7324SOL     OW22870   5.389   3.816   4.940
 7324SOL    HW122871   5.327   3.855   4.872
 7324SOL    HW222872   5.346   3.737   4.982
 7325SOL     OW22873   3.442   0.543   6.596
 7325SOL    HW122874   3.527   0.586   6.628
 7325SOL    HW222875   3.412   0.589   6.512
 7326SOL     OW22876   3.703   6.567   6.602
 7326SOL    HW122877   3.662   6.599   6.517
 7326SOL    HW222878   3.727   6.646   6.660
 7327SOL     OW22879   1.970   4.467   3.453
 7327SOL    HW122880   1.990   4.377   3.415
 7327SOL    HW222881   1.871   4.476   3.468
 7328SOL     OW22882   4.306   5.570   6.886
 7328SOL    HW122883   4.264   5.586   6.797
 7328SOL    HW222884   4.269   5.637   6.952
 7329SOL     OW22885   2.554   3.969   6.501
 7329SOL    HW122886   2.529   4.064   6.521
 7329SOL    HW222887   2.579   3.962   6.404
 7330SOL     OW22888   2.389   3.690   1.431
 7330SOL    HW122889   2.333   3.755   1.482
 7330SOL    HW222890   2.485   3.704   1.453
 7331SOL     OW22891   5.343   1.490   2.714
 7331SOL    HW122892   5.255   1.500   2.762
 7331SOL    HW222893   5.353   1.564   2.648
 7332SOL     OW22894   1.842   6.813   5.183
 7332SOL    HW122895   1.769   6.854   5.128
 7332SOL    HW222896   1.927   6.815   5.132
 7333SOL     OW22897   6.491   1.691   2.105
 7333SOL    HW122898   6.513   1.636   2.025
 7333SOL    HW222899   6.474   1.786   2.077
 7334SOL     OW22900   1.035   4.860   4.879
 7334SOL    HW122901   1.021   4.785   4.816
 7334SOL    HW222902   1.121   4.847   4.929
 7335SOL     OW22903   6.500   3.124   2.043
 7335SOL    HW122904   6.491   3.124   2.143
 7335SOL    HW222905   6.473   3.035   2.006
 7336SOL     OW22906   2.714   0.512   1.224
 7336SOL    HW122907   2.651   0.546   1.295
 7336SOL    HW222908   2.689   0.553   1.136
 7337SOL     OW22909   3.273   1.672   1.963
 7337SOL    HW122910   3.236   1.745   2.021
 7337SOL    HW222911   3.369   1.656   1.987
 7338SOL     OW22912   5.142   2.904   0.291
 7338SOL    HW122913   5.070   2.839   0.267
 7338SOL    HW222914   5.230   2.857   0.295
 7339SOL     OW22915   6.953   0.052   3.918
 7339SOL    HW122916   6.934   0.059   3.820
 7339SOL    HW222917   6.942   0.142   3.960
 7340SOL     OW22918   2.940   0.006   0.451
 7340SOL    HW122919   3.029   0.006   0.407
 7340SOL    HW222920   2.870   0.035   0.385
 7341SOL     OW22921   6.503   5.340   3.121
 7341SOL    HW122922   6.428   5.378   3.174
 7341SOL    HW222923   6.501   5.377   3.028
 7342SOL     OW22924   0.005   4.997   0.243
 7342SOL    HW122925   0.042   5.049   0.320
 7342SOL    HW222926   0.080   4.958   0.190
 7343SOL     OW22927   0.676   1.907   2.993
 7343SOL    HW122928   0.585   1.882   2.960
 7343SOL    HW222929   0.722   1.965   2.926
 7344SOL     OW22930   2.032   1.725   5.709
 7344SOL    HW122931   2.100   1.651   5.712
 7344SOL    HW222932   2.052   1.791   5.781
 7345SOL     OW22933   1.405   6.847   6.707
 7345SOL    HW122934   1.344   6.839   6.786
 7345SOL    HW222935   1.363   6.801   6.628
 7346SOL     OW22936   3.951   5.332   2.806
 7346SOL    HW122937   3.852   5.328   2.793
 7346SOL    HW222938   3.978   5.272   2.882
 7347SOL     OW22939   5.499   2.890   3.577
 7347SOL    HW122940   5.564   2.940   3.635
 7347SOL    HW222941   5.470   2.949   3.502
 7348SOL     OW22942   5.491   0.139   6.325
 7348SOL    HW122943   5.546   0.059   6.349
 7348SOL    HW222944   5.546   0.222   6.333
 7349SOL     OW22945   3.466   2.178   1.402
 7349SOL    HW122946   3.466   2.158   1.499
 7349SOL    HW222947   3.531   2.251   1.383
 7350SOL     OW22948   1.491   1.672   2.702
 7350SOL    HW122949   1.527   1.579   2.692
 7350SOL    HW222950   1.517   1.709   2.791
 7351SOL     OW22951   6.224   4.808   6.732
 7351SOL    HW122952   6.176   4.834   6.816
 7351SOL    HW222953   6.320   4.792   6.752
 7352SOL     OW22954   6.646   1.478   3.117
 7352SOL    HW122955   6.548   1.500   3.122
 7352SOL    HW222956   6.694   1.529   3.188
 7353SOL     OW22957   5.520   1.763   4.850
 7353SOL    HW122958   5.464   1.791   4.772
 7353SOL    HW222959   5.502   1.667   4.871
 7354SOL     OW22960   5.899   4.232   5.310
 7354SOL    HW122961   5.873   4.185   5.394
 7354SOL    HW222962   5.841   4.201   5.235
 7355SOL     OW22963   0.136   5.516   0.472
 7355SOL    HW122964   0.144   5.489   0.568
 7355SOL    HW222965   0.223   5.556   0.441
 7356SOL     OW22966   0.023   2.202   6.297
 7356SOL    HW122967   6.967   2.263   6.316
 7356SOL    HW222968   0.109   2.251   6.308
 7357SOL     OW22969   0.544   1.007   0.564
 7357SOL    HW122970   0.612   1.019   0.492
 7357SOL    HW222971   0.587   0.972   0.647
 7358SOL     OW22972   3.446   1.362   3.772
 7358SOL    HW122973   3.412   1.268   3.767
 7358SOL    HW222974   3.383   1.417   3.827
 7359SOL     OW22975   3.113   3.694   4.157
 7359SOL    HW122976   3.169   3.768   4.194
 7359SOL    HW222977   3.158   3.655   4.077
 7360SOL     OW22978   1.616   4.248   6.107
 7360SOL    HW122979   1.532   4.302   6.111
 7360SOL    HW222980   1.679   4.289   6.042
 7361SOL     OW22981   4.537   0.120   2.008
 7361SOL    HW122982   4.522   0.216   2.033
 7361SOL    HW222983   4.449   0.074   1.998
 7362SOL     OW22984   1.093   4.888   0.094
 7362SOL    HW122985   1.068   4.888   0.191
 7362SOL    HW222986   1.063   4.974   0.052
 7363SOL     OW22987   4.996   2.061   5.858
 7363SOL    HW122988   4.927   2.024   5.920
 7363SOL    HW222989   4.976   2.032   5.764
 7364SOL     OW22990   5.127   0.059   0.398
 7364SOL    HW122991   5.115   0.157   0.413
 7364SOL    HW222992   5.152   0.014   0.484
 7365SOL     OW22993   5.239   6.975   1.502
 7365SOL    HW122994   5.141   6.961   1.488
 7365SOL    HW222995   5.283   6.984   1.413
 7366SOL     OW22996   2.746   6.838   0.434
 7366SOL    HW122997   2.823   6.892   0.466
 7366SOL    HW222998   2.660   6.881   0.462
 7367SOL     OW22999   4.148   2.964   5.921
 7367SOL    HW123000   4.102   3.006   5.999
 7367SOL    HW223001   4.156   3.032   5.847
 7368SOL     OW23002   3.147   2.980   4.965
 7368SOL    HW123003   3.124   3.023   5.052
 7368SOL    HW223004   3.083   3.011   4.894
 7369SOL     OW23005   6.822   6.748   6.431
 7369SOL    HW123006   6.878   6.694   6.494
 7369SOL    HW223007   6.772   6.686   6.370
 7370SOL     OW23008   0.080   5.802   1.084
 7370SOL    HW123009   0.084   5.729   1.153
 7370SOL    HW223010   0.067   5.761   0.994
 7371SOL     OW23011   2.213   4.590   3.790
 7371SOL    HW123012   2.119   4.622   3.781
 7371SOL    HW223013   2.276   4.666   3.777
 7372SOL     OW23014   2.859   0.356   5.239
 7372SOL    HW123015   2.832   0.263   5.261
 7372SOL    HW223016   2.944   0.379   5.285
 7373SOL     OW23017   4.036   1.680   1.091
 7373SOL    HW123018   4.079   1.767   1.114
 7373SOL    HW223019   3.937   1.687   1.107
 7374SOL     OW23020   2.107   3.947   0.659
 7374SOL    HW123021   2.094   3.857   0.618
 7374SOL    HW223022   2.025   4.002   0.644
 7375SOL     OW23023   2.215   5.504   3.062
 7375SOL    HW123024   2.225   5.405   3.060
 7375SOL    HW223025   2.179   5.536   2.974
 7376SOL     OW23026   3.425   4.191   6.877
 7376SOL    HW123027   3.344   4.248   6.889
 7376SOL    HW223028   3.493   4.215   6.947
 7377SOL     OW23029   5.587   6.237   1.229
 7377SOL    HW123030   5.684   6.251   1.251
 7377SOL    HW223031   5.580   6.175   1.152
 7378SOL     OW23032   1.054   1.708   6.330
 7378SOL    HW123033   1.109   1.665   6.402
 7378SOL    HW223034   1.057   1.807   6.342
 7379SOL     OW23035   4.187   0.584   0.620
 7379SOL    HW123036   4.186   0.635   0.535
 7379SOL    HW223037   4.106   0.525   0.625
 7380SOL     OW23038   0.165   3.328   6.867
 7380SOL    HW123039   0.233   3.328   6.794
 7380SOL    HW223040   0.075   3.306   6.829
 7381SOL     OW23041   5.441   2.396   0.624
 7381SOL    HW123042   5.371   2.445   0.675
 7381SOL    HW223043   5.449   2.303   0.660
 7382SOL     OW23044   0.848   5.107   3.680
 7382SOL    HW123045   0.908   5.070   3.751
 7382SOL    HW223046   0.894   5.102   3.591
 7383SOL     OW23047   1.804   4.514   2.538
 7383SOL    HW123048   1.887   4.459   2.543
 7383SOL    HW223049   1.825   4.602   2.495
 7384SOL     OW23050   5.709   1.403   1.277
 7384SOL    HW123051   5.788   1.452   1.314
 7384SOL    HW223052   5.724   1.305   1.286
 7385SOL     OW23053   5.350   0.237   2.032
 7385SOL    HW123054   5.440   0.258   2.072
 7385SOL    HW223055   5.351   0.261   1.935
 7386SOL     OW23056   6.184   1.643   5.630
 7386SOL    HW123057   6.200   1.742   5.636
 7386SOL    HW223058   6.241   1.596   5.697
 7387SOL     OW23059   4.515   5.674   3.813
 7387SOL    HW123060   4.586   5.731   3.772
 7387SOL    HW223061   4.557   5.611   3.879
 7388SOL     OW23062   5.183   3.578   4.782
 7388SOL    HW123063   5.204   3.576   4.880
 7388SOL    HW223064   5.114   3.648   4.764
 7389SOL     OW23065   2.485   3.122   5.648
 7389SOL    HW123066   2.466   3.142   5.552
 7389SOL    HW223067   2.473   3.024   5.665
 7390SOL     OW23068   4.590   6.746   0.396
 7390SOL    HW123069   4.663   6.809   0.420
 7390SOL    HW223070   4.566   6.691   0.476
 7391SOL     OW23071   6.859   5.489   1.068
 7391SOL    HW123072   6.841   5.430   0.989
 7391SOL    HW223073   6.843   5.584   1.042
 7392SOL     OW23074   1.845   4.425   2.127
 7392SOL    HW123075   1.887   4.397   2.041
 7392SOL    HW223076   1.893   4.505   2.163
 7393SOL     OW23077   1.510   3.956   0.531
 7393SOL    HW123078   1.605   3.927   0.523
 7393SOL    HW223079   1.484   4.009   0.451
 7394SOL     OW23080   2.804   3.581   0.175
 7394SOL    HW123081   2.769   3.629   0.095
 7394SOL    HW223082   2.902   3.598   0.184
 7395SOL     OW23083   2.571   6.982   0.064
 7395SOL    HW123084   2.556   6.933   6.998
 7395SOL    HW223085   2.494   6.965   0.126
 7396SOL     OW23086   6.646   0.001   2.457
 7396SOL    HW123087   6.676   6.969   2.536
 7396SOL    HW223088   6.705   0.082   2.446
 7397SOL     OW23089   5.954   4.315   3.932
 7397SOL    HW123090   5.886   4.345   3.865
 7397SOL    HW223091   6.008   4.394   3.962
 7398SOL     OW23092   4.320   6.327   2.708
 7398SOL    HW123093   4.248   6.396   2.697
 7398SOL    HW223094   4.321   6.296   2.804
 7399SOL     OW23095   5.087   6.061   4.341
 7399SOL    HW123096   5.181   6.088   4.316
 7399SOL    HW223097   5.033   6.143   4.360
 7400SOL     OW23098   2.625   4.405   6.571
 7400SOL    HW123099   2.653   4.374   6.663
 7400SOL    HW223100   2.699   4.457   6.530
 7401SOL     OW23101   6.424   2.852   4.066
 7401SOL    HW123102   6.437   2.939   4.114
 7401SOL    HW223103   6.326   2.829   4.066
 7402SOL     OW23104   2.005   6.310   4.685
 7402SOL    HW123105   2.024   6.278   4.592
 7402SOL    HW223106   2.048   6.248   4.750
 7403SOL     OW23107   2.173   2.804   1.808
 7403SOL    HW123108   2.073   2.798   1.797
 7403SOL    HW223109   2.217   2.789   1.719
 7404SOL     OW23110   1.364   2.936   2.866
 7404SOL    HW123111   1.452   2.939   2.914
 7404SOL    HW223112   1.316   3.022   2.880
 7405SOL     OW23113   3.355   4.867   6.189
 7405SOL    HW123114   3.430   4.933   6.189
 7405SOL    HW223115   3.302   4.877   6.105
 7406SOL     OW23116   6.161   5.980   2.846
 7406SOL    HW123117   6.091   5.930   2.897
 7406SOL    HW223118   6.170   5.941   2.755
 7407SOL     OW23119   3.857   1.511   6.098
 7407SOL    HW123120   3.899   1.500   6.188
 7407SOL    HW223121   3.928   1.513   6.028
 7408SOL     OW23122   0.895   3.383   4.758
 7408SOL    HW123123   0.950   3.317   4.809
 7408SOL    HW223124   0.813   3.406   4.810
 7409SOL     OW23125   2.218   0.173   4.663
 7409SOL    HW123126   2.183   0.197   4.572
 7409SOL    HW223127   2.314   0.146   4.655
 7410SOL     OW23128   4.673   5.848   5.672
 7410SOL    HW123129   4.631   5.804   5.751
 7410SOL    HW223130   4.603   5.892   5.616
 7411SOL     OW23131   6.122   3.552   5.490
 7411SOL    HW123132   6.068   3.473   5.518
 7411SOL    HW223133   6.063   3.632   5.483
 7412SOL     OW23134   1.009   0.405   0.495
 7412SOL    HW123135   1.069   0.326   0.492
 7412SOL    HW223136   1.028   0.459   0.578
 7413SOL     OW23137   6.087   4.027   3.243
 7413SOL    HW123138   6.141   4.051   3.324
 7413SOL    HW223139   6.092   3.928   3.229
 7414SOL     OW23140   0.085   6.169   2.015
 7414SOL    HW123141   0.022   6.125   1.951
 7414SOL    HW223142   0.163   6.109   2.032
 7415SOL     OW23143   2.835   1.543   3.134
 7415SOL    HW123144   2.831   1.634   3.093
 7415SOL    HW223145   2.842   1.552   3.234
 7416SOL     OW23146   6.257   0.475   2.502
 7416SOL    HW123147   6.185   0.407   2.511
 7416SOL    HW223148   6.342   0.441   2.543
 7417SOL     OW23149   0.508   5.286   1.304
 7417SOL    HW123150   0.411   5.274   1.325
 7417SOL    HW223151   0.556   5.319   1.385
 7418SOL     OW23152   2.340   3.718   0.948
 7418SOL    HW123153   2.323   3.621   0.934
 7418SOL    HW223154   2.379   3.733   1.039
 7419SOL     OW23155   6.260   1.876   5.755
 7419SOL    HW123156   6.210   1.910   5.835
 7419SOL    HW223157   6.346   1.833   5.785
 7420SOL     OW23158   0.471   5.662   1.856
 7420SOL    HW123159   0.476   5.569   1.892
 7420SOL    HW223160   0.376   5.691   1.851
 7421SOL     OW23161   4.056   2.314   1.288
 7421SOL    HW123162   4.058   2.350   1.381
 7421SOL    HW223163   4.136   2.256   1.273
 7422SOL     OW23164   1.350   2.188   0.486
 7422SOL    HW123165   1.256   2.189   0.520
 7422SOL    HW223166   1.375   2.094   0.460
 7423SOL     OW23167   3.358   4.332   0.489
 7423SOL    HW123168   3.420   4.389   0.435
 7423SOL    HW223169   3.265   4.368   0.482
 7424SOL     OW23170   5.583   0.054   3.628
 7424SOL    HW123171   5.581   6.983   3.671
 7424SOL    HW223172   5.497   0.101   3.647
 7425SOL     OW23173   3.654   0.633   4.743
 7425SOL    HW123174   3.743   0.672   4.768
 7425SOL    HW223175   3.583   0.673   4.800
 7426SOL     OW23176   0.196   0.242   6.695
 7426SOL    HW123177   0.115   0.255   6.751
 7426SOL    HW223178   0.172   0.253   6.598
 7427SOL     OW23179   5.285   5.455   5.798
 7427SOL    HW123180   5.328   5.539   5.765
 7427SOL    HW223181   5.314   5.437   5.891
 7428SOL     OW23182   5.390   1.695   5.511
 7428SOL    HW123183   5.314   1.631   5.502
 7428SOL    HW223184   5.355   1.788   5.524
 7429SOL     OW23185   5.761   6.230   3.562
 7429SOL    HW123186   5.782   6.307   3.622
 7429SOL    HW223187   5.840   6.211   3.503
 7430SOL     OW23188   0.851   3.968   4.345
 7430SOL    HW123189   0.907   3.933   4.421
 7430SOL    HW223190   0.754   3.958   4.368
 7431SOL     OW23191   0.115   3.991   3.022
 7431SOL    HW123192   0.204   3.971   2.983
 7431SOL    HW223193   0.075   3.907   3.060
 7432SOL     OW23194   2.162   6.080   5.829
 7432SOL    HW123195   2.233   6.095   5.761
 7432SOL    HW223196   2.154   5.982   5.848
 7433SOL     OW23197   0.752   6.745   0.551
 7433SOL    HW123198   0.686   6.759   0.477
 7433SOL    HW223199   0.720   6.792   0.633
 7434SOL     OW23200   4.433   6.771   0.709
 7434SOL    HW123201   4.401   6.843   0.648
 7434SOL    HW223202   4.456   6.690   0.656
 7435SOL     OW23203   1.073   4.728   6.879
 7435SOL    HW123204   1.112   4.787   6.950
 7435SOL    HW223205   1.142   4.708   6.810
 7436SOL     OW23206   5.053   3.504   6.812
 7436SOL    HW123207   5.012   3.542   6.729
 7436SOL    HW223208   5.140   3.460   6.789
 7437SOL     OW23209   6.827   6.669   5.401
 7437SOL    HW123210   6.881   6.604   5.455
 7437SOL    HW223211   6.833   6.760   5.443
 7438SOL     OW23212   6.521   4.375   0.669
 7438SOL    HW123213   6.486   4.454   0.719
 7438SOL    HW223214   6.620   4.368   0.683
 7439SOL     OW23215   1.466   6.296   3.240
 7439SOL    HW123216   1.463   6.387   3.280
 7439SOL    HW223217   1.430   6.299   3.146
 7440SOL     OW23218   1.095   0.938   4.788
 7440SOL    HW123219   1.038   0.877   4.732
 7440SOL    HW223220   1.177   0.964   4.735
 7441SOL     OW23221   6.816   0.581   4.173
 7441SOL    HW123222   6.784   0.508   4.112
 7441SOL    HW223223   6.909   0.559   4.204
 7442SOL     OW23224   1.693   0.934   0.140
 7442SOL    HW123225   1.765   0.906   0.203
 7442SOL    HW223226   1.620   0.865   0.140
 7443SOL     OW23227   6.499   1.712   1.488
 7443SOL    HW123228   6.409   1.669   1.494
 7443SOL    HW223229   6.528   1.742   1.578
 7444SOL     OW23230   1.544   3.102   5.486
 7444SOL    HW123231   1.613   3.048   5.438
 7444SOL    HW223232   1.589   3.169   5.545
 7445SOL     OW23233   5.632   2.962   2.614
 7445SOL    HW123234   5.565   2.888   2.617
 7445SOL    HW223235   5.586   3.049   2.597
 7446SOL     OW23236   4.648   4.287   2.715
 7446SOL    HW123237   4.595   4.362   2.754
 7446SOL    HW223238   4.692   4.235   2.789
 7447SOL     OW23239   1.531   3.212   6.226
 7447SOL    HW123240   1.518   3.209   6.127
 7447SOL    HW223241   1.448   3.249   6.269
 7448SOL     OW23242   0.285   0.836   5.620
 7448SOL    HW123243   0.345   0.825   5.700
 7448SOL    HW223244   0.237   0.923   5.626
 7449SOL     OW23245   3.301   0.814   3.310
 7449SOL    HW123246   3.290   0.715   3.303
 7449SOL    HW223247   3.365   0.846   3.241
 7450SOL     OW23248   4.077   1.593   2.019
 7450SOL    HW123249   4.130   1.571   2.100
 7450SOL    HW223250   4.111   1.678   1.978
 7451SOL     OW23251   1.119   0.673   1.820
 7451SOL    HW123252   1.161   0.762   1.841
 7451SOL    HW223253   1.042   0.657   1.882
 7452SOL     OW23254   1.966   5.740   2.956
 7452SOL    HW123255   1.950   5.716   3.051
 7452SOL    HW223256   2.014   5.664   2.910
 7453SOL     OW23257   6.817   4.519   5.119
 7453SOL    HW123258   6.908   4.477   5.120
 7453SOL    HW223259   6.776   4.511   5.210
 7454SOL     OW23260   2.675   2.010   0.243
 7454SOL    HW123261   2.714   2.093   0.204
 7454SOL    HW223262   2.747   1.942   0.256
 7455SOL     OW23263   4.816   0.069   0.803
 7455SOL    HW123264   4.876   7.018   0.840
 7455SOL    HW223265   4.834   0.156   0.849
 7456SOL     OW23266   1.462   3.441   5.661
 7456SOL    HW123267   1.507   3.397   5.738
 7456SOL    HW223268   1.368   3.407   5.653
 7457SOL     OW23269   0.223   6.389   5.989
 7457SOL    HW123270   0.252   6.480   5.960
 7457SOL    HW223271   0.148   6.398   6.056
 7458SOL     OW23272   2.659   0.307   1.549
 7458SOL    HW123273   2.580   0.342   1.599
 7458SOL    HW223274   2.714   0.383   1.515
 7459SOL     OW23275   3.860   6.192   3.449
 7459SOL    HW123276   3.917   6.246   3.386
 7459SOL    HW223277   3.840   6.103   3.408
 7460SOL     OW23278   0.888   5.133   6.310
 7460SOL    HW123279   0.919   5.227   6.320
 7460SOL    HW223280   0.963   5.077   6.274
 7461SOL     OW23281   3.585   1.396   3.302
 7461SOL    HW123282   3.529   1.429   3.378
 7461SOL    HW223283   3.680   1.423   3.316
 7462SOL     OW23284   1.683   1.918   3.926
 7462SOL    HW123285   1.635   1.948   4.008
 7462SOL    HW223286   1.628   1.851   3.877
 7463SOL     OW23287   3.818   4.076   3.096
 7463SOL    HW123288   3.894   4.029   3.050
 7463SOL    HW223289   3.839   4.088   3.193
 7464SOL     OW23290   4.703   5.791   0.351
 7464SOL    HW123291   4.760   5.709   0.347
 7464SOL    HW223292   4.657   5.795   0.440
 7465SOL     OW23293   3.331   1.508   2.938
 7465SOL    HW123294   3.248   1.463   2.903
 7465SOL    HW223295   3.353   1.587   2.880
 7466SOL     OW23296   6.890   6.603   0.812
 7466SOL    HW123297   6.852   6.684   0.766
 7466SOL    HW223298   6.945   6.551   0.746
 7467SOL     OW23299   4.327   2.432   1.217
 7467SOL    HW123300   4.242   2.439   1.269
 7467SOL    HW223301   4.353   2.335   1.211
 7468SOL     OW23302   5.156   4.753   4.554
 7468SOL    HW123303   5.126   4.834   4.504
 7468SOL    HW223304   5.227   4.706   4.502
 7469SOL     OW23305   5.500   2.122   1.492
 7469SOL    HW123306   5.422   2.068   1.460
 7469SOL    HW223307   5.556   2.148   1.414
 7470SOL     OW23308   0.695   3.399   3.278
 7470SOL    HW123309   0.712   3.388   3.180
 7470SOL    HW223310   0.780   3.426   3.324
 7471SOL     OW23311   6.558   4.166   5.614
 7471SOL    HW123312   6.638   4.178   5.554
 7471SOL    HW223313   6.538   4.069   5.622
 7472SOL     OW23314   4.429   5.171   3.309
 7472SOL    HW123315   4.451   5.208   3.219
 7472SOL    HW223316   4.437   5.071   3.307
 7473SOL     OW23317   1.660   2.364   6.568
 7473SOL    HW123318   1.727   2.304   6.613
 7473SOL    HW223319   1.639   2.328   6.477
 7474SOL     OW23320   2.763   1.262   2.135
 7474SOL    HW123321   2.809   1.181   2.170
 7474SOL    HW223322   2.665   1.245   2.128
 7475SOL     OW23323   5.051   0.912   6.078
 7475SOL    HW123324   4.973   0.925   6.140
 7475SOL    HW223325   5.017   0.887   5.987
 7476SOL     OW23326   2.170   6.545   4.630
 7476SOL    HW123327   2.123   6.466   4.669
 7476SOL    HW223328   2.186   6.530   4.533
 7477SOL     OW23329   4.507   4.608   4.817
 7477SOL    HW123330   4.461   4.570   4.896
 7477SOL    HW223331   4.589   4.657   4.846
 7478SOL     OW23332   0.290   4.538   1.388
 7478SOL    HW123333   0.365   4.604   1.380
 7478SOL    HW223334   0.215   4.565   1.328
 7479SOL     OW23335   3.733   0.444   4.551
 7479SOL    HW123336   3.654   0.382   4.552
 7479SOL    HW223337   3.724   0.511   4.625
 7480SOL     OW23338   5.540   5.085   0.114
 7480SOL    HW123339   5.483   5.166   0.128
 7480SOL    HW223340   5.618   5.088   0.176
 7481SOL     OW23341   5.739   6.110   0.316
 7481SOL    HW123342   5.653   6.132   0.362
 7481SOL    HW223343   5.736   6.015   0.286
 7482SOL     OW23344   4.872   0.170   4.877
 7482SOL    HW123345   4.869   0.207   4.970
 7482SOL    HW223346   4.787   0.122   4.858
 7483SOL     OW23347   3.217   0.084   6.951
 7483SOL    HW123348   3.151   0.019   6.990
 7483SOL    HW223349   3.295   0.094   7.013
 7484SOL     OW23350   3.403   6.714   1.218
 7484SOL    HW123351   3.480   6.712   1.155
 7484SOL    HW223352   3.390   6.807   1.253
 7485SOL     OW23353   1.023   0.219   5.025
 7485SOL    HW123354   1.032   0.169   4.939
 7485SOL    HW223355   0.928   0.215   5.056
 7486SOL     OW23356   1.649   1.954   4.860
 7486SOL    HW123357   1.611   1.907   4.940
 7486SOL    HW223358   1.723   2.014   4.890
 7487SOL     OW23359   2.813   5.586   2.585
 7487SOL    HW123360   2.843   5.532   2.506
 7487SOL    HW223361   2.742   5.650   2.556
 7488SOL     OW23362   4.506   1.751   5.106
 7488SOL    HW123363   4.544   1.799   5.185
 7488SOL    HW223364   4.408   1.770   5.100
 7489SOL     OW23365   0.886   3.156   3.611
 7489SOL    HW123366   0.792   3.160   3.576
 7489SOL    HW223367   0.891   3.205   3.698
 7490SOL     OW23368   5.894   7.006   2.155
 7490SOL    HW123369   5.819   6.947   2.184
 7490SOL    HW223370   5.857   0.065   2.106
 7491SOL     OW23371   0.771   6.894   0.866
 7491SOL    HW123372   0.689   6.950   0.870
 7491SOL    HW223373   0.840   6.940   0.810
 7492SOL     OW23374   1.677   2.053   2.845
 7492SOL    HW123375   1.665   1.974   2.905
 7492SOL    HW223376   1.589   2.096   2.827
 7493SOL     OW23377   5.821   4.208   6.526
 7493SOL    HW123378   5.916   4.199   6.557
 7493SOL    HW223379   5.817   4.273   6.451
 7494SOL     OW23380   4.780   1.755   1.508
 7494SOL    HW123381   4.775   1.834   1.447
 7494SOL    HW223382   4.820   1.783   1.596
 7495SOL     OW23383   1.554   1.684   3.717
 7495SOL    HW123384   1.603   1.623   3.780
 7495SOL    HW223385   1.584   1.665   3.623
 7496SOL     OW23386   0.858   4.974   6.055
 7496SOL    HW123387   0.918   5.020   5.990
 7496SOL    HW223388   0.913   4.912   6.112
 7497SOL     OW23389   0.793   4.893   2.996
 7497SOL    HW123390   0.829   4.800   3.011
 7497SOL    HW223391   0.859   4.945   2.942
 7498SOL     OW23392   5.307   2.052   4.369
 7498SOL    HW123393   5.358   2.134   4.342
 7498SOL    HW223394   5.316   2.038   4.468
 7499SOL     OW23395   3.780   5.226   3.462
 7499SOL    HW123396   3.860   5.277   3.494
 7499SOL    HW223397   3.767   5.242   3.364
 7500SOL     OW23398   4.778   4.081   1.746
 7500SOL    HW123399   4.799   4.177   1.723
 7500SOL    HW223400   4.790   4.067   1.844
 7501SOL     OW23401   1.144   4.022   3.635
 7501SOL    HW123402   1.099   4.004   3.548
 7501SOL    HW223403   1.141   4.120   3.655
 7502SOL     OW23404   1.273   1.907   3.991
 7502SOL    HW123405   1.325   1.990   4.012
 7502SOL    HW223406   1.230   1.917   3.901
 7503SOL     OW23407   2.143   1.882   0.214
 7503SOL    HW123408   2.240   1.874   0.240
 7503SOL    HW223409   2.087   1.888   0.297
 7504SOL     OW23410   5.253   6.028   5.427
 7504SOL    HW123411   5.264   5.940   5.473
 7504SOL    HW223412   5.278   6.018   5.331
 7505SOL     OW23413   1.477   2.177   3.308
 7505SOL    HW123414   1.478   2.233   3.391
 7505SOL    HW223415   1.385   2.176   3.269
 7506SOL     OW23416   4.028   0.494   3.067
 7506SOL    HW123417   4.096   0.424   3.087
 7506SOL    HW223418   3.944   0.451   3.035
 7507SOL     OW23419   1.771   7.016   5.437
 7507SOL    HW123420   1.812   6.952   5.371
 7507SOL    HW223421   1.840   0.023   5.505
 7508SOL     OW23422   5.390   5.990   3.432
 7508SOL    HW123423   5.313   6.027   3.484
 7508SOL    HW223424   5.382   6.019   3.336
 7509SOL     OW23425   3.369   4.272   6.446
 7509SOL    HW123426   3.419   4.217   6.513
 7509SOL    HW223427   3.401   4.251   6.354
 7510SOL     OW23428   3.916   3.283   5.200
 7510SOL    HW123429   3.845   3.213   5.189
 7510SOL    HW223430   3.960   3.301   5.112
 7511SOL     OW23431   1.159   1.277   2.304
 7511SOL    HW123432   1.111   1.191   2.320
 7511SOL    HW223433   1.145   1.338   2.382
 7512SOL     OW23434   2.272   2.637   2.343
 7512SOL    HW123435   2.296   2.655   2.248
 7512SOL    HW223436   2.262   2.724   2.392
 7513SOL     OW23437   2.173   2.952   6.890
 7513SOL    HW123438   2.252   3.011   6.905
 7513SOL    HW223439   2.089   3.004   6.907
 7514SOL     OW23440   3.168   5.083   3.130
 7514SOL    HW123441   3.133   5.145   3.059
 7514SOL    HW223442   3.105   5.082   3.207
 7515SOL     OW23443   0.202   5.059   2.955
 7515SOL    HW123444   0.110   5.088   2.982
 7515SOL    HW223445   0.197   5.011   2.867
 7516SOL     OW23446   2.208   3.266   1.204
 7516SOL    HW123447   2.190   3.277   1.106
 7516SOL    HW223448   2.286   3.322   1.230
 7517SOL     OW23449   1.206   5.108   2.324
 7517SOL    HW123450   1.254   5.024   2.301
 7517SOL    HW223451   1.212   5.173   2.249
 7518SOL     OW23452   5.129   4.023   2.504
 7518SOL    HW123453   5.051   3.961   2.499
 7518SOL    HW223454   5.191   3.992   2.576
 7519SOL     OW23455   1.886   0.421   4.886
 7519SOL    HW123456   1.877   0.514   4.923
 7519SOL    HW223457   1.806   0.367   4.911
 7520SOL     OW23458   1.977   0.140   4.787
 7520SOL    HW123459   1.954   0.223   4.839
 7520SOL    HW223460   2.071   0.147   4.753
 7521SOL     OW23461   4.214   2.711   5.944
 7521SOL    HW123462   4.188   2.807   5.939
 7521SOL    HW223463   4.212   2.671   5.852
 7522SOL     OW23464   2.196   6.691   2.774
 7522SOL    HW123465   2.243   6.734   2.851
 7522SOL    HW223466   2.098   6.702   2.785
 7523SOL     OW23467   6.742   6.402   6.522
 7523SOL    HW123468   6.747   6.302   6.519
 7523SOL    HW223469   6.835   6.440   6.527
 7524SOL     OW23470   6.287   1.448   5.090
 7524SOL    HW123471   6.337   1.525   5.049
 7524SOL    HW223472   6.215   1.418   5.027
 7525SOL     OW23473   0.360   6.939   0.798
 7525SOL    HW123474   0.429   7.010   0.811
 7525SOL    HW223475   0.291   6.971   0.734
 7526SOL     OW23476   3.920   3.000   5.372
 7526SOL    HW123477   4.006   3.042   5.345
 7526SOL    HW223478   3.903   2.919   5.315
 7527SOL     OW23479   2.574   6.202   2.119
 7527SOL    HW123480   2.615   6.161   2.201
 7527SOL    HW223481   2.527   6.131   2.067
 7528SOL     OW23482   6.182   2.889   0.039
 7528SOL    HW123483   6.169   2.985   0.016
 7528SOL    HW223484   6.094   2.843   0.041
 7529SOL     OW23485   1.763   6.975   4.027
 7529SOL    HW123486   1.801   6.972   3.935
 7529SOL    HW223487   1.665   6.994   4.022
 7530SOL     OW23488   0.155   2.819   3.073
 7530SOL    HW123489   0.184   2.912   3.050
 7530SOL    HW223490   0.065   2.822   3.115
 7531SOL     OW23491   1.719   2.255   4.070
 7531SOL    HW123492   1.705   2.280   3.975
 7531SOL    HW223493   1.649   2.299   4.127
 7532SOL     OW23494   4.678   4.350   2.154
 7532SOL    HW123495   4.648   4.350   2.249
 7532SOL    HW223496   4.599   4.336   2.094
 7533SOL     OW23497   3.324   1.019   5.192
 7533SOL    HW123498   3.386   0.947   5.160
 7533SOL    HW223499   3.255   1.038   5.122
 7534SOL     OW23500   3.949   6.161   4.221
 7534SOL    HW123501   3.949   6.074   4.271
 7534SOL    HW223502   4.013   6.224   4.264
 7535SOL     OW23503   2.828   5.243   0.006
 7535SOL    HW123504   2.833   5.337   6.993
 7535SOL    HW223505   2.741   5.202   6.999
 7536SOL     OW23506   4.591   5.090   6.563
 7536SOL    HW123507   4.574   5.100   6.661
 7536SOL    HW223508   4.631   5.174   6.527
 7537SOL     OW23509   2.427   4.433   5.133
 7537SOL    HW123510   2.418   4.514   5.191
 7537SOL    HW223511   2.336   4.397   5.112
 7538SOL     OW23512   3.520   4.395   5.254
 7538SOL    HW123513   3.589   4.463   5.231
 7538SOL    HW223514   3.459   4.432   5.324
 7539SOL     OW23515   0.786   2.437   5.094
 7539SOL    HW123516   0.747   2.497   5.164
 7539SOL    HW223517   0.872   2.398   5.128
 7540SOL     OW23518   2.561   0.635   0.119
 7540SOL    HW123519   2.462   0.625   0.107
 7540SOL    HW223520   2.589   0.727   0.095
 7541SOL     OW23521   0.195   1.967   5.993
 7541SOL    HW123522   0.166   1.885   5.942
 7541SOL    HW223523   0.273   1.944   6.050
 7542SOL     OW23524   1.679   0.248   4.997
 7542SOL    HW123525   1.606   0.297   5.045
 7542SOL    HW223526   1.670   0.150   5.015
 7543SOL     OW23527   2.795   2.496   1.609
 7543SOL    HW123528   2.887   2.528   1.631
 7543SOL    HW223529   2.730   2.532   1.676
 7544SOL     OW23530   1.412   1.951   2.114
 7544SOL    HW123531   1.314   1.942   2.136
 7544SOL    HW223532   1.426   1.933   2.017
 7545SOL     OW23533   4.615   0.283   3.307
 7545SOL    HW123534   4.697   0.277   3.250
 7545SOL    HW223535   4.639   0.268   3.403
 7546SOL     OW23536   5.296   6.976   5.349
 7546SOL    HW123537   5.329   0.050   5.345
 7546SOL    HW223538   5.196   6.976   5.354
 7547SOL     OW23539   2.549   6.644   0.218
 7547SOL    HW123540   2.595   6.641   0.129
 7547SOL    HW223541   2.529   6.738   0.243
 7548SOL     OW23542   2.618   3.810   0.798
 7548SOL    HW123543   2.523   3.779   0.796
 7548SOL    HW223544   2.634   3.862   0.882
 7549SOL     OW23545   6.119   0.303   2.186
 7549SOL    HW123546   6.157   0.280   2.275
 7549SOL    HW223547   6.045   0.369   2.197
 7550SOL     OW23548   1.102   4.892   0.688
 7550SOL    HW123549   1.176   4.885   0.622
 7550SOL    HW223550   1.082   4.801   0.725
 7551SOL     OW23551   4.847   3.740   5.912
 7551SOL    HW123552   4.864   3.695   6.000
 7551SOL    HW223553   4.805   3.829   5.928
 7552SOL     OW23554   3.730   5.817   4.124
 7552SOL    HW123555   3.674   5.736   4.106
 7552SOL    HW223556   3.802   5.793   4.188
 7553SOL     OW23557   4.352   4.079   5.994
 7553SOL    HW123558   4.288   4.101   5.921
 7553SOL    HW223559   4.404   3.997   5.970
 7554SOL     OW23560   0.082   1.808   0.905
 7554SOL    HW123561   7.015   1.856   0.918
 7554SOL    HW223562   0.133   1.807   0.991
 7555SOL     OW23563   2.122   6.628   5.987
 7555SOL    HW123564   2.188   6.612   6.061
 7555SOL    HW223565   2.172   6.642   5.902
 7556SOL     OW23566   0.089   3.525   2.437
 7556SOL    HW123567   0.063   3.459   2.507
 7556SOL    HW223568   0.008   3.574   2.405
 7557SOL     OW23569   4.480   4.149   0.753
 7557SOL    HW123570   4.464   4.244   0.725
 7557SOL    HW223571   4.505   4.148   0.850
 7558SOL     OW23572   1.698   3.346   3.612
 7558SOL    HW123573   1.772   3.283   3.586
 7558SOL    HW223574   1.621   3.294   3.650
 7559SOL     OW23575   0.699   5.190   0.186
 7559SOL    HW123576   0.695   5.169   0.088
 7559SOL    HW223577   0.755   5.121   0.232
 7560SOL     OW23578   4.732   0.269   5.709
 7560SOL    HW123579   4.696   0.183   5.673
 7560SOL    HW223580   4.706   0.278   5.805
 7561SOL     OW23581   1.108   3.019   0.236
 7561SOL    HW123582   1.040   2.983   0.300
 7561SOL    HW223583   1.170   3.081   0.284
 7562SOL     OW23584   4.306   6.162   5.128
 7562SOL    HW123585   4.234   6.230   5.145
 7562SOL    HW223586   4.374   6.168   5.202
 7563SOL     OW23587   2.068   1.447   3.765
 7563SOL    HW123588   1.998   1.499   3.815
 7563SOL    HW223589   2.080   1.487   3.674
 7564SOL     OW23590   6.429   5.769   4.303
 7564SOL    HW123591   6.389   5.855   4.335
 7564SOL    HW223592   6.459   5.715   4.381
 7565SOL     OW23593   5.294   4.712   6.112
 7565SOL    HW123594   5.386   4.716   6.152
 7565SOL    HW223595   5.298   4.671   6.021
 7566SOL     OW23596   1.825   5.103   4.512
 7566SOL    HW123597   1.917   5.098   4.550
 7566SOL    HW223598   1.829   5.093   4.412
 7567SOL     OW23599   2.537   3.553   0.189
 7567SOL    HW123600   2.501   3.639   0.152
 7567SOL    HW223601   2.636   3.562   0.203
 7568SOL     OW23602   4.182   4.785   3.886
 7568SOL    HW123603   4.141   4.732   3.812
 7568SOL    HW223604   4.255   4.843   3.850
 7569SOL     OW23605   4.194   0.666   2.525
 7569SOL    HW123606   4.282   0.692   2.487
 7569SOL    HW223607   4.150   0.746   2.566
 7570SOL     OW23608   5.563   4.735   5.034
 7570SOL    HW123609   5.583   4.721   4.937
 7570SOL    HW223610   5.545   4.832   5.050
 7571SOL     OW23611   6.582   4.037   6.990
 7571SOL    HW123612   6.609   3.982   0.049
 7571SOL    HW223613   6.663   4.079   6.950
 7572SOL     OW23614   6.147   1.518   3.428
 7572SOL    HW123615   6.205   1.598   3.407
 7572SOL    HW223616   6.165   1.446   3.361
 7573SOL     OW23617   3.340   5.147   3.702
 7573SOL    HW123618   3.359   5.052   3.725
 7573SOL    HW223619   3.241   5.161   3.693
 7574SOL     OW23620   4.104   6.028   1.656
 7574SOL    HW123621   4.164   5.961   1.612
 7574SOL    HW223622   4.133   6.041   1.751
 7575SOL     OW23623   5.023   3.206   4.239
 7575SOL    HW123624   5.030   3.130   4.174
 7575SOL    HW223625   5.114   3.242   4.259
 7576SOL     OW23626   0.331   4.364   1.762
 7576SOL    HW123627   0.388   4.410   1.831
 7576SOL    HW223628   0.263   4.428   1.727
 7577SOL     OW23629   3.993   1.252   4.076
 7577SOL    HW123630   4.018   1.347   4.054
 7577SOL    HW223631   3.958   1.249   4.169
 7578SOL     OW23632   2.142   5.625   5.402
 7578SOL    HW123633   2.050   5.622   5.362
 7578SOL    HW223634   2.164   5.536   5.442
 7579SOL     OW23635   4.622   1.977   4.292
 7579SOL    HW123636   4.580   2.046   4.234
 7579SOL    HW223637   4.711   2.010   4.324
 7580SOL     OW23638   2.077   3.257   2.016
 7580SOL    HW123639   2.145   3.329   2.004
 7580SOL    HW223640   2.005   3.268   1.948
 7581SOL     OW23641   5.599   1.044   1.034
 7581SOL    HW123642   5.592   1.097   1.119
 7581SOL    HW223643   5.530   0.973   1.033
 7582SOL     OW23644   4.106   2.682   1.503
 7582SOL    HW123645   4.163   2.639   1.574
 7582SOL    HW223646   4.027   2.725   1.547
 7583SOL     OW23647   6.821   3.961   3.420
 7583SOL    HW123648   6.805   3.968   3.322
 7583SOL    HW223649   6.868   4.043   3.452
 7584SOL     OW23650   1.926   2.371   1.874
 7584SOL    HW123651   2.016   2.352   1.913
 7584SOL    HW223652   1.932   2.448   1.811
 7585SOL     OW23653   2.775   4.299   0.777
 7585SOL    HW123654   2.845   4.254   0.721
 7585SOL    HW223655   2.685   4.282   0.738
 7586SOL     OW23656   1.623   2.641   3.300
 7586SOL    HW123657   1.597   2.626   3.396
 7586SOL    HW223658   1.674   2.563   3.266
 7587SOL     OW23659   2.827   1.037   5.784
 7587SOL    HW123660   2.754   0.969   5.780
 7587SOL    HW223661   2.905   1.006   5.729
 7588SOL     OW23662   0.842   5.096   1.468
 7588SOL    HW123663   0.788   5.019   1.502
 7588SOL    HW223664   0.804   5.129   1.382
 7589SOL     OW23665   4.915   5.986   6.010
 7589SOL    HW123666   4.894   6.017   5.917
 7589SOL    HW223667   4.830   5.973   6.061
 7590SOL     OW23668   2.512   0.963   5.119
 7590SOL    HW123669   2.494   0.994   5.026
 7590SOL    HW223670   2.583   1.020   5.160
 7591SOL     OW23671   6.591   5.532   6.328
 7591SOL    HW123672   6.611   5.514   6.425
 7591SOL    HW223673   6.554   5.624   6.318
 7592SOL     OW23674   4.374   4.949   6.057
 7592SOL    HW123675   4.387   4.864   6.005
 7592SOL    HW223676   4.455   5.007   6.048
 7593SOL     OW23677   6.733   4.635   0.204
 7593SOL    HW123678   6.770   4.573   0.135
 7593SOL    HW223679   6.743   4.595   0.295
 7594SOL     OW23680   1.034   6.778   4.158
 7594SOL    HW123681   1.115   6.767   4.101
 7594SOL    HW223682   1.020   6.696   4.213
 7595SOL     OW23683   0.121   3.610   6.759
 7595SOL    HW123684   0.030   3.607   6.716
 7595SOL    HW223685   0.142   3.521   6.800
 7596SOL     OW23686   4.907   5.618   2.090
 7596SOL    HW123687   4.875   5.695   2.146
 7596SOL    HW223688   4.970   5.562   2.143
 7597SOL     OW23689   2.217   4.263   1.842
 7597SOL    HW123690   2.220   4.263   1.742
 7597SOL    HW223691   2.188   4.173   1.874
 7598SOL     OW23692   6.700   1.265   2.796
 7598SOL    HW123693   6.720   1.343   2.856
 7598SOL    HW223694   6.704   1.295   2.700
 7599SOL     OW23695   5.374   3.930   2.219
 7599SOL    HW123696   5.442   3.856   2.217
 7599SOL    HW223697   5.283   3.891   2.205
 7600SOL     OW23698   2.270   2.322   2.652
 7600SOL    HW123699   2.347   2.382   2.632
 7600SOL    HW223700   2.303   2.230   2.672
 7601SOL     OW23701   2.037   0.952   5.534
 7601SOL    HW123702   1.937   0.956   5.532
 7601SOL    HW223703   2.066   0.857   5.538
 7602SOL     OW23704   1.901   3.030   5.616
 7602SOL    HW123705   1.998   3.022   5.593
 7602SOL    HW223706   1.868   3.120   5.587
 7603SOL     OW23707   6.983   1.812   2.356
 7603SOL    HW123708   7.014   1.731   2.405
 7603SOL    HW223709   6.890   1.796   2.322
 7604SOL     OW23710   5.590   5.568   6.417
 7604SOL    HW123711   5.538   5.484   6.400
 7604SOL    HW223712   5.532   5.647   6.398
 7605SOL     OW23713   5.270   3.633   5.861
 7605SOL    HW123714   5.279   3.577   5.943
 7605SOL    HW223715   5.225   3.719   5.884
 7606SOL     OW23716   5.506   1.235   3.860
 7606SOL    HW123717   5.567   1.175   3.810
 7606SOL    HW223718   5.550   1.324   3.875
 7607SOL     OW23719   4.817   6.281   5.965
 7607SOL    HW123720   4.833   6.312   5.872
 7607SOL    HW223721   4.893   6.222   5.994
 7608SOL     OW23722   3.709   3.871   5.006
 7608SOL    HW123723   3.613   3.900   5.007
 7608SOL    HW223724   3.767   3.950   4.987
 7609SOL     OW23725   1.095   2.744   3.083
 7609SOL    HW123726   1.089   2.830   3.032
 7609SOL    HW223727   1.145   2.759   3.168
 7610SOL     OW23728   5.482   0.511   2.192
 7610SOL    HW123729   5.545   0.435   2.174
 7610SOL    HW223730   5.457   0.555   2.105
 7611SOL     OW23731   1.315   1.260   1.283
 7611SOL    HW123732   1.402   1.234   1.323
 7611SOL    HW223733   1.250   1.184   1.291
 7612SOL     OW23734   4.451   1.291   2.872
 7612SOL    HW123735   4.391   1.371   2.873
 7612SOL    HW223736   4.433   1.238   2.789
 7613SOL     OW23737   6.507   0.740   2.143
 7613SOL    HW123738   6.414   0.744   2.106
 7613SOL    HW223739   6.513   0.666   2.211
 7614SOL     OW23740   4.152   0.702   0.860
 7614SOL    HW123741   4.075   0.765   0.850
 7614SOL    HW223742   4.168   0.654   0.774
 7615SOL     OW23743   3.859   4.812   5.530
 7615SOL    HW123744   3.832   4.842   5.439
 7615SOL    HW223745   3.780   4.815   5.591
 7616SOL     OW23746   6.979   5.992   3.475
 7616SOL    HW123747   0.000   5.937   3.548
 7616SOL    HW223748   6.924   5.933   3.416
 7617SOL     OW23749   3.965   5.604   3.636
 7617SOL    HW123750   3.978   5.693   3.680
 7617SOL    HW223751   3.867   5.585   3.629
 7618SOL     OW23752   3.410   1.570   0.139
 7618SOL    HW123753   3.353   1.600   0.214
 7618SOL    HW223754   3.440   1.476   0.155
 7619SOL     OW23755   5.659   3.039   5.692
 7619SOL    HW123756   5.655   3.027   5.593
 7619SOL    HW223757   5.682   2.952   5.736
 7620SOL     OW23758   2.665   5.354   1.882
 7620SOL    HW123759   2.588   5.365   1.945
 7620SOL    HW223760   2.674   5.258   1.857
 7621SOL     OW23761   2.547   2.675   1.305
 7621SOL    HW123762   2.574   2.666   1.210
 7621SOL    HW223763   2.482   2.750   1.315
 7622SOL     OW23764   5.015   1.999   1.040
 7622SOL    HW123765   5.010   1.899   1.041
 7622SOL    HW223766   4.989   2.034   1.130
 7623SOL     OW23767   6.859   6.846   4.770
 7623SOL    HW123768   6.900   6.896   4.694
 7623SOL    HW223769   6.814   6.910   4.832
 7624SOL     OW23770   6.839   0.774   4.883
 7624SOL    HW123771   6.840   0.693   4.941
 7624SOL    HW223772   6.770   0.763   4.811
 7625SOL     OW23773   2.664   4.854   0.717
 7625SOL    HW123774   2.581   4.910   0.722
 7625SOL    HW223775   2.643   4.767   0.674
 7626SOL     OW23776   2.685   4.037   5.476
 7626SOL    HW123777   2.607   4.036   5.539
 7626SOL    HW223778   2.657   4.003   5.387
 7627SOL     OW23779   6.748   0.588   0.517
 7627SOL    HW123780   6.735   0.666   0.455
 7627SOL    HW223781   6.792   0.514   0.467
 7628SOL     OW23782   4.345   1.503   0.494
 7628SOL    HW123783   4.310   1.549   0.576
 7628SOL    HW223784   4.391   1.418   0.521
 7629SOL     OW23785   6.259   5.684   2.661
 7629SOL    HW123786   6.247   5.781   2.638
 7629SOL    HW223787   6.233   5.668   2.756
 7630SOL     OW23788   5.714   1.456   1.653
 7630SOL    HW123789   5.653   1.455   1.732
 7630SOL    HW223790   5.672   1.509   1.580
 7631SOL     OW23791   1.391   0.291   3.836
 7631SOL    HW123792   1.348   0.347   3.907
 7631SOL    HW223793   1.347   0.308   3.748
 7632SOL     OW23794   4.516   1.112   4.738
 7632SOL    HW123795   4.571   1.055   4.677
 7632SOL    HW223796   4.492   1.059   4.820
 7633SOL     OW23797   6.282   3.503   6.218
 7633SOL    HW123798   6.311   3.454   6.299
 7633SOL    HW223799   6.202   3.560   6.240
 7634SOL     OW23800   1.145   2.478   1.811
 7634SOL    HW123801   1.222   2.435   1.764
 7634SOL    HW223802   1.106   2.414   1.876
 7635SOL     OW23803   2.450   4.467   5.485
 7635SOL    HW123804   2.534   4.432   5.445
 7635SOL    HW223805   2.460   4.474   5.584
 7636SOL     OW23806   0.858   1.057   3.497
 7636SOL    HW123807   0.876   1.154   3.486
 7636SOL    HW223808   0.762   1.038   3.475
 7637SOL     OW23809   3.060   6.213   4.002
 7637SOL    HW123810   2.962   6.194   3.997
 7637SOL    HW223811   3.106   6.167   3.926
 7638SOL     OW23812   4.471   4.890   1.787
 7638SOL    HW123813   4.376   4.897   1.757
 7638SOL    HW223814   4.478   4.821   1.859
 7639SOL     OW23815   0.700   2.140   4.513
 7639SOL    HW123816   0.781   2.186   4.549
 7639SOL    HW223817   0.727   2.051   4.475
 7640SOL     OW23818   2.033   3.111   6.612
 7640SOL    HW123819   2.123   3.067   6.619
 7640SOL    HW223820   2.037   3.182   6.542
 7641SOL     OW23821   6.048   3.698   1.974
 7641SOL    HW123822   6.009   3.640   2.045
 7641SOL    HW223823   6.059   3.646   1.890
 7642SOL     OW23824   1.094   2.512   2.568
 7642SOL    HW123825   1.190   2.521   2.541
 7642SOL    HW223826   1.041   2.588   2.529
 7643SOL     OW23827   5.352   3.810   3.222
 7643SOL    HW123828   5.259   3.773   3.228
 7643SOL    HW223829   5.363   3.860   3.137
 7644SOL     OW23830   6.256   3.181   3.642
 7644SOL    HW123831   6.214   3.262   3.683
 7644SOL    HW223832   6.189   3.132   3.587
 7645SOL     OW23833   4.360   3.047   0.663
 7645SOL    HW123834   4.453   3.021   0.686
 7645SOL    HW223835   4.318   2.977   0.606
 7646SOL     OW23836   0.902   0.330   2.058
 7646SOL    HW123837   0.977   0.324   2.124
 7646SOL    HW223838   0.926   0.278   1.976
 7647SOL     OW23839   2.258   4.541   6.843
 7647SOL    HW123840   2.210   4.562   6.758
 7647SOL    HW223841   2.294   4.447   6.840
 7648SOL     OW23842   2.790   0.530   3.615
 7648SOL    HW123843   2.766   0.449   3.668
 7648SOL    HW223844   2.775   0.512   3.518
 7649SOL     OW23845   3.731   1.997   1.144
 7649SOL    HW123846   3.771   2.012   1.235
 7649SOL    HW223847   3.693   2.083   1.110
 7650SOL     OW23848   6.893   5.018   0.532
 7650SOL    HW123849   6.884   4.945   0.464
 7650SOL    HW223850   6.812   5.019   0.591
 7651SOL     OW23851   5.417   2.035   5.808
 7651SOL    HW123852   5.356   2.007   5.882
 7651SOL    HW223853   5.406   2.133   5.790
 7652SOL     OW23854   0.919   3.370   2.680
 7652SOL    HW123855   1.004   3.424   2.682
 7652SOL    HW223856   0.850   3.416   2.736
 7653SOL     OW23857   4.483   2.480   2.160
 7653SOL    HW123858   4.566   2.519   2.201
 7653SOL    HW223859   4.489   2.486   2.061
 7654SOL     OW23860   5.421   3.703   5.313
 7654SOL    HW123861   5.381   3.665   5.396
 7654SOL    HW223862   5.479   3.635   5.269
 7655SOL     OW23863   5.064   5.164   6.748
 7655SOL    HW123864   5.026   5.075   6.773
 7655SOL    HW223865   5.070   5.222   6.829
 7656SOL     OW23866   0.288   0.723   5.187
 7656SOL    HW123867   0.295   0.722   5.087
 7656SOL    HW223868   0.328   0.640   5.225
 7657SOL     OW23869   3.774   1.735   3.371
 7657SOL    HW123870   3.802   1.639   3.364
 7657SOL    HW223871   3.733   1.751   3.461
 7658SOL     OW23872   4.152   0.817   5.718
 7658SOL    HW123873   4.083   0.874   5.673
 7658SOL    HW223874   4.157   0.840   5.815
 7659SOL     OW23875   5.186   6.353   6.198
 7659SOL    HW123876   5.209   6.438   6.245
 7659SOL    HW223877   5.260   6.287   6.210
 7660SOL     OW23878   5.305   5.330   3.714
 7660SOL    HW123879   5.312   5.396   3.639
 7660SOL    HW223880   5.210   5.323   3.744
 7661SOL     OW23881   5.972   3.158   3.547
 7661SOL    HW123882   6.023   3.239   3.517
 7661SOL    HW223883   5.894   3.187   3.603
 7662SOL     OW23884   6.123   5.593   3.466
 7662SOL    HW123885   6.201   5.655   3.459
 7662SOL    HW223886   6.154   5.504   3.496
 7663SOL     OW23887   0.978   6.233   7.012
 7663SOL    HW123888   1.050   6.169   0.021
 7663SOL    HW223889   0.983   6.245   6.913
 7664SOL     OW23890   4.040   5.345   4.842
 7664SOL    HW123891   3.945   5.329   4.814
 7664SOL    HW223892   4.050   5.324   4.939
 7665SOL     OW23893   1.993   5.460   3.655
 7665SOL    HW123894   2.064   5.531   3.655
 7665SOL    HW223895   1.937   5.469   3.737
 7666SOL     OW23896   2.076   0.457   2.460
 7666SOL    HW123897   1.995   0.473   2.518
 7666SOL    HW223898   2.047   0.446   2.365
 7667SOL     OW23899   5.791   6.943   5.674
 7667SOL    HW123900   5.864   6.966   5.610
 7667SOL    HW223901   5.738   6.867   5.637
 7668SOL     OW23902   3.219   3.180   2.438
 7668SOL    HW123903   3.132   3.139   2.412
 7668SOL    HW223904   3.205   3.278   2.455
 7669SOL     OW23905   4.558   6.720   4.972
 7669SOL    HW123906   4.647   6.700   4.930
 7669SOL    HW223907   4.491   6.737   4.899
 7670SOL     OW23908   2.077   5.777   0.995
 7670SOL    HW123909   2.102   5.681   0.996
 7670SOL    HW223910   2.043   5.803   0.904
 7671SOL     OW23911   4.527   2.485   4.777
 7671SOL    HW123912   4.486   2.572   4.754
 7671SOL    HW223913   4.475   2.411   4.735
 7672SOL     OW23914   5.856   6.915   1.617
 7672SOL    HW123915   5.883   6.896   1.523
 7672SOL    HW223916   5.907   6.855   1.679
 7673SOL     OW23917   1.627   3.295   0.192
 7673SOL    HW123918   1.576   3.210   0.200
 7673SOL    HW223919   1.592   3.347   0.114
 7674SOL     OW23920   6.035   1.242   5.147
 7674SOL    HW123921   6.096   1.257   5.225
 7674SOL    HW223922   6.089   1.212   5.068
 7675SOL     OW23923   5.183   0.419   3.121
 7675SOL    HW123924   5.255   0.471   3.075
 7675SOL    HW223925   5.094   0.443   3.083
 7676SOL     OW23926   2.211   0.216   1.368
 7676SOL    HW123927   2.161   0.225   1.454
 7676SOL    HW223928   2.154   0.170   1.300
 7677SOL     OW23929   1.912   2.695   2.728
 7677SOL    HW123930   1.975   2.651   2.664
 7677SOL    HW223931   1.882   2.629   2.796
 7678SOL     OW23932   4.921   6.673   5.906
 7678SOL    HW123933   4.944   6.769   5.892
 7678SOL    HW223934   5.000   6.625   5.943
 7679SOL     OW23935   1.520   4.985   4.790
 7679SOL    HW123936   1.604   5.037   4.804
 7679SOL    HW223937   1.534   4.919   4.716
 7680SOL     OW23938   4.379   0.378   0.658
 7680SOL    HW123939   4.464   0.413   0.618
 7680SOL    HW223940   4.317   0.454   0.675
 7681SOL     OW23941   3.865   2.282   5.679
 7681SOL    HW123942   3.860   2.194   5.631
 7681SOL    HW223943   3.779   2.299   5.726
 7682SOL     OW23944   2.676   0.628   0.405
 7682SOL    HW123945   2.630   0.618   0.317
 7682SOL    HW223946   2.772   0.650   0.390
 7683SOL     OW23947   6.919   3.324   3.373
 7683SOL    HW123948   6.821   3.301   3.376
 7683SOL    HW223949   6.967   3.271   3.443
 7684SOL     OW23950   4.122   1.534   5.897
 7684SOL    HW123951   4.195   1.551   5.831
 7684SOL    HW223952   4.120   1.437   5.920
 7685SOL     OW23953   4.401   4.505   1.467
 7685SOL    HW123954   4.386   4.428   1.406
 7685SOL    HW223955   4.379   4.478   1.561
 7686SOL     OW23956   2.141   0.712   2.579
 7686SOL    HW123957   2.064   0.658   2.613
 7686SOL    HW223958   2.115   0.755   2.492
 7687SOL     OW23959   4.750   4.124   5.567
 7687SOL    HW123960   4.737   4.183   5.647
 7687SOL    HW223961   4.726   4.030   5.590
 7688SOL     OW23962   6.863   0.951   3.542
 7688SOL    HW123963   6.913   0.890   3.480
 7688SOL    HW223964   6.768   0.956   3.513
 7689SOL     OW23965   3.462   0.026   5.294
 7689SOL    HW123966   3.410   7.001   5.367
 7689SOL    HW223967   3.426   0.118   5.280
 7690SOL     OW23968   0.975   5.334   3.117
 7690SOL    HW123969   0.983   5.408   3.049
 7690SOL    HW223970   0.886   5.341   3.163
 7691SOL     OW23971   6.811   3.904   5.405
 7691SOL    HW123972   6.834   3.863   5.316
 7691SOL    HW223973   6.794   4.002   5.393
 7692SOL     OW23974   1.673   6.161   1.145
 7692SOL    HW123975   1.647   6.126   1.235
 7692SOL    HW223976   1.687   6.085   1.082
 7693SOL     OW23977   4.647   0.752   0.681
 7693SOL    HW123978   4.585   0.823   0.714
 7693SOL    HW223979   4.615   0.720   0.592
 7694SOL     OW23980   5.959   4.778   3.108
 7694SOL    HW123981   5.989   4.697   3.158
 7694SOL    HW223982   5.860   4.776   3.096
 7695SOL     OW23983   4.821   0.382   6.605
 7695SOL    HW123984   4.917   0.396   6.581
 7695SOL    HW223985   4.796   0.286   6.593
 7696SOL     OW23986   1.187   3.991   5.499
 7696SOL    HW123987   1.216   3.995   5.595
 7696SOL    HW223988   1.111   4.054   5.485
 7697SOL     OW23989   4.582   0.892   2.218
 7697SOL    HW123990   4.518   0.816   2.233
 7697SOL    HW223991   4.559   0.939   2.133
 7698SOL     OW23992   0.011   1.599   6.019
 7698SOL    HW123993   0.098   1.579   5.972
 7698SOL    HW223994   6.975   1.657   5.961
 7699SOL     OW23995   3.392   3.347   1.434
 7699SOL    HW123996   3.473   3.365   1.377
 7699SOL    HW223997   3.309   3.359   1.379
 7700SOL     OW23998   5.181   0.291   4.904
 7700SOL    HW123999   5.191   0.191   4.901
 7700SOL    HW224000   5.271   0.333   4.914
 7701SOL     OW24001   6.235   1.964   5.146
 7701SOL    HW124002   6.233   1.973   5.047
 7701SOL    HW224003   6.198   1.875   5.173
 7702SOL     OW24004   1.329   6.384   6.781
 7702SOL    HW124005   1.248   6.441   6.788
 7702SOL    HW224006   1.361   6.381   6.687
 7703SOL     OW24007   0.659   2.353   6.791
 7703SOL    HW124008   0.719   2.279   6.760
 7703SOL    HW224009   0.621   2.329   6.880
 7704SOL     OW24010   3.434   4.090   1.265
 7704SOL    HW124011   3.456   4.187   1.278
 7704SOL    HW224012   3.464   4.038   1.345
 7705SOL     OW24013   4.063   3.775   4.268
 7705SOL    HW124014   4.022   3.864   4.247
 7705SOL    HW224015   4.086   3.729   4.183
 7706SOL     OW24016   6.024   1.181   5.627
 7706SOL    HW124017   5.924   1.194   5.623
 7706SOL    HW224018   6.045   1.085   5.608
 7707SOL     OW24019   0.050   5.015   6.553
 7707SOL    HW124020   0.019   4.924   6.581
 7707SOL    HW224021   0.144   5.009   6.518
 7708SOL     OW24022   4.909   1.160   5.004
 7708SOL    HW124023   4.829   1.220   5.001
 7708SOL    HW224024   4.934   1.142   5.099
 7709SOL     OW24025   3.596   2.543   1.116
 7709SOL    HW124026   3.664   2.577   1.181
 7709SOL    HW224027   3.639   2.532   1.026
 7710SOL     OW24028   3.629   2.239   6.714
 7710SOL    HW124029   3.725   2.218   6.732
 7710SOL    HW224030   3.571   2.180   6.771
 7711SOL     OW24031   4.240   6.088   4.890
 7711SOL    HW124032   4.203   6.162   4.833
 7711SOL    HW224033   4.240   6.116   4.986
 7712SOL     OW24034   6.019   4.070   6.079
 7712SOL    HW124035   6.104   4.034   6.040
 7712SOL    HW224036   6.042   4.134   6.153
 7713SOL     OW24037   0.527   5.399   6.390
 7713SOL    HW124038   0.549   5.319   6.335
 7713SOL    HW224039   0.458   5.374   6.459
 7714SOL     OW24040   5.304   4.611   4.845
 7714SOL    HW124041   5.358   4.570   4.772
 7714SOL    HW224042   5.352   4.600   4.933
 7715SOL     OW24043   3.755   1.967   1.632
 7715SOL    HW124044   3.728   1.987   1.726
 7715SOL    HW224045   3.725   2.041   1.572
 7716SOL     OW24046   4.126   2.235   4.461
 7716SOL    HW124047   4.063   2.182   4.517
 7716SOL    HW224048   4.128   2.198   4.368
 7717SOL     OW24049   2.963   6.967   6.744
 7717SOL    HW124050   3.055   6.992   6.711
 7717SOL    HW224051   2.920   6.907   6.676
 7718SOL     OW24052   1.989   6.467   3.645
 7718SOL    HW124053   2.071   6.490   3.696
 7718SOL    HW224054   1.969   6.370   3.655
 7719SOL     OW24055   5.640   2.337   5.317
 7719SOL    HW124056   5.556   2.315   5.367
 7719SOL    HW224057   5.718   2.336   5.380
 7720SOL     OW24058   4.836   6.454   1.318
 7720SOL    HW124059   4.780   6.381   1.357
 7720SOL    HW224060   4.886   6.419   1.239
 7721SOL     OW24061   0.562   5.269   2.927
 7721SOL    HW124062   0.653   5.305   2.908
 7721SOL    HW224063   0.524   5.314   3.008
 7722SOL     OW24064   0.814   5.897   3.744
 7722SOL    HW124065   0.834   5.975   3.684
 7722SOL    HW224066   0.736   5.919   3.802
 7723SOL     OW24067   6.591   1.995   6.761
 7723SOL    HW124068   6.616   1.903   6.729
 7723SOL    HW224069   6.673   2.050   6.772
 7724SOL     OW24070   2.393   6.254   6.403
 7724SOL    HW124071   2.473   6.195   6.414
 7724SOL    HW224072   2.370   6.296   6.491
 7725SOL     OW24073   5.146   4.088   3.908
 7725SOL    HW124074   5.220   4.081   3.841
 7725SOL    HW224075   5.127   4.184   3.929
 7726SOL     OW24076   5.186   5.472   3.491
 7726SOL    HW124077   5.224   5.434   3.407
 7726SOL    HW224078   5.086   5.476   3.483
 7727SOL     OW24079   5.953   3.916   1.792
 7727SOL    HW124080   6.019   3.921   1.717
 7727SOL    HW224081   5.992   3.861   1.866
 7728SOL     OW24082   1.923   2.891   2.921
 7728SOL    HW124083   1.902   2.824   2.850
 7728SOL    HW224084   1.962   2.844   3.001
 7729SOL     OW24085   5.273   1.772   6.193
 7729SOL    HW124086   5.232   1.739   6.108
 7729SOL    HW224087   5.318   1.860   6.177
 7730SOL     OW24088   4.719   6.664   2.555
 7730SOL    HW124089   4.795   6.724   2.532
 7730SOL    HW224090   4.646   6.717   2.598
 7731SOL     OW24091   6.177   1.391   3.703
 7731SOL    HW124092   6.151   1.419   3.611
 7731SOL    HW224093   6.096   1.390   3.762
 7732SOL     OW24094   4.641   4.836   0.872
 7732SOL    HW124095   4.549   4.867   0.894
 7732SOL    HW224096   4.638   4.770   0.797
 7733SOL     OW24097   3.542   5.462   0.727
 7733SOL    HW124098   3.545   5.411   0.812
 7733SOL    HW224099   3.477   5.537   0.735
 7734SOL     OW24100   1.428   2.694   2.003
 7734SOL    HW124101   1.331   2.677   2.016
 7734SOL    HW224102   1.481   2.634   2.064
 7735SOL     OW24103   5.941   4.345   0.616
 7735SOL    HW124104   5.917   4.441   0.627
 7735SOL    HW224105   5.957   4.304   0.706
 7736SOL     OW24106   5.929   4.569   6.497
 7736SOL    HW124107   5.845   4.531   6.535
 7736SOL    HW224108   5.919   4.580   6.398
 7737SOL     OW24109   4.829   2.722   0.164
 7737SOL    HW124110   4.823   2.697   0.068
 7737SOL    HW224111   4.807   2.819   0.174
 7738SOL     OW24112   1.946   4.999   6.739
 7738SOL    HW124113   1.925   5.034   6.648
 7738SOL    HW224114   1.861   4.991   6.792
 7739SOL     OW24115   5.413   4.557   2.411
 7739SOL    HW124116   5.512   4.543   2.416
 7739SOL    HW224117   5.386   4.630   2.474
 7740SOL     OW24118   6.801   5.983   3.718
 7740SOL    HW124119   6.787   5.935   3.631
 7740SOL    HW224120   6.834   5.918   3.786
 7741SOL     OW24121   3.178   5.442   3.583
 7741SOL    HW124122   3.093   5.489   3.605
 7741SOL    HW224123   3.208   5.389   3.662
 7742SOL     OW24124   6.643   0.768   4.660
 7742SOL    HW124125   6.641   0.717   4.574
 7742SOL    HW224126   6.682   0.859   4.644
 7743SOL     OW24127   4.921   3.360   2.407
 7743SOL    HW124128   4.859   3.289   2.373
 7743SOL    HW224129   4.991   3.318   2.464
 7744SOL     OW24130   0.309   6.617   4.708
 7744SOL    HW124131   0.255   6.655   4.783
 7744SOL    HW224132   0.399   6.590   4.743
 7745SOL     OW24133   5.667   3.028   5.422
 7745SOL    HW124134   5.734   2.987   5.361
 7745SOL    HW224135   5.579   3.037   5.374
 7746SOL     OW24136   1.908   0.955   6.241
 7746SOL    HW124137   1.866   1.005   6.317
 7746SOL    HW224138   1.940   0.866   6.273
 7747SOL     OW24139   4.789   5.519   0.258
 7747SOL    HW124140   4.778   5.422   0.282
 7747SOL    HW224141   4.886   5.544   0.263
 7748SOL     OW24142   1.938   3.934   6.753
 7748SOL    HW124143   1.899   3.857   6.702
 7748SOL    HW224144   1.894   3.941   6.842
 7749SOL     OW24145   5.900   3.144   6.195
 7749SOL    HW124146   5.934   3.055   6.227
 7749SOL    HW224147   5.977   3.198   6.161
 7750SOL     OW24148   4.198   5.431   3.081
 7750SOL    HW124149   4.248   5.372   3.018
 7750SOL    HW224150   4.262   5.476   3.143
 7751SOL     OW24151   0.703   2.479   1.191
 7751SOL    HW124152   0.798   2.456   1.171
 7751SOL    HW224153   0.643   2.429   1.129
 7752SOL     OW24154   3.378   0.793   2.624
 7752SOL    HW124155   3.460   0.804   2.681
 7752SOL    HW224156   3.332   0.707   2.648
 7753SOL     OW24157   4.162   0.552   5.656
 7753SOL    HW124158   4.166   0.531   5.558
 7753SOL    HW224159   4.157   0.651   5.670
 7754SOL     OW24160   4.615   6.016   1.469
 7754SOL    HW124161   4.604   5.917   1.480
 7754SOL    HW224162   4.625   6.058   1.559
 7755SOL     OW24163   0.820   3.936   6.322
 7755SOL    HW124164   0.768   3.881   6.388
 7755SOL    HW224165   0.761   3.957   6.243
 7756SOL     OW24166   2.062   3.926   2.407
 7756SOL    HW124167   2.030   4.005   2.461
 7756SOL    HW224168   2.110   3.863   2.467
 7757SOL     OW24169   0.825   4.543   0.357
 7757SOL    HW124170   0.904   4.567   0.414
 7757SOL    HW224171   0.856   4.509   0.269
 7758SOL     OW24172   0.706   1.145   5.513
 7758SOL    HW124173   0.647   1.223   5.537
 7758SOL    HW224174   0.705   1.078   5.588
 7759SOL     OW24175   3.793   0.968   2.547
 7759SOL    HW124176   3.877   1.017   2.571
 7759SOL    HW224177   3.714   1.025   2.570
 7760SOL     OW24178   4.643   2.960   0.078
 7760SOL    HW124179   4.556   2.985   0.122
 7760SOL    HW224180   4.719   2.979   0.140
 7761SOL     OW24181   5.363   5.438   2.851
 7761SOL    HW124182   5.363   5.507   2.924
 7761SOL    HW224183   5.291   5.371   2.867
 7762SOL     OW24184   4.671   1.617   0.763
 7762SOL    HW124185   4.609   1.545   0.732
 7762SOL    HW224186   4.757   1.611   0.714
 7763SOL     OW24187   1.714   0.668   3.347
 7763SOL    HW124188   1.710   0.768   3.343
 7763SOL    HW224189   1.622   0.631   3.359
 7764SOL     OW24190   3.905   4.589   5.285
 7764SOL    HW124191   3.807   4.594   5.302
 7764SOL    HW224192   3.942   4.506   5.325
 7765SOL     OW24193   6.511   4.241   4.467
 7765SOL    HW124194   6.478   4.148   4.449
 7765SOL    HW224195   6.495   4.298   4.386
 7766SOL     OW24196   6.719   1.931   5.764
 7766SOL    HW124197   6.736   1.834   5.745
 7766SOL    HW224198   6.747   1.985   5.684
 7767SOL     OW24199   4.336   0.319   3.570
 7767SOL    HW124200   4.290   0.377   3.503
 7767SOL    HW224201   4.337   0.364   3.659
 7768SOL     OW24202   3.507   5.805   3.367
 7768SOL    HW124203   3.453   5.782   3.286
 7768SOL    HW224204   3.445   5.823   3.444
 7769SOL     OW24205   3.993   2.143   6.600
 7769SOL    HW124206   4.043   2.220   6.640
 7769SOL    HW224207   3.944   2.174   6.519
 7770SOL     OW24208   1.250   2.892   3.869
 7770SOL    HW124209   1.235   2.984   3.833
 7770SOL    HW224210   1.323   2.895   3.937
 7771SOL     OW24211   1.123   4.010   4.943
 7771SOL    HW124212   1.214   4.039   4.971
 7771SOL    HW224213   1.123   3.912   4.923
 7772SOL     OW24214   5.048   5.719   1.825
 7772SOL    HW124215   4.953   5.731   1.852
 7772SOL    HW224216   5.065   5.623   1.803
 7773SOL     OW24217   2.609   6.397   6.619
 7773SOL    HW124218   2.672   6.474   6.635
 7773SOL    HW224219   2.657   6.326   6.568
 7774SOL     OW24220   5.001   1.347   2.704
 7774SOL    HW124221   4.918   1.295   2.725
 7774SOL    HW224222   5.058   1.353   2.786
 7775SOL     OW24223   3.773   1.704   1.119
 7775SOL    HW124224   3.745   1.799   1.127
 7775SOL    HW224225   3.694   1.644   1.132
 7776SOL     OW24226   2.809   1.341   3.804
 7776SOL    HW124227   2.836   1.249   3.831
 7776SOL    HW224228   2.877   1.406   3.837
 7777SOL     OW24229   5.054   5.044   3.343
 7777SOL    HW124230   5.008   5.066   3.429
 7777SOL    HW224231   5.153   5.044   3.357
 7778SOL     OW24232   1.053   3.258   1.704
 7778SOL    HW124233   0.970   3.207   1.681
 7778SOL    HW224234   1.056   3.343   1.651
 7779SOL     OW24235   2.894   0.659   3.150
 7779SOL    HW124236   2.919   0.711   3.231
 7779SOL    HW224237   2.876   0.722   3.074
 7780SOL     OW24238   6.489   5.611   4.067
 7780SOL    HW124239   6.462   5.675   3.995
 7780SOL    HW224240   6.481   5.655   4.156
 7781SOL     OW24241   3.135   3.135   1.061
 7781SOL    HW124242   3.042   3.113   1.033
 7781SOL    HW224243   3.182   3.051   1.088
 7782SOL     OW24244   5.352   5.054   3.690
 7782SOL    HW124245   5.276   5.002   3.729
 7782SOL    HW224246   5.334   5.152   3.700
 7783SOL     OW24247   0.560   6.274   3.899
 7783SOL    HW124248   0.495   6.338   3.940
 7783SOL    HW224249   0.542   6.265   3.801
 7784SOL     OW24250   1.327   2.834   2.370
 7784SOL    HW124251   1.350   2.925   2.336
 7784SOL    HW224252   1.346   2.828   2.468
 7785SOL     OW24253   5.957   6.605   2.576
 7785SOL    HW124254   5.883   6.551   2.536
 7785SOL    HW224255   5.999   6.662   2.505
 7786SOL     OW24256   5.483   0.912   6.961
 7786SOL    HW124257   5.453   0.879   6.872
 7786SOL    HW224258   5.417   0.978   6.996
 7787SOL     OW24259   0.914   2.339   1.074
 7787SOL    HW124260   0.970   2.419   1.093
 7787SOL    HW224261   0.927   2.312   0.978
 7788SOL     OW24262   1.136   4.146   2.187
 7788SOL    HW124263   1.135   4.212   2.111
 7788SOL    HW224264   1.107   4.056   2.153
 7789SOL     OW24265   3.529   0.311   6.165
 7789SOL    HW124266   3.491   0.376   6.230
 7789SOL    HW224267   3.568   0.233   6.214
 7790SOL     OW24268   4.047   5.250   4.347
 7790SOL    HW124269   4.058   5.230   4.444
 7790SOL    HW224270   4.137   5.267   4.306
 7791SOL     OW24271   2.358   6.590   1.381
 7791SOL    HW124272   2.424   6.656   1.344
 7791SOL    HW224273   2.316   6.539   1.305
 7792SOL     OW24274   1.416   1.168   2.214
 7792SOL    HW124275   1.376   1.078   2.202
 7792SOL    HW224276   1.345   1.232   2.246
 7793SOL     OW24277   5.475   1.605   0.667
 7793SOL    HW124278   5.376   1.594   0.652
 7793SOL    HW224279   5.511   1.523   0.712
 7794SOL     OW24280   1.368   1.245   2.812
 7794SOL    HW124281   1.369   1.345   2.811
 7794SOL    HW224282   1.294   1.212   2.754
 7795SOL     OW24283   4.435   3.710   1.207
 7795SOL    HW124284   4.449   3.630   1.266
 7795SOL    HW224285   4.371   3.686   1.134
 7796SOL     OW24286   4.419   1.437   0.931
 7796SOL    HW124287   4.333   1.408   0.973
 7796SOL    HW224288   4.415   1.535   0.910
 7797SOL     OW24289   1.378   6.037   3.257
 7797SOL    HW124290   1.447   6.007   3.323
 7797SOL    HW224291   1.392   6.135   3.239
 7798SOL     OW24292   1.725   3.174   1.031
 7798SOL    HW124293   1.665   3.153   0.953
 7798SOL    HW224294   1.799   3.234   1.001
 7799SOL     OW24295   2.109   5.963   4.164
 7799SOL    HW124296   2.120   5.864   4.176
 7799SOL    HW224297   2.012   5.986   4.163
 7800SOL     OW24298   0.601   0.489   2.461
 7800SOL    HW124299   0.690   0.516   2.496
 7800SOL    HW224300   0.534   0.491   2.536
 7801SOL     OW24301   2.611   2.204   0.760
 7801SOL    HW124302   2.518   2.188   0.727
 7801SOL    HW224303   2.610   2.213   0.860
 7802SOL     OW24304   6.728   5.044   3.616
 7802SOL    HW124305   6.775   4.956   3.619
 7802SOL    HW224306   6.769   5.101   3.544
 7803SOL     OW24307   3.557   2.524   6.332
 7803SOL    HW124308   3.607   2.535   6.246
 7803SOL    HW224309   3.566   2.430   6.364
 7804SOL     OW24310   3.132   1.234   5.801
 7804SOL    HW124311   3.081   1.287   5.869
 7804SOL    HW224312   3.088   1.243   5.712
 7805SOL     OW24313   6.346   1.696   6.586
 7805SOL    HW124314   6.295   1.649   6.658
 7805SOL    HW224315   6.312   1.667   6.496
 7806SOL     OW24316   6.234   2.315   4.913
 7806SOL    HW124317   6.135   2.315   4.900
 7806SOL    HW224318   6.260   2.392   4.971
 7807SOL     OW24319   1.829   5.691   5.259
 7807SOL    HW124320   1.835   5.786   5.289
 7807SOL    HW224321   1.883   5.679   5.175
 7808SOL     OW24322   0.132   2.815   4.215
 7808SOL    HW124323   0.032   2.817   4.203
 7808SOL    HW224324   0.170   2.738   4.165
 7809SOL     OW24325   3.264   0.535   3.301
 7809SOL    HW124326   3.236   0.522   3.206
 7809SOL    HW224327   3.291   0.448   3.341
 7810SOL     OW24328   2.559   6.758   6.059
 7810SOL    HW124329   2.602   6.674   6.091
 7810SOL    HW224330   2.558   6.759   5.959
 7811SOL     OW24331   1.495   5.162   2.959
 7811SOL    HW124332   1.464   5.103   3.034
 7811SOL    HW224333   1.422   5.227   2.936
 7812SOL     OW24334   3.092   0.759   5.868
 7812SOL    HW124335   3.029   0.698   5.916
 7812SOL    HW224336   3.181   0.714   5.858
 7813SOL     OW24337   5.845   1.199   0.407
 7813SOL    HW124338   5.760   1.216   0.458
 7813SOL    HW224339   5.832   1.222   0.311
 7814SOL     OW24340   0.262   2.548   1.424
 7814SOL    HW124341   0.181   2.530   1.367
 7814SOL    HW224342   0.306   2.461   1.446
 7815SOL     OW24343   4.792   6.121   3.122
 7815SOL    HW124344   4.768   6.078   3.035
 7815SOL    HW224345   4.816   6.217   3.106
 7816SOL     OW24346   1.492   1.715   5.555
 7816SOL    HW124347   1.400   1.692   5.585
 7816SOL    HW224348   1.516   1.807   5.586
 7817SOL     OW24349   4.641   0.884   5.655
 7817SOL    HW124350   4.649   0.964   5.714
 7817SOL    HW224351   4.699   0.896   5.574
 7818SOL     OW24352   4.814   0.674   2.766
 7818SOL    HW124353   4.835   0.729   2.846
 7818SOL    HW224354   4.820   0.731   2.684
 7819SOL     OW24355   2.513   2.438   4.421
 7819SOL    HW124356   2.559   2.442   4.509
 7819SOL    HW224357   2.416   2.416   4.435
 7820SOL     OW24358   1.828   0.566   6.187
 7820SOL    HW124359   1.757   0.556   6.257
 7820SOL    HW224360   1.904   0.620   6.223
 7821SOL     OW24361   3.721   5.767   6.499
 7821SOL    HW124362   3.639   5.710   6.499
 7821SOL    HW224363   3.800   5.712   6.474
 7822SOL     OW24364   0.522   1.165   4.519
 7822SOL    HW124365   0.619   1.182   4.535
 7822SOL    HW224366   0.471   1.183   4.603
 7823SOL     OW24367   2.511   2.604   5.980
 7823SOL    HW124368   2.470   2.595   5.890
 7823SOL    HW224369   2.607   2.576   5.978
 7824SOL     OW24370   6.225   3.869   2.474
 7824SOL    HW124371   6.169   3.892   2.395
 7824SOL    HW224372   6.282   3.789   2.453
 7825SOL     OW24373   3.542   2.919   3.955
 7825SOL    HW124374   3.534   2.888   4.050
 7825SOL    HW224375   3.536   3.019   3.953
 7826SOL     OW24376   6.244   6.390   0.967
 7826SOL    HW124377   6.165   6.424   0.916
 7826SOL    HW224378   6.215   6.314   1.026
 7827SOL     OW24379   5.062   3.692   0.724
 7827SOL    HW124380   5.126   3.761   0.759
 7827SOL    HW224381   4.973   3.704   0.768
 7828SOL     OW24382   0.705   5.951   0.233
 7828SOL    HW124383   0.770   5.910   0.297
 7828SOL    HW224384   0.744   6.034   0.194
 7829SOL     OW24385   3.319   4.059   3.146
 7829SOL    HW124386   3.300   4.035   3.051
 7829SOL    HW224387   3.405   4.110   3.151
 7830SOL     OW24388   0.033   4.558   6.940
 7830SOL    HW124389   0.038   4.656   6.921
 7830SOL    HW224390   0.048   4.507   6.855
 7831SOL     OW24391   2.889   2.850   6.884
 7831SOL    HW124392   2.922   2.798   6.805
 7831SOL    HW224393   2.965   2.899   6.925
 7832SOL     OW24394   3.519   2.736   5.549
 7832SOL    HW124395   3.556   2.762   5.639
 7832SOL    HW224396   3.478   2.645   5.554
 7833SOL     OW24397   6.570   0.130   1.364
 7833SOL    HW124398   6.537   0.042   1.398
 7833SOL    HW224399   6.514   0.204   1.401
 7834SOL     OW24400   5.232   1.084   1.292
 7834SOL    HW124401   5.137   1.095   1.262
 7834SOL    HW224402   5.248   0.988   1.316
 7835SOL     OW24403   2.500   2.607   4.192
 7835SOL    HW124404   2.515   2.552   4.274
 7835SOL    HW224405   2.537   2.560   4.112
 7836SOL     OW24406   2.509   0.719   6.740
 7836SOL    HW124407   2.542   0.625   6.746
 7836SOL    HW224408   2.489   0.742   6.645
 7837SOL     OW24409   5.682   6.403   2.188
 7837SOL    HW124410   5.607   6.461   2.221
 7837SOL    HW224411   5.645   6.315   2.158
 7838SOL     OW24412   3.567   5.600   4.103
 7838SOL    HW124413   3.580   5.553   4.191
 7838SOL    HW224414   3.480   5.650   4.105
 7839SOL     OW24415   6.838   5.713   2.976
 7839SOL    HW124416   6.891   5.776   2.920
 7839SOL    HW224417   6.751   5.754   3.001
 7840SOL     OW24418   4.381   2.619   6.176
 7840SOL    HW124419   4.359   2.530   6.137
 7840SOL    HW224420   4.340   2.691   6.120
 7841SOL     OW24421   1.183   2.159   6.002
 7841SOL    HW124422   1.147   2.068   6.023
 7841SOL    HW224423   1.125   2.204   5.934
 7842SOL     OW24424   1.969   1.134   2.395
 7842SOL    HW124425   1.945   1.066   2.465
 7842SOL    HW224426   1.932   1.223   2.423
 7843SOL     OW24427   0.249   2.252   1.686
 7843SOL    HW124428   0.313   2.235   1.610
 7843SOL    HW224429   0.266   2.342   1.725
 7844SOL     OW24430   3.107   1.871   3.259
 7844SOL    HW124431   3.157   1.844   3.177
 7844SOL    HW224432   3.164   1.930   3.315
 7845SOL     OW24433   1.201   0.847   4.314
 7845SOL    HW124434   1.230   0.803   4.399
 7845SOL    HW224435   1.277   0.847   4.249
 7846SOL     OW24436   4.929   6.826   2.436
 7846SOL    HW124437   5.008   6.786   2.482
 7846SOL    HW224438   4.953   6.917   2.401
 7847SOL     OW24439   0.489   6.623   6.409
 7847SOL    HW124440   0.415   6.682   6.440
 7847SOL    HW224441   0.453   6.533   6.385
 7848SOL     OW24442   4.421   3.922   1.470
 7848SOL    HW124443   4.404   3.950   1.375
 7848SOL    HW224444   4.501   3.970   1.506
 7849SOL     OW24445   5.658   4.076   5.143
 7849SOL    HW124446   5.633   4.012   5.217
 7849SOL    HW224447   5.701   4.025   5.068
 7850SOL     OW24448   1.308   2.807   5.037
 7850SOL    HW124449   1.356   2.723   5.014
 7850SOL    HW224450   1.210   2.795   5.018
 7851SOL     OW24451   2.960   6.677   0.731
 7851SOL    HW124452   3.056   6.705   0.739
 7851SOL    HW224453   2.907   6.751   0.690
 7852SOL     OW24454   2.508   6.655   0.678
 7852SOL    HW124455   2.443   6.605   0.734
 7852SOL    HW224456   2.572   6.590   0.636
 7853SOL     OW24457   1.927   1.315   0.192
 7853SOL    HW124458   1.894   1.402   0.229
 7853SOL    HW224459   1.925   1.317   0.092
 7854SOL     OW24460   3.890   3.984   4.170
 7854SOL    HW124461   3.843   4.027   4.247
 7854SOL    HW224462   3.825   3.968   4.096
 7855SOL     OW24463   3.027   6.935   4.772
 7855SOL    HW124464   2.976   6.974   4.695
 7855SOL    HW224465   3.045   7.007   4.840
 7856SOL     OW24466   3.002   3.199   6.412
 7856SOL    HW124467   2.927   3.139   6.386
 7856SOL    HW224468   2.966   3.282   6.454
 7857SOL     OW24469   0.080   2.679   4.814
 7857SOL    HW124470   0.174   2.706   4.834
 7857SOL    HW224471   0.068   2.582   4.834
 7858SOL     OW24472   5.100   2.857   3.383
 7858SOL    HW124473   5.050   2.848   3.297
 7858SOL    HW224474   5.164   2.781   3.393
 7859SOL     OW24475   6.812   0.071   0.428
 7859SOL    HW124476   6.892   0.012   0.422
 7859SOL    HW224477   6.774   0.068   0.521
 7860SOL     OW24478   4.602   6.257   1.344
 7860SOL    HW124479   4.620   6.261   1.246
 7860SOL    HW224480   4.605   6.161   1.374
 7861SOL     OW24481   6.374   3.385   0.793
 7861SOL    HW124482   6.284   3.412   0.759
 7861SOL    HW224483   6.426   3.344   0.718
 7862SOL     OW24484   2.680   4.359   1.624
 7862SOL    HW124485   2.738   4.401   1.694
 7862SOL    HW224486   2.675   4.261   1.640
 7863SOL     OW24487   4.399   5.902   2.642
 7863SOL    HW124488   4.493   5.935   2.644
 7863SOL    HW224489   4.367   5.889   2.736
 7864SOL     OW24490   1.538   5.617   5.218
 7864SOL    HW124491   1.503   5.532   5.259
 7864SOL    HW224492   1.638   5.612   5.213
 7865SOL     OW24493   4.545   0.849   3.267
 7865SOL    HW124494   4.595   0.796   3.336
 7865SOL    HW224495   4.448   0.853   3.291
 7866SOL     OW24496   3.123   0.507   5.619
 7866SOL    HW124497   3.158   0.413   5.611
 7866SOL    HW224498   3.024   0.505   5.633
 7867SOL     OW24499   6.664   3.021   0.888
 7867SOL    HW124500   6.619   2.972   0.963
 7867SOL    HW224501   6.696   3.110   0.921
 7868SOL     OW24502   4.927   6.430   1.040
 7868SOL    HW124503   4.945   6.496   0.967
 7868SOL    HW224504   4.988   6.352   1.030
 7869SOL     OW24505   5.929   1.582   4.038
 7869SOL    HW124506   5.998   1.543   4.099
 7869SOL    HW224507   5.931   1.682   4.044
 7870SOL     OW24508   6.714   0.091   3.429
 7870SOL    HW124509   6.764   0.155   3.487
 7870SOL    HW224510   6.778   0.032   3.381
 7871SOL     OW24511   5.538   3.036   3.282
 7871SOL    HW124512   5.508   2.941   3.281
 7871SOL    HW224513   5.638   3.040   3.272
 7872SOL     OW24514   6.183   3.837   3.892
 7872SOL    HW124515   6.197   3.796   3.982
 7872SOL    HW224516   6.116   3.910   3.898
 7873SOL     OW24517   6.729   5.907   4.872
 7873SOL    HW124518   6.708   5.812   4.893
 7873SOL    HW224519   6.826   5.925   4.889
 7874SOL     OW24520   5.939   6.745   6.973
 7874SOL    HW124521   5.943   6.782   0.046
 7874SOL    HW224522   6.012   6.679   6.960
 7875SOL     OW24523   5.736   2.742   0.299
 7875SOL    HW124524   5.661   2.699   0.350
 7875SOL    HW224525   5.726   2.841   0.304
 7876SOL     OW24526   6.857   1.773   4.799
 7876SOL    HW124527   6.809   1.821   4.726
 7876SOL    HW224528   6.800   1.771   4.881
 7877SOL     OW24529   5.674   4.016   1.721
 7877SOL    HW124530   5.756   3.984   1.769
 7877SOL    HW224531   5.595   4.007   1.781
 7878SOL     OW24532   3.628   4.093   2.285
 7878SOL    HW124533   3.651   4.116   2.379
 7878SOL    HW224534   3.573   4.166   2.245
 7879SOL     OW24535   6.698   1.066   4.988
 7879SOL    HW124536   6.679   0.978   5.033
 7879SOL    HW224537   6.759   1.120   5.046
 7880SOL     OW24538   2.093   6.008   6.651
 7880SOL    HW124539   2.107   5.968   6.742
 7880SOL    HW224540   2.004   6.055   6.649
 7881SOL     OW24541   0.396   5.136   4.940
 7881SOL    HW124542   0.384   5.148   5.039
 7881SOL    HW224543   0.448   5.212   4.903
 7882SOL     OW24544   1.293   4.957   1.120
 7882SOL    HW124545   1.336   5.015   1.050
 7882SOL    HW224546   1.290   5.006   1.207
 7883SOL     OW24547   2.804   2.244   2.689
 7883SOL    HW124548   2.758   2.158   2.668
 7883SOL    HW224549   2.865   2.269   2.613
 7884SOL     OW24550   0.212   1.889   5.695
 7884SOL    HW124551   0.265   1.966   5.661
 7884SOL    HW224552   0.274   1.818   5.728
 7885SOL     OW24553   6.023   5.251   2.664
 7885SOL    HW124554   5.953   5.260   2.594
 7885SOL    HW224555   6.096   5.191   2.632
 7886SOL     OW24556   3.855   4.894   2.918
 7886SOL    HW124557   3.912   4.960   2.868
 7886SOL    HW224558   3.759   4.908   2.895
 7887SOL     OW24559   0.157   3.254   0.563
 7887SOL    HW124560   0.113   3.195   0.496
 7887SOL    HW224561   0.102   3.257   0.647
 7888SOL     OW24562   0.555   1.709   5.230
 7888SOL    HW124563   0.522   1.650   5.156
 7888SOL    HW224564   0.640   1.753   5.202
 7889SOL     OW24565   5.250   4.993   6.963
 7889SOL    HW124566   5.157   5.023   6.944
 7889SOL    HW224567   5.309   5.073   6.977
 7890SOL     OW24568   1.658   2.746   1.826
 7890SOL    HW124569   1.653   2.801   1.910
 7890SOL    HW224570   1.584   2.678   1.826
 7891SOL     OW24571   5.683   1.047   4.226
 7891SOL    HW124572   5.625   1.024   4.304
 7891SOL    HW224573   5.638   1.019   4.141
 7892SOL     OW24574   1.101   2.072   4.413
 7892SOL    HW124575   1.048   2.154   4.392
 7892SOL    HW224576   1.081   2.001   4.346
 7893SOL     OW24577   5.222   6.061   0.489
 7893SOL    HW124578   5.292   6.114   0.442
 7893SOL    HW224579   5.228   6.077   0.588
 7894SOL     OW24580   3.086   0.083   6.546
 7894SOL    HW124581   3.117   0.107   6.454
 7894SOL    HW224582   2.987   0.065   6.543
 7895SOL     OW24583   5.180   6.699   2.875
 7895SOL    HW124584   5.164   6.716   2.778
 7895SOL    HW224585   5.276   6.717   2.896
 7896SOL     OW24586   2.957   2.364   1.090
 7896SOL    HW124587   2.947   2.392   1.185
 7896SOL    HW224588   2.880   2.401   1.037
 7897SOL     OW24589   5.330   1.033   1.641
 7897SOL    HW124590   5.342   0.970   1.565
 7897SOL    HW224591   5.236   1.067   1.642
 7898SOL     OW24592   4.376   6.702   2.866
 7898SOL    HW124593   4.388   6.634   2.938
 7898SOL    HW224594   4.335   6.785   2.904
 7899SOL     OW24595   6.317   4.967   3.094
 7899SOL    HW124596   6.362   4.878   3.097
 7899SOL    HW224597   6.334   5.010   3.006
 7900SOL     OW24598   0.030   3.523   0.426
 7900SOL    HW124599   6.986   3.467   0.373
 7900SOL    HW224600   0.120   3.521   0.382
 7901SOL     OW24601   0.460   2.451   6.420
 7901SOL    HW124602   0.475   2.500   6.335
 7901SOL    HW224603   0.547   2.423   6.460
 7902SOL     OW24604   1.839   0.345   1.559
 7902SOL    HW124605   1.770   0.405   1.601
 7902SOL    HW224606   1.859   0.378   1.466
 7903SOL     OW24607   3.254   2.076   5.717
 7903SOL    HW124608   3.176   2.135   5.739
 7903SOL    HW224609   3.248   2.048   5.621
 7904SOL     OW24610   5.712   3.597   2.592
 7904SOL    HW124611   5.742   3.557   2.679
 7904SOL    HW224612   5.624   3.642   2.605
 7905SOL     OW24613   6.140   2.061   1.648
 7905SOL    HW124614   6.055   2.073   1.598
 7905SOL    HW224615   6.216   2.051   1.583
 7906SOL     OW24616   6.934   6.079   5.851
 7906SOL    HW124617   0.000   6.030   5.838
 7906SOL    HW224618   6.935   6.164   5.797
 7907SOL     OW24619   5.700   5.497   3.409
 7907SOL    HW124620   5.785   5.481   3.459
 7907SOL    HW224621   5.648   5.570   3.454
 7908SOL     OW24622   1.695   6.795   6.332
 7908SOL    HW124623   1.655   6.749   6.412
 7908SOL    HW224624   1.643   6.771   6.251
 7909SOL     OW24625   6.883   4.327   2.240
 7909SOL    HW124626   6.960   4.335   2.177
 7909SOL    HW224627   6.913   4.285   2.325
 7910SOL     OW24628   1.506   4.249   4.876
 7910SOL    HW124629   1.433   4.301   4.833
 7910SOL    HW224630   1.467   4.173   4.929
 7911SOL     OW24631   6.102   3.660   5.838
 7911SOL    HW124632   6.189   3.634   5.795
 7911SOL    HW224633   6.040   3.582   5.836
 7912SOL     OW24634   5.424   5.751   1.673
 7912SOL    HW124635   5.474   5.747   1.587
 7912SOL    HW224636   5.338   5.800   1.660
 7913SOL     OW24637   1.584   4.820   6.360
 7913SOL    HW124638   1.629   4.768   6.287
 7913SOL    HW224639   1.555   4.758   6.432
 7914SOL     OW24640   0.972   0.221   4.728
 7914SOL    HW124641   1.022   0.253   4.647
 7914SOL    HW224642   0.891   0.278   4.742
 7915SOL     OW24643   3.277   6.014   2.146
 7915SOL    HW124644   3.351   6.082   2.143
 7915SOL    HW224645   3.274   5.972   2.236
 7916SOL     OW24646   1.730   0.916   4.026
 7916SOL    HW124647   1.696   1.003   3.989
 7916SOL    HW224648   1.799   0.935   4.096
 7917SOL     OW24649   5.127   2.034   2.703
 7917SOL    HW124650   5.062   2.056   2.776
 7917SOL    HW224651   5.219   2.062   2.731
 7918SOL     OW24652   1.541   2.422   2.658
 7918SOL    HW124653   1.468   2.458   2.717
 7918SOL    HW224654   1.591   2.352   2.707
 7919SOL     OW24655   0.667   6.963   4.907
 7919SOL    HW124656   0.579   6.958   4.860
 7919SOL    HW224657   0.679   0.034   4.946
 7920SOL     OW24658   5.014   6.918   0.885
 7920SOL    HW124659   5.103   6.882   0.858
 7920SOL    HW224660   4.998   6.897   0.982
 7921SOL     OW24661   5.762   3.621   1.048
 7921SOL    HW124662   5.764   3.529   1.008
 7921SOL    HW224663   5.806   3.685   0.986
 7922SOL     OW24664   2.532   6.358   3.702
 7922SOL    HW124665   2.577   6.352   3.792
 7922SOL    HW224666   2.584   6.421   3.644
 7923SOL     OW24667   4.951   0.240   0.991
 7923SOL    HW124668   4.938   0.299   0.911
 7923SOL    HW224669   5.043   0.200   0.987
 7924SOL     OW24670   5.341   6.026   6.936
 7924SOL    HW124671   5.361   6.121   6.911
 7924SOL    HW224672   5.426   5.981   6.965
 7925SOL     OW24673   2.196   5.175   6.097
 7925SOL    HW124674   2.251   5.199   6.017
 7925SOL    HW224675   2.249   5.117   6.158
 7926SOL     OW24676   4.106   6.127   6.052
 7926SOL    HW124677   4.032   6.076   6.096
 7926SOL    HW224678   4.069   6.181   5.976
 7927SOL     OW24679   5.161   0.208   3.265
 7927SOL    HW124680   5.166   0.290   3.208
 7927SOL    HW224681   5.248   0.194   3.311
 7928SOL     OW24682   5.586   1.824   3.920
 7928SOL    HW124683   5.523   1.778   3.857
 7928SOL    HW224684   5.618   1.760   3.989
 7929SOL     OW24685   4.408   3.704   5.287
 7929SOL    HW124686   4.390   3.797   5.257
 7929SOL    HW224687   4.491   3.670   5.242
 7930SOL     OW24688   4.121   5.248   1.036
 7930SOL    HW124689   4.159   5.214   1.122
 7930SOL    HW224690   4.194   5.263   0.970
 7931SOL     OW24691   4.929   0.613   0.585
 7931SOL    HW124692   4.832   0.635   0.581
 7931SOL    HW224693   4.967   0.646   0.672
 7932SOL     OW24694   0.925   3.609   0.797
 7932SOL    HW124695   0.853   3.676   0.814
 7932SOL    HW224696   1.014   3.652   0.808
 7933SOL     OW24697   1.397   1.237   0.293
 7933SOL    HW124698   1.321   1.302   0.299
 7933SOL    HW224699   1.474   1.280   0.245
 7934SOL     OW24700   6.556   5.405   0.445
 7934SOL    HW124701   6.512   5.490   0.475
 7934SOL    HW224702   6.523   5.381   0.354
 7935SOL     OW24703   6.069   3.765   3.211
 7935SOL    HW124704   5.972   3.750   3.191
 7935SOL    HW224705   6.124   3.734   3.133
 7936SOL     OW24706   2.358   5.875   3.601
 7936SOL    HW124707   2.330   5.782   3.623
 7936SOL    HW224708   2.285   5.922   3.551
 7937SOL     OW24709   3.816   1.267   1.315
 7937SOL    HW124710   3.815   1.318   1.401
 7937SOL    HW224711   3.728   1.221   1.302
 7938SOL     OW24712   2.280   6.731   3.294
 7938SOL    HW124713   2.184   6.704   3.288
 7938SOL    HW224714   2.294   6.787   3.375
 7939SOL     OW24715   1.706   6.990   3.088
 7939SOL    HW124716   1.686   0.003   3.181
 7939SOL    HW224717   1.805   6.978   3.078
 7940SOL     OW24718   6.460   1.602   4.957
 7940SOL    HW124719   6.489   1.557   4.873
 7940SOL    HW224720   6.477   1.700   4.950
 7941SOL     OW24721   3.341   0.672   0.867
 7941SOL    HW124722   3.398   0.722   0.933
 7941SOL    HW224723   3.398   0.644   0.790
 7942SOL     OW24724   1.316   4.010   1.204
 7942SOL    HW124725   1.310   4.002   1.304
 7942SOL    HW224726   1.399   3.964   1.172
 7943SOL     OW24727   1.953   5.234   0.124
 7943SOL    HW124728   1.908   5.249   0.036
 7943SOL    HW224729   2.045   5.197   0.108
 7944SOL     OW24730   0.958   1.991   0.737
 7944SOL    HW124731   0.904   2.075   0.743
 7944SOL    HW224732   1.054   2.012   0.753
 7945SOL     OW24733   6.594   4.414   3.354
 7945SOL    HW124734   6.592   4.326   3.402
 7945SOL    HW224735   6.507   4.461   3.368
 7946SOL     OW24736   4.805   1.478   5.708
 7946SOL    HW124737   4.893   1.464   5.662
 7946SOL    HW224738   4.768   1.568   5.682
 7947SOL     OW24739   0.901   3.871   6.826
 7947SOL    HW124740   0.905   3.838   6.921
 7947SOL    HW224741   0.818   3.837   6.783
 7948SOL     OW24742   1.663   5.689   1.713
 7948SOL    HW124743   1.710   5.722   1.631
 7948SOL    HW224744   1.619   5.766   1.760
 7949SOL     OW24745   3.168   5.399   5.224
 7949SOL    HW124746   3.124   5.323   5.176
 7949SOL    HW224747   3.148   5.393   5.322
 7950SOL     OW24748   6.549   2.611   5.672
 7950SOL    HW124749   6.611   2.659   5.735
 7950SOL    HW224750   6.473   2.672   5.648
 7951SOL     OW24751   3.871   0.543   2.680
 7951SOL    HW124752   3.928   0.591   2.613
 7951SOL    HW224753   3.867   0.446   2.657
 7952SOL     OW24754   0.172   3.199   5.197
 7952SOL    HW124755   0.229   3.245   5.129
 7952SOL    HW224756   0.189   3.238   5.287
 7953SOL     OW24757   1.420   0.410   0.472
 7953SOL    HW124758   1.372   0.368   0.395
 7953SOL    HW224759   1.368   0.393   0.557
 7954SOL     OW24760   3.803   2.675   0.647
 7954SOL    HW124761   3.840   2.604   0.587
 7954SOL    HW224762   3.874   2.742   0.668
 7955SOL     OW24763   6.883   0.558   6.197
 7955SOL    HW124764   6.955   0.603   6.144
 7955SOL    HW224765   6.924   0.511   6.275
 7956SOL     OW24766   0.184   0.234   0.829
 7956SOL    HW124767   0.209   0.273   0.917
 7956SOL    HW224768   0.138   0.304   0.774
 7957SOL     OW24769   5.613   1.859   5.845
 7957SOL    HW124770   5.536   1.922   5.848
 7957SOL    HW224771   5.649   1.847   5.938
 7958SOL     OW24772   4.563   2.460   6.707
 7958SOL    HW124773   4.660   2.444   6.691
 7958SOL    HW224774   4.538   2.551   6.674
 7959SOL     OW24775   5.098   2.908   6.993
 7959SOL    HW124776   5.027   2.876   6.931
 7959SOL    HW224777   5.134   2.996   6.961
 7960SOL     OW24778   0.934   2.167   5.293
 7960SOL    HW124779   0.944   2.075   5.331
 7960SOL    HW224780   0.941   2.163   5.193
 7961SOL     OW24781   6.183   6.899   6.201
 7961SOL    HW124782   6.098   6.926   6.246
 7961SOL    HW224783   6.226   6.824   6.251
 7962SOL     OW24784   5.317   0.056   4.831
 7962SOL    HW124785   5.363   0.107   4.760
 7962SOL    HW224786   5.382   0.031   4.902
 7963SOL     OW24787   5.433   5.874   2.787
 7963SOL    HW124788   5.469   5.856   2.879
 7963SOL    HW224789   5.440   5.972   2.767
 7964SOL     OW24790   0.165   3.816   1.488
 7964SOL    HW124791   0.211   3.734   1.451
 7964SOL    HW224792   0.069   3.815   1.461
 7965SOL     OW24793   4.051   1.648   6.616
 7965SOL    HW124794   4.148   1.629   6.622
 7965SOL    HW224795   4.037   1.746   6.600
 7966SOL     OW24796   5.832   3.404   5.190
 7966SOL    HW124797   5.895   3.450   5.128
 7966SOL    HW224798   5.884   3.349   5.255
 7967SOL     OW24799   1.849   3.892   1.633
 7967SOL    HW124800   1.838   3.795   1.656
 7967SOL    HW224801   1.879   3.900   1.538
 7968SOL     OW24802   2.395   2.076   3.975
 7968SOL    HW124803   2.311   2.024   3.958
 7968SOL    HW224804   2.372   2.172   3.989
 7969SOL     OW24805   2.773   3.906   6.651
 7969SOL    HW124806   2.685   3.931   6.610
 7969SOL    HW224807   2.835   3.875   6.579
 7970SOL     OW24808   6.676   3.228   2.889
 7970SOL    HW124809   6.727   3.314   2.886
 7970SOL    HW224810   6.585   3.245   2.928
 7971SOL     OW24811   2.691   0.393   6.771
 7971SOL    HW124812   2.684   0.295   6.754
 7971SOL    HW224813   2.717   0.408   6.866
 7972SOL     OW24814   4.174   3.497   4.722
 7972SOL    HW124815   4.173   3.550   4.637
 7972SOL    HW224816   4.181   3.559   4.800
 7973SOL     OW24817   0.181   5.222   2.015
 7973SOL    HW124818   0.107   5.239   1.950
 7973SOL    HW224819   0.212   5.308   2.054
 7974SOL     OW24820   6.653   2.529   4.512
 7974SOL    HW124821   6.721   2.581   4.564
 7974SOL    HW224822   6.689   2.509   4.421
 7975SOL     OW24823   3.874   7.018   6.689
 7975SOL    HW124824   3.820   6.965   6.624
 7975SOL    HW224825   3.910   0.080   6.643
 7976SOL     OW24826   0.551   0.110   0.827
 7976SOL    HW124827   0.566   0.183   0.894
 7976SOL    HW224828   0.631   0.103   0.767
 7977SOL     OW24829   4.863   4.940   2.819
 7977SOL    HW124830   4.848   4.945   2.918
 7977SOL    HW224831   4.784   4.978   2.772
 7978SOL     OW24832   0.382   4.042   0.743
 7978SOL    HW124833   0.328   4.005   0.668
 7978SOL    HW224834   0.465   4.085   0.707
 7979SOL     OW24835   3.412   2.486   5.599
 7979SOL    HW124836   3.321   2.513   5.567
 7979SOL    HW224837   3.409   2.469   5.698
 7980SOL     OW24838   4.092   6.054   2.751
 7980SOL    HW124839   4.034   6.105   2.687
 7980SOL    HW224840   4.138   6.118   2.812
 7981SOL     OW24841   0.921   2.979   4.531
 7981SOL    HW124842   0.968   2.949   4.447
 7981SOL    HW224843   0.823   2.967   4.520
 7982SOL     OW24844   6.369   6.921   0.219
 7982SOL    HW124845   6.298   6.979   0.179
 7982SOL    HW224846   6.438   6.979   0.262
 7983SOL     OW24847   3.311   1.374   1.446
 7983SOL    HW124848   3.255   1.316   1.387
 7983SOL    HW224849   3.256   1.410   1.521
 7984SOL     OW24850   6.213   2.664   2.972
 7984SOL    HW124851   6.150   2.732   2.933
 7984SOL    HW224852   6.162   2.581   2.994
 7985SOL     OW24853   3.175   3.323   5.815
 7985SOL    HW124854   3.171   3.224   5.802
 7985SOL    HW224855   3.252   3.360   5.763
 7986SOL     OW24856   2.226   1.013   3.664
 7986SOL    HW124857   2.286   1.091   3.681
 7986SOL    HW224858   2.163   1.034   3.590
 7987SOL     OW24859   1.144   3.048   5.940
 7987SOL    HW124860   1.215   3.020   5.875
 7987SOL    HW224861   1.178   3.041   6.033
 7988SOL     OW24862   6.408   0.330   1.506
 7988SOL    HW124863   6.464   0.402   1.547
 7988SOL    HW224864   6.322   0.321   1.557
 7989SOL     OW24865   0.969   4.696   1.318
 7989SOL    HW124866   0.988   4.731   1.410
 7989SOL    HW224867   0.874   4.716   1.294
 7990SOL     OW24868   4.443   5.287   5.346
 7990SOL    HW124869   4.536   5.311   5.375
 7990SOL    HW224870   4.396   5.241   5.421
 7991SOL     OW24871   5.277   0.665   4.414
 7991SOL    HW124872   5.260   0.640   4.319
 7991SOL    HW224873   5.234   0.753   4.434
 7992SOL     OW24874   2.314   0.171   6.868
 7992SOL    HW124875   2.396   0.169   6.926
 7992SOL    HW224876   2.331   0.229   6.789
 7993SOL     OW24877   6.204   5.669   0.558
 7993SOL    HW124878   6.293   5.624   0.568
 7993SOL    HW224879   6.199   5.713   0.468
 7994SOL     OW24880   0.857   1.701   4.739
 7994SOL    HW124881   0.924   1.664   4.675
 7994SOL    HW224882   0.867   1.801   4.745
 7995SOL     OW24883   0.215   6.330   0.884
 7995SOL    HW124884   0.240   6.255   0.822
 7995SOL    HW224885   0.217   6.297   0.978
 7996SOL     OW24886   1.983   6.714   3.864
 7996SOL    HW124887   1.969   6.723   3.962
 7996SOL    HW224888   2.037   6.631   3.846
 7997SOL     OW24889   3.058   0.877   5.614
 7997SOL    HW124890   3.132   0.915   5.557
 7997SOL    HW224891   3.097   0.842   5.699
 7998SOL     OW24892   2.468   1.328   1.485
 7998SOL    HW124893   2.461   1.392   1.409
 7998SOL    HW224894   2.376   1.305   1.518
 7999SOL     OW24895   0.002   0.980   2.226
 7999SOL    HW124896   0.090   0.942   2.251
 7999SOL    HW224897   6.967   0.910   2.180
 8000SOL     OW24898   4.566   5.781   1.208
 8000SOL    HW124899   4.628   5.858   1.195
 8000SOL    HW224900   4.476   5.804   1.172
 8001SOL     OW24901   5.364   4.905   2.441
 8001SOL    HW124902   5.331   4.969   2.511
 8001SOL    HW224903   5.352   4.947   2.351
 8002SOL     OW24904   1.490   0.702   5.212
 8002SOL    HW124905   1.408   0.750   5.242
 8002SOL    HW224906   1.541   0.671   5.292
 8003SOL     OW24907   2.423   5.519   2.844
 8003SOL    HW124908   2.354   5.581   2.806
 8003SOL    HW224909   2.514   5.552   2.819
 8004SOL     OW24910   2.123   3.601   4.039
 8004SOL    HW124911   2.150   3.512   4.002
 8004SOL    HW224912   2.027   3.618   4.016
 8005SOL     OW24913   2.694   0.449   4.242
 8005SOL    HW124914   2.619   0.427   4.180
 8005SOL    HW224915   2.739   0.534   4.212
 8006SOL     OW24916   4.886   5.018   6.427
 8006SOL    HW124917   4.949   5.092   6.408
 8006SOL    HW224918   4.796   5.055   6.452
 8007SOL     OW24919   0.025   0.787   0.990
 8007SOL    HW124920   0.034   0.719   1.063
 8007SOL    HW224921   0.053   0.747   0.903
 8008SOL     OW24922   5.154   5.591   1.015
 8008SOL    HW124923   5.246   5.574   0.978
 8008SOL    HW224924   5.142   5.538   1.099
 8009SOL     OW24925   6.346   0.615   1.063
 8009SOL    HW124926   6.440   0.621   1.027
 8009SOL    HW224927   6.342   0.543   1.132
 8010SOL     OW24928   2.684   0.127   6.758
 8010SOL    HW124929   2.693   0.106   6.660
 8010SOL    HW224930   2.651   0.047   6.806
 8011SOL     OW24931   3.894   2.166   2.168
 8011SOL    HW124932   3.952   2.129   2.095
 8011SOL    HW224933   3.805   2.190   2.130
 8012SOL     OW24934   6.277   0.447   5.617
 8012SOL    HW124935   6.248   0.364   5.665
 8012SOL    HW224936   6.228   0.455   5.530
 8013SOL     OW24937   3.502   0.203   3.205
 8013SOL    HW124938   3.433   0.154   3.258
 8013SOL    HW224939   3.593   0.173   3.232
 8014SOL     OW24940   2.336   2.637   3.326
 8014SOL    HW124941   2.309   2.708   3.391
 8014SOL    HW224942   2.405   2.577   3.368
 8015SOL     OW24943   3.524   5.578   4.812
 8015SOL    HW124944   3.531   5.557   4.715
 8015SOL    HW224945   3.455   5.519   4.854
 8016SOL     OW24946   2.877   3.257   5.068
 8016SOL    HW124947   2.795   3.247   5.124
 8016SOL    HW224948   2.891   3.175   5.014
 8017SOL     OW24949   5.223   6.431   1.918
 8017SOL    HW124950   5.206   6.352   1.858
 8017SOL    HW224951   5.313   6.423   1.959
 8018SOL     OW24952   2.905   2.745   1.120
 8018SOL    HW124953   2.811   2.713   1.105
 8018SOL    HW224954   2.936   2.715   1.210
 8019SOL     OW24955   3.028   3.499   1.539
 8019SOL    HW124956   2.966   3.533   1.610
 8019SOL    HW224957   3.106   3.560   1.531
 8020SOL     OW24958   1.202   0.084   0.016
 8020SOL    HW124959   1.300   0.087   0.033
 8020SOL    HW224960   1.158   0.029   0.087
 8021SOL     OW24961   0.745   2.201   0.704
 8021SOL    HW124962   0.655   2.165   0.730
 8021SOL    HW224963   0.736   2.296   0.677
 8022SOL     OW24964   4.401   0.351   2.800
 8022SOL    HW124965   4.317   0.398   2.827
 8022SOL    HW224966   4.411   0.268   2.855
 8023SOL     OW24967   3.687   4.890   2.281
 8023SOL    HW124968   3.660   4.812   2.226
 8023SOL    HW224969   3.690   4.972   2.224
 8024SOL     OW24970   2.916   0.687   6.247
 8024SOL    HW124971   2.906   0.779   6.284
 8024SOL    HW224972   2.857   0.624   6.299
 8025SOL     OW24973   1.294   6.731   1.427
 8025SOL    HW124974   1.286   6.802   1.497
 8025SOL    HW224975   1.239   6.756   1.348
 8026SOL     OW24976   0.316   6.493   5.532
 8026SOL    HW124977   0.289   6.413   5.479
 8026SOL    HW224978   0.235   6.549   5.551
 8027SOL     OW24979   4.082   6.799   6.557
 8027SOL    HW124980   4.101   6.860   6.480
 8027SOL    HW224981   4.070   6.854   6.640
 8028SOL     OW24982   4.233   5.816   6.438
 8028SOL    HW124983   4.263   5.737   6.384
 8028SOL    HW224984   4.143   5.845   6.406
 8029SOL     OW24985   1.170   6.989   2.018
 8029SOL    HW124986   1.095   6.924   2.030
 8029SOL    HW224987   1.244   6.966   2.080
 8030SOL     OW24988   0.795   3.602   1.138
 8030SOL    HW124989   0.834   3.692   1.118
 8030SOL    HW224990   0.701   3.599   1.103
 8031SOL     OW24991   0.221   0.912   3.855
 8031SOL    HW124992   0.166   0.972   3.913
 8031SOL    HW224993   0.200   0.931   3.758
 8032SOL     OW24994   6.981   3.285   1.331
 8032SOL    HW124995   6.929   3.200   1.337
 8032SOL    HW224996   0.021   3.282   1.251
 8033SOL     OW24997   4.387   4.962   0.970
 8033SOL    HW124998   4.338   4.877   0.990
 8033SOL    HW224999   4.455   4.978   1.041
 8034SOL     OW25000   1.725   1.312   5.007
 8034SOL    HW125001   1.648   1.259   5.044
 8034SOL    HW225002   1.768   1.261   4.933
 8035SOL     OW25003   5.431   0.218   4.637
 8035SOL    HW125004   5.382   0.153   4.579
 8035SOL    HW225005   5.411   0.311   4.606
 8036SOL     OW25006   5.222   4.597   4.270
 8036SOL    HW125007   5.234   4.696   4.270
 8036SOL    HW225008   5.310   4.553   4.287
 8037SOL     OW25009   2.647   1.138   6.649
 8037SOL    HW125010   2.713   1.144   6.575
 8037SOL    HW225011   2.613   1.230   6.671
 8038SOL     OW25012   6.280   5.466   1.662
 8038SOL    HW125013   6.379   5.477   1.673
 8038SOL    HW225014   6.236   5.555   1.656
 8039SOL     OW25015   2.026   2.942   4.990
 8039SOL    HW125016   2.054   3.037   4.978
 8039SOL    HW225017   2.022   2.920   5.088
 8040SOL     OW25018   0.561   6.494   5.624
 8040SOL    HW125019   0.464   6.507   5.604
 8040SOL    HW225020   0.616   6.552   5.563
 8041SOL     OW25021   3.114   1.806   2.761
 8041SOL    HW125022   3.037   1.826   2.822
 8041SOL    HW225023   3.080   1.758   2.680
 8042SOL     OW25024   4.493   3.855   5.957
 8042SOL    HW125025   4.493   3.835   6.055
 8042SOL    HW225026   4.578   3.902   5.933
 8043SOL     OW25027   5.062   5.442   6.865
 8043SOL    HW125028   5.139   5.431   6.803
 8043SOL    HW225029   5.094   5.479   6.953
 8044SOL     OW25030   1.075   2.704   1.390
 8044SOL    HW125031   1.105   2.636   1.323
 8044SOL    HW225032   1.140   2.780   1.392
 8045SOL     OW25033   5.814   3.056   5.077
 8045SOL    HW125034   5.813   3.110   5.162
 8045SOL    HW225035   5.753   2.978   5.086
 8046SOL     OW25036   0.646   4.055   1.110
 8046SOL    HW125037   0.559   4.078   1.068
 8046SOL    HW225038   0.672   4.126   1.175
 8047SOL     OW25039   2.940   6.345   6.668
 8047SOL    HW125040   2.931   6.381   6.761
 8047SOL    HW225041   2.895   6.407   6.603
 8048SOL     OW25042   4.541   1.825   6.351
 8048SOL    HW125043   4.576   1.838   6.444
 8048SOL    HW225044   4.453   1.871   6.342
 8049SOL     OW25045   2.286   1.599   1.073
 8049SOL    HW125046   2.259   1.671   1.009
 8049SOL    HW225047   2.241   1.514   1.047
 8050SOL     OW25048   6.612   5.122   5.958
 8050SOL    HW125049   6.702   5.151   5.992
 8050SOL    HW225050   6.566   5.200   5.916
 8051SOL     OW25051   4.099   6.774   3.151
 8051SOL    HW125052   4.149   6.723   3.220
 8051SOL    HW225053   4.050   6.711   3.091
 8052SOL     OW25054   2.554   1.556   2.838
 8052SOL    HW125055   2.552   1.542   2.937
 8052SOL    HW225056   2.524   1.473   2.791
 8053SOL     OW25057   1.424   1.522   6.531
 8053SOL    HW125058   1.452   1.578   6.453
 8053SOL    HW225059   1.479   1.546   6.611
 8054SOL     OW25060   5.092   3.731   5.260
 8054SOL    HW125061   5.178   3.694   5.222
 8054SOL    HW225062   5.042   3.779   5.188
 8055SOL     OW25063   0.050   0.891   6.603
 8055SOL    HW125064   0.043   0.986   6.572
 8055SOL    HW225065   0.052   0.889   6.703
 8056SOL     OW25066   1.818   2.534   2.935
 8056SOL    HW125067   1.859   2.447   2.906
 8056SOL    HW225068   1.793   2.528   3.032
 8057SOL     OW25069   3.220   1.858   1.576
 8057SOL    HW125070   3.166   1.857   1.661
 8057SOL    HW225071   3.292   1.789   1.582
 8058SOL     OW25072   3.432   6.690   1.927
 8058SOL    HW125073   3.361   6.621   1.915
 8058SOL    HW225074   3.456   6.728   1.838
 8059SOL     OW25075   4.505   4.025   5.391
 8059SOL    HW125076   4.456   4.103   5.354
 8059SOL    HW225077   4.478   4.011   5.487
 8060SOL     OW25078   0.347   1.473   5.263
 8060SOL    HW125079   0.326   1.406   5.335
 8060SOL    HW225080   0.330   1.431   5.173
 8061SOL     OW25081   6.602   1.034   1.247
 8061SOL    HW125082   6.623   1.027   1.149
 8061SOL    HW225083   6.555   1.120   1.265
 8062SOL     OW25084   4.616   4.786   6.164
 8062SOL    HW125085   4.604   4.802   6.262
 8062SOL    HW225086   4.562   4.707   6.136
 8063SOL     OW25087   2.660   4.616   2.609
 8063SOL    HW125088   2.628   4.632   2.516
 8063SOL    HW225089   2.658   4.518   2.628
 8064SOL     OW25090   6.681   2.863   0.212
 8064SOL    HW125091   6.774   2.838   0.188
 8064SOL    HW225092   6.678   2.893   0.308
 8065SOL     OW25093   4.437   0.290   6.377
 8065SOL    HW125094   4.465   0.218   6.313
 8065SOL    HW225095   4.453   0.259   6.471
 8066SOL     OW25096   6.729   0.979   5.972
 8066SOL    HW125097   6.725   0.989   5.873
 8066SOL    HW225098   6.636   0.968   6.008
 8067SOL     OW25099   5.277   0.302   4.204
 8067SOL    HW125100   5.250   0.253   4.287
 8067SOL    HW225101   5.287   0.400   4.225
 8068SOL     OW25102   0.133   4.444   0.865
 8068SOL    HW125103   0.228   4.445   0.897
 8068SOL    HW225104   0.086   4.365   0.904
 8069SOL     OW25105   1.123   2.737   1.805
 8069SOL    HW125106   1.210   2.777   1.776
 8069SOL    HW225107   1.127   2.638   1.795
 8070SOL     OW25108   5.040   4.284   1.691
 8070SOL    HW125109   5.009   4.310   1.782
 8070SOL    HW225110   5.139   4.275   1.691
 8071SOL     OW25111   1.800   0.041   6.216
 8071SOL    HW125112   1.774   0.115   6.279
 8071SOL    HW225113   1.776   6.973   6.256
 8072SOL     OW25114   2.708   2.388   5.717
 8072SOL    HW125115   2.617   2.424   5.738
 8072SOL    HW225116   2.714   2.369   5.619
 8073SOL     OW25117   5.147   6.811   6.887
 8073SOL    HW125118   5.148   6.910   6.906
 8073SOL    HW225119   5.241   6.777   6.886
 8074SOL     OW25120   6.090   0.652   1.040
 8074SOL    HW125121   6.189   0.654   1.056
 8074SOL    HW225122   6.044   0.614   1.120
 8075SOL     OW25123   0.187   0.219   1.285
 8075SOL    HW125124   0.092   0.190   1.276
 8075SOL    HW225125   0.244   0.168   1.219
 8076SOL     OW25126   6.705   5.731   0.586
 8076SOL    HW125127   6.725   5.811   0.528
 8076SOL    HW225128   6.771   5.658   0.566
 8077SOL     OW25129   6.571   4.349   1.032
 8077SOL    HW125130   6.484   4.305   1.010
 8077SOL    HW225131   6.571   4.376   1.128
 8078SOL     OW25132   5.939   2.085   1.486
 8078SOL    HW125133   5.892   1.999   1.468
 8078SOL    HW225134   5.873   2.159   1.489
 8079SOL     OW25135   6.899   0.755   0.193
 8079SOL    HW125136   6.809   0.759   0.236
 8079SOL    HW225137   6.901   0.681   0.125
 8080SOL     OW25138   0.562   3.451   3.818
 8080SOL    HW125139   0.510   3.534   3.795
 8080SOL    HW225140   0.548   3.383   3.745
 8081SOL     OW25141   5.896   0.448   5.422
 8081SOL    HW125142   5.976   0.393   5.447
 8081SOL    HW225143   5.876   0.436   5.325
 8082SOL     OW25144   4.704   1.876   4.833
 8082SOL    HW125145   4.616   1.846   4.796
 8082SOL    HW225146   4.762   1.797   4.851
 8083SOL     OW25147   6.779   2.862   4.086
 8083SOL    HW125148   6.832   2.946   4.092
 8083SOL    HW225149   6.841   2.783   4.096
 8084SOL     OW25150   5.302   1.781   6.984
 8084SOL    HW125151   5.365   1.799   6.908
 8084SOL    HW225152   5.273   1.867   0.005
 8085SOL     OW25153   1.512   6.082   4.649
 8085SOL    HW125154   1.537   6.020   4.574
 8085SOL    HW225155   1.573   6.161   4.647
 8086SOL     OW25156   7.010   2.337   1.969
 8086SOL    HW125157   0.039   2.322   2.054
 8086SOL    HW225158   6.923   2.383   1.988
 8087SOL     OW25159   6.276   0.659   6.057
 8087SOL    HW125160   6.207   0.598   6.097
 8087SOL    HW225161   6.302   0.625   5.967
 8088SOL     OW25162   6.842   6.866   5.154
 8088SOL    HW125163   6.806   6.815   5.076
 8088SOL    HW225164   6.874   6.801   5.224
 8089SOL     OW25165   6.579   1.038   0.212
 8089SOL    HW125166   6.586   1.091   0.296
 8089SOL    HW225167   6.488   0.997   0.205
 8090SOL     OW25168   4.323   2.080   4.746
 8090SOL    HW125169   4.296   2.165   4.701
 8090SOL    HW225170   4.364   2.018   4.678
 8091SOL     OW25171   1.047   3.231   5.439
 8091SOL    HW125172   1.145   3.218   5.453
 8091SOL    HW225173   1.027   3.329   5.432
 8092SOL     OW25174   4.216   0.114   5.535
 8092SOL    HW125175   4.290   0.061   5.493
 8092SOL    HW225176   4.138   0.117   5.473
 8093SOL     OW25177   3.901   0.334   3.453
 8093SOL    HW125178   3.970   0.407   3.464
 8093SOL    HW225179   3.819   0.359   3.503
 8094SOL     OW25180   1.969   4.654   3.683
 8094SOL    HW125181   2.002   4.584   3.620
 8094SOL    HW225182   1.946   4.737   3.631
 8095SOL     OW25183   1.116   5.675   4.283
 8095SOL    HW125184   1.049   5.715   4.220
 8095SOL    HW225185   1.199   5.650   4.232
 8096SOL     OW25186   0.705   4.816   0.691
 8096SOL    HW125187   0.617   4.855   0.718
 8096SOL    HW225188   0.777   4.853   0.750
 8097SOL     OW25189   4.524   0.134   0.600
 8097SOL    HW125190   4.488   0.226   0.589
 8097SOL    HW225191   4.623   0.135   0.597
 8098SOL     OW25192   2.356   6.311   4.990
 8098SOL    HW125193   2.446   6.345   4.961
 8098SOL    HW225194   2.317   6.255   4.917
 8099SOL     OW25195   2.114   3.502   2.770
 8099SOL    HW125196   2.052   3.519   2.693
 8099SOL    HW225197   2.070   3.439   2.834
 8100SOL     OW25198   0.059   6.513   0.648
 8100SOL    HW125199   0.114   6.484   0.571
 8100SOL    HW225200   0.112   6.506   0.733
 8101SOL     OW25201   2.944   4.966   0.245
 8101SOL    HW125202   3.030   4.918   0.260
 8101SOL    HW225203   2.917   4.959   0.149
 8102SOL     OW25204   1.649   4.497   4.005
 8102SOL    HW125205   1.695   4.450   3.930
 8102SOL    HW225206   1.583   4.436   4.048
 8103SOL     OW25207   4.495   0.513   1.620
 8103SOL    HW125208   4.411   0.545   1.576
 8103SOL    HW225209   4.491   0.534   1.718
 8104SOL     OW25210   1.476   6.569   0.083
 8104SOL    HW125211   1.407   6.618   0.031
 8104SOL    HW225212   1.495   6.619   0.168
 8105SOL     OW25213   6.938   0.112   2.664
 8105SOL    HW125214   6.902   0.155   2.581
 8105SOL    HW225215   6.877   0.130   2.740
 8106SOL     OW25216   3.565   6.354   6.762
 8106SOL    HW125217   3.602   6.399   6.680
 8106SOL    HW225218   3.640   6.319   6.817
 8107SOL     OW25219   0.674   6.428   0.327
 8107SOL    HW125220   0.726   6.362   0.382
 8107SOL    HW225221   0.726   6.450   0.245
 8108SOL     OW25222   1.883   0.928   0.770
 8108SOL    HW125223   1.850   0.939   0.677
 8108SOL    HW225224   1.867   1.012   0.822
 8109SOL     OW25225   0.277   3.763   2.036
 8109SOL    HW125226   0.296   3.769   1.938
 8109SOL    HW225227   0.344   3.703   2.080
 8110SOL     OW25228   4.629   4.500   7.014
 8110SOL    HW125229   4.728   4.495   7.008
 8110SOL    HW225230   4.589   4.470   6.927
 8111SOL     OW25231   5.497   2.122   2.391
 8111SOL    HW125232   5.597   2.124   2.380
 8111SOL    HW225233   5.455   2.187   2.327
 8112SOL     OW25234   1.973   4.387   6.518
 8112SOL    HW125235   2.006   4.302   6.558
 8112SOL    HW225236   1.883   4.409   6.555
 8113SOL     OW25237   5.230   4.988   6.170
 8113SOL    HW125238   5.241   4.894   6.137
 8113SOL    HW225239   5.317   5.020   6.208
 8114SOL     OW25240   2.295   2.833   2.742
 8114SOL    HW125241   2.335   2.754   2.789
 8114SOL    HW225242   2.280   2.907   2.808
 8115SOL     OW25243   2.388   1.475   6.267
 8115SOL    HW125244   2.331   1.407   6.314
 8115SOL    HW225245   2.344   1.501   6.181
 8116SOL     OW25246   4.121   3.516   2.225
 8116SOL    HW125247   4.085   3.530   2.133
 8116SOL    HW225248   4.108   3.420   2.251
 8117SOL     OW25249   0.928   0.489   3.725
 8117SOL    HW125250   0.887   0.572   3.686
 8117SOL    HW225251   0.929   0.417   3.656
 8118SOL     OW25252   6.824   2.320   6.410
 8118SOL    HW125253   6.811   2.343   6.314
 8118SOL    HW225254   6.755   2.253   6.438
 8119SOL     OW25255   5.519   4.692   6.656
 8119SOL    HW125256   5.600   4.749   6.642
 8119SOL    HW225257   5.489   4.700   6.751
 8120SOL     OW25258   2.004   6.422   2.463
 8120SOL    HW125259   1.928   6.476   2.500
 8120SOL    HW225260   2.074   6.410   2.533
 8121SOL     OW25261   1.063   2.477   2.977
 8121SOL    HW125262   0.986   2.497   2.916
 8121SOL    HW225263   1.083   2.558   3.032
 8122SOL     OW25264   1.063   4.819   1.096
 8122SOL    HW125265   1.135   4.888   1.107
 8122SOL    HW225266   1.039   4.781   1.185
 8123SOL     OW25267   6.914   1.258   5.836
 8123SOL    HW125268   6.851   1.181   5.825
 8123SOL    HW225269   6.863   1.339   5.864
 8124SOL     OW25270   6.208   6.275   5.504
 8124SOL    HW125271   6.176   6.258   5.597
 8124SOL    HW225272   6.274   6.204   5.478
 8125SOL     OW25273   0.455   6.386   2.011
 8125SOL    HW125274   0.431   6.344   1.923
 8125SOL    HW225275   0.553   6.409   2.011
 8126SOL     OW25276   3.042   5.395   4.518
 8126SOL    HW125277   3.027   5.386   4.617
 8126SOL    HW225278   3.085   5.311   4.484
 8127SOL     OW25279   4.403   1.338   5.884
 8127SOL    HW125280   4.320   1.287   5.908
 8127SOL    HW225281   4.387   1.388   5.798
 8128SOL     OW25282   3.736   3.438   0.924
 8128SOL    HW125283   3.760   3.525   0.967
 8128SOL    HW225284   3.758   3.363   0.986
 8129SOL     OW25285   6.472   2.766   3.460
 8129SOL    HW125286   6.434   2.853   3.428
 8129SOL    HW225287   6.406   2.693   3.444
 8130SOL     OW25288   6.906   6.433   6.994
 8130SOL    HW125289   6.942   6.395   6.908
 8130SOL    HW225290   6.982   6.462   0.032
 8131SOL     OW25291   2.221   2.761   0.976
 8131SOL    HW125292   2.175   2.835   1.025
 8131SOL    HW225293   2.154   2.711   0.921
 8132SOL     OW25294   5.816   1.539   4.374
 8132SOL    HW125295   5.893   1.592   4.337
 8132SOL    HW225296   5.738   1.600   4.389
 8133SOL     OW25297   3.577   5.796   1.398
 8133SOL    HW125298   3.478   5.784   1.399
 8133SOL    HW225299   3.616   5.741   1.324
 8134SOL     OW25300   5.877   1.399   6.831
 8134SOL    HW125301   5.824   1.342   6.894
 8134SOL    HW225302   5.974   1.377   6.840
 8135SOL     OW25303   2.462   6.013   1.978
 8135SOL    HW125304   2.419   5.958   2.050
 8135SOL    HW225305   2.461   5.961   1.892
 8136SOL     OW25306   4.612   4.903   2.230
 8136SOL    HW125307   4.681   4.927   2.297
 8136SOL    HW225308   4.534   4.965   2.239
 8137SOL     OW25309   4.303   1.138   5.623
 8137SOL    HW125310   4.360   1.100   5.696
 8137SOL    HW225311   4.359   1.149   5.540
 8138SOL     OW25312   6.143   0.668   2.670
 8138SOL    HW125313   6.101   0.628   2.752
 8138SOL    HW225314   6.213   0.605   2.636
 8139SOL     OW25315   0.858   1.466   4.278
 8139SOL    HW125316   0.788   1.488   4.210
 8139SOL    HW225317   0.816   1.411   4.351
 8140SOL     OW25318   4.729   2.791   3.007
 8140SOL    HW125319   4.670   2.723   3.050
 8140SOL    HW225320   4.735   2.773   2.909
 8141SOL     OW25321   5.657   4.218   3.717
 8141SOL    HW125322   5.571   4.234   3.669
 8141SOL    HW225323   5.709   4.304   3.721
 8142SOL     OW25324   0.346   6.135   0.430
 8142SOL    HW125325   0.319   6.038   0.431
 8142SOL    HW225326   0.344   6.168   0.336
 8143SOL     OW25327   6.740   2.352   6.152
 8143SOL    HW125328   6.709   2.284   6.086
 8143SOL    HW225329   6.769   2.434   6.105
 8144SOL     OW25330   4.727   6.259   0.045
 8144SOL    HW125331   4.783   6.193   7.014
 8144SOL    HW225332   4.778   6.344   0.056
 8145SOL     OW25333   4.770   6.328   4.274
 8145SOL    HW125334   4.676   6.301   4.294
 8145SOL    HW225335   4.825   6.322   4.358
 8146SOL     OW25336   3.204   1.741   3.557
 8146SOL    HW125337   3.187   1.649   3.521
 8146SOL    HW225338   3.131   1.767   3.619
 8147SOL     OW25339   4.553   1.621   3.844
 8147SOL    HW125340   4.628   1.653   3.902
 8147SOL    HW225341   4.468   1.662   3.874
 8148SOL     OW25342   0.425   3.618   3.114
 8148SOL    HW125343   0.400   3.521   3.117
 8148SOL    HW225344   0.373   3.664   3.043
 8149SOL     OW25345   3.826   5.245   3.947
 8149SOL    HW125346   3.810   5.236   4.046
 8149SOL    HW225347   3.746   5.211   3.898
 8150SOL     OW25348   1.319   5.981   1.342
 8150SOL    HW125349   1.406   6.024   1.365
 8150SOL    HW225350   1.326   5.938   1.252
 8151SOL     OW25351   0.958   1.645   4.998
 8151SOL    HW125352   0.925   1.641   4.904
 8151SOL    HW225353   0.980   1.552   5.030
 8152SOL     OW25354   0.957   0.760   3.262
 8152SOL    HW125355   1.023   0.685   3.267
 8152SOL    HW225356   0.996   0.842   3.303
 8153SOL     OW25357   2.409   5.926   0.467
 8153SOL    HW125358   2.466   5.901   0.545
 8153SOL    HW225359   2.447   6.007   0.423
 8154SOL     OW25360   2.117   6.188   3.872
 8154SOL    HW125361   2.156   6.267   3.919
 8154SOL    HW225362   2.181   6.111   3.879
 8155SOL     OW25363   3.534   3.861   4.740
 8155SOL    HW125364   3.623   3.873   4.696
 8155SOL    HW225365   3.462   3.863   4.671
 8156SOL     OW25366   0.573   6.598   4.972
 8156SOL    HW125367   0.662   6.637   4.949
 8156SOL    HW225368   0.570   6.502   4.945
 8157SOL     OW25369   5.702   2.413   6.626
 8157SOL    HW125370   5.661   2.322   6.617
 8157SOL    HW225371   5.663   2.459   6.706
 8158SOL     OW25372   1.043   6.057   2.454
 8158SOL    HW125373   1.055   6.065   2.553
 8158SOL    HW225374   1.133   6.046   2.411
 8159SOL     OW25375   0.530   6.396   0.069
 8159SOL    HW125376   0.616   6.350   0.047
 8159SOL    HW225377   0.531   6.423   0.166
 8160SOL     OW25378   5.262   2.074   0.967
 8160SOL    HW125379   5.337   2.061   1.031
 8160SOL    HW225380   5.179   2.031   1.002
 8161SOL     OW25381   4.077   3.866   1.376
 8161SOL    HW125382   4.064   3.771   1.347
 8161SOL    HW225383   4.174   3.884   1.388
 8162SOL     OW25384   6.305   1.185   1.894
 8162SOL    HW125385   6.364   1.220   1.967
 8162SOL    HW225386   6.259   1.102   1.925
 8163SOL     OW25387   2.397   2.735   5.092
 8163SOL    HW125388   2.312   2.720   5.143
 8163SOL    HW225389   2.429   2.828   5.108
 8164SOL     OW25390   5.235   4.572   1.746
 8164SOL    HW125391   5.238   4.475   1.719
 8164SOL    HW225392   5.150   4.591   1.794
 8165SOL     OW25393   1.326   3.377   1.766
 8165SOL    HW125394   1.242   3.325   1.782
 8165SOL    HW225395   1.304   3.474   1.758
 8166SOL     OW25396   2.717   6.960   2.068
 8166SOL    HW125397   2.653   6.903   2.120
 8166SOL    HW225398   2.798   6.906   2.044
 8167SOL     OW25399   5.646   2.928   4.537
 8167SOL    HW125400   5.675   2.921   4.441
 8167SOL    HW225401   5.561   2.876   4.549
 8168SOL     OW25402   2.660   1.747   2.397
 8168SOL    HW125403   2.666   1.736   2.496
 8168SOL    HW225404   2.636   1.841   2.374
 8169SOL     OW25405   5.540   4.025   5.732
 8169SOL    HW125406   5.536   4.071   5.643
 8169SOL    HW225407   5.464   3.961   5.739
 8170SOL     OW25408   1.073   4.999   3.817
 8170SOL    HW125409   1.160   5.044   3.799
 8170SOL    HW225410   1.067   4.976   3.914
 8171SOL     OW25411   2.029   0.759   6.623
 8171SOL    HW125412   2.086   0.680   6.646
 8171SOL    HW225413   1.937   0.746   6.662
 8172SOL     OW25414   6.790   6.476   2.114
 8172SOL    HW125415   6.836   6.543   2.171
 8172SOL    HW225416   6.844   6.459   2.031
 8173SOL     OW25417   6.778   3.270   0.522
 8173SOL    HW125418   6.817   3.212   0.450
 8173SOL    HW225419   6.714   3.217   0.576
 8174SOL     OW25420   5.144   6.235   2.770
 8174SOL    HW125421   5.138   6.287   2.685
 8174SOL    HW225422   5.109   6.290   2.845
 8175SOL     OW25423   1.095   2.435   3.314
 8175SOL    HW125424   1.141   2.469   3.232
 8175SOL    HW225425   1.161   2.427   3.388
 8176SOL     OW25426   3.955   5.460   3.346
 8176SOL    HW125427   3.917   5.533   3.402
 8176SOL    HW225428   3.890   5.437   3.273
 8177SOL     OW25429   1.836   6.635   5.981
 8177SOL    HW125430   1.803   6.573   6.053
 8177SOL    HW225431   1.936   6.631   5.978
 8178SOL     OW25432   1.697   6.348   6.418
 8178SOL    HW125433   1.666   6.282   6.349
 8178SOL    HW225434   1.775   6.399   6.383
 8179SOL     OW25435   4.314   0.513   6.651
 8179SOL    HW125436   4.223   0.529   6.689
 8179SOL    HW225437   4.377   0.490   6.725
 8180SOL     OW25438   4.990   4.464   4.537
 8180SOL    HW125439   5.079   4.510   4.544
 8180SOL    HW225440   4.923   4.528   4.501
 8181SOL     OW25441   2.313   2.213   2.406
 8181SOL    HW125442   2.267   2.242   2.489
 8181SOL    HW225443   2.383   2.144   2.429
 8182SOL     OW25444   5.389   3.016   5.332
 8182SOL    HW125445   5.300   2.992   5.293
 8182SOL    HW225446   5.387   3.110   5.365
 8183SOL     OW25447   1.957   3.330   3.273
 8183SOL    HW125448   1.878   3.378   3.311
 8183SOL    HW225449   1.936   3.232   3.267
 8184SOL     OW25450   6.370   6.188   4.416
 8184SOL    HW125451   6.468   6.195   4.399
 8184SOL    HW225452   6.320   6.226   4.338
 8185SOL     OW25453   0.822   2.356   3.558
 8185SOL    HW125454   0.855   2.398   3.473
 8185SOL    HW225455   0.786   2.265   3.538
 8186SOL     OW25456   4.498   3.709   6.586
 8186SOL    HW125457   4.479   3.699   6.684
 8186SOL    HW225458   4.497   3.620   6.542
 8187SOL     OW25459   2.199   1.482   5.671
 8187SOL    HW125460   2.149   1.395   5.677
 8187SOL    HW225461   2.297   1.462   5.664
 8188SOL     OW25462   5.300   3.059   2.790
 8188SOL    HW125463   5.234   2.985   2.777
 8188SOL    HW225464   5.290   3.125   2.715
 8189SOL     OW25465   6.588   5.120   3.238
 8189SOL    HW125466   6.532   5.144   3.317
 8189SOL    HW225467   6.567   5.182   3.162
 8190SOL     OW25468   5.730   3.503   2.859
 8190SOL    HW125469   5.723   3.424   2.919
 8190SOL    HW225470   5.651   3.563   2.873
 8191SOL     OW25471   5.524   5.069   1.693
 8191SOL    HW125472   5.464   5.143   1.722
 8191SOL    HW225473   5.541   5.077   1.595
 8192SOL     OW25474   1.589   2.030   1.031
 8192SOL    HW125475   1.582   2.027   0.931
 8192SOL    HW225476   1.639   1.950   1.063
 8193SOL     OW25477   3.682   6.205   5.711
 8193SOL    HW125478   3.681   6.118   5.761
 8193SOL    HW225479   3.777   6.233   5.694
 8194SOL     OW25480   1.903   0.931   2.575
 8194SOL    HW125481   1.896   0.844   2.623
 8194SOL    HW225482   1.812   0.973   2.570
 8195SOL     OW25483   6.026   1.151   1.488
 8195SOL    HW125484   5.949   1.117   1.434
 8195SOL    HW225485   6.030   1.102   1.574
 8196SOL     OW25486   2.622   0.931   1.262
 8196SOL    HW125487   2.714   0.895   1.253
 8196SOL    HW225488   2.606   1.000   1.192
 8197SOL     OW25489   0.520   6.711   0.754
 8197SOL    HW125490   0.458   6.789   0.746
 8197SOL    HW225491   0.470   6.627   0.733
 8198SOL     OW25492   3.082   1.348   2.821
 8198SOL    HW125493   3.065   1.258   2.861
 8198SOL    HW225494   3.054   1.419   2.885
 8199SOL     OW25495   5.762   4.668   1.225
 8199SOL    HW125496   5.721   4.652   1.315
 8199SOL    HW225497   5.770   4.766   1.210
 8200SOL     OW25498   3.964   4.506   1.558
 8200SOL    HW125499   3.883   4.532   1.610
 8200SOL    HW225500   3.995   4.415   1.588
 8201SOL     OW25501   1.000   0.980   5.210
 8201SOL    HW125502   1.028   1.003   5.304
 8201SOL    HW225503   1.079   0.988   5.149
 8202SOL     OW25504   1.547   3.223   4.298
 8202SOL    HW125505   1.628   3.216   4.357
 8202SOL    HW225506   1.507   3.132   4.286
 8203SOL     OW25507   6.612   4.347   6.149
 8203SOL    HW125508   6.597   4.400   6.066
 8203SOL    HW225509   6.606   4.407   6.229
 8204SOL     OW25510   3.130   6.732   1.109
 8204SOL    HW125511   3.161   6.761   1.019
 8204SOL    HW225512   3.208   6.730   1.172
 8205SOL     OW25513   3.762   6.989   2.815
 8205SOL    HW125514   3.785   6.893   2.800
 8205SOL    HW225515   3.668   7.006   2.787
 8206SOL     OW25516   3.534   1.916   4.818
 8206SOL    HW125517   3.473   1.966   4.878
 8206SOL    HW225518   3.482   1.850   4.764
 8207SOL     OW25519   2.630   5.848   0.176
 8207SOL    HW125520   2.719   5.813   0.205
 8207SOL    HW225521   2.641   5.898   0.090
 8208SOL     OW25522   1.313   6.286   1.060
 8208SOL    HW125523   1.366   6.221   1.114
 8208SOL    HW225524   1.353   6.377   1.069
 8209SOL     OW25525   0.913   5.824   4.956
 8209SOL    HW125526   0.916   5.733   4.914
 8209SOL    HW225527   0.878   5.890   4.889
 8210SOL     OW25528   2.212   0.635   1.145
 8210SOL    HW125529   2.267   0.552   1.146
 8210SOL    HW225530   2.271   0.715   1.145
 8211SOL     OW25531   3.073   4.041   4.150
 8211SOL    HW125532   3.049   3.995   4.236
 8211SOL    HW225533   3.130   4.120   4.170
 8212SOL     OW25534   4.263   4.426   6.761
 8212SOL    HW125535   4.352   4.383   6.777
 8212SOL    HW225536   4.194   4.356   6.744
 8213SOL     OW25537   4.768   4.067   2.230
 8213SOL    HW125538   4.779   4.165   2.213
 8213SOL    HW225539   4.682   4.051   2.280
 8214SOL     OW25540   4.145   5.073   3.687
 8214SOL    HW125541   4.175   5.165   3.662
 8214SOL    HW225542   4.088   5.078   3.769
 8215SOL     OW25543   2.740   6.096   5.319
 8215SOL    HW125544   2.756   6.106   5.221
 8215SOL    HW225545   2.642   6.109   5.338
 8216SOL     OW25546   6.188   5.203   0.202
 8216SOL    HW125547   6.110   5.194   0.264
 8216SOL    HW225548   6.158   5.183   0.108
 8217SOL     OW25549   3.560   6.068   3.479
 8217SOL    HW125550   3.581   6.165   3.468
 8217SOL    HW225551   3.471   6.058   3.523
 8218SOL     OW25552   2.539   6.142   4.030
 8218SOL    HW125553   2.560   6.127   4.127
 8218SOL    HW225554   2.618   6.185   3.985
 8219SOL     OW25555   3.362   3.480   4.226
 8219SOL    HW125556   3.417   3.531   4.292
 8219SOL    HW225557   3.391   3.503   4.133
 8220SOL     OW25558   4.523   4.289   6.048
 8220SOL    HW125559   4.487   4.378   6.076
 8220SOL    HW225560   4.449   4.221   6.050
 8221SOL     OW25561   6.923   3.880   3.778
 8221SOL    HW125562   6.829   3.859   3.752
 8221SOL    HW225563   6.924   3.951   3.848
 8222SOL     OW25564   4.995   2.131   6.324
 8222SOL    HW125565   5.054   2.088   6.256
 8222SOL    HW225566   5.050   2.164   6.400
 8223SOL     OW25567   1.251   5.997   5.419
 8223SOL    HW125568   1.351   5.986   5.420
 8223SOL    HW225569   1.212   5.937   5.349
 8224SOL     OW25570   5.431   0.605   5.503
 8224SOL    HW125571   5.407   0.540   5.575
 8224SOL    HW225572   5.463   0.555   5.422
 8225SOL     OW25573   6.263   2.631   0.414
 8225SOL    HW125574   6.273   2.537   0.446
 8225SOL    HW225575   6.334   2.651   0.346
 8226SOL     OW25576   3.709   0.546   6.766
 8226SOL    HW125577   3.684   0.450   6.776
 8226SOL    HW225578   3.799   0.552   6.722
 8227SOL     OW25579   5.627   3.791   2.212
 8227SOL    HW125580   5.686   3.741   2.149
 8227SOL    HW225581   5.680   3.863   2.258
 8228SOL     OW25582   2.675   1.597   4.479
 8228SOL    HW125583   2.637   1.684   4.446
 8228SOL    HW225584   2.609   1.552   4.539
 8229SOL     OW25585   4.171   4.234   0.595
 8229SOL    HW125586   4.223   4.298   0.538
 8229SOL    HW225587   4.139   4.281   0.677
 8230SOL     OW25588   6.733   0.772   6.285
 8230SOL    HW125589   6.785   0.695   6.247
 8230SOL    HW225590   6.768   0.858   6.248
 8231SOL     OW25591   3.424   1.660   1.559
 8231SOL    HW125592   3.510   1.690   1.600
 8231SOL    HW225593   3.443   1.594   1.487
 8232SOL     OW25594   3.694   6.460   4.268
 8232SOL    HW125595   3.755   6.525   4.314
 8232SOL    HW225596   3.739   6.423   4.187
 8233SOL     OW25597   3.151   0.406   6.563
 8233SOL    HW125598   3.212   0.361   6.627
 8233SOL    HW225599   3.082   0.341   6.530
 8234SOL     OW25600   0.710   2.740   6.835
 8234SOL    HW125601   0.767   2.657   6.840
 8234SOL    HW225602   0.635   2.733   6.901
 8235SOL     OW25603   1.154   6.305   0.234
 8235SOL    HW125604   1.157   6.309   0.134
 8235SOL    HW225605   1.116   6.217   0.263
 8236SOL     OW25606   1.277   6.929   0.893
 8236SOL    HW125607   1.322   7.001   0.840
 8236SOL    HW225608   1.262   6.849   0.835
 8237SOL     OW25609   4.138   4.943   5.453
 8237SOL    HW125610   4.222   4.985   5.487
 8237SOL    HW225611   4.107   4.874   5.518
 8238SOL     OW25612   6.536   5.092   6.629
 8238SOL    HW125613   6.579   5.009   6.666
 8238SOL    HW225614   6.439   5.076   6.615
 8239SOL     OW25615   4.332   2.370   3.841
 8239SOL    HW125616   4.357   2.298   3.776
 8239SOL    HW225617   4.391   2.450   3.827
 8240SOL     OW25618   3.765   3.738   5.268
 8240SOL    HW125619   3.827   3.808   5.304
 8240SOL    HW225620   3.687   3.727   5.331
 8241SOL     OW25621   0.742   2.884   5.945
 8241SOL    HW125622   0.653   2.866   5.902
 8241SOL    HW225623   0.782   2.966   5.904
 8242SOL     OW25624   0.677   3.178   3.455
 8242SOL    HW125625   0.700   3.101   3.395
 8242SOL    HW225626   0.668   3.261   3.401
 8243SOL     OW25627   2.035   5.791   3.759
 8243SOL    HW125628   2.111   5.748   3.711
 8243SOL    HW225629   2.056   5.796   3.856
 8244SOL     OW25630   5.740   0.138   4.606
 8244SOL    HW125631   5.749   0.074   4.530
 8244SOL    HW225632   5.644   0.162   4.617
 8245SOL     OW25633   5.974   4.252   2.349
 8245SOL    HW125634   6.020   4.340   2.360
 8245SOL    HW225635   5.939   4.221   2.437
 8246SOL     OW25636   2.147   4.527   0.133
 8246SOL    HW125637   2.233   4.522   0.082
 8246SOL    HW225638   2.091   4.602   0.097
 8247SOL     OW25639   1.864   4.734   3.226
 8247SOL    HW125640   1.930   4.673   3.270
 8247SOL    HW225641   1.912   4.793   3.161
 8248SOL     OW25642   6.493   0.133   2.266
 8248SOL    HW125643   6.481   0.082   2.181
 8248SOL    HW225644   6.532   0.073   2.336
 8249SOL     OW25645   3.627   6.923   5.530
 8249SOL    HW125646   3.656   7.012   5.566
 8249SOL    HW225647   3.529   6.911   5.545
 8250SOL     OW25648   1.202   1.589   6.955
 8250SOL    HW125649   1.122   1.542   6.917
 8250SOL    HW225650   1.172   1.668   7.008
 8251SOL     OW25651   1.327   2.091   6.548
 8251SOL    HW125652   1.370   2.025   6.610
 8251SOL    HW225653   1.289   2.167   6.601
 8252SOL     OW25654   1.009   1.341   6.507
 8252SOL    HW125655   1.062   1.263   6.475
 8252SOL    HW225656   0.912   1.316   6.511
 8253SOL     OW25657   0.394   4.253   5.127
 8253SOL    HW125658   0.341   4.338   5.136
 8253SOL    HW225659   0.419   4.240   5.031
 8254SOL     OW25660   4.904   4.293   0.131
 8254SOL    HW125661   4.905   4.371   0.193
 8254SOL    HW225662   4.850   4.219   0.172
 8255SOL     OW25663   1.570   6.264   5.459
 8255SOL    HW125664   1.565   6.170   5.492
 8255SOL    HW225665   1.577   6.326   5.538
 8256SOL     OW25666   1.791   5.917   2.611
 8256SOL    HW125667   1.756   5.982   2.544
 8256SOL    HW225668   1.854   5.853   2.567
 8257SOL     OW25669   4.841   4.681   3.726
 8257SOL    HW125670   4.874   4.665   3.633
 8257SOL    HW225671   4.814   4.776   3.737
 8258SOL     OW25672   0.353   3.171   4.934
 8258SOL    HW125673   0.368   3.096   4.998
 8258SOL    HW225674   0.441   3.201   4.896
 8259SOL     OW25675   5.850   3.293   4.082
 8259SOL    HW125676   5.758   3.325   4.059
 8259SOL    HW225677   5.916   3.332   4.018
 8260SOL     OW25678   4.828   2.371   6.673
 8260SOL    HW125679   4.773   2.289   6.688
 8260SOL    HW225680   4.859   2.407   6.761
 8261SOL     OW25681   5.210   2.501   2.456
 8261SOL    HW125682   5.263   2.502   2.541
 8261SOL    HW225683   5.273   2.504   2.378
 8262SOL     OW25684   5.081   4.192   2.104
 8262SOL    HW125685   5.024   4.130   2.050
 8262SOL    HW225686   5.030   4.224   2.183
 8263SOL     OW25687   6.768   1.351   6.942
 8263SOL    HW125688   6.783   1.450   6.941
 8263SOL    HW225689   6.677   1.331   6.905
 8264SOL     OW25690   3.503   1.361   1.734
 8264SOL    HW125691   3.581   1.377   1.674
 8264SOL    HW225692   3.422   1.404   1.694
 8265SOL     OW25693   4.966   5.661   6.729
 8265SOL    HW125694   4.881   5.692   6.771
 8265SOL    HW225695   5.014   5.600   6.791
 8266SOL     OW25696   4.750   2.726   2.719
 8266SOL    HW125697   4.818   2.652   2.720
 8266SOL    HW225698   4.782   2.799   2.658
 8267SOL     OW25699   1.973   3.146   2.878
 8267SOL    HW125700   1.964   3.063   2.933
 8267SOL    HW225701   2.044   3.134   2.809
 8268SOL     OW25702   2.886   5.036   1.356
 8268SOL    HW125703   2.955   5.019   1.426
 8268SOL    HW225704   2.905   5.122   1.309
 8269SOL     OW25705   6.636   2.059   3.311
 8269SOL    HW125706   6.639   2.158   3.299
 8269SOL    HW225707   6.574   2.037   3.387
 8270SOL     OW25708   3.784   4.847   0.094
 8270SOL    HW125709   3.743   4.931   0.057
 8270SOL    HW225710   3.831   4.867   0.179
 8271SOL     OW25711   2.681   6.991   5.128
 8271SOL    HW125712   2.769   0.020   5.121
 8271SOL    HW225713   2.688   6.903   5.082
 8272SOL     OW25714   0.886   0.757   1.987
 8272SOL    HW125715   0.847   0.840   1.946
 8272SOL    HW225716   0.863   0.754   2.084
 8273SOL     OW25717   5.061   0.187   5.924
 8273SOL    HW125718   4.976   0.237   5.939
 8273SOL    HW225719   5.083   0.187   5.827
 8274SOL     OW25720   5.425   6.496   3.948
 8274SOL    HW125721   5.517   6.472   3.919
 8274SOL    HW225722   5.385   6.419   3.998
 8275SOL     OW25723   4.920   0.502   4.353
 8275SOL    HW125724   4.934   0.489   4.255
 8275SOL    HW225725   4.943   0.595   4.378
 8276SOL     OW25726   5.480   2.761   0.835
 8276SOL    HW125727   5.562   2.713   0.866
 8276SOL    HW225728   5.507   2.844   0.785
 8277SOL     OW25729   1.389   0.150   1.917
 8277SOL    HW125730   1.294   0.138   1.947
 8277SOL    HW225731   1.443   0.070   1.945
 8278SOL     OW25732   1.781   0.687   1.479
 8278SOL    HW125733   1.748   0.623   1.409
 8278SOL    HW225734   1.726   0.676   1.562
 8279SOL     OW25735   6.189   4.734   5.619
 8279SOL    HW125736   6.134   4.686   5.550
 8279SOL    HW225737   6.166   4.831   5.617
 8280SOL     OW25738   0.424   4.759   0.066
 8280SOL    HW125739   0.470   4.766   6.997
 8280SOL    HW225740   0.486   4.717   0.132
 8281SOL     OW25741   2.885   4.888   6.978
 8281SOL    HW125742   2.895   4.941   6.894
 8281SOL    HW225743   2.948   4.811   6.977
 8282SOL     OW25744   4.383   3.346   0.749
 8282SOL    HW125745   4.376   3.334   0.848
 8282SOL    HW225746   4.349   3.264   0.703
 8283SOL     OW25747   0.862   1.713   3.609
 8283SOL    HW125748   0.798   1.784   3.581
 8283SOL    HW225749   0.911   1.742   3.691
 8284SOL     OW25750   4.773   2.424   1.009
 8284SOL    HW125751   4.775   2.475   0.923
 8284SOL    HW225752   4.792   2.486   1.085
 8285SOL     OW25753   0.215   4.928   0.056
 8285SOL    HW125754   0.304   4.882   0.054
 8285SOL    HW225755   0.146   4.869   0.013
 8286SOL     OW25756   6.288   1.996   6.631
 8286SOL    HW125757   6.299   2.013   6.729
 8286SOL    HW225758   6.332   1.910   6.607
 8287SOL     OW25759   0.278   1.174   2.856
 8287SOL    HW125760   0.194   1.228   2.846
 8287SOL    HW225761   0.266   1.108   2.930
 8288SOL     OW25762   2.402   6.453   2.387
 8288SOL    HW125763   2.446   6.363   2.380
 8288SOL    HW225764   2.320   6.446   2.443
 8289SOL     OW25765   5.975   0.003   0.250
 8289SOL    HW125766   5.965   0.000   0.350
 8289SOL    HW225767   5.935   0.087   0.215
 8290SOL     OW25768   4.653   2.734   1.838
 8290SOL    HW125769   4.643   2.719   1.740
 8290SOL    HW225770   4.659   2.833   1.856
 8291SOL     OW25771   5.597   5.578   5.250
 8291SOL    HW125772   5.512   5.601   5.204
 8291SOL    HW225773   5.582   5.572   5.349
 8292SOL     OW25774   6.887   3.693   5.609
 8292SOL    HW125775   6.963   3.640   5.572
 8292SOL    HW225776   6.884   3.783   5.565
 8293SOL     OW25777   2.793   5.440   4.393
 8293SOL    HW125778   2.775   5.523   4.341
 8293SOL    HW225779   2.878   5.452   4.446
 8294SOL     OW25780   6.615   3.402   5.641
 8294SOL    HW125781   6.651   3.332   5.581
 8294SOL    HW225782   6.690   3.446   5.692
 8295SOL     OW25783   4.211   4.648   1.187
 8295SOL    HW125784   4.155   4.652   1.269
 8295SOL    HW225785   4.306   4.669   1.209
 8296SOL     OW25786   3.005   0.407   2.018
 8296SOL    HW125787   2.915   0.451   2.019
 8296SOL    HW225788   2.995   0.310   2.037
 8297SOL     OW25789   5.890   4.654   1.770
 8297SOL    HW125790   5.949   4.589   1.720
 8297SOL    HW225791   5.835   4.604   1.837
 8298SOL     OW25792   6.931   6.251   0.553
 8298SOL    HW125793   6.976   6.326   0.600
 8298SOL    HW225794   6.992   6.172   0.549
 8299SOL     OW25795   1.036   1.736   0.112
 8299SOL    HW125796   0.964   1.787   0.065
 8299SOL    HW225797   1.053   1.777   0.202
 8300SOL     OW25798   4.526   6.337   4.415
 8300SOL    HW125799   4.549   6.419   4.467
 8300SOL    HW225800   4.467   6.278   4.470
 8301SOL     OW25801   6.403   5.032   0.024
 8301SOL    HW125802   6.314   4.994   7.020
 8301SOL    HW225803   6.437   4.989   0.107
 8302SOL     OW25804   3.445   6.462   5.964
 8302SOL    HW125805   3.499   6.539   5.996
 8302SOL    HW225806   3.440   6.464   5.864
 8303SOL     OW25807   0.216   4.560   4.046
 8303SOL    HW125808   0.258   4.651   4.044
 8303SOL    HW225809   0.187   4.540   4.140
 8304SOL     OW25810   5.637   3.011   3.779
 8304SOL    HW125811   5.677   2.989   3.868
 8304SOL    HW225812   5.658   3.106   3.756
 8305SOL     OW25813   4.469   6.164   5.351
 8305SOL    HW125814   4.539   6.093   5.341
 8305SOL    HW225815   4.405   6.138   5.424
 8306SOL     OW25816   5.333   1.415   3.637
 8306SOL    HW125817   5.409   1.410   3.703
 8306SOL    HW225818   5.252   1.372   3.677
 8307SOL     OW25819   6.716   5.046   4.319
 8307SOL    HW125820   6.786   5.094   4.267
 8307SOL    HW225821   6.650   5.004   4.257
 8308SOL     OW25822   2.195   5.153   0.073
 8308SOL    HW125823   2.262   5.097   0.024
 8308SOL    HW225824   2.195   5.128   0.169
 8309SOL     OW25825   5.832   5.227   2.489
 8309SOL    HW125826   5.757   5.270   2.440
 8309SOL    HW225827   5.836   5.130   2.465
 8310SOL     OW25828   1.986   5.964   2.793
 8310SOL    HW125829   1.982   5.889   2.859
 8310SOL    HW225830   1.924   5.946   2.717
 8311SOL     OW25831   4.948   6.592   2.199
 8311SOL    HW125832   4.942   6.645   2.284
 8311SOL    HW225833   4.965   6.654   2.123
 8312SOL     OW25834   6.888   0.481   0.870
 8312SOL    HW125835   6.959   0.476   0.800
 8312SOL    HW225836   6.855   0.389   0.891
 8313SOL     OW25837   4.805   2.562   5.717
 8313SOL    HW125838   4.815   2.548   5.618
 8313SOL    HW225839   4.847   2.486   5.766
 8314SOL     OW25840   5.336   6.143   4.482
 8314SOL    HW125841   5.314   6.051   4.516
 8314SOL    HW225842   5.433   6.147   4.459
 8315SOL     OW25843   3.503   1.593   1.110
 8315SOL    HW125844   3.462   1.684   1.109
 8315SOL    HW225845   3.507   1.559   1.203
 8316SOL     OW25846   1.480   1.723   4.716
 8316SOL    HW125847   1.422   1.802   4.735
 8316SOL    HW225848   1.484   1.665   4.798
 8317SOL     OW25849   2.335   1.590   6.716
 8317SOL    HW125850   2.359   1.652   6.791
 8317SOL    HW225851   2.327   1.642   6.631
 8318SOL     OW25852   4.118   6.341   5.202
 8318SOL    HW125853   4.101   6.438   5.182
 8318SOL    HW225854   4.031   6.293   5.210
 8319SOL     OW25855   3.002   5.961   6.321
 8319SOL    HW125856   3.092   5.952   6.279
 8319SOL    HW225857   2.933   5.920   6.262
 8320SOL     OW25858   3.908   5.317   5.575
 8320SOL    HW125859   3.818   5.277   5.594
 8320SOL    HW225860   3.969   5.300   5.653
 8321SOL     OW25861   0.513   0.185   0.375
 8321SOL    HW125862   0.506   0.105   0.435
 8321SOL    HW225863   0.470   0.264   0.418
 8322SOL     OW25864   2.573   0.324   2.134
 8322SOL    HW125865   2.481   0.316   2.172
 8322SOL    HW225866   2.638   0.342   2.207
 8323SOL     OW25867   5.706   5.264   6.654
 8323SOL    HW125868   5.695   5.276   6.555
 8323SOL    HW225869   5.641   5.194   6.686
 8324SOL     OW25870   6.377   5.801   5.941
 8324SOL    HW125871   6.439   5.872   5.907
 8324SOL    HW225872   6.292   5.804   5.888
 8325SOL     OW25873   1.720   5.915   4.989
 8325SOL    HW125874   1.667   5.885   5.068
 8325SOL    HW225875   1.747   6.011   5.001
 8326SOL     OW25876   3.138   0.708   6.487
 8326SOL    HW125877   3.065   0.721   6.419
 8326SOL    HW225878   3.144   0.611   6.511
 8327SOL     OW25879   0.491   5.738   5.482
 8327SOL    HW125880   0.510   5.825   5.437
 8327SOL    HW225881   0.464   5.670   5.413
 8328SOL     OW25882   1.109   0.139   0.357
 8328SOL    HW125883   1.033   0.148   0.293
 8328SOL    HW225884   1.118   0.043   0.384
 8329SOL     OW25885   1.718   2.437   5.511
 8329SOL    HW125886   1.789   2.388   5.562
 8329SOL    HW225887   1.712   2.531   5.544
 8330SOL     OW25888   3.546   6.660   0.084
 8330SOL    HW125889   3.513   6.621   0.170
 8330SOL    HW225890   3.645   6.645   0.078
 8331SOL     OW25891   1.894   2.312   5.676
 8331SOL    HW125892   1.890   2.216   5.646
 8331SOL    HW225893   1.924   2.315   5.772
 8332SOL     OW25894   5.511   4.421   1.214
 8332SOL    HW125895   5.556   4.414   1.125
 8332SOL    HW225896   5.534   4.508   1.256
 8333SOL     OW25897   2.645   4.306   6.254
 8333SOL    HW125898   2.675   4.264   6.340
 8333SOL    HW225899   2.584   4.244   6.206
 8334SOL     OW25900   3.174   2.742   5.292
 8334SOL    HW125901   3.095   2.693   5.331
 8334SOL    HW225902   3.250   2.679   5.281
 8335SOL     OW25903   5.852   3.250   6.888
 8335SOL    HW125904   5.847   3.329   6.950
 8335SOL    HW225905   5.779   3.256   6.820
 8336SOL     OW25906   0.885   4.544   3.867
 8336SOL    HW125907   0.912   4.637   3.842
 8336SOL    HW225908   0.894   4.484   3.787
 8337SOL     OW25909   6.153   6.950   4.227
 8337SOL    HW125910   6.251   6.964   4.214
 8337SOL    HW225911   6.102   7.013   4.169
 8338SOL     OW25912   2.684   4.998   1.118
 8338SOL    HW125913   2.622   4.939   1.169
 8338SOL    HW225914   2.755   5.033   1.179
 8339SOL     OW25915   7.006   0.183   1.531
 8339SOL    HW125916   6.941   0.108   1.531
 8339SOL    HW225917   0.079   0.147   1.539
 8340SOL     OW25918   6.137   2.294   5.887
 8340SOL    HW125919   6.230   2.272   5.915
 8340SOL    HW225920   6.078   2.215   5.905
 8341SOL     OW25921   3.235   0.196   1.021
 8341SOL    HW125922   3.187   0.258   1.082
 8341SOL    HW225923   3.170   0.157   0.955
 8342SOL     OW25924   3.764   0.708   1.284
 8342SOL    HW125925   3.801   0.739   1.196
 8342SOL    HW225926   3.839   0.692   1.348
 8343SOL     OW25927   4.642   6.070   2.871
 8343SOL    HW125928   4.567   6.004   2.873
 8343SOL    HW225929   4.609   6.159   2.902
 8344SOL     OW25930   2.160   4.375   5.060
 8344SOL    HW125931   2.061   4.391   5.063
 8344SOL    HW225932   2.200   4.427   4.985
 8345SOL     OW25933   6.575   0.133   4.164
 8345SOL    HW125934   6.544   0.209   4.222
 8345SOL    HW225935   6.672   0.144   4.144
 8346SOL     OW25936   5.463   4.559   3.215
 8346SOL    HW125937   5.451   4.469   3.175
 8346SOL    HW225938   5.494   4.549   3.310
 8347SOL     OW25939   0.994   0.881   6.533
 8347SOL    HW125940   1.024   0.962   6.483
 8347SOL    HW225941   1.067   0.813   6.535
 8348SOL     OW25942   3.005   6.428   0.641
 8348SOL    HW125943   2.978   6.508   0.695
 8348SOL    HW225944   3.028   6.353   0.703
 8349SOL     OW25945   4.534   5.582   1.388
 8349SOL    HW125946   4.545   5.650   1.315
 8349SOL    HW225947   4.475   5.620   1.459
 8350SOL     OW25948   2.035   0.331   6.304
 8350SOL    HW125949   2.102   0.399   6.275
 8350SOL    HW225950   2.074   0.239   6.296
 8351SOL     OW25951   7.002   3.625   2.907
 8351SOL    HW125952   0.030   3.656   2.825
 8351SOL    HW225953   0.031   3.657   2.988
 8352SOL     OW25954   2.236   0.247   6.051
 8352SOL    HW125955   2.262   0.245   5.955
 8352SOL    HW225956   2.168   0.175   6.069
 8353SOL     OW25957   0.541   5.730   2.168
 8353SOL    HW125958   0.603   5.770   2.100
 8353SOL    HW225959   0.482   5.802   2.206
 8354SOL     OW25960   4.804   2.957   3.980
 8354SOL    HW125961   4.807   2.868   3.936
 8354SOL    HW225962   4.821   3.029   3.913
 8355SOL     OW25963   3.683   4.809   5.768
 8355SOL    HW125964   3.701   4.774   5.860
 8355SOL    HW225965   3.595   4.857   5.768
 8356SOL     OW25966   3.414   2.896   2.142
 8356SOL    HW125967   3.330   2.949   2.152
 8356SOL    HW225968   3.435   2.887   2.044
 8357SOL     OW25969   2.918   6.597   4.819
 8357SOL    HW125970   2.864   6.645   4.888
 8357SOL    HW225971   3.005   6.569   4.858
 8358SOL     OW25972   0.326   0.571   4.474
 8358SOL    HW125973   0.278   0.597   4.558
 8358SOL    HW225974   0.359   0.477   4.483
 8359SOL     OW25975   4.785   2.258   5.016
 8359SOL    HW125976   4.723   2.233   4.942
 8359SOL    HW225977   4.790   2.182   5.082
 8360SOL     OW25978   2.911   0.247   2.516
 8360SOL    HW125979   2.966   0.263   2.434
 8360SOL    HW225980   2.848   0.324   2.528
 8361SOL     OW25981   4.470   0.981   0.085
 8361SOL    HW125982   4.569   0.994   0.082
 8361SOL    HW225983   4.448   0.898   0.136
 8362SOL     OW25984   0.809   4.629   1.801
 8362SOL    HW125985   0.796   4.532   1.821
 8362SOL    HW225986   0.732   4.663   1.747
 8363SOL     OW25987   3.026   2.043   0.826
 8363SOL    HW125988   3.068   2.089   0.904
 8363SOL    HW225989   2.979   2.110   0.769
 8364SOL     OW25990   0.608   1.261   3.479
 8364SOL    HW125991   0.658   1.330   3.532
 8364SOL    HW225992   0.595   1.295   3.386
 8365SOL     OW25993   1.863   2.710   0.985
 8365SOL    HW125994   1.814   2.695   1.071
 8365SOL    HW225995   1.928   2.636   0.971
 8366SOL     OW25996   4.682   6.025   1.738
 8366SOL    HW125997   4.733   5.946   1.703
 8366SOL    HW225998   4.731   6.064   1.815
 8367SOL     OW25999   1.915   4.881   3.515
 8367SOL    HW126000   1.857   4.866   3.435
 8367SOL    HW226001   1.976   4.958   3.498
 8368SOL     OW26002   0.727   3.413   6.495
 8368SOL    HW126003   0.649   3.404   6.433
 8368SOL    HW226004   0.800   3.351   6.467
 8369SOL     OW26005   0.825   0.556   0.304
 8369SOL    HW126006   0.832   0.493   0.227
 8369SOL    HW226007   0.902   0.543   0.366
 8370SOL     OW26008   2.547   3.069   1.161
 8370SOL    HW126009   2.634   3.077   1.111
 8370SOL    HW226010   2.566   3.067   1.260
 8371SOL     OW26011   3.048   4.163   5.594
 8371SOL    HW126012   2.979   4.235   5.603
 8371SOL    HW226013   3.008   4.075   5.618
 8372SOL     OW26014   1.957   6.901   3.033
 8372SOL    HW126015   1.956   6.864   2.940
 8372SOL    HW226016   2.037   6.960   3.045
 8373SOL     OW26017   5.679   0.313   4.162
 8373SOL    HW126018   5.668   0.216   4.183
 8373SOL    HW226019   5.600   0.345   4.110
 8374SOL     OW26020   0.849   2.131   3.872
 8374SOL    HW126021   0.905   2.210   3.848
 8374SOL    HW226022   0.800   2.099   3.791
 8375SOL     OW26023   2.218   2.776   5.922
 8375SOL    HW126024   2.170   2.708   5.867
 8375SOL    HW226025   2.158   2.854   5.938
 8376SOL     OW26026   0.945   1.238   3.802
 8376SOL    HW126027   0.946   1.144   3.837
 8376SOL    HW226028   1.033   1.282   3.823
 8377SOL     OW26029   4.153   5.269   1.409
 8377SOL    HW126030   4.150   5.174   1.376
 8377SOL    HW226031   4.069   5.315   1.384
 8378SOL     OW26032   4.573   5.898   5.374
 8378SOL    HW126033   4.591   5.863   5.282
 8378SOL    HW226034   4.493   5.850   5.412
 8379SOL     OW26035   5.693   2.750   1.982
 8379SOL    HW126036   5.618   2.684   1.993
 8379SOL    HW226037   5.739   2.734   1.895
 8380SOL     OW26038   1.440   4.784   2.937
 8380SOL    HW126039   1.371   4.788   3.009
 8380SOL    HW226040   1.419   4.710   2.874
 8381SOL     OW26041   1.115   2.217   2.637
 8381SOL    HW126042   1.125   2.312   2.605
 8381SOL    HW226043   1.054   2.215   2.716
 8382SOL     OW26044   1.571   0.247   1.747
 8382SOL    HW126045   1.507   0.210   1.814
 8382SOL    HW226046   1.630   0.174   1.713
 8383SOL     OW26047   2.070   6.713   5.064
 8383SOL    HW126048   2.072   6.802   5.019
 8383SOL    HW226049   2.146   6.708   5.129
 8384SOL     OW26050   0.366   4.226   3.706
 8384SOL    HW126051   0.465   4.236   3.720
 8384SOL    HW226052   0.318   4.298   3.756
 8385SOL     OW26053   4.325   2.338   2.442
 8385SOL    HW126054   4.379   2.402   2.388
 8385SOL    HW226055   4.254   2.298   2.384
 8386SOL     OW26056   6.622   5.239   2.247
 8386SOL    HW126057   6.660   5.245   2.339
 8386SOL    HW226058   6.529   5.202   2.251
 8387SOL     OW26059   0.414   2.100   3.585
 8387SOL    HW126060   0.397   2.051   3.500
 8387SOL    HW226061   0.327   2.135   3.621
 8388SOL     OW26062   3.720   6.166   2.067
 8388SOL    HW126063   3.798   6.115   2.031
 8388SOL    HW226064   3.696   6.240   2.004
 8389SOL     OW26065   1.723   2.348   4.426
 8389SOL    HW126066   1.706   2.251   4.410
 8389SOL    HW226067   1.781   2.359   4.507
 8390SOL     OW26068   1.322   6.269   6.341
 8390SOL    HW126069   1.342   6.195   6.278
 8390SOL    HW226070   1.249   6.327   6.303
 8391SOL     OW26071   4.746   6.431   0.705
 8391SOL    HW126072   4.736   6.358   0.773
 8391SOL    HW226073   4.802   6.504   0.744
 8392SOL     OW26074   3.565   6.034   0.599
 8392SOL    HW126075   3.558   6.026   0.500
 8392SOL    HW226076   3.620   5.958   0.635
 8393SOL     OW26077   1.557   6.246   1.614
 8393SOL    HW126078   1.649   6.264   1.650
 8393SOL    HW226079   1.501   6.328   1.623
 8394SOL     OW26080   1.738   1.413   3.564
 8394SOL    HW126081   1.762   1.464   3.647
 8394SOL    HW226082   1.659   1.355   3.582
 8395SOL     OW26083   2.100   5.794   6.373
 8395SOL    HW126084   2.049   5.740   6.440
 8395SOL    HW226085   2.047   5.876   6.350
 8396SOL     OW26086   4.593   1.845   0.871
 8396SOL    HW126087   4.639   1.929   0.843
 8396SOL    HW226088   4.637   1.766   0.828
 8397SOL     OW26089   0.664   4.493   3.446
 8397SOL    HW126090   0.658   4.410   3.391
 8397SOL    HW226091   0.578   4.508   3.493
 8398SOL     OW26092   5.254   1.392   7.007
 8398SOL    HW126093   5.336   1.449   7.007
 8398SOL    HW226094   5.179   1.442   0.031
 8399SOL     OW26095   5.773   6.222   5.537
 8399SOL    HW126096   5.843   6.268   5.483
 8399SOL    HW226097   5.713   6.170   5.476
 8400SOL     OW26098   5.954   6.202   3.362
 8400SOL    HW126099   5.926   6.152   3.280
 8400SOL    HW226100   6.028   6.265   3.339
 8401SOL     OW26101   2.894   3.655   5.379
 8401SOL    HW126102   2.920   3.643   5.475
 8401SOL    HW226103   2.798   3.683   5.374
 8402SOL     OW26104   5.107   1.188   4.842
 8402SOL    HW126105   5.032   1.174   4.906
 8402SOL    HW226106   5.193   1.197   4.892
 8403SOL     OW26107   0.620   1.618   6.215
 8403SOL    HW126108   0.604   1.705   6.261
 8403SOL    HW226109   0.709   1.619   6.170
 8404SOL     OW26110   4.989   5.272   5.315
 8404SOL    HW126111   4.944   5.360   5.299
 8404SOL    HW226112   4.966   5.210   5.240
 8405SOL     OW26113   0.740   2.519   6.140
 8405SOL    HW126114   0.793   2.560   6.065
 8405SOL    HW226115   0.796   2.516   6.222
 8406SOL     OW26116   5.720   4.341   1.388
 8406SOL    HW126117   5.704   4.421   1.445
 8406SOL    HW226118   5.652   4.338   1.315
 8407SOL     OW26119   5.830   3.844   2.417
 8407SOL    HW126120   5.790   3.921   2.467
 8407SOL    HW226121   5.803   3.759   2.461
 8408SOL     OW26122   4.661   4.301   4.167
 8408SOL    HW126123   4.721   4.252   4.104
 8408SOL    HW226124   4.584   4.243   4.192
 8409SOL     OW26125   1.666   2.306   3.808
 8409SOL    HW126126   1.734   2.246   3.765
 8409SOL    HW226127   1.575   2.269   3.791
 8410SOL     OW26128   1.905   5.015   2.593
 8410SOL    HW126129   1.831   5.074   2.626
 8410SOL    HW226130   1.911   4.934   2.651
 8411SOL     OW26131   1.729   3.439   2.975
 8411SOL    HW126132   1.634   3.469   2.977
 8411SOL    HW226133   1.789   3.518   2.966
 8412SOL     OW26134   5.771   2.602   2.340
 8412SOL    HW126135   5.844   2.573   2.279
 8412SOL    HW226136   5.781   2.700   2.359
 8413SOL     OW26137   1.925   5.943   1.779
 8413SOL    HW126138   1.877   5.895   1.852
 8413SOL    HW226139   1.894   5.908   1.690
 8414SOL     OW26140   6.189   0.209   4.056
 8414SOL    HW126141   6.288   0.211   4.070
 8414SOL    HW226142   6.146   0.277   4.116
 8415SOL     OW26143   0.751   5.158   0.957
 8415SOL    HW126144   0.790   5.086   0.901
 8415SOL    HW226145   0.660   5.183   0.922
 8416SOL     OW26146   4.352   4.704   3.111
 8416SOL    HW126147   4.263   4.724   3.072
 8416SOL    HW226148   4.424   4.734   3.049
 8417SOL     OW26149   0.969   5.623   0.314
 8417SOL    HW126150   0.911   5.697   0.348
 8417SOL    HW226151   0.914   5.541   0.298
 8418SOL     OW26152   5.190   5.748   2.851
 8418SOL    HW126153   5.117   5.758   2.783
 8418SOL    HW226154   5.269   5.803   2.825
 8419SOL     OW26155   3.243   1.354   3.353
 8419SOL    HW126156   3.252   1.351   3.253
 8419SOL    HW226157   3.302   1.426   3.389
 8420SOL     OW26158   5.063   1.813   5.367
 8420SOL    HW126159   4.982   1.826   5.310
 8420SOL    HW226160   5.131   1.882   5.344
 8421SOL     OW26161   0.201   1.052   0.641
 8421SOL    HW126162   0.278   1.113   0.659
 8421SOL    HW226163   0.217   0.964   0.685
 8422SOL     OW26164   2.877   0.945   1.143
 8422SOL    HW126165   2.911   0.860   1.103
 8422SOL    HW226166   2.860   1.012   1.070
 8423SOL     OW26167   2.030   4.642   1.044
 8423SOL    HW126168   2.116   4.594   1.025
 8423SOL    HW226169   2.032   4.676   1.138
 8424SOL     OW26170   2.723   2.163   1.940
 8424SOL    HW126171   2.732   2.228   2.015
 8424SOL    HW226172   2.764   2.201   1.857
 8425SOL     OW26173   0.575   4.920   5.947
 8425SOL    HW126174   0.576   4.862   5.866
 8425SOL    HW226175   0.668   4.954   5.965
 8426SOL     OW26176   3.831   3.379   2.384
 8426SOL    HW126177   3.747   3.326   2.389
 8426SOL    HW226178   3.892   3.339   2.315
 8427SOL     OW26179   2.369   1.232   0.087
 8427SOL    HW126180   2.461   1.196   0.099
 8427SOL    HW226181   2.322   1.182   0.014
 8428SOL     OW26182   6.227   3.783   1.093
 8428SOL    HW126183   6.228   3.686   1.117
 8428SOL    HW226184   6.321   3.819   1.093
 8429SOL     OW26185   1.458   6.543   2.920
 8429SOL    HW126186   1.379   6.603   2.907
 8429SOL    HW226187   1.536   6.596   2.952
 8430SOL     OW26188   3.852   6.172   2.652
 8430SOL    HW126189   3.792   6.250   2.672
 8430SOL    HW226190   3.799   6.088   2.656
 8431SOL     OW26191   2.990   3.162   2.246
 8431SOL    HW126192   2.978   3.236   2.180
 8431SOL    HW226193   3.029   3.082   2.200
 8432SOL     OW26194   5.065   5.678   0.260
 8432SOL    HW126195   5.128   5.747   0.223
 8432SOL    HW226196   5.064   5.685   0.359
 8433SOL     OW26197   0.046   1.597   4.094
 8433SOL    HW126198   6.986   1.540   4.076
 8433SOL    HW226199   0.123   1.564   4.039
 8434SOL     OW26200   5.098   6.338   6.941
 8434SOL    HW126201   5.192   6.348   6.973
 8434SOL    HW226202   5.038   6.396   6.997
 8435SOL     OW26203   4.564   3.549   0.951
 8435SOL    HW126204   4.616   3.622   0.907
 8435SOL    HW226205   4.627   3.476   0.980
 8436SOL     OW26206   3.106   4.185   1.615
 8436SOL    HW126207   3.055   4.265   1.583
 8436SOL    HW226208   3.188   4.216   1.664
 8437SOL     OW26209   7.004   2.485   0.623
 8437SOL    HW126210   6.910   2.482   0.656
 8437SOL    HW226211   0.044   2.442   0.691
 8438SOL     OW26212   2.095   5.669   1.543
 8438SOL    HW126213   2.121   5.600   1.476
 8438SOL    HW226214   2.105   5.631   1.635
 8439SOL     OW26215   5.347   0.298   1.771
 8439SOL    HW126216   5.440   0.289   1.735
 8439SOL    HW226217   5.282   0.283   1.697
 8440SOL     OW26218   1.074   3.579   4.123
 8440SOL    HW126219   1.054   3.538   4.034
 8440SOL    HW226220   1.061   3.678   4.118
 8441SOL     OW26221   3.770   5.972   1.234
 8441SOL    HW126222   3.706   5.933   1.301
 8441SOL    HW226223   3.857   5.991   1.279
 8442SOL     OW26224   2.463   2.957   0.740
 8442SOL    HW126225   2.540   2.960   0.677
 8442SOL    HW226226   2.410   2.873   0.723
 8443SOL     OW26227   0.030   2.449   1.303
 8443SOL    HW126228   6.957   2.473   1.331
 8443SOL    HW226229   0.040   2.462   1.204
 8444SOL     OW26230   4.990   2.428   3.407
 8444SOL    HW126231   4.953   2.337   3.424
 8444SOL    HW226232   5.008   2.439   3.309
 8445SOL     OW26233   4.115   5.732   2.100
 8445SOL    HW126234   4.144   5.825   2.079
 8445SOL    HW226235   4.084   5.727   2.195
 8446SOL     OW26236   6.278   3.971   3.034
 8446SOL    HW126237   6.239   4.025   3.108
 8446SOL    HW226238   6.375   3.954   3.052
 8447SOL     OW26239   4.874   4.683   1.052
 8447SOL    HW126240   4.823   4.768   1.042
 8447SOL    HW226241   4.936   4.690   1.130
 8448SOL     OW26242   1.782   4.686   5.895
 8448SOL    HW126243   1.735   4.652   5.813
 8448SOL    HW226244   1.850   4.754   5.868
 8449SOL     OW26245   1.503   0.648   5.608
 8449SOL    HW126246   1.457   0.591   5.676
 8449SOL    HW226247   1.536   0.590   5.533
 8450SOL     OW26248   1.805   5.496   0.710
 8450SOL    HW126249   1.754   5.463   0.631
 8450SOL    HW226250   1.830   5.592   0.696
 8451SOL     OW26251   2.777   4.185   1.325
 8451SOL    HW126252   2.783   4.257   1.257
 8451SOL    HW226253   2.684   4.149   1.329
 8452SOL     OW26254   6.567   5.875   2.460
 8452SOL    HW126255   6.473   5.852   2.434
 8452SOL    HW226256   6.582   5.850   2.556
 8453SOL     OW26257   0.357   4.865   5.211
 8453SOL    HW126258   0.428   4.879   5.280
 8453SOL    HW226259   0.386   4.794   5.147
 8454SOL     OW26260   1.932   6.614   5.354
 8454SOL    HW126261   1.923   6.700   5.304
 8454SOL    HW226262   1.852   6.556   5.337
 8455SOL     OW26263   6.284   2.361   0.478
 8455SOL    HW126264   6.285   2.380   0.576
 8455SOL    HW226265   6.340   2.281   0.459
 8456SOL     OW26266   6.235   4.629   3.678
 8456SOL    HW126267   6.244   4.717   3.631
 8456SOL    HW226268   6.324   4.601   3.714
 8457SOL     OW26269   5.824   6.086   6.381
 8457SOL    HW126270   5.887   6.037   6.320
 8457SOL    HW226271   5.839   6.055   6.475
 8458SOL     OW26272   1.183   1.854   1.054
 8458SOL    HW126273   1.189   1.906   0.969
 8458SOL    HW226274   1.087   1.837   1.076
 8459SOL     OW26275   2.783   5.178   3.147
 8459SOL    HW126276   2.799   5.151   3.242
 8459SOL    HW226277   2.803   5.101   3.087
 8460SOL     OW26278   3.836   1.196   1.027
 8460SOL    HW126279   3.934   1.188   1.011
 8460SOL    HW226280   3.821   1.237   1.117
 8461SOL     OW26281   5.679   4.714   3.098
 8461SOL    HW126282   5.658   4.741   3.004
 8461SOL    HW226283   5.605   4.658   3.134
 8462SOL     OW26284   1.916   4.201   0.828
 8462SOL    HW126285   1.883   4.291   0.857
 8462SOL    HW226286   1.996   4.175   0.882
 8463SOL     OW26287   0.169   6.332   1.390
 8463SOL    HW126288   0.124   6.360   1.475
 8463SOL    HW226289   0.251   6.387   1.377
 8464SOL     OW26290   0.362   3.398   6.682
 8464SOL    HW126291   0.356   3.424   6.586
 8464SOL    HW226292   0.417   3.466   6.731
 8465SOL     OW26293   5.948   4.720   0.359
 8465SOL    HW126294   5.993   4.675   0.436
 8465SOL    HW226295   5.905   4.651   0.300
 8466SOL     OW26296   0.465   1.683   4.927
 8466SOL    HW126297   0.488   1.780   4.941
 8466SOL    HW226298   0.525   1.644   4.857
 8467SOL     OW26299   3.193   1.343   0.765
 8467SOL    HW126300   3.281   1.345   0.813
 8467SOL    HW226301   3.126   1.396   0.816
 8468SOL     OW26302   6.550   3.757   1.107
 8468SOL    HW126303   6.529   3.713   1.195
 8468SOL    HW226304   6.606   3.695   1.052
 8469SOL     OW26305   3.459   3.069   5.204
 8469SOL    HW126306   3.493   3.039   5.293
 8469SOL    HW226307   3.421   2.991   5.154
 8470SOL     OW26308   2.140   5.508   1.328
 8470SOL    HW126309   2.146   5.409   1.315
 8470SOL    HW226310   2.221   5.551   1.288
 8471SOL     OW26311   4.156   1.927   3.865
 8471SOL    HW126312   4.161   1.858   3.793
 8471SOL    HW226313   4.142   2.017   3.823
 8472SOL     OW26314   5.690   1.599   6.799
 8472SOL    HW126315   5.699   1.680   6.857
 8472SOL    HW226316   5.774   1.545   6.804
 8473SOL     OW26317   4.675   5.320   5.893
 8473SOL    HW126318   4.667   5.377   5.812
 8473SOL    HW226319   4.762   5.340   5.939
 8474SOL     OW26320   3.555   3.429   6.059
 8474SOL    HW126321   3.493   3.506   6.078
 8474SOL    HW226322   3.525   3.383   5.975
 8475SOL     OW26323   0.283   1.960   2.611
 8475SOL    HW126324   0.349   1.905   2.560
 8475SOL    HW226325   0.218   1.899   2.657
 8476SOL     OW26326   6.793   1.034   2.397
 8476SOL    HW126327   6.861   0.998   2.334
 8476SOL    HW226328   6.702   1.028   2.355
 8477SOL     OW26329   5.419   6.652   0.978
 8477SOL    HW126330   5.501   6.654   1.035
 8477SOL    HW226331   5.351   6.592   1.020
 8478SOL     OW26332   1.810   6.426   6.717
 8478SOL    HW126333   1.810   6.328   6.700
 8478SOL    HW226334   1.789   6.444   6.813
 8479SOL     OW26335   1.126   2.258   6.974
 8479SOL    HW126336   1.150   2.209   0.038
 8479SOL    HW226337   1.029   2.284   6.977
 8480SOL     OW26338   3.318   4.402   1.628
 8480SOL    HW126339   3.357   4.480   1.678
 8480SOL    HW226340   3.223   4.422   1.604
 8481SOL     OW26341   4.907   3.622   2.327
 8481SOL    HW126342   4.944   3.541   2.373
 8481SOL    HW226343   4.876   3.598   2.235
 8482SOL     OW26344   4.630   0.626   5.783
 8482SOL    HW126345   4.709   0.566   5.787
 8482SOL    HW226346   4.651   0.706   5.727
 8483SOL     OW26347   4.471   5.143   3.578
 8483SOL    HW126348   4.435   5.219   3.633
 8483SOL    HW226349   4.446   5.157   3.482
 8484SOL     OW26350   6.124   6.832   5.356
 8484SOL    HW126351   6.119   6.753   5.416
 8484SOL    HW226352   6.063   6.819   5.278
 8485SOL     OW26353   3.893   0.416   5.495
 8485SOL    HW126354   3.977   0.468   5.484
 8485SOL    HW226355   3.840   0.453   5.572
 8486SOL     OW26356   4.756   2.920   4.902
 8486SOL    HW126357   4.768   2.822   4.884
 8486SOL    HW226358   4.762   2.971   4.817
 8487SOL     OW26359   6.948   1.506   5.396
 8487SOL    HW126360   6.958   1.466   5.487
 8487SOL    HW226361   7.006   1.587   5.388
 8488SOL     OW26362   4.540   5.268   3.062
 8488SOL    HW126363   4.554   5.264   2.963
 8488SOL    HW226364   4.557   5.361   3.094
 8489SOL     OW26365   6.603   2.306   1.985
 8489SOL    HW126366   6.519   2.346   2.022
 8489SOL    HW226367   6.646   2.371   1.924
 8490SOL     OW26368   3.791   6.577   0.648
 8490SOL    HW126369   3.880   6.606   0.614
 8490SOL    HW226370   3.777   6.613   0.740
 8491SOL     OW26371   3.145   6.042   1.776
 8491SOL    HW126372   3.230   6.091   1.796
 8491SOL    HW226373   3.067   6.103   1.790
 8492SOL     OW26374   5.856   6.882   4.117
 8492SOL    HW126375   5.891   6.792   4.144
 8492SOL    HW226376   5.866   6.893   4.018
 8493SOL     OW26377   4.878   0.480   5.779
 8493SOL    HW126378   4.835   0.393   5.755
 8493SOL    HW226379   4.969   0.463   5.816
 8494SOL     OW26380   0.281   3.733   2.419
 8494SOL    HW126381   0.212   3.664   2.396
 8494SOL    HW226382   0.317   3.716   2.510
 8495SOL     OW26383   4.984   5.939   4.972
 8495SOL    HW126384   5.026   5.927   5.062
 8495SOL    HW226385   5.030   5.881   4.905
 8496SOL     OW26386   3.841   2.020   2.430
 8496SOL    HW126387   3.862   2.062   2.341
 8496SOL    HW226388   3.766   1.955   2.419
 8497SOL     OW26389   6.600   0.684   3.373
 8497SOL    HW126390   6.610   0.781   3.394
 8497SOL    HW226391   6.601   0.631   3.458
 8498SOL     OW26392   5.254   6.469   4.954
 8498SOL    HW126393   5.240   6.371   4.966
 8498SOL    HW226394   5.185   6.519   5.006
 8499SOL     OW26395   6.309   6.786   5.957
 8499SOL    HW126396   6.260   6.736   5.885
 8499SOL    HW226397   6.244   6.815   6.027
 8500SOL     OW26398   1.107   0.922   6.250
 8500SOL    HW126399   1.045   0.849   6.222
 8500SOL    HW226400   1.192   0.915   6.198
 8501SOL     OW26401   3.463   0.861   5.034
 8501SOL    HW126402   3.402   0.799   4.985
 8501SOL    HW226403   3.532   0.897   4.971
 8502SOL     OW26404   6.353   3.075   0.460
 8502SOL    HW126405   6.283   3.098   0.528
 8502SOL    HW226406   6.442   3.104   0.493
 8503SOL     OW26407   4.587   2.125   5.803
 8503SOL    HW126408   4.489   2.111   5.814
 8503SOL    HW226409   4.604   2.194   5.733
 8504SOL     OW26410   1.483   0.820   3.161
 8504SOL    HW126411   1.569   0.863   3.189
 8504SOL    HW226412   1.436   0.879   3.095
 8505SOL     OW26413   5.940   2.026   2.969
 8505SOL    HW126414   5.871   1.973   3.018
 8505SOL    HW226415   5.904   2.117   2.948
 8506SOL     OW26416   1.699   0.806   4.741
 8506SOL    HW126417   1.662   0.898   4.727
 8506SOL    HW226418   1.764   0.784   4.668
 8507SOL     OW26419   4.655   4.830   6.869
 8507SOL    HW126420   4.601   4.765   6.816
 8507SOL    HW226421   4.638   4.922   6.836
 8508SOL     OW26422   3.945   0.519   6.580
 8508SOL    HW126423   3.926   0.593   6.515
 8508SOL    HW226424   3.913   0.432   6.541
 8509SOL     OW26425   4.067   1.825   2.262
 8509SOL    HW126426   4.083   1.914   2.305
 8509SOL    HW226427   4.081   1.832   2.163
 8510SOL     OW26428   0.915   2.196   5.000
 8510SOL    HW126429   0.894   2.217   4.905
 8510SOL    HW226430   0.830   2.174   5.049
 8511SOL     OW26431   5.503   2.291   4.036
 8511SOL    HW126432   5.426   2.308   4.097
 8511SOL    HW226433   5.512   2.192   4.021
 8512SOL     OW26434   2.049   6.455   6.278
 8512SOL    HW126435   2.062   6.476   6.374
 8512SOL    HW226436   2.138   6.439   6.235
 8513SOL     OW26437   4.072   5.880   6.858
 8513SOL    HW126438   4.037   5.791   6.830
 8513SOL    HW226439   4.039   5.951   6.796
 8514SOL     OW26440   4.283   5.448   4.696
 8514SOL    HW126441   4.199   5.430   4.748
 8514SOL    HW226442   4.258   5.470   4.601
 8515SOL     OW26443   5.290   3.393   1.931
 8515SOL    HW126444   5.357   3.328   1.966
 8515SOL    HW226445   5.315   3.421   1.838
 8516SOL     OW26446   6.718   2.485   1.822
 8516SOL    HW126447   6.796   2.547   1.820
 8516SOL    HW226448   6.689   2.465   1.728
 8517SOL     OW26449   0.943   3.864   4.571
 8517SOL    HW126450   0.904   3.773   4.582
 8517SOL    HW226451   1.041   3.860   4.586
 8518SOL     OW26452   3.889   6.002   0.898
 8518SOL    HW126453   3.848   5.935   0.837
 8518SOL    HW226454   3.940   6.069   0.844
 8519SOL     OW26455   2.820   5.422   3.385
 8519SOL    HW126456   2.876   5.427   3.302
 8519SOL    HW226457   2.724   5.414   3.360
 8520SOL     OW26458   3.732   5.390   0.064
 8520SOL    HW126459   3.825   5.360   0.084
 8520SOL    HW226460   3.673   5.370   0.142
 8521SOL     OW26461   1.123   0.915   2.841
 8521SOL    HW126462   1.069   0.944   2.920
 8521SOL    HW226463   1.101   0.820   2.819
 8522SOL     OW26464   2.635   6.193   4.270
 8522SOL    HW126465   2.555   6.193   4.330
 8522SOL    HW226466   2.700   6.123   4.300
 8523SOL     OW26467   1.799   5.790   6.807
 8523SOL    HW126468   1.794   5.700   6.762
 8523SOL    HW226469   1.892   5.825   6.801
 8524SOL     OW26470   1.641   1.548   6.717
 8524SOL    HW126471   1.725   1.557   6.663
 8524SOL    HW226472   1.643   1.460   6.765
 8525SOL     OW26473   5.467   4.505   4.299
 8525SOL    HW126474   5.529   4.583   4.302
 8525SOL    HW226475   5.497   4.436   4.364
 8526SOL     OW26476   0.017   2.950   2.016
 8526SOL    HW126477   0.019   3.049   2.003
 8526SOL    HW226478   6.943   2.920   2.030
 8527SOL     OW26479   4.825   0.590   5.066
 8527SOL    HW126480   4.885   0.636   5.001
 8527SOL    HW226481   4.732   0.622   5.056
 8528SOL     OW26482   5.013   0.277   0.103
 8528SOL    HW126483   4.943   0.344   0.078
 8528SOL    HW226484   5.083   0.321   0.159
 8529SOL     OW26485   6.935   0.327   4.473
 8529SOL    HW126486   6.841   0.327   4.507
 8529SOL    HW226487   6.936   0.294   4.379
 8530SOL     OW26488   1.971   5.073   5.996
 8530SOL    HW126489   1.945   5.143   5.928
 8530SOL    HW226490   2.054   5.103   6.043
 8531SOL     OW26491   3.641   5.844   2.966
 8531SOL    HW126492   3.733   5.883   2.969
 8531SOL    HW226493   3.641   5.757   3.015
 8532SOL     OW26494   1.148   4.044   6.860
 8532SOL    HW126495   1.085   4.030   6.785
 8532SOL    HW226496   1.157   3.959   6.912
 8533SOL     OW26497   3.388   0.391   5.924
 8533SOL    HW126498   3.424   0.386   6.017
 8533SOL    HW226499   3.392   0.486   5.892
 8534SOL     OW26500   2.773   2.448   0.893
 8534SOL    HW126501   2.714   2.518   0.854
 8534SOL    HW226502   2.834   2.413   0.821
 8535SOL     OW26503   0.316   2.366   6.064
 8535SOL    HW126504   0.357   2.456   6.078
 8535SOL    HW226505   0.293   2.326   6.153
 8536SOL     OW26506   6.499   0.628   6.291
 8536SOL    HW126507   6.587   0.664   6.323
 8536SOL    HW226508   6.478   0.665   6.201
 8537SOL     OW26509   3.940   6.036   3.110
 8537SOL    HW126510   3.946   5.973   3.032
 8537SOL    HW226511   3.981   5.993   3.190
 8538SOL     OW26512   4.177   1.331   5.086
 8538SOL    HW126513   4.188   1.315   5.184
 8538SOL    HW226514   4.224   1.416   5.061
 8539SOL     OW26515   0.577   3.220   2.790
 8539SOL    HW126516   0.546   3.306   2.750
 8539SOL    HW226517   0.545   3.214   2.884
 8540SOL     OW26518   4.513   6.098   5.948
 8540SOL    HW126519   4.469   6.132   6.031
 8540SOL    HW226520   4.603   6.061   5.971
 8541SOL     OW26521   3.353   5.722   5.704
 8541SOL    HW126522   3.360   5.776   5.619
 8541SOL    HW226523   3.442   5.685   5.727
 8542SOL     OW26524   1.669   5.173   5.753
 8542SOL    HW126525   1.669   5.092   5.812
 8542SOL    HW226526   1.752   5.227   5.771
 8543SOL     OW26527   3.683   1.774   5.501
 8543SOL    HW126528   3.730   1.846   5.450
 8543SOL    HW226529   3.751   1.718   5.549
 8544SOL     OW26530   4.932   3.728   5.496
 8544SOL    HW126531   4.922   3.664   5.572
 8544SOL    HW226532   5.021   3.715   5.454
 8545SOL     OW26533   2.215   0.543   5.921
 8545SOL    HW126534   2.145   0.474   5.937
 8545SOL    HW226535   2.304   0.498   5.910
 8546SOL     OW26536   2.562   1.159   4.076
 8546SOL    HW126537   2.522   1.203   4.156
 8546SOL    HW226538   2.559   1.059   4.088
 8547SOL     OW26539   5.884   5.234   5.338
 8547SOL    HW126540   5.791   5.266   5.357
 8547SOL    HW226541   5.937   5.230   5.423
 8548SOL     OW26542   1.513   4.454   4.378
 8548SOL    HW126543   1.570   4.409   4.446
 8548SOL    HW226544   1.449   4.516   4.424
 8549SOL     OW26545   3.361   0.255   3.767
 8549SOL    HW126546   3.369   0.267   3.866
 8549SOL    HW226547   3.448   0.221   3.731
 8550SOL     OW26548   0.676   3.434   4.952
 8550SOL    HW126549   0.650   3.346   4.911
 8550SOL    HW226550   0.656   3.432   5.050
 8551SOL     OW26551   3.460   1.801   3.525
 8551SOL    HW126552   3.480   1.894   3.496
 8551SOL    HW226553   3.361   1.790   3.536
 8552SOL     OW26554   4.208   1.083   2.078
 8552SOL    HW126555   4.142   1.153   2.105
 8552SOL    HW226556   4.201   1.005   2.141
 8553SOL     OW26557   5.523   3.422   0.776
 8553SOL    HW126558   5.605   3.479   0.782
 8553SOL    HW226559   5.466   3.454   0.701
 8554SOL     OW26560   0.643   1.115   6.868
 8554SOL    HW126561   0.583   1.035   6.878
 8554SOL    HW226562   0.722   1.106   6.928
 8555SOL     OW26563   3.407   1.862   3.779
 8555SOL    HW126564   3.451   1.950   3.796
 8555SOL    HW226565   3.442   1.822   3.694
 8556SOL     OW26566   0.840   3.974   5.218
 8556SOL    HW126567   0.778   3.916   5.271
 8556SOL    HW226568   0.804   3.984   5.125
 8557SOL     OW26569   6.003   0.697   0.721
 8557SOL    HW126570   6.010   0.709   0.820
 8557SOL    HW226571   5.923   0.746   0.687
 8558SOL     OW26572   2.709   5.922   3.279
 8558SOL    HW126573   2.759   5.836   3.287
 8558SOL    HW226574   2.611   5.903   3.275
 8559SOL     OW26575   1.541   3.005   3.558
 8559SOL    HW126576   1.450   2.963   3.555
 8559SOL    HW226577   1.556   3.061   3.477
 8560SOL     OW26578   3.562   4.323   1.487
 8560SOL    HW126579   3.603   4.252   1.545
 8560SOL    HW226580   3.465   4.332   1.509
 8561SOL     OW26581   3.673   0.711   2.052
 8561SOL    HW126582   3.614   0.649   2.001
 8561SOL    HW226583   3.647   0.711   2.148
 8562SOL     OW26584   5.361   3.493   6.079
 8562SOL    HW126585   5.442   3.504   6.138
 8562SOL    HW226586   5.349   3.396   6.056
 8563SOL     OW26587   0.501   4.525   3.035
 8563SOL    HW126588   0.540   4.497   3.123
 8563SOL    HW226589   0.484   4.624   3.037
 8564SOL     OW26590   4.306   6.146   6.822
 8564SOL    HW126591   4.281   6.053   6.794
 8564SOL    HW226592   4.341   6.144   6.916
 8565SOL     OW26593   0.907   4.894   0.876
 8565SOL    HW126594   0.968   4.924   0.803
 8565SOL    HW226595   0.961   4.860   0.953
 8566SOL     OW26596   2.038   0.932   3.090
 8566SOL    HW126597   2.095   1.007   3.123
 8566SOL    HW226598   2.082   0.889   3.012
 8567SOL     OW26599   1.652   3.376   0.440
 8567SOL    HW126600   1.680   3.300   0.499
 8567SOL    HW226601   1.623   3.341   0.352
 8568SOL     OW26602   5.909   6.595   6.523
 8568SOL    HW126603   5.860   6.662   6.580
 8568SOL    HW226604   5.914   6.629   6.429
 8569SOL     OW26605   4.270   1.667   6.070
 8569SOL    HW126606   4.364   1.680   6.039
 8569SOL    HW226607   4.222   1.605   6.007
 8570SOL     OW26608   2.088   2.425   4.293
 8570SOL    HW126609   2.083   2.467   4.383
 8570SOL    HW226610   2.141   2.340   4.298
 8571SOL     OW26611   1.317   0.970   3.845
 8571SOL    HW126612   1.385   0.934   3.781
 8571SOL    HW226613   1.225   0.957   3.807
 8572SOL     OW26614   2.648   3.181   6.179
 8572SOL    HW126615   2.612   3.167   6.086
 8572SOL    HW226616   2.701   3.266   6.181
 8573SOL     OW26617   1.811   5.926   6.196
 8573SOL    HW126618   1.868   6.007   6.210
 8573SOL    HW226619   1.821   5.893   6.103
 8574SOL     OW26620   5.870   2.349   5.463
 8574SOL    HW126621   5.862   2.310   5.554
 8574SOL    HW226622   5.920   2.435   5.467
 8575SOL     OW26623   2.751   6.412   4.178
 8575SOL    HW126624   2.719   6.326   4.219
 8575SOL    HW226625   2.829   6.447   4.230
 8576SOL     OW26626   1.283   3.610   4.752
 8576SOL    HW126627   1.283   3.543   4.825
 8576SOL    HW226628   1.333   3.574   4.673
 8577SOL     OW26629   1.885   1.027   0.499
 8577SOL    HW126630   1.815   1.089   0.463
 8577SOL    HW226631   1.963   1.081   0.531
 8578SOL     OW26632   1.603   0.356   5.819
 8578SOL    HW126633   1.678   0.337   5.755
 8578SOL    HW226634   1.624   0.439   5.870
 8579SOL     OW26635   2.663   0.032   2.359
 8579SOL    HW126636   2.707   0.011   2.271
 8579SOL    HW226637   2.727   0.016   2.433
 8580SOL     OW26638   1.419   0.634   1.926
 8580SOL    HW126639   1.463   0.674   1.845
 8580SOL    HW226640   1.333   0.592   1.899
 8581SOL     OW26641   4.141   3.392   3.645
 8581SOL    HW126642   4.111   3.307   3.602
 8581SOL    HW226643   4.241   3.393   3.649
 8582SOL     OW26644   4.967   5.722   5.854
 8582SOL    HW126645   4.942   5.749   5.761
 8582SOL    HW226646   4.992   5.804   5.906
 8583SOL     OW26647   3.240   0.556   2.719
 8583SOL    HW126648   3.323   0.552   2.774
 8583SOL    HW226649   3.160   0.536   2.776
 8584SOL     OW26650   5.388   2.552   5.477
 8584SOL    HW126651   5.416   2.456   5.476
 8584SOL    HW226652   5.289   2.557   5.493
 8585SOL     OW26653   4.576   2.643   3.183
 8585SOL    HW126654   4.619   2.568   3.233
 8585SOL    HW226655   4.477   2.627   3.177
 8586SOL     OW26656   6.411   7.005   5.791
 8586SOL    HW126657   6.452   6.953   5.717
 8586SOL    HW226658   6.349   6.946   5.843
 8587SOL     OW26659   6.544   0.115   0.893
 8587SOL    HW126660   6.481   0.192   0.894
 8587SOL    HW226661   6.526   0.056   0.972
 8588SOL     OW26662   1.887   2.007   5.611
 8588SOL    HW126663   1.894   1.944   5.688
 8588SOL    HW226664   1.949   1.978   5.538
 8589SOL     OW26665   5.991   3.354   6.666
 8589SOL    HW126666   6.061   3.407   6.715
 8589SOL    HW226667   5.949   3.289   6.730
 8590SOL     OW26668   0.961   1.010   3.033
 8590SOL    HW126669   0.953   1.092   2.975
 8590SOL    HW226670   0.909   1.023   3.117
 8591SOL     OW26671   0.552   4.094   5.866
 8591SOL    HW126672   0.474   4.042   5.832
 8591SOL    HW226673   0.530   4.191   5.866
 8592SOL     OW26674   0.119   2.350   4.598
 8592SOL    HW126675   0.063   2.383   4.674
 8592SOL    HW226676   0.145   2.428   4.540
 8593SOL     OW26677   6.555   1.234   0.438
 8593SOL    HW126678   6.524   1.153   0.486
 8593SOL    HW226679   6.611   1.290   0.499
 8594SOL     OW26680   6.252   2.856   6.236
 8594SOL    HW126681   6.239   2.814   6.325
 8594SOL    HW226682   6.263   2.785   6.166
 8595SOL     OW26683   5.806   6.417   2.496
 8595SOL    HW126684   5.807   6.317   2.497
 8595SOL    HW226685   5.712   6.449   2.511
 8596SOL     OW26686   0.521   2.839   5.358
 8596SOL    HW126687   0.445   2.775   5.367
 8596SOL    HW226688   0.561   2.857   5.448
 8597SOL     OW26689   6.297   2.105   5.555
 8597SOL    HW126690   6.298   2.032   5.623
 8597SOL    HW226691   6.361   2.177   5.582
 8598SOL     OW26692   6.443   0.410   5.909
 8598SOL    HW126693   6.530   0.426   5.956
 8598SOL    HW226694   6.450   0.439   5.814
 8599SOL     OW26695   5.498   4.271   5.077
 8599SOL    HW126696   5.551   4.192   5.108
 8599SOL    HW226697   5.400   4.248   5.080
 8600SOL     OW26698   3.786   2.954   1.989
 8600SOL    HW126699   3.736   2.894   1.927
 8600SOL    HW226700   3.724   2.988   2.060
 8601SOL     OW26701   4.869   5.125   1.893
 8601SOL    HW126702   4.839   5.030   1.878
 8601SOL    HW226703   4.792   5.178   1.928
 8602SOL     OW26704   1.776   6.170   5.062
 8602SOL    HW126705   1.690   6.193   5.107
 8602SOL    HW226706   1.784   6.221   4.976
 8603SOL     OW26707   0.860   1.054   7.001
 8603SOL    HW126708   0.906   1.085   0.064
 8603SOL    HW226709   0.927   1.014   6.939
 8604SOL     OW26710   1.872   5.554   6.036
 8604SOL    HW126711   1.808   5.581   6.107
 8604SOL    HW226712   1.966   5.560   6.071
 8605SOL     OW26713   6.719   4.544   3.985
 8605SOL    HW126714   6.687   4.608   3.915
 8605SOL    HW226715   6.681   4.454   3.967
 8606SOL     OW26716   0.783   0.204   6.219
 8606SOL    HW126717   0.851   0.197   6.145
 8606SOL    HW226718   0.761   0.112   6.251
 8607SOL     OW26719   2.921   2.853   1.677
 8607SOL    HW126720   2.968   2.770   1.709
 8607SOL    HW226721   2.835   2.827   1.633
 8608SOL     OW26722   1.895   5.195   2.225
 8608SOL    HW126723   1.863   5.134   2.153
 8608SOL    HW226724   1.935   5.142   2.299
 8609SOL     OW26725   4.843   2.399   4.240
 8609SOL    HW126726   4.931   2.395   4.288
 8609SOL    HW226727   4.831   2.318   4.183
 8610SOL     OW26728   0.087   5.296   2.520
 8610SOL    HW126729   0.001   5.326   2.563
 8610SOL    HW226730   0.071   5.211   2.471
 8611SOL     OW26731   2.054   1.678   5.429
 8611SOL    HW126732   2.150   1.670   5.404
 8611SOL    HW226733   2.047   1.688   5.529
 8612SOL     OW26734   3.207   3.045   5.757
 8612SOL    HW126735   3.306   3.043   5.765
 8612SOL    HW226736   3.166   3.003   5.839
 8613SOL     OW26737   2.888   3.460   3.371
 8613SOL    HW126738   2.836   3.468   3.456
 8613SOL    HW226739   2.918   3.366   3.359
 8614SOL     OW26740   0.072   3.186   3.898
 8614SOL    HW126741   0.078   3.106   3.838
 8614SOL    HW226742   0.159   3.198   3.947
 8615SOL     OW26743   3.940   0.902   5.110
 8615SOL    HW126744   3.848   0.876   5.139
 8615SOL    HW226745   3.953   0.875   5.014
 8616SOL     OW26746   5.840   3.788   5.252
 8616SOL    HW126747   5.790   3.735   5.184
 8616SOL    HW226748   5.896   3.857   5.206
 8617SOL     OW26749   0.746   0.113   4.288
 8617SOL    HW126750   0.789   0.131   4.199
 8617SOL    HW226751   0.744   0.198   4.341
 8618SOL     OW26752   6.869   5.265   0.408
 8618SOL    HW126753   6.771   5.259   0.392
 8618SOL    HW226754   6.904   5.177   0.441
 8619SOL     OW26755   5.712   5.292   6.387
 8619SOL    HW126756   5.665   5.253   6.308
 8619SOL    HW226757   5.765   5.372   6.357
 8620SOL     OW26758   1.459   6.221   4.095
 8620SOL    HW126759   1.449   6.183   4.003
 8620SOL    HW226760   1.556   6.235   4.114
 8621SOL     OW26761   6.517   3.738   1.658
 8621SOL    HW126762   6.479   3.653   1.620
 8621SOL    HW226763   6.462   3.816   1.626
 8622SOL     OW26764   0.816   6.217   1.849
 8622SOL    HW126765   0.855   6.138   1.802
 8622SOL    HW226766   0.722   6.196   1.877
 8623SOL     OW26767   1.923   1.989   3.294
 8623SOL    HW126768   1.981   2.051   3.242
 8623SOL    HW226769   1.973   1.957   3.375
 8624SOL     OW26770   3.012   3.707   6.081
 8624SOL    HW126771   3.093   3.741   6.034
 8624SOL    HW226772   3.029   3.614   6.114
 8625SOL     OW26773   4.475   3.510   6.212
 8625SOL    HW126774   4.542   3.501   6.138
 8625SOL    HW226775   4.519   3.486   6.299
 8626SOL     OW26776   4.950   1.620   0.373
 8626SOL    HW126777   4.892   1.680   0.319
 8626SOL    HW226778   5.046   1.637   0.349
 8627SOL     OW26779   0.040   0.228   2.294
 8627SOL    HW126780   0.092   0.312   2.306
 8627SOL    HW226781   0.035   0.206   2.196
 8628SOL     OW26782   1.169   6.556   0.525
 8628SOL    HW126783   1.105   6.502   0.471
 8628SOL    HW226784   1.261   6.546   0.488
 8629SOL     OW26785   0.032   0.973   4.550
 8629SOL    HW126786   7.016   0.933   4.466
 8629SOL    HW226787   0.132   0.976   4.545
 8630SOL     OW26788   5.058   3.178   1.729
 8630SOL    HW126789   5.024   3.263   1.690
 8630SOL    HW226790   5.019   3.165   1.820
 8631SOL     OW26791   1.448   6.053   0.066
 8631SOL    HW126792   1.476   5.973   0.014
 8631SOL    HW226793   1.458   6.135   0.010
 8632SOL     OW26794   6.084   6.028   3.520
 8632SOL    HW126795   6.031   6.092   3.463
 8632SOL    HW226796   6.022   5.959   3.558
 8633SOL     OW26797   6.719   3.855   5.756
 8633SOL    HW126798   6.750   3.801   5.677
 8633SOL    HW226799   6.620   3.862   5.753
 8634SOL     OW26800   4.881   4.509   6.738
 8634SOL    HW126801   4.879   4.417   6.778
 8634SOL    HW226802   4.901   4.502   6.640
 8635SOL     OW26803   5.336   2.110   6.677
 8635SOL    HW126804   5.265   2.180   6.690
 8635SOL    HW226805   5.309   2.050   6.601
 8636SOL     OW26806   4.584   5.951   0.152
 8636SOL    HW126807   4.631   6.039   0.151
 8636SOL    HW226808   4.631   5.889   0.214
 8637SOL     OW26809   3.129   2.618   0.705
 8637SOL    HW126810   3.113   2.553   0.779
 8637SOL    HW226811   3.190   2.691   0.737
 8638SOL     OW26812   4.848   2.095   4.422
 8638SOL    HW126813   4.794   2.163   4.471
 8638SOL    HW226814   4.846   2.008   4.471
 8639SOL     OW26815   3.896   4.167   0.499
 8639SOL    HW126816   3.968   4.185   0.432
 8639SOL    HW226817   3.909   4.076   0.537
 8640SOL     OW26818   2.926   2.532   6.532
 8640SOL    HW126819   2.995   2.504   6.466
 8640SOL    HW226820   2.898   2.453   6.587
 8641SOL     OW26821   3.546   5.203   3.072
 8641SOL    HW126822   3.511   5.111   3.054
 8641SOL    HW226823   3.475   5.271   3.051
 8642SOL     OW26824   2.380   6.321   3.329
 8642SOL    HW126825   2.350   6.317   3.424
 8642SOL    HW226826   2.306   6.358   3.272
 8643SOL     OW26827   3.663   6.144   1.025
 8643SOL    HW126828   3.640   6.101   1.113
 8643SOL    HW226829   3.741   6.096   0.984
 8644SOL     OW26830   5.236   2.364   6.424
 8644SOL    HW126831   5.182   2.339   6.505
 8644SOL    HW226832   5.329   2.386   6.451
 8645SOL     OW26833   5.132   5.582   2.526
 8645SOL    HW126834   5.185   5.498   2.512
 8645SOL    HW226835   5.181   5.659   2.485
 8646SOL     OW26836   6.727   1.901   4.209
 8646SOL    HW126837   6.651   1.878   4.270
 8646SOL    HW226838   6.711   1.859   4.119
 8647SOL     OW26839   2.084   4.605   1.937
 8647SOL    HW126840   2.029   4.676   1.981
 8647SOL    HW226841   2.180   4.635   1.934
 8648SOL     OW26842   6.012   5.644   6.308
 8648SOL    HW126843   6.035   5.644   6.405
 8648SOL    HW226844   5.951   5.720   6.287
 8649SOL     OW26845   5.431   2.657   2.021
 8649SOL    HW126846   5.371   2.690   1.948
 8649SOL    HW226847   5.379   2.649   2.106
 8650SOL     OW26848   1.258   0.935   5.041
 8650SOL    HW126849   1.205   0.927   4.957
 8650SOL    HW226850   1.344   0.885   5.031
 8651SOL     OW26851   4.691   1.283   1.544
 8651SOL    HW126852   4.778   1.299   1.590
 8651SOL    HW226853   4.684   1.188   1.515
 8652SOL     OW26854   6.561   3.011   5.010
 8652SOL    HW126855   6.574   2.965   4.922
 8652SOL    HW226856   6.526   3.103   4.994
 8653SOL     OW26857   4.580   0.614   0.145
 8653SOL    HW126858   4.554   0.637   0.051
 8653SOL    HW226859   4.660   0.668   0.172
 8654SOL     OW26860   0.271   4.299   3.228
 8654SOL    HW126861   0.299   4.387   3.266
 8654SOL    HW226862   0.199   4.313   3.160
 8655SOL     OW26863   1.310   6.934   4.980
 8655SOL    HW126864   1.314   6.835   4.993
 8655SOL    HW226865   1.258   6.954   4.897
 8656SOL     OW26866   3.548   6.111   0.330
 8656SOL    HW126867   3.575   6.024   0.290
 8656SOL    HW226868   3.449   6.124   0.319
 8657SOL     OW26869   3.167   1.888   2.352
 8657SOL    HW126870   3.185   1.820   2.423
 8657SOL    HW226871   3.143   1.843   2.266
 8658SOL     OW26872   6.362   4.078   0.876
 8658SOL    HW126873   6.286   4.052   0.936
 8658SOL    HW226874   6.331   4.077   0.781
 8659SOL     OW26875   3.651   0.153   3.787
 8659SOL    HW126876   3.723   0.208   3.830
 8659SOL    HW226877   3.615   0.087   3.853
 8660SOL     OW26878   0.113   4.731   0.997
 8660SOL    HW126879   0.176   4.665   1.037
 8660SOL    HW226880   0.020   4.695   1.002
 8661SOL     OW26881   5.712   3.269   1.719
 8661SOL    HW126882   5.725   3.316   1.632
 8661SOL    HW226883   5.626   3.219   1.718
 8662SOL     OW26884   1.651   2.726   2.603
 8662SOL    HW126885   1.744   2.739   2.637
 8662SOL    HW226886   1.618   2.636   2.630
 8663SOL     OW26887   2.844   5.252   2.067
 8663SOL    HW126888   2.780   5.295   2.003
 8663SOL    HW226889   2.936   5.291   2.052
 8664SOL     OW26890   3.274   5.839   4.337
 8664SOL    HW126891   3.269   5.788   4.251
 8664SOL    HW226892   3.360   5.890   4.341
 8665SOL     OW26893   0.756   3.575   6.704
 8665SOL    HW126894   0.731   3.496   6.648
 8665SOL    HW226895   0.788   3.543   6.793
 8666SOL     OW26896   5.223   6.971   2.653
 8666SOL    HW126897   5.256   6.994   2.745
 8666SOL    HW226898   5.215   0.035   2.599
 8667SOL     OW26899   4.128   2.059   2.475
 8667SOL    HW126900   4.153   2.131   2.411
 8667SOL    HW226901   4.029   2.054   2.483
 8668SOL     OW26902   3.578   2.096   3.184
 8668SOL    HW126903   3.586   1.998   3.163
 8668SOL    HW226904   3.492   2.131   3.148
 8669SOL     OW26905   0.441   5.830   5.730
 8669SOL    HW126906   0.537   5.846   5.755
 8669SOL    HW226907   0.436   5.800   5.635
 8670SOL     OW26908   7.005   5.180   4.740
 8670SOL    HW126909   0.042   5.164   4.821
 8670SOL    HW226910   0.006   5.111   4.671
 8671SOL     OW26911   0.211   3.868   3.385
 8671SOL    HW126912   0.310   3.857   3.398
 8671SOL    HW226913   0.183   3.959   3.417
 8672SOL     OW26914   6.532   1.447   2.573
 8672SOL    HW126915   6.500   1.519   2.512
 8672SOL    HW226916   6.456   1.419   2.633
 8673SOL     OW26917   7.000   1.486   1.694
 8673SOL    HW126918   0.038   1.406   1.708
 8673SOL    HW226919   6.976   1.525   1.783
 8674SOL     OW26920   0.278   3.026   4.174
 8674SOL    HW126921   0.210   2.961   4.208
 8674SOL    HW226922   0.365   2.979   4.158
 8675SOL     OW26923   5.294   2.494   5.013
 8675SOL    HW126924   5.282   2.591   4.989
 8675SOL    HW226925   5.208   2.446   4.998
 8676SOL     OW26926   4.945   2.942   0.725
 8676SOL    HW126927   4.989   2.913   0.809
 8676SOL    HW226928   4.850   2.911   0.724
 8677SOL     OW26929   3.128   0.844   0.175
 8677SOL    HW126930   3.119   0.900   0.093
 8677SOL    HW226931   3.134   0.748   0.150
 8678SOL     OW26932   3.075   1.673   6.872
 8678SOL    HW126933   3.001   1.700   6.811
 8678SOL    HW226934   3.043   1.676   6.967
 8679SOL     OW26935   1.839   1.990   6.923
 8679SOL    HW126936   1.938   1.976   6.923
 8679SOL    HW226937   1.795   1.911   6.880
 8680SOL     OW26938   0.433   0.259   1.691
 8680SOL    HW126939   0.445   0.192   1.764
 8680SOL    HW226940   0.432   0.351   1.730
 8681SOL     OW26941   5.372   5.341   1.138
 8681SOL    HW126942   5.283   5.294   1.132
 8681SOL    HW226943   5.377   5.411   1.068
 8682SOL     OW26944   1.648   1.557   1.889
 8682SOL    HW126945   1.732   1.512   1.919
 8682SOL    HW226946   1.604   1.601   1.967
 8683SOL     OW26947   2.450   4.471   4.496
 8683SOL    HW126948   2.380   4.515   4.439
 8683SOL    HW226949   2.453   4.373   4.477
 8684SOL     OW26950   2.117   3.932   3.683
 8684SOL    HW126951   2.135   4.030   3.677
 8684SOL    HW226952   2.118   3.892   3.591
 8685SOL     OW26953   4.946   3.204   5.694
 8685SOL    HW126954   4.872   3.258   5.653
 8685SOL    HW226955   4.991   3.150   5.623
 8686SOL     OW26956   1.261   4.763   2.497
 8686SOL    HW126957   1.302   4.679   2.533
 8686SOL    HW226958   1.163   4.763   2.516
 8687SOL     OW26959   6.304   3.729   5.327
 8687SOL    HW126960   6.279   3.727   5.230
 8687SOL    HW226961   6.230   3.688   5.381
 8688SOL     OW26962   1.468   3.055   4.653
 8688SOL    HW126963   1.430   3.049   4.745
 8688SOL    HW226964   1.489   2.963   4.620
 8689SOL     OW26965   5.399   3.413   1.338
 8689SOL    HW126966   5.477   3.461   1.379
 8689SOL    HW226967   5.433   3.339   1.280
 8690SOL     OW26968   1.607   2.435   2.072
 8690SOL    HW126969   1.647   2.344   2.080
 8690SOL    HW226970   1.645   2.494   2.143
 8691SOL     OW26971   3.059   0.932   6.960
 8691SOL    HW126972   3.099   0.930   6.869
 8691SOL    HW226973   2.959   0.942   6.952
 8692SOL     OW26974   5.826   2.319   3.993
 8692SOL    HW126975   5.745   2.374   3.972
 8692SOL    HW226976   5.883   2.368   4.060
 8693SOL     OW26977   0.504   0.001   5.222
 8693SOL    HW126978   0.584   6.966   5.247
 8693SOL    HW226979   0.518   0.096   5.250
 8694SOL     OW26980   3.959   3.739   5.572
 8694SOL    HW126981   3.965   3.684   5.489
 8694SOL    HW226982   4.042   3.793   5.583
 8695SOL     OW26983   4.063   4.236   1.570
 8695SOL    HW126984   4.082   4.225   1.472
 8695SOL    HW226985   4.099   4.157   1.620
 8696SOL     OW26986   2.880   5.044   6.757
 8696SOL    HW126987   2.818   5.025   6.680
 8696SOL    HW226988   2.913   5.138   6.750
 8697SOL     OW26989   0.667   2.930   4.546
 8697SOL    HW126990   0.635   2.911   4.453
 8697SOL    HW226991   0.635   2.859   4.608
 8698SOL     OW26992   5.876   4.338   6.287
 8698SOL    HW126993   5.975   4.334   6.275
 8698SOL    HW226994   5.835   4.250   6.263
 8699SOL     OW26995   2.080   1.815   1.351
 8699SOL    HW126996   2.057   1.911   1.367
 8699SOL    HW226997   2.176   1.800   1.376
 8700SOL     OW26998   0.593   2.133   4.790
 8700SOL    HW126999   0.617   2.129   4.693
 8700SOL    HW227000   0.496   2.156   4.800
 8701SOL     OW27001   2.376   3.114   6.977
 8701SOL    HW127002   2.459   3.064   7.003
 8701SOL    HW227003   2.319   3.129   0.038
 8702SOL     OW27004   5.891   4.581   0.705
 8702SOL    HW127005   5.875   4.543   0.796
 8702SOL    HW227006   5.923   4.676   0.714
 8703SOL     OW27007   2.358   5.253   0.853
 8703SOL    HW127008   2.403   5.327   0.904
 8703SOL    HW227009   2.267   5.238   0.891
 8704SOL     OW27010   6.637   1.254   3.550
 8704SOL    HW127011   6.684   1.306   3.479
 8704SOL    HW227012   6.704   1.210   3.610
 8705SOL     OW27013   3.560   2.064   0.122
 8705SOL    HW127014   3.574   1.967   0.140
 8705SOL    HW227015   3.484   2.098   0.177
 8706SOL     OW27016   4.709   2.848   5.203
 8706SOL    HW127017   4.733   2.871   5.109
 8706SOL    HW227018   4.611   2.833   5.210
 8707SOL     OW27019   1.509   1.084   4.421
 8707SOL    HW127020   1.483   1.148   4.349
 8707SOL    HW227021   1.581   1.023   4.387
 8708SOL     OW27022   5.294   2.478   1.030
 8708SOL    HW127023   5.328   2.422   1.105
 8708SOL    HW227024   5.326   2.440   0.943
 8709SOL     OW27025   6.408   6.377   4.201
 8709SOL    HW127026   6.484   6.384   4.137
 8709SOL    HW227027   6.436   6.412   4.290
 8710SOL     OW27028   2.199   2.801   3.507
 8710SOL    HW127029   2.225   2.819   3.602
 8710SOL    HW227030   2.133   2.727   3.504
 8711SOL     OW27031   1.140   1.949   2.202
 8711SOL    HW127032   1.102   2.037   2.233
 8711SOL    HW227033   1.082   1.875   2.236
 8712SOL     OW27034   1.649   3.584   4.222
 8712SOL    HW127035   1.664   3.638   4.305
 8712SOL    HW227036   1.558   3.543   4.224
 8713SOL     OW27037   0.088   4.686   3.625
 8713SOL    HW127038   0.041   4.649   3.705
 8713SOL    HW227039   0.171   4.733   3.654
 8714SOL     OW27040   0.925   4.498   6.165
 8714SOL    HW127041   0.881   4.409   6.154
 8714SOL    HW227042   0.888   4.543   6.246
 8715SOL     OW27043   1.993   4.864   1.677
 8715SOL    HW127044   1.948   4.951   1.697
 8715SOL    HW227045   1.978   4.840   1.581
 8716SOL     OW27046   5.317   6.969   2.925
 8716SOL    HW127047   5.241   6.961   2.989
 8716SOL    HW227048   5.312   0.037   2.878
 8717SOL     OW27049   4.171   2.275   6.756
 8717SOL    HW127050   4.158   2.362   6.804
 8717SOL    HW227051   4.219   2.211   6.816
 8718SOL     OW27052   3.103   5.145   5.994
 8718SOL    HW127053   3.028   5.207   5.967
 8718SOL    HW227054   3.147   5.181   6.076
 8719SOL     OW27055   3.124   2.223   4.334
 8719SOL    HW127056   3.196   2.185   4.393
 8719SOL    HW227057   3.038   2.224   4.385
 8720SOL     OW27058   0.145   6.723   5.107
 8720SOL    HW127059   0.242   6.749   5.104
 8720SOL    HW227060   0.102   6.766   5.186
 8721SOL     OW27061   0.453   0.492   1.847
 8721SOL    HW127062   0.499   0.477   1.935
 8721SOL    HW227063   0.364   0.535   1.864
 8722SOL     OW27064   3.832   1.070   0.400
 8722SOL    HW127065   3.907   1.011   0.370
 8722SOL    HW227066   3.762   1.015   0.445
 8723SOL     OW27067   3.645   0.176   2.503
 8723SOL    HW127068   3.586   0.255   2.487
 8723SOL    HW227069   3.716   0.172   2.432
 8724SOL     OW27070   4.857   0.557   5.324
 8724SOL    HW127071   4.784   0.503   5.364
 8724SOL    HW227072   4.846   0.559   5.224
 8725SOL     OW27073   6.770   1.319   2.527
 8725SOL    HW127074   6.684   1.370   2.522
 8725SOL    HW227075   6.757   1.228   2.487
 8726SOL     OW27076   6.949   1.097   0.654
 8726SOL    HW127077   0.019   1.064   0.625
 8726SOL    HW227078   6.880   1.028   0.635
 8727SOL     OW27079   4.746   5.641   6.020
 8727SOL    HW127080   4.658   5.639   5.972
 8727SOL    HW227081   4.816   5.678   5.960
 8728SOL     OW27082   5.635   6.645   4.415
 8728SOL    HW127083   5.613   6.565   4.473
 8728SOL    HW227084   5.634   6.617   4.319
 8729SOL     OW27085   5.583   6.281   6.629
 8729SOL    HW127086   5.497   6.250   6.669
 8729SOL    HW227087   5.653   6.287   6.699
 8730SOL     OW27088   4.328   5.130   1.617
 8730SOL    HW127089   4.291   5.190   1.546
 8730SOL    HW227090   4.370   5.186   1.689
 8731SOL     OW27091   7.017   2.347   4.079
 8731SOL    HW127092   0.056   2.318   4.003
 8731SOL    HW227093   6.933   2.293   4.079
 8732SOL     OW27094   5.451   6.298   5.455
 8732SOL    HW127095   5.545   6.264   5.455
 8732SOL    HW227096   5.394   6.237   5.511
 8733SOL     OW27097   5.774   4.363   2.189
 8733SOL    HW127098   5.843   4.323   2.249
 8733SOL    HW227099   5.684   4.328   2.213
 8734SOL     OW27100   0.417   6.145   1.717
 8734SOL    HW127101   0.416   6.083   1.639
 8734SOL    HW227102   0.350   6.218   1.703
 8735SOL     OW27103   1.551   2.049   6.992
 8735SOL    HW127104   1.581   1.964   6.950
 8735SOL    HW227105   1.557   2.123   6.925
 8736SOL     OW27106   1.073   5.881   3.861
 8736SOL    HW127107   1.111   5.789   3.854
 8736SOL    HW227108   0.984   5.884   3.816
 8737SOL     OW27109   0.647   5.628   6.759
 8737SOL    HW127110   0.567   5.688   6.758
 8737SOL    HW227111   0.650   5.578   6.845
 8738SOL     OW27112   1.955   2.259   2.500
 8738SOL    HW127113   1.915   2.295   2.415
 8738SOL    HW227114   2.010   2.330   2.544
 8739SOL     OW27115   4.505   4.644   3.503
 8739SOL    HW127116   4.530   4.606   3.592
 8739SOL    HW227117   4.576   4.623   3.437
 8740SOL     OW27118   1.867   0.932   3.775
 8740SOL    HW127119   1.937   0.861   3.788
 8740SOL    HW227120   1.791   0.916   3.838
 8741SOL     OW27121   2.079   2.161   3.170
 8741SOL    HW127122   2.147   2.201   3.231
 8741SOL    HW227123   2.122   2.142   3.081
 8742SOL     OW27124   1.496   3.061   0.913
 8742SOL    HW127125   1.428   3.061   0.840
 8742SOL    HW227126   1.473   2.990   0.980
 8743SOL     OW27127   1.852   3.095   0.618
 8743SOL    HW127128   1.874   3.184   0.659
 8743SOL    HW227129   1.882   3.022   0.680
 8744SOL     OW27130   2.506   3.767   5.536
 8744SOL    HW127131   2.475   3.848   5.585
 8744SOL    HW227132   2.560   3.709   5.596
 8745SOL     OW27133   5.622   1.199   6.823
 8745SOL    HW127134   5.620   1.229   6.919
 8745SOL    HW227135   5.530   1.173   6.794
 8746SOL     OW27136   4.633   5.093   4.352
 8746SOL    HW127137   4.637   4.996   4.325
 8746SOL    HW227138   4.600   5.100   4.446
 8747SOL     OW27139   0.381   6.502   1.354
 8747SOL    HW127140   0.420   6.491   1.262
 8747SOL    HW227141   0.454   6.531   1.417
 8748SOL     OW27142   6.026   1.496   4.865
 8748SOL    HW127143   6.054   1.584   4.904
 8748SOL    HW227144   6.096   1.463   4.802
 8749SOL     OW27145   2.215   1.062   4.100
 8749SOL    HW127146   2.291   1.022   4.049
 8749SOL    HW227147   2.211   1.160   4.080
 8750SOL     OW27148   4.123   3.770   2.310
 8750SOL    HW127149   4.115   3.674   2.283
 8750SOL    HW227150   4.206   3.809   2.269
 8751SOL     OW27151   1.971   6.125   6.919
 8751SOL    HW127152   1.873   6.134   6.904
 8751SOL    HW227153   1.995   6.028   6.926
 8752SOL     OW27154   1.221   2.888   6.772
 8752SOL    HW127155   1.187   2.957   6.837
 8752SOL    HW227156   1.149   2.867   6.706
 8753SOL     OW27157   1.964   2.041   0.982
 8753SOL    HW127158   2.024   2.117   1.005
 8753SOL    HW227159   1.992   2.001   0.895
 8754SOL     OW27160   1.829   6.158   6.599
 8754SOL    HW127161   1.773   6.112   6.668
 8754SOL    HW227162   1.769   6.196   6.528
 8755SOL     OW27163   0.221   1.788   1.911
 8755SOL    HW127164   0.166   1.714   1.950
 8755SOL    HW227165   0.252   1.762   1.820
 8756SOL     OW27166   1.839   1.629   2.310
 8756SOL    HW127167   1.878   1.661   2.224
 8756SOL    HW227168   1.816   1.708   2.367
 8757SOL     OW27169   5.166   5.806   4.828
 8757SOL    HW127170   5.205   5.740   4.893
 8757SOL    HW227171   5.220   5.804   4.744
 8758SOL     OW27172   3.609   4.870   6.664
 8758SOL    HW127173   3.583   4.939   6.731
 8758SOL    HW227174   3.664   4.799   6.708
 8759SOL     OW27175   6.855   1.095   1.432
 8759SOL    HW127176   6.838   1.189   1.460
 8759SOL    HW227177   6.791   1.034   1.478
 8760SOL     OW27178   1.502   2.758   4.647
 8760SOL    HW127179   1.540   2.777   4.738
 8760SOL    HW227180   1.575   2.728   4.586
 8761SOL     OW27181   5.152   3.162   3.671
 8761SOL    HW127182   5.059   3.158   3.706
 8761SOL    HW227183   5.152   3.142   3.574
 8762SOL     OW27184   3.941   6.313   2.218
 8762SOL    HW127185   3.890   6.385   2.265
 8762SOL    HW227186   3.880   6.235   2.201
 8763SOL     OW27187   6.996   1.876   5.323
 8763SOL    HW127188   7.015   1.830   5.410
 8763SOL    HW227189   0.057   1.870   5.264
 8764SOL     OW27190   2.476   5.355   6.114
 8764SOL    HW127191   2.553   5.294   6.134
 8764SOL    HW227192   2.410   5.351   6.189
 8765SOL     OW27193   4.465   6.925   3.471
 8765SOL    HW127194   4.479   6.973   3.384
 8765SOL    HW227195   4.403   6.979   3.529
 8766SOL     OW27196   6.294   6.952   4.904
 8766SOL    HW127197   6.286   6.916   4.996
 8766SOL    HW227198   6.342   0.021   4.907
 8767SOL     OW27199   2.132   1.232   4.944
 8767SOL    HW127200   2.134   1.246   5.043
 8767SOL    HW227201   2.133   1.321   4.898
 8768SOL     OW27202   6.548   2.192   0.930
 8768SOL    HW127203   6.498   2.279   0.925
 8768SOL    HW227204   6.516   2.130   0.859
 8769SOL     OW27205   6.560   0.098   0.300
 8769SOL    HW127206   6.522   0.190   0.307
 8769SOL    HW227207   6.651   0.096   0.343
 8770SOL     OW27208   4.600   2.206   0.604
 8770SOL    HW127209   4.558   2.116   0.606
 8770SOL    HW227210   4.531   2.275   0.626
 8771SOL     OW27211   1.003   2.818   6.590
 8771SOL    HW127212   1.032   2.722   6.594
 8771SOL    HW227213   0.905   2.822   6.569
 8772SOL     OW27214   0.417   6.614   3.636
 8772SOL    HW127215   0.403   6.686   3.703
 8772SOL    HW227216   0.394   6.648   3.544
 8773SOL     OW27217   6.163   1.496   4.183
 8773SOL    HW127218   6.179   1.427   4.254
 8773SOL    HW227219   6.234   1.488   4.113
 8774SOL     OW27220   1.052   2.496   6.659
 8774SOL    HW127221   1.128   2.455   6.711
 8774SOL    HW227222   1.061   2.472   6.563
 8775SOL     OW27223   4.440   1.763   2.249
 8775SOL    HW127224   4.381   1.683   2.239
 8775SOL    HW227225   4.421   1.808   2.337
 8776SOL     OW27226   5.493   3.080   1.744
 8776SOL    HW127227   5.551   3.002   1.722
 8776SOL    HW227228   5.401   3.063   1.709
 8777SOL     OW27229   6.101   2.154   3.597
 8777SOL    HW127230   6.114   2.227   3.664
 8777SOL    HW227231   6.178   2.152   3.533
 8778SOL     OW27232   1.916   4.132   5.994
 8778SOL    HW127233   1.986   4.070   6.030
 8778SOL    HW227234   1.914   4.216   6.049
 8779SOL     OW27235   3.763   6.841   3.526
 8779SOL    HW127236   3.669   6.821   3.553
 8779SOL    HW227237   3.774   6.824   3.428
 8780SOL     OW27238   0.761   3.222   4.311
 8780SOL    HW127239   0.807   3.135   4.296
 8780SOL    HW227240   0.822   3.285   4.360
 8781SOL     OW27241   4.020   1.134   2.305
 8781SOL    HW127242   3.971   1.047   2.310
 8781SOL    HW227243   3.974   1.195   2.241
 8782SOL     OW27244   6.545   2.298   6.885
 8782SOL    HW127245   6.620   2.305   6.818
 8782SOL    HW227246   6.469   2.355   6.856
 8783SOL     OW27247   3.459   3.981   6.325
 8783SOL    HW127248   3.483   3.893   6.285
 8783SOL    HW227249   3.542   4.028   6.355
 8784SOL     OW27250   4.299   1.543   5.695
 8784SOL    HW127251   4.335   1.636   5.707
 8784SOL    HW227252   4.225   1.544   5.628
 8785SOL     OW27253   6.817   0.189   5.899
 8785SOL    HW127254   6.863   0.172   5.812
 8785SOL    HW227255   6.721   0.164   5.891
 8786SOL     OW27256   5.294   2.325   3.165
 8786SOL    HW127257   5.294   2.252   3.096
 8786SOL    HW227258   5.388   2.358   3.178
 8787SOL     OW27259   3.190   5.472   2.574
 8787SOL    HW127260   3.286   5.492   2.559
 8787SOL    HW227261   3.179   5.377   2.604
 8788SOL     OW27262   0.243   0.050   3.958
 8788SOL    HW127263   0.144   0.038   3.947
 8788SOL    HW227264   0.273   0.001   4.040
 8789SOL     OW27265   2.371   3.759   0.041
 8789SOL    HW127266   2.386   3.832   0.109
 8789SOL    HW227267   2.276   3.761   0.012
 8790SOL     OW27268   4.681   3.140   5.260
 8790SOL    HW127269   4.772   3.172   5.235
 8790SOL    HW227270   4.671   3.044   5.232
 8791SOL     OW27271   3.859   6.442   5.445
 8791SOL    HW127272   3.804   6.515   5.405
 8791SOL    HW227273   3.847   6.359   5.392
 8792SOL     OW27274   5.351   4.381   0.947
 8792SOL    HW127275   5.330   4.383   0.849
 8792SOL    HW227276   5.434   4.434   0.964
 8793SOL     OW27277   6.536   0.429   5.643
 8793SOL    HW127278   6.598   0.478   5.581
 8793SOL    HW227279   6.442   0.445   5.614
 8794SOL     OW27280   0.478   2.877   3.073
 8794SOL    HW127281   0.569   2.839   3.060
 8794SOL    HW227282   0.430   2.826   3.145
 8795SOL     OW27283   1.862   0.469   6.596
 8795SOL    HW127284   1.959   0.479   6.620
 8795SOL    HW227285   1.828   0.556   6.560
 8796SOL     OW27286   5.969   5.174   4.318
 8796SOL    HW127287   5.879   5.199   4.284
 8796SOL    HW227288   6.029   5.254   4.317
 8797SOL     OW27289   5.433   5.834   5.535
 8797SOL    HW127290   5.452   5.833   5.633
 8797SOL    HW227291   5.492   5.767   5.489
 8798SOL     OW27292   1.522   5.233   0.117
 8798SOL    HW127293   1.520   5.140   0.153
 8798SOL    HW227294   1.516   5.231   0.017
 8799SOL     OW27295   1.250   6.200   2.046
 8799SOL    HW127296   1.343   6.215   2.012
 8799SOL    HW227297   1.217   6.111   2.014
 8800SOL     OW27298   6.830   6.115   4.686
 8800SOL    HW127299   6.751   6.058   4.707
 8800SOL    HW227300   6.871   6.084   4.601
 8801SOL     OW27301   5.312   3.363   6.807
 8801SOL    HW127302   5.378   3.325   6.872
 8801SOL    HW227303   5.361   3.400   6.727
 8802SOL     OW27304   1.245   6.742   6.923
 8802SOL    HW127305   1.307   6.788   6.986
 8802SOL    HW227306   1.154   6.783   6.930
 8803SOL     OW27307   4.795   4.895   5.314
 8803SOL    HW127308   4.829   4.962   5.248
 8803SOL    HW227309   4.752   4.942   5.391
 8804SOL     OW27310   2.289   6.405   1.548
 8804SOL    HW127311   2.334   6.479   1.498
 8804SOL    HW227312   2.191   6.421   1.551
 8805SOL     OW27313   5.174   5.107   0.815
 8805SOL    HW127314   5.107   5.050   0.768
 8805SOL    HW227315   5.266   5.077   0.789
 8806SOL     OW27316   1.484   1.320   1.842
 8806SOL    HW127317   1.521   1.404   1.881
 8806SOL    HW227318   1.404   1.342   1.785
 8807SOL     OW27319   5.484   2.262   1.996
 8807SOL    HW127320   5.563   2.322   1.982
 8807SOL    HW227321   5.445   2.278   2.086
 8808SOL     OW27322   1.831   1.187   0.890
 8808SOL    HW127323   1.876   1.264   0.846
 8808SOL    HW227324   1.748   1.219   0.937
 8809SOL     OW27325   1.002   3.268   2.988
 8809SOL    HW127326   0.970   3.249   3.081
 8809SOL    HW227327   0.925   3.260   2.925
 8810SOL     OW27328   5.960   2.572   3.610
 8810SOL    HW127329   6.032   2.638   3.587
 8810SOL    HW227330   5.871   2.610   3.586
 8811SOL     OW27331   3.608   5.571   3.088
 8811SOL    HW127332   3.571   5.536   3.175
 8811SOL    HW227333   3.703   5.544   3.079
 8812SOL     OW27334   5.270   0.672   0.340
 8812SOL    HW127335   5.344   0.718   0.291
 8812SOL    HW227336   5.200   0.739   0.364
 8813SOL     OW27337   1.483   2.719   1.369
 8813SOL    HW127338   1.487   2.620   1.375
 8813SOL    HW227339   1.566   2.759   1.408
 8814SOL     OW27340   5.867   0.032   5.132
 8814SOL    HW127341   5.835   6.963   5.098
 8814SOL    HW227342   5.852   0.101   5.061
 8815SOL     OW27343   4.457   0.222   1.364
 8815SOL    HW127344   4.540   0.248   1.413
 8815SOL    HW227345   4.407   0.304   1.337
 8816SOL     OW27346   0.130   0.804   2.688
 8816SOL    HW127347   0.183   0.859   2.753
 8816SOL    HW227348   0.046   0.853   2.665
 8817SOL     OW27349   0.856   2.547   4.349
 8817SOL    HW127350   0.799   2.623   4.381
 8817SOL    HW227351   0.803   2.491   4.285
 8818SOL     OW27352   1.420   5.678   6.073
 8818SOL    HW127353   1.406   5.731   5.989
 8818SOL    HW227354   1.332   5.649   6.110
 8819SOL     OW27355   5.462   6.747   6.530
 8819SOL    HW127356   5.487   6.674   6.466
 8819SOL    HW227357   5.373   6.726   6.571
 8820SOL     OW27358   3.092   6.819   5.861
 8820SOL    HW127359   3.043   6.733   5.855
 8820SOL    HW227360   3.185   6.808   5.824
 8821SOL     OW27361   1.464   5.089   5.294
 8821SOL    HW127362   1.371   5.093   5.258
 8821SOL    HW227363   1.515   5.018   5.247
 8822SOL     OW27364   0.597   0.817   5.412
 8822SOL    HW127365   0.501   0.847   5.409
 8822SOL    HW227366   0.639   0.849   5.498
 8823SOL     OW27367   4.310   2.373   3.158
 8823SOL    HW127368   4.275   2.392   3.066
 8823SOL    HW227369   4.334   2.276   3.165
 8824SOL     OW27370   1.500   7.020   3.999
 8824SOL    HW127371   1.446   0.081   3.976
 8824SOL    HW227372   1.471   6.944   3.940
 8825SOL     OW27373   1.542   6.978   0.355
 8825SOL    HW127374   1.595   6.894   0.337
 8825SOL    HW227375   1.525   0.005   0.268
 8826SOL     OW27376   0.542   3.404   0.259
 8826SOL    HW127377   0.553   3.328   0.196
 8826SOL    HW227378   0.497   3.373   0.343
 8827SOL     OW27379   5.592   5.889   4.045
 8827SOL    HW127380   5.627   5.812   4.099
 8827SOL    HW227381   5.530   5.855   3.975
 8828SOL     OW27382   4.881   2.838   5.705
 8828SOL    HW127383   4.832   2.752   5.694
 8828SOL    HW227384   4.816   2.912   5.719
 8829SOL     OW27385   6.317   0.969   2.982
 8829SOL    HW127386   6.321   0.870   2.974
 8829SOL    HW227387   6.222   0.998   2.993
 8830SOL     OW27388   2.646   1.333   2.701
 8830SOL    HW127389   2.734   1.378   2.712
 8830SOL    HW227390   2.613   1.346   2.607
 8831SOL     OW27391   0.840   2.123   2.362
 8831SOL    HW127392   0.870   2.205   2.411
 8831SOL    HW227393   0.793   2.150   2.277
 8832SOL     OW27394   6.020   6.944   4.784
 8832SOL    HW127395   6.055   6.973   4.694
 8832SOL    HW227396   6.097   6.931   4.846
 8833SOL     OW27397   4.735   2.609   0.815
 8833SOL    HW127398   4.738   2.616   0.715
 8833SOL    HW227399   4.687   2.688   0.853
 8834SOL     OW27400   6.263   4.390   5.872
 8834SOL    HW127401   6.231   4.482   5.897
 8834SOL    HW227402   6.343   4.398   5.813
 8835SOL     OW27403   6.194   1.026   5.292
 8835SOL    HW127404   6.261   0.976   5.346
 8835SOL    HW227405   6.215   1.017   5.195
 8836SOL     OW27406   4.442   1.981   0.614
 8836SOL    HW127407   4.342   1.989   0.618
 8836SOL    HW227408   4.474   1.924   0.689
 8837SOL     OW27409   5.708   4.880   0.497
 8837SOL    HW127410   5.785   4.878   0.433
 8837SOL    HW227411   5.743   4.876   0.591
 8838SOL     OW27412   1.453   3.246   2.068
 8838SOL    HW127413   1.473   3.340   2.042
 8838SOL    HW227414   1.365   3.219   2.031
 8839SOL     OW27415   4.609   4.409   1.760
 8839SOL    HW127416   4.572   4.332   1.813
 8839SOL    HW227417   4.585   4.495   1.805
 8840SOL     OW27418   0.190   6.886   1.518
 8840SOL    HW127419   0.219   6.978   1.494
 8840SOL    HW227420   0.270   6.834   1.549
 8841SOL     OW27421   4.612   1.855   0.397
 8841SOL    HW127422   4.624   1.849   0.496
 8841SOL    HW227423   4.541   1.923   0.377
 8842SOL     OW27424   3.824   3.074   3.688
 8842SOL    HW127425   3.856   3.063   3.783
 8842SOL    HW227426   3.757   3.003   3.667
 8843SOL     OW27427   2.159   6.114   4.780
 8843SOL    HW127428   2.187   6.076   4.869
 8843SOL    HW227429   2.221   6.082   4.709
 8844SOL     OW27430   3.852   2.769   5.204
 8844SOL    HW127431   3.941   2.724   5.190
 8844SOL    HW227432   3.831   2.826   5.125
 8845SOL     OW27433   0.739   3.764   2.413
 8845SOL    HW127434   0.822   3.816   2.433
 8845SOL    HW227435   0.761   3.686   2.354
 8846SOL     OW27436   5.994   5.362   4.612
 8846SOL    HW127437   6.020   5.271   4.643
 8846SOL    HW227438   6.036   5.381   4.523
 8847SOL     OW27439   0.897   2.613   3.996
 8847SOL    HW127440   0.933   2.675   3.927
 8847SOL    HW227441   0.799   2.631   4.010
 8848SOL     OW27442   5.635   2.631   1.159
 8848SOL    HW127443   5.728   2.611   1.127
 8848SOL    HW227444   5.582   2.670   1.084
 8849SOL     OW27445   3.408   5.242   4.771
 8849SOL    HW127446   3.446   5.167   4.825
 8849SOL    HW227447   3.365   5.308   4.833
 8850SOL     OW27448   4.291   2.107   1.169
 8850SOL    HW127449   4.273   2.140   1.076
 8850SOL    HW227450   4.376   2.054   1.171
 8851SOL     OW27451   6.774   5.517   3.292
 8851SOL    HW127452   6.826   5.504   3.207
 8851SOL    HW227453   6.732   5.431   3.319
 8852SOL     OW27454   5.749   3.979   4.903
 8852SOL    HW127455   5.702   3.905   4.855
 8852SOL    HW227456   5.758   4.058   4.843
 8853SOL     OW27457   4.661   1.674   4.291
 8853SOL    HW127458   4.588   1.622   4.246
 8853SOL    HW227459   4.642   1.772   4.283
 8854SOL     OW27460   3.408   0.510   6.314
 8854SOL    HW127461   3.381   0.465   6.399
 8854SOL    HW227462   3.326   0.529   6.260
 8855SOL     OW27463   6.387   5.038   6.102
 8855SOL    HW127464   6.473   5.078   6.070
 8855SOL    HW227465   6.339   4.995   6.026
 8856SOL     OW27466   5.261   1.932   5.617
 8856SOL    HW127467   5.313   1.970   5.694
 8856SOL    HW227468   5.179   1.886   5.651
 8857SOL     OW27469   1.660   2.637   4.469
 8857SOL    HW127470   1.658   2.684   4.380
 8857SOL    HW227471   1.666   2.538   4.454
 8858SOL     OW27472   0.884   3.606   5.658
 8858SOL    HW127473   0.788   3.585   5.638
 8858SOL    HW227474   0.891   3.658   5.743
 8859SOL     OW27475   2.452   6.039   4.976
 8859SOL    HW127476   2.474   5.950   4.935
 8859SOL    HW227477   2.360   6.037   5.013
 8860SOL     OW27478   2.204   0.986   1.383
 8860SOL    HW127479   2.107   0.961   1.384
 8860SOL    HW227480   2.213   1.085   1.367
 8861SOL     OW27481   1.968   1.433   6.941
 8861SOL    HW127482   2.064   1.438   6.968
 8861SOL    HW227483   1.959   1.379   6.857
 8862SOL     OW27484   0.086   2.866   3.833
 8862SOL    HW127485   0.092   2.793   3.900
 8862SOL    HW227486   0.178   2.893   3.804
 8863SOL     OW27487   1.549   5.599   4.931
 8863SOL    HW127488   1.497   5.644   5.004
 8863SOL    HW227489   1.595   5.668   4.875
 8864SOL     OW27490   1.983   4.563   5.321
 8864SOL    HW127491   1.889   4.530   5.325
 8864SOL    HW227492   2.045   4.492   5.353
 8865SOL     OW27493   2.817   1.838   5.990
 8865SOL    HW127494   2.734   1.798   6.027
 8865SOL    HW227495   2.854   1.780   5.918
 8866SOL     OW27496   5.178   0.169   5.670
 8866SOL    HW127497   5.277   0.176   5.671
 8866SOL    HW227498   5.151   0.075   5.648
 8867SOL     OW27499   5.578   0.789   2.927
 8867SOL    HW127500   5.482   0.808   2.909
 8867SOL    HW227501   5.587   0.742   3.015
 8868SOL     OW27502   5.791   2.827   0.617
 8868SOL    HW127503   5.806   2.886   0.696
 8868SOL    HW227504   5.870   2.834   0.556
 8869SOL     OW27505   2.160   1.965   3.889
 8869SOL    HW127506   2.093   1.914   3.942
 8869SOL    HW227507   2.206   1.904   3.825
 8870SOL     OW27508   3.852   6.671   1.825
 8870SOL    HW127509   3.789   6.742   1.795
 8870SOL    HW227510   3.944   6.692   1.791
 8871SOL     OW27511   1.391   2.193   4.275
 8871SOL    HW127512   1.439   2.276   4.303
 8871SOL    HW227513   1.317   2.217   4.212
 8872SOL     OW27514   1.189   1.431   2.532
 8872SOL    HW127515   1.174   1.393   2.623
 8872SOL    HW227516   1.166   1.528   2.532
 8873SOL     OW27517   0.056   5.772   4.693
 8873SOL    HW127518   0.041   5.834   4.616
 8873SOL    HW227519   0.144   5.726   4.681
 8874SOL     OW27520   1.328   1.428   5.866
 8874SOL    HW127521   1.359   1.521   5.845
 8874SOL    HW227522   1.371   1.364   5.802
 8875SOL     OW27523   1.618   1.339   4.357
 8875SOL    HW127524   1.683   1.383   4.420
 8875SOL    HW227525   1.538   1.398   4.344
 8876SOL     OW27526   2.757   1.381   4.753
 8876SOL    HW127527   2.674   1.377   4.697
 8876SOL    HW227528   2.765   1.472   4.793
 8877SOL     OW27529   2.853   6.465   4.565
 8877SOL    HW127530   2.860   6.532   4.638
 8877SOL    HW227531   2.930   6.402   4.569
 8878SOL     OW27532   5.455   4.411   5.693
 8878SOL    HW127533   5.442   4.313   5.710
 8878SOL    HW227534   5.503   4.424   5.606
 8879SOL     OW27535   6.344   5.657   4.696
 8879SOL    HW127536   6.247   5.682   4.707
 8879SOL    HW227537   6.373   5.602   4.775
 8880SOL     OW27538   1.149   7.018   4.772
 8880SOL    HW127539   1.221   0.019   4.706
 8880SOL    HW227540   1.070   0.058   4.755
 8881SOL     OW27541   0.044   2.043   2.473
 8881SOL    HW127542   0.115   1.998   2.527
 8881SOL    HW227543   7.000   1.974   2.438
 8882SOL     OW27544   5.396   2.124   0.690
 8882SOL    HW127545   5.470   2.061   0.667
 8882SOL    HW227546   5.353   2.095   0.776
 8883SOL     OW27547   6.150   1.277   5.383
 8883SOL    HW127548   6.081   1.295   5.453
 8883SOL    HW227549   6.156   1.178   5.367
 8884SOL     OW27550   0.264   1.501   6.630
 8884SOL    HW127551   0.334   1.430   6.629
 8884SOL    HW227552   0.307   1.590   6.618
 8885SOL     OW27553   6.093   4.004   1.033
 8885SOL    HW127554   6.101   4.051   1.121
 8885SOL    HW227555   6.139   3.916   1.037
 8886SOL     OW27556   3.473   5.839   5.981
 8886SOL    HW127557   3.493   5.819   6.077
 8886SOL    HW227558   3.479   5.754   5.928
 8887SOL     OW27559   1.309   1.002   0.479
 8887SOL    HW127560   1.293   1.079   0.417
 8887SOL    HW227561   1.399   1.013   0.523
 8888SOL     OW27562   2.268   2.267   3.330
 8888SOL    HW127563   2.367   2.264   3.311
 8888SOL    HW227564   2.253   2.253   3.428
 8889SOL     OW27565   3.530   1.156   5.033
 8889SOL    HW127566   3.470   1.114   5.102
 8889SOL    HW227567   3.539   1.254   5.052
 8890SOL     OW27568   6.862   5.117   4.079
 8890SOL    HW127569   6.913   5.202   4.083
 8890SOL    HW227570   6.788   5.125   4.013
 8891SOL     OW27571   3.794   1.769   6.118
 8891SOL    HW127572   3.868   1.817   6.166
 8891SOL    HW227573   3.822   1.675   6.099
 8892SOL     OW27574   1.048   6.803   3.173
 8892SOL    HW127575   0.963   6.849   3.147
 8892SOL    HW227576   1.126   6.859   3.146
 8893SOL     OW27577   7.014   0.699   0.577
 8893SOL    HW127578   6.937   0.657   0.530
 8893SOL    HW227579   6.987   0.789   0.611
 8894SOL     OW27580   4.524   2.598   5.614
 8894SOL    HW127581   4.617   2.634   5.606
 8894SOL    HW227582   4.494   2.563   5.526
 8895SOL     OW27583   1.278   1.171   3.417
 8895SOL    HW127584   1.302   1.162   3.320
 8895SOL    HW227585   1.192   1.220   3.426
 8896SOL     OW27586   1.381   4.056   5.032
 8896SOL    HW127587   1.435   3.977   5.060
 8896SOL    HW227588   1.350   4.106   5.112
 8897SOL     OW27589   0.853   2.250   1.612
 8897SOL    HW127590   0.926   2.183   1.616
 8897SOL    HW227591   0.877   2.322   1.547
 8898SOL     OW27592   6.967   2.476   5.216
 8898SOL    HW127593   6.920   2.562   5.235
 8898SOL    HW227594   0.020   2.491   5.149
 8899SOL     OW27595   3.570   6.009   2.459
 8899SOL    HW127596   3.533   6.061   2.536
 8899SOL    HW227597   3.628   5.936   2.493
 8900SOL     OW27598   6.656   2.083   3.602
 8900SOL    HW127599   6.676   2.158   3.665
 8900SOL    HW227600   6.739   2.056   3.554
 8901SOL     OW27601   1.891   0.212   2.290
 8901SOL    HW127602   1.903   0.309   2.269
 8901SOL    HW227603   1.964   0.159   2.247
 8902SOL     OW27604   3.583   6.696   6.035
 8902SOL    HW127605   3.677   6.666   6.021
 8902SOL    HW227606   3.562   6.772   5.973
 8903SOL     OW27607   6.666   1.188   3.174
 8903SOL    HW127608   6.688   1.237   3.258
 8903SOL    HW227609   6.687   1.246   3.095
 8904SOL     OW27610   1.864   3.698   3.960
 8904SOL    HW127611   1.766   3.699   3.981
 8904SOL    HW227612   1.879   3.649   3.874
 8905SOL     OW27613   1.805   4.365   4.668
 8905SOL    HW127614   1.838   4.458   4.658
 8905SOL    HW227615   1.880   4.305   4.697
 8906SOL     OW27616   2.083   5.119   4.594
 8906SOL    HW127617   2.070   5.121   4.693
 8906SOL    HW227618   2.170   5.074   4.573
 8907SOL     OW27619   3.711   2.810   6.455
 8907SOL    HW127620   3.646   2.886   6.458
 8907SOL    HW227621   3.663   2.726   6.429
 8908SOL     OW27622   0.519   3.490   2.783
 8908SOL    HW127623   0.571   3.572   2.759
 8908SOL    HW227624   0.466   3.460   2.703
 8909SOL     OW27625   3.095   6.905   5.397
 8909SOL    HW127626   3.027   6.898   5.470
 8909SOL    HW227627   3.104   7.000   5.369
 8910SOL     OW27628   4.156   2.675   0.130
 8910SOL    HW127629   4.187   2.751   0.073
 8910SOL    HW227630   4.105   2.610   0.073
 8911SOL     OW27631   5.067   2.848   4.605
 8911SOL    HW127632   5.067   2.850   4.505
 8911SOL    HW227633   5.064   2.754   4.637
 8912SOL     OW27634   3.971   0.737   0.261
 8912SOL    HW127635   4.008   0.764   0.350
 8912SOL    HW227636   3.954   0.818   0.206
 8913SOL     OW27637   4.118   4.150   1.308
 8913SOL    HW127638   4.212   4.120   1.297
 8913SOL    HW227639   4.060   4.072   1.330
 8914SOL     OW27640   5.274   3.706   3.608
 8914SOL    HW127641   5.298   3.681   3.701
 8914SOL    HW227642   5.235   3.627   3.560
 8915SOL     OW27643   0.934   5.584   2.070
 8915SOL    HW127644   0.920   5.655   2.138
 8915SOL    HW227645   1.029   5.552   2.074
 8916SOL     OW27646   5.659   3.392   1.978
 8916SOL    HW127647   5.625   3.306   2.016
 8916SOL    HW227648   5.711   3.374   1.895
 8917SOL     OW27649   5.822   4.122   5.529
 8917SOL    HW127650   5.813   4.026   5.557
 8917SOL    HW227651   5.827   4.180   5.610
 8918SOL     OW27652   4.697   4.227   5.838
 8918SOL    HW127653   4.641   4.254   5.916
 8918SOL    HW227654   4.776   4.288   5.831
 8919SOL     OW27655   1.992   3.411   1.255
 8919SOL    HW127656   2.069   3.353   1.230
 8919SOL    HW227657   1.931   3.361   1.317
 8920SOL     OW27658   6.359   5.744   5.488
 8920SOL    HW127659   6.316   5.657   5.465
 8920SOL    HW227660   6.417   5.732   5.569
 8921SOL     OW27661   1.223   5.539   3.219
 8921SOL    HW127662   1.174   5.599   3.155
 8921SOL    HW227663   1.207   5.570   3.312
 8922SOL     OW27664   0.368   2.545   6.656
 8922SOL    HW127665   0.407   2.529   6.565
 8922SOL    HW227666   0.424   2.498   6.724
 8923SOL     OW27667   2.271   4.623   4.357
 8923SOL    HW127668   2.259   4.717   4.325
 8923SOL    HW227669   2.206   4.563   4.311
 8924SOL     OW27670   2.428   6.552   4.478
 8924SOL    HW127671   2.413   6.454   4.494
 8924SOL    HW227672   2.438   6.599   4.566
 8925SOL     OW27673   4.566   5.590   0.830
 8925SOL    HW127674   4.478   5.558   0.866
 8925SOL    HW227675   4.640   5.556   0.887
 8926SOL     OW27676   5.477   6.767   6.880
 8926SOL    HW127677   5.562   6.732   6.841
 8926SOL    HW227678   5.459   6.858   6.843
 8927SOL     OW27679   3.042   2.173   4.762
 8927SOL    HW127680   2.972   2.221   4.709
 8927SOL    HW227681   3.082   2.235   4.829
 8928SOL     OW27682   1.931   0.748   5.346
 8928SOL    HW127683   1.884   0.786   5.424
 8928SOL    HW227684   1.963   0.821   5.286
 8929SOL     OW27685   4.558   4.825   2.961
 8929SOL    HW127686   4.612   4.762   2.905
 8929SOL    HW227687   4.614   4.856   3.038
 8930SOL     OW27688   0.093   5.372   5.390
 8930SOL    HW127689   0.110   5.287   5.340
 8930SOL    HW227690   0.145   5.372   5.475
 8931SOL     OW27691   5.045   1.164   1.611
 8931SOL    HW127692   5.052   1.193   1.707
 8931SOL    HW227693   5.088   1.233   1.553
 8932SOL     OW27694   4.377   0.782   0.267
 8932SOL    HW127695   4.283   0.772   0.236
 8932SOL    HW227696   4.434   0.711   0.225
 8933SOL     OW27697   1.770   6.718   5.576
 8933SOL    HW127698   1.687   6.774   5.570
 8933SOL    HW227699   1.818   6.720   5.489
 8934SOL     OW27700   3.406   6.773   3.872
 8934SOL    HW127701   3.352   6.694   3.841
 8934SOL    HW227702   3.454   6.749   3.956
 8935SOL     OW27703   5.787   2.086   2.347
 8935SOL    HW127704   5.821   2.082   2.441
 8935SOL    HW227705   5.802   1.998   2.303
 8936SOL     OW27706   0.944   3.940   1.788
 8936SOL    HW127707   0.963   3.842   1.786
 8936SOL    HW227708   1.031   3.990   1.798
 8937SOL     OW27709   3.012   6.230   4.892
 8937SOL    HW127710   3.045   6.166   4.823
 8937SOL    HW227711   3.000   6.320   4.850
 8938SOL     OW27712   5.005   6.789   2.013
 8938SOL    HW127713   5.031   6.885   2.028
 8938SOL    HW227714   4.930   6.784   1.947
 8939SOL     OW27715   6.550   2.844   4.776
 8939SOL    HW127716   6.587   2.756   4.807
 8939SOL    HW227717   6.545   2.844   4.676
 8940SOL     OW27718   6.049   3.782   2.690
 8940SOL    HW127719   5.964   3.732   2.672
 8940SOL    HW227720   6.084   3.818   2.603
 8941SOL     OW27721   5.703   2.368   3.649
 8941SOL    HW127722   5.605   2.389   3.656
 8941SOL    HW227723   5.755   2.440   3.695
 8942SOL     OW27724   4.958   6.282   4.486
 8942SOL    HW127725   5.033   6.296   4.551
 8942SOL    HW227726   4.893   6.216   4.523
 8943SOL     OW27727   4.651   3.757   0.504
 8943SOL    HW127728   4.727   3.766   0.439
 8943SOL    HW227729   4.666   3.677   0.563
 8944SOL     OW27730   4.846   5.870   5.328
 8944SOL    HW127731   4.760   5.847   5.374
 8944SOL    HW227732   4.853   5.969   5.319
 8945SOL     OW27733   6.576   4.813   2.070
 8945SOL    HW127734   6.499   4.749   2.069
 8945SOL    HW227735   6.612   4.820   2.163
 8946SOL     OW27736   3.715   2.129   3.679
 8946SOL    HW127737   3.754   2.036   3.678
 8946SOL    HW227738   3.705   2.160   3.773
 8947SOL     OW27739   2.880   5.366   0.653
 8947SOL    HW127740   2.881   5.416   0.566
 8947SOL    HW227741   2.803   5.396   0.708
 8948SOL     OW27742   6.025   0.329   2.524
 8948SOL    HW127743   5.993   0.254   2.466
 8948SOL    HW227744   5.949   0.391   2.543
 8949SOL     OW27745   3.861   6.559   1.008
 8949SOL    HW127746   3.862   6.553   1.107
 8949SOL    HW227747   3.932   6.500   0.969
 8950SOL     OW27748   3.465   3.544   3.986
 8950SOL    HW127749   3.468   3.636   3.948
 8950SOL    HW227750   3.553   3.498   3.971
 8951SOL     OW27751   1.054   0.916   3.650
 8951SOL    HW127752   0.993   0.991   3.625
 8951SOL    HW227753   1.003   0.830   3.648
 8952SOL     OW27754   1.640   3.685   5.008
 8952SOL    HW127755   1.573   3.752   5.038
 8952SOL    HW227756   1.642   3.682   4.908
 8953SOL     OW27757   1.422   6.010   1.059
 8953SOL    HW127758   1.352   5.954   1.014
 8953SOL    HW227759   1.508   5.959   1.062
 8954SOL     OW27760   2.303   4.139   5.529
 8954SOL    HW127761   2.252   4.073   5.474
 8954SOL    HW227762   2.380   4.175   5.476
 8955SOL     OW27763   6.431   2.844   5.595
 8955SOL    HW127764   6.351   2.831   5.654
 8955SOL    HW227765   6.465   2.938   5.606
 8956SOL     OW27766   0.971   6.597   1.293
 8956SOL    HW127767   0.975   6.511   1.345
 8956SOL    HW227768   0.984   6.577   1.196
 8957SOL     OW27769   0.422   0.057   3.527
 8957SOL    HW127770   0.429   7.011   3.452
 8957SOL    HW227771   0.473   0.023   3.606
 8958SOL     OW27772   6.803   3.246   4.548
 8958SOL    HW127773   6.734   3.205   4.488
 8958SOL    HW227774   6.782   3.223   4.643
 8959SOL     OW27775   5.114   1.310   3.829
 8959SOL    HW127776   5.114   1.248   3.750
 8959SOL    HW227777   5.020   1.337   3.849
 8960SOL     OW27778   3.674   6.409   1.894
 8960SOL    HW127779   3.716   6.455   1.816
 8960SOL    HW227780   3.689   6.463   1.977
 8961SOL     OW27781   2.575   2.198   6.038
 8961SOL    HW127782   2.614   2.214   6.129
 8961SOL    HW227783   2.648   2.183   5.972
 8962SOL     OW27784   6.396   6.203   1.312
 8962SOL    HW127785   6.448   6.150   1.245
 8962SOL    HW227786   6.446   6.286   1.335
 8963SOL     OW27787   2.302   5.110   5.814
 8963SOL    HW127788   2.346   5.024   5.839
 8963SOL    HW227789   2.277   5.108   5.718
 8964SOL     OW27790   1.192   3.084   4.191
 8964SOL    HW127791   1.234   3.040   4.270
 8964SOL    HW227792   1.174   3.180   4.213
 8965SOL     OW27793   3.420   5.832   6.790
 8965SOL    HW127794   3.381   5.747   6.823
 8965SOL    HW227795   3.423   5.899   6.864
 8966SOL     OW27796   4.917   6.750   5.141
 8966SOL    HW127797   4.938   6.709   5.230
 8966SOL    HW227798   4.982   6.824   5.122
 8967SOL     OW27799   2.216   0.424   3.353
 8967SOL    HW127800   2.183   0.496   3.415
 8967SOL    HW227801   2.311   0.403   3.373
 8968SOL     OW27802   2.774   5.899   2.283
 8968SOL    HW127803   2.752   5.807   2.250
 8968SOL    HW227804   2.870   5.902   2.312
 8969SOL     OW27805   6.632   1.352   1.672
 8969SOL    HW127806   6.684   1.389   1.594
 8969SOL    HW227807   6.696   1.310   1.737
 8970SOL     OW27808   2.620   1.867   4.460
 8970SOL    HW127809   2.714   1.870   4.427
 8970SOL    HW227810   2.557   1.872   4.383
 8971SOL     OW27811   3.104   5.359   1.504
 8971SOL    HW127812   3.170   5.288   1.481
 8971SOL    HW227813   3.097   5.423   1.427
 8972SOL     OW27814   6.458   3.625   5.867
 8972SOL    HW127815   6.433   3.655   5.775
 8972SOL    HW227816   6.482   3.528   5.865
 8973SOL     OW27817   2.393   1.602   3.264
 8973SOL    HW127818   2.429   1.695   3.267
 8973SOL    HW227819   2.375   1.570   3.357
 8974SOL     OW27820   1.169   4.661   5.442
 8974SOL    HW127821   1.247   4.713   5.477
 8974SOL    HW227822   1.117   4.717   5.378
 8975SOL     OW27823   0.624   3.968   6.126
 8975SOL    HW127824   0.619   3.870   6.107
 8975SOL    HW227825   0.610   4.020   6.041
 8976SOL     OW27826   5.588   0.267   1.345
 8976SOL    HW127827   5.573   0.182   1.297
 8976SOL    HW227828   5.673   0.309   1.313
 8977SOL     OW27829   0.969   5.182   5.880
 8977SOL    HW127830   0.892   5.245   5.880
 8977SOL    HW227831   1.053   5.231   5.854
 8978SOL     OW27832   6.254   4.800   4.997
 8978SOL    HW127833   6.301   4.822   5.083
 8978SOL    HW227834   6.318   4.755   4.936
 8979SOL     OW27835   1.993   4.293   3.213
 8979SOL    HW127836   1.988   4.322   3.118
 8979SOL    HW227837   1.914   4.237   3.235
 8980SOL     OW27838   5.017   0.826   0.397
 8980SOL    HW127839   5.054   0.880   0.473
 8980SOL    HW227840   5.006   0.731   0.426
 8981SOL     OW27841   3.805   2.103   6.935
 8981SOL    HW127842   3.737   2.064   6.997
 8981SOL    HW227843   3.851   2.180   6.980
 8982SOL     OW27844   0.621   0.411   2.975
 8982SOL    HW127845   0.709   0.367   2.958
 8982SOL    HW227846   0.602   0.409   3.073
 8983SOL     OW27847   1.623   6.377   2.294
 8983SOL    HW127848   1.586   6.337   2.378
 8983SOL    HW227849   1.634   6.476   2.307
 8984SOL     OW27850   5.998   0.961   3.810
 8984SOL    HW127851   5.952   1.035   3.761
 8984SOL    HW227852   6.092   0.951   3.776
 8985SOL     OW27853   5.042   1.007   1.055
 8985SOL    HW127854   4.961   0.949   1.067
 8985SOL    HW227855   5.122   0.950   1.037
 8986SOL     OW27856   1.043   6.875   6.379
 8986SOL    HW127857   1.045   6.968   6.416
 8986SOL    HW227858   1.074   6.876   6.285
 8987SOL     OW27859   3.092   6.729   2.665
 8987SOL    HW127860   3.008   6.782   2.652
 8987SOL    HW227861   3.126   6.743   2.759
 8988SOL     OW27862   2.164   6.901   0.905
 8988SOL    HW127863   2.156   7.001   0.911
 8988SOL    HW227864   2.074   6.862   0.883
 8989SOL     OW27865   6.540   1.782   2.530
 8989SOL    HW127866   6.610   1.744   2.590
 8989SOL    HW227867   6.582   1.811   2.444
 8990SOL     OW27868   3.781   1.113   2.912
 8990SOL    HW127869   3.835   1.030   2.899
 8990SOL    HW227870   3.745   1.114   3.006
 8991SOL     OW27871   1.541   1.500   0.696
 8991SOL    HW127872   1.556   1.514   0.794
 8991SOL    HW227873   1.466   1.558   0.665
 8992SOL     OW27874   1.193   5.515   5.178
 8992SOL    HW127875   1.211   5.579   5.102
 8992SOL    HW227876   1.186   5.422   5.142
 8993SOL     OW27877   5.413   4.345   3.623
 8993SOL    HW127878   5.360   4.374   3.702
 8993SOL    HW227879   5.357   4.288   3.563
 8994SOL     OW27880   1.268   6.495   2.178
 8994SOL    HW127881   1.172   6.492   2.206
 8994SOL    HW227882   1.281   6.438   2.097
 8995SOL     OW27883   1.813   4.331   3.832
 8995SOL    HW127884   1.898   4.280   3.845
 8995SOL    HW227885   1.797   4.345   3.735
 8996SOL     OW27886   2.894   3.667   1.724
 8996SOL    HW127887   2.912   3.765   1.724
 8996SOL    HW227888   2.859   3.639   1.814
 8997SOL     OW27889   4.080   1.871   4.464
 8997SOL    HW127890   4.155   1.824   4.419
 8997SOL    HW227891   3.996   1.860   4.411
 8998SOL     OW27892   1.279   1.816   6.644
 8998SOL    HW127893   1.216   1.815   6.721
 8998SOL    HW227894   1.254   1.742   6.580
 8999SOL     OW27895   6.032   2.829   5.390
 8999SOL    HW127896   6.021   2.824   5.291
 8999SOL    HW227897   5.944   2.814   5.434
 9000SOL     OW27898   4.839   5.016   1.229
 9000SOL    HW127899   4.856   5.111   1.255
 9000SOL    HW227900   4.869   4.956   1.303
 9001SOL     OW27901   0.235   3.296   4.158
 9001SOL    HW127902   0.213   3.198   4.160
 9001SOL    HW227903   0.217   3.337   4.247
 9002SOL     OW27904   4.609   3.076   6.033
 9002SOL    HW127905   4.584   3.163   5.991
 9002SOL    HW227906   4.566   3.001   5.983
 9003SOL     OW27907   0.640   3.576   0.054
 9003SOL    HW127908   0.609   3.517   0.129
 9003SOL    HW227909   0.708   3.529   7.019
 9004SOL     OW27910   5.248   5.836   0.133
 9004SOL    HW127911   5.308   5.915   0.144
 9004SOL    HW227912   5.195   5.846   0.049
 9005SOL     OW27913   4.876   3.940   4.196
 9005SOL    HW127914   4.817   3.987   4.262
 9005SOL    HW227915   4.972   3.958   4.219
 9006SOL     OW27916   3.278   6.397   2.249
 9006SOL    HW127917   3.332   6.327   2.203
 9006SOL    HW227918   3.338   6.473   2.275
 9007SOL     OW27919   2.082   6.606   5.589
 9007SOL    HW127920   2.025   6.570   5.663
 9007SOL    HW227921   2.031   6.602   5.503
 9008SOL     OW27922   0.535   4.667   1.392
 9008SOL    HW127923   0.593   4.644   1.313
 9008SOL    HW227924   0.540   4.765   1.409
 9009SOL     OW27925   3.316   6.708   6.988
 9009SOL    HW127926   3.335   6.782   6.922
 9009SOL    HW227927   3.400   6.686   0.018
 9010SOL     OW27928   6.997   6.182   4.977
 9010SOL    HW127929   6.988   6.084   4.956
 9010SOL    HW227930   6.991   6.196   5.075
 9011SOL     OW27931   4.707   2.798   2.217
 9011SOL    HW127932   4.701   2.885   2.168
 9011SOL    HW227933   4.786   2.747   2.183
 9012SOL     OW27934   4.272   5.221   2.909
 9012SOL    HW127935   4.269   5.125   2.940
 9012SOL    HW227936   4.313   5.225   2.818
 9013SOL     OW27937   3.410   6.241   1.527
 9013SOL    HW127938   3.384   6.216   1.621
 9013SOL    HW227939   3.504   6.274   1.526
 9014SOL     OW27940   2.181   1.417   2.032
 9014SOL    HW127941   2.152   1.334   2.080
 9014SOL    HW227942   2.185   1.493   2.096
 9015SOL     OW27943   6.041   2.309   4.382
 9015SOL    HW127944   5.998   2.220   4.395
 9015SOL    HW227945   6.029   2.365   4.464
 9016SOL     OW27946   0.283   4.763   6.668
 9016SOL    HW127947   0.357   4.828   6.649
 9016SOL    HW227948   0.226   4.753   6.586
 9017SOL     OW27949   6.034   2.865   2.847
 9017SOL    HW127950   5.987   2.876   2.934
 9017SOL    HW227951   5.987   2.918   2.777
 9018SOL     OW27952   5.134   1.482   6.730
 9018SOL    HW127953   5.116   1.463   6.827
 9018SOL    HW227954   5.177   1.572   6.721
 9019SOL     OW27955   1.859   5.801   0.538
 9019SOL    HW127956   1.763   5.828   0.546
 9019SOL    HW227957   1.917   5.878   0.564
 9020SOL     OW27958   0.506   5.042   4.349
 9020SOL    HW127959   0.482   5.024   4.444
 9020SOL    HW227960   0.561   5.125   4.344
 9021SOL     OW27961   6.448   5.240   5.193
 9021SOL    HW127962   6.512   5.183   5.245
 9021SOL    HW227963   6.462   5.224   5.095
 9022SOL     OW27964   1.068   6.509   6.026
 9022SOL    HW127965   1.121   6.427   6.047
 9022SOL    HW227966   1.114   6.561   5.954
 9023SOL     OW27967   3.542   3.638   4.342
 9023SOL    HW127968   3.541   3.730   4.304
 9023SOL    HW227969   3.635   3.601   4.337
 9024SOL     OW27970   1.508   0.064   0.093
 9024SOL    HW127971   1.584   0.119   0.058
 9024SOL    HW227972   1.503   6.998   0.043
 9025SOL     OW27973   0.625   2.862   0.641
 9025SOL    HW127974   0.579   2.894   0.558
 9025SOL    HW227975   0.693   2.929   0.669
 9026SOL     OW27976   2.889   3.933   5.625
 9026SOL    HW127977   2.866   3.999   5.696
 9026SOL    HW227978   2.831   3.947   5.545
 9027SOL     OW27979   1.161   3.169   2.003
 9027SOL    HW127980   1.133   3.177   1.907
 9027SOL    HW227981   1.120   3.087   2.043
 9028SOL     OW27982   1.348   4.462   5.127
 9028SOL    HW127983   1.439   4.422   5.124
 9028SOL    HW227984   1.353   4.552   5.170
 9029SOL     OW27985   5.560   5.294   2.713
 9029SOL    HW127986   5.497   5.352   2.765
 9029SOL    HW227987   5.547   5.198   2.739
 9030SOL     OW27988   4.964   2.528   3.114
 9030SOL    HW127989   5.011   2.494   3.033
 9030SOL    HW227990   4.981   2.626   3.124
 9031SOL     OW27991   3.076   1.200   2.442
 9031SOL    HW127992   3.153   1.150   2.401
 9031SOL    HW227993   3.052   1.157   2.529
 9032SOL     OW27994   0.524   3.879   2.248
 9032SOL    HW127995   0.446   3.816   2.255
 9032SOL    HW227996   0.602   3.840   2.296
 9033SOL     OW27997   1.217   3.428   2.228
 9033SOL    HW127998   1.118   3.431   2.218
 9033SOL    HW227999   1.240   3.393   2.319
 9034SOL     OW28000   1.481   6.688   0.349
 9034SOL    HW128001   1.517   6.738   0.428
 9034SOL    HW228002   1.445   6.599   0.379
 9035SOL     OW28003   5.930   1.273   4.359
 9035SOL    HW128004   5.893   1.227   4.278
 9035SOL    HW228005   5.888   1.364   4.367
 9036SOL     OW28006   0.408   1.550   4.577
 9036SOL    HW128007   0.488   1.547   4.637
 9036SOL    HW228008   0.334   1.498   4.618
 9037SOL     OW28009   2.411   4.617   6.528
 9037SOL    HW128010   2.467   4.536   6.544
 9037SOL    HW228011   2.314   4.592   6.533
 9038SOL     OW28012   3.927   5.548   5.427
 9038SOL    HW128013   3.894   5.632   5.469
 9038SOL    HW228014   3.920   5.473   5.493
 9039SOL     OW28015   2.613   4.908   7.010
 9039SOL    HW128016   2.585   4.812   7.005
 9039SOL    HW228017   2.700   4.920   6.963
 9040SOL     OW28018   3.728   1.681   2.260
 9040SOL    HW128019   3.777   1.749   2.315
 9040SOL    HW228020   3.790   1.605   2.240
 9041SOL     OW28021   2.167   2.653   5.197
 9041SOL    HW128022   2.170   2.730   5.261
 9041SOL    HW228023   2.155   2.568   5.247
 9042SOL     OW28024   1.775   4.983   2.047
 9042SOL    HW128025   1.849   4.923   2.019
 9042SOL    HW228026   1.693   4.928   2.068
 9043SOL     OW28027   0.403   1.404   0.254
 9043SOL    HW128028   0.362   1.369   0.170
 9043SOL    HW228029   0.334   1.450   0.309
 9044SOL     OW28030   0.806   3.772   0.521
 9044SOL    HW128031   0.765   3.688   0.485
 9044SOL    HW228032   0.776   3.786   0.615
 9045SOL     OW28033   2.082   4.722   5.143
 9045SOL    HW128034   2.000   4.762   5.101
 9045SOL    HW228035   2.054   4.648   5.206
 9046SOL     OW28036   3.509   4.354   5.719
 9046SOL    HW128037   3.448   4.291   5.672
 9046SOL    HW228038   3.484   4.358   5.816
 9047SOL     OW28039   0.904   4.521   4.249
 9047SOL    HW128040   0.933   4.494   4.157
 9047SOL    HW228041   0.900   4.439   4.307
 9048SOL     OW28042   1.378   2.605   5.534
 9048SOL    HW128043   1.397   2.652   5.448
 9048SOL    HW228044   1.452   2.622   5.599
 9049SOL     OW28045   4.582   6.295   5.761
 9049SOL    HW128046   4.566   6.218   5.823
 9049SOL    HW228047   4.619   6.261   5.675
 9050SOL     OW28048   0.120   3.989   6.843
 9050SOL    HW128049   0.063   3.925   6.894
 9050SOL    HW228050   0.169   4.048   6.908
 9051SOL     OW28051   7.005   6.276   6.447
 9051SOL    HW128052   0.004   6.287   6.349
 9051SOL    HW228053   7.018   6.363   6.494
 9052SOL     OW28054   2.212   4.770   4.863
 9052SOL    HW128055   2.131   4.761   4.921
 9052SOL    HW228056   2.273   4.839   4.901
 9053SOL     OW28057   1.441   0.460   2.508
 9053SOL    HW128058   1.392   0.471   2.594
 9053SOL    HW228059   1.384   0.408   2.444
 9054SOL     OW28060   1.564   6.932   2.002
 9054SOL    HW128061   1.534   6.854   2.057
 9054SOL    HW228062   1.660   6.951   2.020
 9055SOL     OW28063   1.724   2.590   5.106
 9055SOL    HW128064   1.805   2.636   5.068
 9055SOL    HW228065   1.685   2.646   5.179
 9056SOL     OW28066   5.160   2.189   1.543
 9056SOL    HW128067   5.082   2.204   1.482
 9056SOL    HW228068   5.212   2.274   1.551
 9057SOL     OW28069   3.377   7.000   6.166
 9057SOL    HW128070   3.370   6.905   6.196
 9057SOL    HW228071   3.443   0.029   6.223
 9058SOL     OW28072   2.178   3.142   3.751
 9058SOL    HW128073   2.168   3.188   3.663
 9058SOL    HW228074   2.227   3.056   3.739
 9059SOL     OW28075   6.954   0.711   2.272
 9059SOL    HW128076   7.008   0.680   2.193
 9059SOL    HW228077   7.008   0.701   2.355
 9060SOL     OW28078   0.523   5.219   6.748
 9060SOL    HW128079   0.526   5.228   6.649
 9060SOL    HW228080   0.439   5.259   6.783
 9061SOL     OW28081   3.867   4.830   2.625
 9061SOL    HW128082   3.791   4.792   2.677
 9061SOL    HW228083   3.937   4.759   2.614
 9062SOL     OW28084   0.408   5.747   2.553
 9062SOL    HW128085   0.321   5.701   2.537
 9062SOL    HW228086   0.412   5.778   2.648
 9063SOL     OW28087   6.160   6.778   0.983
 9063SOL    HW128088   6.125   6.871   0.973
 9063SOL    HW228089   6.163   6.734   0.894
 9064SOL     OW28090   1.343   5.621   2.836
 9064SOL    HW128091   1.393   5.695   2.790
 9064SOL    HW228092   1.355   5.629   2.935
 9065SOL     OW28093   2.951   3.848   0.028
 9065SOL    HW128094   2.872   3.790   0.049
 9065SOL    HW228095   2.920   3.932   7.004
 9066SOL     OW28096   5.342   4.977   2.976
 9066SOL    HW128097   5.423   4.993   2.921
 9066SOL    HW228098   5.348   4.887   3.020
 9067SOL     OW28099   2.031   6.952   4.438
 9067SOL    HW128100   1.957   6.912   4.384
 9067SOL    HW228101   2.032   6.908   4.529
 9068SOL     OW28102   5.147   0.438   5.612
 9068SOL    HW128103   5.140   0.338   5.612
 9068SOL    HW228104   5.204   0.468   5.689
 9069SOL     OW28105   4.578   2.156   2.163
 9069SOL    HW128106   4.559   2.109   2.249
 9069SOL    HW228107   4.648   2.226   2.178
 9070SOL     OW28108   1.354   0.437   6.619
 9070SOL    HW128109   1.377   0.341   6.635
 9070SOL    HW228110   1.372   0.489   6.702
 9071SOL     OW28111   5.420   2.828   0.199
 9071SOL    HW128112   5.493   2.800   0.137
 9071SOL    HW228113   5.350   2.757   0.203
 9072SOL     OW28114   6.570   1.150   2.083
 9072SOL    HW128115   6.626   1.089   2.026
 9072SOL    HW228116   6.602   1.244   2.071
 9073SOL     OW28117   4.900   2.612   6.068
 9073SOL    HW128118   4.800   2.615   6.058
 9073SOL    HW228119   4.925   2.538   6.130
 9074SOL     OW28120   2.141   0.636   3.505
 9074SOL    HW128121   2.100   0.701   3.441
 9074SOL    HW228122   2.232   0.667   3.531
 9075SOL     OW28123   4.948   5.755   0.932
 9075SOL    HW128124   5.035   5.709   0.950
 9075SOL    HW228125   4.935   5.765   0.833
 9076SOL     OW28126   1.319   6.650   2.633
 9076SOL    HW128127   1.243   6.665   2.695
 9076SOL    HW228128   1.317   6.556   2.599
 9077SOL     OW28129   6.719   1.223   6.594
 9077SOL    HW128130   6.674   1.141   6.560
 9077SOL    HW228131   6.809   1.199   6.630
 9078SOL     OW28132   5.198   6.831   6.328
 9078SOL    HW128133   5.198   6.926   6.297
 9078SOL    HW228134   5.178   6.829   6.426
 9079SOL     OW28135   2.080   1.758   6.403
 9079SOL    HW128136   2.171   1.773   6.443
 9079SOL    HW228137   2.082   1.677   6.345
 9080SOL     OW28138   6.410   4.621   0.725
 9080SOL    HW128139   6.324   4.589   0.684
 9080SOL    HW228140   6.419   4.719   0.710
 9081SOL     OW28141   4.494   1.062   6.779
 9081SOL    HW128142   4.445   1.145   6.806
 9081SOL    HW228143   4.477   1.044   6.682
 9082SOL     OW28144   3.096   4.676   6.482
 9082SOL    HW128145   3.121   4.756   6.427
 9082SOL    HW228146   3.178   4.621   6.500
 9083SOL     OW28147   3.994   0.262   0.962
 9083SOL    HW128148   4.044   0.192   1.013
 9083SOL    HW228149   4.044   0.284   0.878
 9084SOL     OW28150   6.910   4.897   4.491
 9084SOL    HW128151   6.837   4.938   4.437
 9084SOL    HW228152   6.947   4.817   4.444
 9085SOL     OW28153   3.323   4.877   1.502
 9085SOL    HW128154   3.341   4.965   1.459
 9085SOL    HW228155   3.225   4.864   1.513
 9086SOL     OW28156   6.843   1.844   0.179
 9086SOL    HW128157   6.827   1.942   0.194
 9086SOL    HW228158   6.756   1.799   0.158
 9087SOL     OW28159   4.586   1.377   0.633
 9087SOL    HW128160   4.625   1.307   0.693
 9087SOL    HW228161   4.654   1.405   0.565
 9088SOL     OW28162   5.009   6.679   0.427
 9088SOL    HW128163   5.062   6.731   0.361
 9088SOL    HW228164   5.016   6.581   0.406
 9089SOL     OW28165   5.276   5.616   3.087
 9089SOL    HW128166   5.236   5.654   3.003
 9089SOL    HW228167   5.253   5.676   3.164
 9090SOL     OW28168   6.097   5.410   5.153
 9090SOL    HW128169   6.190   5.440   5.128
 9090SOL    HW228170   6.103   5.337   5.220
 9091SOL     OW28171   2.070   2.053   1.741
 9091SOL    HW128172   2.088   1.957   1.716
 9091SOL    HW228173   2.151   2.108   1.721
 9092SOL     OW28174   3.051   1.788   5.342
 9092SOL    HW128175   3.078   1.814   5.250
 9092SOL    HW228176   2.994   1.860   5.382
 9093SOL     OW28177   1.862   3.511   0.575
 9093SOL    HW128178   1.888   3.429   0.625
 9093SOL    HW228179   1.767   3.502   0.543
 9094SOL     OW28180   6.740   2.381   6.707
 9094SOL    HW128181   6.835   2.365   6.731
 9094SOL    HW228182   6.726   2.361   6.610
 9095SOL     OW28183   1.975   2.675   0.622
 9095SOL    HW128184   1.974   2.706   0.527
 9095SOL    HW228185   1.945   2.749   0.682
 9096SOL     OW28186   6.990   4.223   2.516
 9096SOL    HW128187   6.948   4.293   2.573
 9096SOL    HW228188   0.012   4.153   2.574
 9097SOL     OW28189   6.740   5.940   6.396
 9097SOL    HW128190   6.735   5.936   6.296
 9097SOL    HW228191   6.783   5.857   6.431
 9098SOL     OW28192   3.692   3.483   5.461
 9098SOL    HW128193   3.783   3.522   5.452
 9098SOL    HW228194   3.699   3.383   5.465
 9099SOL     OW28195   2.133   2.755   0.055
 9099SOL    HW128196   2.145   2.837   7.019
 9099SOL    HW228197   2.186   2.680   0.016
 9100SOL     OW28198   1.439   2.482   0.713
 9100SOL    HW128199   1.487   2.550   0.769
 9100SOL    HW228200   1.503   2.441   0.648
 9101SOL     OW28201   2.422   2.055   0.181
 9101SOL    HW128202   2.408   2.013   0.092
 9101SOL    HW228203   2.517   2.041   0.210
 9102SOL     OW28204   4.504   6.477   2.556
 9102SOL    HW128205   4.449   6.459   2.638
 9102SOL    HW228206   4.576   6.542   2.579
 9103SOL     OW28207   1.153   4.373   6.198
 9103SOL    HW128208   1.146   4.291   6.255
 9103SOL    HW228209   1.073   4.431   6.213
 9104SOL     OW28210   4.579   6.826   2.731
 9104SOL    HW128211   4.603   6.923   2.740
 9104SOL    HW228212   4.484   6.813   2.758
 9105SOL     OW28213   3.622   2.447   6.032
 9105SOL    HW128214   3.683   2.514   6.074
 9105SOL    HW228215   3.549   2.496   5.983
 9106SOL     OW28216   6.486   5.540   1.208
 9106SOL    HW128217   6.576   5.583   1.221
 9106SOL    HW228218   6.415   5.611   1.209
 9107SOL     OW28219   4.931   6.179   6.449
 9107SOL    HW128220   5.027   6.149   6.449
 9107SOL    HW228221   4.910   6.223   6.536
 9108SOL     OW28222   3.766   5.778   0.788
 9108SOL    HW128223   3.826   5.701   0.765
 9108SOL    HW228224   3.692   5.746   0.847
 9109SOL     OW28225   3.645   2.126   3.999
 9109SOL    HW128226   3.620   2.122   4.096
 9109SOL    HW228227   3.563   2.117   3.943
 9110SOL     OW28228   0.773   3.703   3.990
 9110SOL    HW128229   0.715   3.677   4.068
 9110SOL    HW228230   0.823   3.622   3.958
 9111SOL     OW28231   3.632   4.164   1.688
 9111SOL    HW128232   3.611   4.186   1.783
 9111SOL    HW228233   3.684   4.079   1.684
 9112SOL     OW28234   0.947   6.504   2.278
 9112SOL    HW128235   0.925   6.537   2.186
 9112SOL    HW228236   0.969   6.406   2.274
 9113SOL     OW28237   2.414   5.696   0.032
 9113SOL    HW128238   2.378   5.603   0.041
 9113SOL    HW228239   2.473   5.717   0.111
 9114SOL     OW28240   2.648   3.489   1.692
 9114SOL    HW128241   2.722   3.451   1.748
 9114SOL    HW228242   2.562   3.485   1.743
 9115SOL     OW28243   1.459   4.190   4.539
 9115SOL    HW128244   1.371   4.193   4.491
 9115SOL    HW228245   1.449   4.234   4.628
 9116SOL     OW28246   3.123   2.503   6.336
 9116SOL    HW128247   3.145   2.423   6.279
 9116SOL    HW228248   3.202   2.563   6.342
 9117SOL     OW28249   0.540   2.725   0.049
 9117SOL    HW128250   0.466   2.663   0.074
 9117SOL    HW228251   0.508   2.820   0.054
 9118SOL     OW28252   0.410   6.770   1.627
 9118SOL    HW128253   0.405   6.689   1.685
 9118SOL    HW228254   0.499   6.773   1.581
 9119SOL     OW28255   5.712   6.961   1.061
 9119SOL    HW128256   5.669   6.946   0.972
 9119SOL    HW228257   5.642   6.965   1.132
 9120SOL     OW28258   6.166   0.320   0.450
 9120SOL    HW128259   6.157   0.355   0.357
 9120SOL    HW228260   6.127   0.228   0.455
 9121SOL     OW28261   1.430   1.209   6.485
 9121SOL    HW128262   1.446   1.307   6.488
 9121SOL    HW228263   1.482   1.164   6.558
 9122SOL     OW28264   0.502   3.159   1.067
 9122SOL    HW128265   0.443   3.186   1.143
 9122SOL    HW228266   0.453   3.171   0.981
 9123SOL     OW28267   1.201   6.269   6.051
 9123SOL    HW128268   1.117   6.220   6.078
 9123SOL    HW228269   1.241   6.225   5.971
 9124SOL     OW28270   0.315   4.269   4.615
 9124SOL    HW128271   0.387   4.241   4.552
 9124SOL    HW228272   0.232   4.289   4.564
 9125SOL     OW28273   4.832   5.992   1.073
 9125SOL    HW128274   4.742   6.027   1.045
 9125SOL    HW228275   4.875   5.944   0.997
 9126SOL     OW28276   5.610   0.664   3.168
 9126SOL    HW128277   5.561   0.616   3.241
 9126SOL    HW228278   5.702   0.628   3.160
 9127SOL     OW28279   5.966   5.235   5.593
 9127SOL    HW128280   6.041   5.299   5.579
 9127SOL    HW228281   5.908   5.267   5.668
 9128SOL     OW28282   4.776   2.790   5.448
 9128SOL    HW128283   4.749   2.815   5.355
 9128SOL    HW228284   4.734   2.854   5.512
 9129SOL     OW28285   2.844   1.241   0.315
 9129SOL    HW128286   2.824   1.235   0.413
 9129SOL    HW228287   2.852   1.150   0.276
 9130SOL     OW28288   5.756   5.490   0.769
 9130SOL    HW128289   5.773   5.572   0.824
 9130SOL    HW228290   5.801   5.500   0.680
 9131SOL     OW28291   1.163   4.714   4.159
 9131SOL    HW128292   1.129   4.803   4.129
 9131SOL    HW228293   1.217   4.725   4.243
 9132SOL     OW28294   1.569   2.724   4.205
 9132SOL    HW128295   1.472   2.735   4.224
 9132SOL    HW228296   1.599   2.795   4.140
 9133SOL     OW28297   1.343   5.361   0.809
 9133SOL    HW128298   1.372   5.430   0.876
 9133SOL    HW228299   1.271   5.400   0.751
 9134SOL     OW28300   2.938   5.116   6.378
 9134SOL    HW128301   3.037   5.106   6.372
 9134SOL    HW228302   2.896   5.029   6.404
 9135SOL     OW28303   1.043   6.327   3.348
 9135SOL    HW128304   1.074   6.388   3.275
 9135SOL    HW228305   1.100   6.341   3.429
 9136SOL     OW28306   3.347   5.155   5.363
 9136SOL    HW128307   3.373   5.063   5.392
 9136SOL    HW228308   3.427   5.215   5.368
 9137SOL     OW28309   4.111   0.586   2.190
 9137SOL    HW128310   4.174   0.541   2.252
 9137SOL    HW228311   4.113   0.540   2.101
 9138SOL     OW28312   3.426   4.765   1.215
 9138SOL    HW128313   3.436   4.741   1.312
 9138SOL    HW228314   3.503   4.727   1.164
 9139SOL     OW28315   3.767   0.869   5.850
 9139SOL    HW128316   3.721   0.873   5.761
 9139SOL    HW228317   3.774   0.774   5.879
 9140SOL     OW28318   6.270   2.562   3.479
 9140SOL    HW128319   6.223   2.632   3.532
 9140SOL    HW228320   6.313   2.496   3.540
 9141SOL     OW28321   5.353   0.520   5.795
 9141SOL    HW128322   5.441   0.493   5.834
 9141SOL    HW228323   5.298   0.565   5.865
 9142SOL     OW28324   1.513   3.789   6.670
 9142SOL    HW128325   1.470   3.871   6.633
 9142SOL    HW228326   1.513   3.794   6.770
 9143SOL     OW28327   6.329   4.499   6.867
 9143SOL    HW128328   6.390   4.419   6.866
 9143SOL    HW228329   6.244   4.478   6.819
 9144SOL     OW28330   0.869   5.363   4.206
 9144SOL    HW128331   0.819   5.359   4.120
 9144SOL    HW228332   0.956   5.411   4.193
 9145SOL     OW28333   1.246   3.545   6.635
 9145SOL    HW128334   1.153   3.568   6.607
 9145SOL    HW228335   1.311   3.583   6.570
 9146SOL     OW28336   0.890   1.369   1.004
 9146SOL    HW128337   0.812   1.365   1.066
 9146SOL    HW228338   0.884   1.451   0.947
 9147SOL     OW28339   4.199   5.620   6.659
 9147SOL    HW128340   4.210   5.563   6.577
 9147SOL    HW228341   4.102   5.621   6.686
 9148SOL     OW28342   3.340   4.911   2.813
 9148SOL    HW128343   3.336   5.009   2.793
 9148SOL    HW228344   3.249   4.877   2.835
 9149SOL     OW28345   6.250   2.985   5.171
 9149SOL    HW128346   6.266   2.937   5.086
 9149SOL    HW228347   6.171   2.945   5.218
 9150SOL     OW28348   4.120   1.210   2.936
 9150SOL    HW128349   4.199   1.233   2.993
 9150SOL    HW228350   4.069   1.294   2.915
 9151SOL     OW28351   6.255   3.140   2.257
 9151SOL    HW128352   6.174   3.105   2.210
 9151SOL    HW228353   6.308   3.063   2.292
 9152SOL     OW28354   2.310   4.906   3.079
 9152SOL    HW128355   2.373   4.884   3.153
 9152SOL    HW228356   2.343   4.988   3.031
 9153SOL     OW28357   2.151   2.915   0.445
 9153SOL    HW128358   2.113   3.008   0.455
 9153SOL    HW228359   2.079   2.854   0.412
 9154SOL     OW28360   1.130   5.676   0.773
 9154SOL    HW128361   1.093   5.584   0.776
 9154SOL    HW228362   1.131   5.709   0.679
 9155SOL     OW28363   1.452   4.643   0.246
 9155SOL    HW128364   1.453   4.609   0.340
 9155SOL    HW228365   1.358   4.651   0.214
 9156SOL     OW28366   4.879   2.707   1.582
 9156SOL    HW128367   4.866   2.801   1.613
 9156SOL    HW228368   4.791   2.660   1.581
 9157SOL     OW28369   5.682   3.443   5.499
 9157SOL    HW128370   5.701   3.504   5.422
 9157SOL    HW228371   5.624   3.491   5.565
 9158SOL     OW28372   1.135   4.441   4.070
 9158SOL    HW128373   1.227   4.407   4.092
 9158SOL    HW228374   1.128   4.537   4.095
 9159SOL     OW28375   0.134   4.970   1.834
 9159SOL    HW128376   0.213   5.019   1.796
 9159SOL    HW228377   0.153   4.946   1.929
 9160SOL     OW28378   0.420   0.103   1.167
 9160SOL    HW128379   0.475   0.169   1.115
 9160SOL    HW228380   0.477   0.024   1.191
 9161SOL     OW28381   5.323   4.208   2.595
 9161SOL    HW128382   5.379   4.240   2.518
 9161SOL    HW228383   5.249   4.150   2.561
 9162SOL     OW28384   4.933   2.664   3.545
 9162SOL    HW128385   4.921   2.732   3.472
 9162SOL    HW228386   4.976   2.582   3.508
 9163SOL     OW28387   3.901   0.794   4.867
 9163SOL    HW128388   3.852   0.881   4.856
 9163SOL    HW228389   3.937   0.765   4.778
 9164SOL     OW28390   2.634   0.720   1.052
 9164SOL    HW128391   2.568   0.787   1.086
 9164SOL    HW228392   2.608   0.691   0.960
 9165SOL     OW28393   4.954   6.076   0.770
 9165SOL    HW128394   5.019   6.019   0.721
 9165SOL    HW228395   4.863   6.064   0.730
 9166SOL     OW28396   3.049   5.496   0.946
 9166SOL    HW128397   3.080   5.426   0.882
 9166SOL    HW228398   3.051   5.586   0.902
 9167SOL     OW28399   0.459   3.505   4.596
 9167SOL    HW128400   0.367   3.523   4.632
 9167SOL    HW228401   0.457   3.422   4.541
 9168SOL     OW28402   3.490   0.447   0.542
 9168SOL    HW128403   3.483   0.526   0.482
 9168SOL    HW228404   3.439   0.370   0.503
 9169SOL     OW28405   0.343   6.838   3.845
 9169SOL    HW128406   0.269   6.772   3.858
 9169SOL    HW228407   0.315   6.928   3.878
 9170SOL     OW28408   6.378   5.681   6.845
 9170SOL    HW128409   6.341   5.666   6.754
 9170SOL    HW228410   6.465   5.729   6.838
 9171SOL     OW28411   3.560   5.621   5.310
 9171SOL    HW128412   3.649   5.629   5.264
 9171SOL    HW228413   3.540   5.706   5.360
 9172SOL     OW28414   2.344   2.354   3.950
 9172SOL    HW128415   2.305   2.406   4.025
 9172SOL    HW228416   2.341   2.408   3.866
 9173SOL     OW28417   0.041   5.090   5.260
 9173SOL    HW128418   6.969   5.118   5.287
 9173SOL    HW228419   0.053   4.992   5.276
 9174SOL     OW28420   0.346   5.693   6.435
 9174SOL    HW128421   0.354   5.593   6.433
 9174SOL    HW228422   0.417   5.731   6.495
 9175SOL     OW28423   2.537   6.158   5.871
 9175SOL    HW128424   2.468   6.186   5.937
 9175SOL    HW228425   2.495   6.099   5.801
 9176SOL     OW28426   1.518   2.469   5.762
 9176SOL    HW128427   1.497   2.382   5.716
 9176SOL    HW228428   1.604   2.460   5.812
 9177SOL     OW28429   1.411   4.198   3.146
 9177SOL    HW128430   1.379   4.146   3.225
 9177SOL    HW228431   1.342   4.193   3.073
 9178SOL     OW28432   1.929   4.116   0.579
 9178SOL    HW128433   1.982   4.163   0.509
 9178SOL    HW228434   1.948   4.155   0.668
 9179SOL     OW28435   2.681   4.789   5.537
 9179SOL    HW128436   2.682   4.719   5.465
 9179SOL    HW228437   2.774   4.803   5.571
 9180SOL     OW28438   5.033   2.055   2.441
 9180SOL    HW128439   4.936   2.082   2.436
 9180SOL    HW228440   5.058   2.038   2.536
 9181SOL     OW28441   4.180   0.993   2.530
 9181SOL    HW128442   4.262   1.032   2.571
 9181SOL    HW228443   4.196   0.976   2.432
 9182SOL     OW28444   2.249   6.552   1.815
 9182SOL    HW128445   2.235   6.501   1.730
 9182SOL    HW228446   2.337   6.599   1.812
 9183SOL     OW28447   5.003   5.399   5.758
 9183SOL    HW128448   5.063   5.334   5.710
 9183SOL    HW228449   5.052   5.485   5.772
 9184SOL     OW28450   4.804   6.845   0.166
 9184SOL    HW128451   4.794   6.759   0.217
 9184SOL    HW228452   4.735   6.910   0.197
 9185SOL     OW28453   5.256   1.475   4.629
 9185SOL    HW128454   5.309   1.391   4.643
 9185SOL    HW228455   5.184   1.481   4.698
 9186SOL     OW28456   5.264   0.697   5.984
 9186SOL    HW128457   5.268   0.656   6.076
 9186SOL    HW228458   5.206   0.778   5.986
 9187SOL     OW28459   2.624   6.230   3.391
 9187SOL    HW128460   2.608   6.169   3.469
 9187SOL    HW228461   2.538   6.276   3.367
 9188SOL     OW28462   2.660   5.411   0.795
 9188SOL    HW128463   2.615   5.469   0.727
 9188SOL    HW228464   2.662   5.317   0.762
 9189SOL     OW28465   5.156   4.808   1.986
 9189SOL    HW128466   5.224   4.870   1.946
 9189SOL    HW228467   5.115   4.752   1.914
 9190SOL     OW28468   1.484   6.301   6.570
 9190SOL    HW128469   1.418   6.286   6.496
 9190SOL    HW228470   1.573   6.323   6.531
 9191SOL     OW28471   0.038   1.013   5.591
 9191SOL    HW128472   0.086   1.055   5.668
 9191SOL    HW228473   6.974   1.063   5.572
 9192SOL     OW28474   1.127   3.666   5.520
 9192SOL    HW128475   1.103   3.733   5.450
 9192SOL    HW228476   1.047   3.646   5.576
 9193SOL     OW28477   3.312   3.817   0.438
 9193SOL    HW128478   3.268   3.810   0.348
 9193SOL    HW228479   3.295   3.734   0.490
 9194SOL     OW28480   3.217   1.010   4.206
 9194SOL    HW128481   3.255   0.941   4.268
 9194SOL    HW228482   3.283   1.084   4.195
 9195SOL     OW28483   1.617   1.144   3.904
 9195SOL    HW128484   1.700   1.190   3.872
 9195SOL    HW228485   1.568   1.205   3.966
 9196SOL     OW28486   5.049   1.218   6.060
 9196SOL    HW128487   5.134   1.260   6.088
 9196SOL    HW228488   5.063   1.119   6.047
 9197SOL     OW28489   2.365   3.593   0.616
 9197SOL    HW128490   2.351   3.530   0.539
 9197SOL    HW228491   2.427   3.667   0.588
 9198SOL     OW28492   0.946   4.645   4.715
 9198SOL    HW128493   0.849   4.651   4.693
 9198SOL    HW228494   0.961   4.567   4.776
 9199SOL     OW28495   5.689   4.404   4.939
 9199SOL    HW128496   5.742   4.435   5.018
 9199SOL    HW228497   5.604   4.361   4.970
 9200SOL     OW28498   2.866   6.790   0.148
 9200SOL    HW128499   2.828   6.805   0.239
 9200SOL    HW228500   2.875   6.877   0.099
 9201SOL     OW28501   2.273   4.543   0.730
 9201SOL    HW128502   2.259   4.514   0.825
 9201SOL    HW228503   2.184   4.560   0.687
 9202SOL     OW28504   2.621   0.876   3.551
 9202SOL    HW128505   2.693   0.924   3.600
 9202SOL    HW228506   2.661   0.801   3.498
 9203SOL     OW28507   0.016   6.492   1.015
 9203SOL    HW128508   0.105   6.458   0.984
 9203SOL    HW228509   6.992   6.543   0.941
 9204SOL     OW28510   6.058   0.948   5.519
 9204SOL    HW128511   6.017   0.857   5.513
 9204SOL    HW228512   6.069   0.985   5.427
 9205SOL     OW28513   0.034   5.647   2.098
 9205SOL    HW128514   0.026   5.648   2.198
 9205SOL    HW228515   0.124   5.614   2.072
 9206SOL     OW28516   3.555   6.987   6.910
 9206SOL    HW128517   3.588   0.054   6.946
 9206SOL    HW228518   3.516   6.932   6.984
 9207SOL     OW28519   5.644   5.919   6.068
 9207SOL    HW128520   5.631   5.986   5.994
 9207SOL    HW228521   5.581   5.842   6.055
 9208SOL     OW28522   1.166   3.527   2.693
 9208SOL    HW128523   1.126   3.616   2.715
 9208SOL    HW228524   1.224   3.535   2.612
 9209SOL     OW28525   2.428   6.060   6.714
 9209SOL    HW128526   2.409   6.008   6.798
 9209SOL    HW228527   2.351   6.121   6.695
 9210SOL     OW28528   6.278   0.788   4.054
 9210SOL    HW128529   6.286   0.692   4.028
 9210SOL    HW228530   6.278   0.845   3.972
 9211SOL     OW28531   0.894   1.705   3.322
 9211SOL    HW128532   0.952   1.637   3.278
 9211SOL    HW228533   0.886   1.684   3.420
 9212SOL     OW28534   3.876   5.380   4.519
 9212SOL    HW128535   3.910   5.304   4.462
 9212SOL    HW228536   3.927   5.463   4.497
 9213SOL     OW28537   6.084   3.637   0.010
 9213SOL    HW128538   6.135   3.632   0.096
 9213SOL    HW228539   5.998   3.686   0.025
 9214SOL     OW28540   0.396   5.315   0.325
 9214SOL    HW128541   0.301   5.299   0.297
 9214SOL    HW228542   0.440   5.227   0.343
 9215SOL     OW28543   1.062   1.223   0.843
 9215SOL    HW128544   1.019   1.225   0.753
 9215SOL    HW228545   1.022   1.295   0.900
 9216SOL     OW28546   1.893   0.213   3.724
 9216SOL    HW128547   1.940   0.241   3.640
 9216SOL    HW228548   1.804   0.256   3.729
 9217SOL     OW28549   0.359   2.203   0.525
 9217SOL    HW128550   0.412   2.127   0.486
 9217SOL    HW228551   0.263   2.193   0.500
 9218SOL     OW28552   2.576   1.279   0.800
 9218SOL    HW128553   2.495   1.329   0.770
 9218SOL    HW228554   2.640   1.271   0.724
 9219SOL     OW28555   6.018   1.657   0.366
 9219SOL    HW128556   5.935   1.610   0.395
 9219SOL    HW228557   6.091   1.640   0.431
 9220SOL     OW28558   2.937   6.592   0.425
 9220SOL    HW128559   2.962   6.548   0.511
 9220SOL    HW228560   2.885   6.675   0.444
 9221SOL     OW28561   2.806   4.793   4.766
 9221SOL    HW128562   2.839   4.743   4.847
 9221SOL    HW228563   2.738   4.737   4.718
 9222SOL     OW28564   2.947   2.076   6.906
 9222SOL    HW128565   2.861   2.025   6.917
 9222SOL    HW228566   2.995   2.042   6.825
 9223SOL     OW28567   2.726   3.243   5.311
 9223SOL    HW128568   2.648   3.188   5.279
 9223SOL    HW228569   2.799   3.183   5.343
 9224SOL     OW28570   2.357   4.721   5.193
 9224SOL    HW128571   2.391   4.714   5.099
 9224SOL    HW228572   2.257   4.732   5.191
 9225SOL     OW28573   1.692   6.110   6.840
 9225SOL    HW128574   1.660   6.184   6.900
 9225SOL    HW228575   1.650   6.024   6.869
 9226SOL     OW28576   4.610   6.090   0.969
 9226SOL    HW128577   4.520   6.053   0.947
 9226SOL    HW228578   4.601   6.171   1.026
 9227SOL     OW28579   1.294   6.450   1.388
 9227SOL    HW128580   1.319   6.544   1.411
 9227SOL    HW228581   1.352   6.386   1.438
 9228SOL     OW28582   0.705   6.505   6.277
 9228SOL    HW128583   0.696   6.525   6.179
 9228SOL    HW228584   0.638   6.558   6.328
 9229SOL     OW28585   1.065   6.003   5.104
 9229SOL    HW128586   1.008   5.959   5.034
 9229SOL    HW228587   1.104   5.934   5.164
 9230SOL     OW28588   4.746   1.735   3.328
 9230SOL    HW128589   4.812   1.809   3.326
 9230SOL    HW228590   4.728   1.709   3.423
 9231SOL     OW28591   2.130   3.543   3.486
 9231SOL    HW128592   2.204   3.608   3.507
 9231SOL    HW228593   2.065   3.586   3.423
 9232SOL     OW28594   4.649   5.233   1.434
 9232SOL    HW128595   4.636   5.295   1.512
 9232SOL    HW228596   4.747   5.221   1.418
 9233SOL     OW28597   5.671   4.588   6.910
 9233SOL    HW128598   5.758   4.613   6.867
 9233SOL    HW228599   5.640   4.664   6.967
 9234SOL     OW28600   1.629   5.990   3.989
 9234SOL    HW128601   1.585   5.988   3.899
 9234SOL    HW228602   1.694   6.066   3.993
 9235SOL     OW28603   0.886   2.292   3.152
 9235SOL    HW128604   0.933   2.327   3.072
 9235SOL    HW228605   0.938   2.314   3.234
 9236SOL     OW28606   3.426   2.581   6.605
 9236SOL    HW128607   3.434   2.680   6.593
 9236SOL    HW228608   3.463   2.535   6.524
 9237SOL     OW28609   1.554   3.794   3.057
 9237SOL    HW128610   1.482   3.736   3.095
 9237SOL    HW228611   1.621   3.738   3.009
 9238SOL     OW28612   4.412   3.330   6.922
 9238SOL    HW128613   4.363   3.354   7.006
 9238SOL    HW228614   4.510   3.345   6.935
 9239SOL     OW28615   2.288   3.030   6.577
 9239SOL    HW128616   2.373   3.022   6.628
 9239SOL    HW228617   2.307   3.072   6.488
 9240SOL     OW28618   4.789   0.730   2.435
 9240SOL    HW128619   4.831   0.811   2.475
 9240SOL    HW228620   4.770   0.747   2.339
 9241SOL     OW28621   0.523   5.422   6.025
 9241SOL    HW128622   0.523   5.482   6.105
 9241SOL    HW228623   0.480   5.469   5.949
 9242SOL     OW28624   5.532   6.375   1.874
 9242SOL    HW128625   5.571   6.350   1.785
 9242SOL    HW228626   5.558   6.306   1.942
 9243SOL     OW28627   5.902   0.035   4.340
 9243SOL    HW128628   5.978   7.006   4.381
 9243SOL    HW228629   5.872   7.006   4.257
 9244SOL     OW28630   3.917   5.933   0.312
 9244SOL    HW128631   3.852   5.867   0.350
 9244SOL    HW228632   3.892   5.953   0.217
 9245SOL     OW28633   0.273   6.860   1.873
 9245SOL    HW128634   0.188   6.809   1.863
 9245SOL    HW228635   0.306   6.889   1.783
 9246SOL     OW28636   0.018   5.070   3.757
 9246SOL    HW128637   6.980   5.149   3.736
 9246SOL    HW228638   6.994   4.986   3.724
 9247SOL     OW28639   1.216   0.455   3.219
 9247SOL    HW128640   1.205   0.463   3.120
 9247SOL    HW228641   1.129   0.475   3.264
 9248SOL     OW28642   4.130   1.708   6.310
 9248SOL    HW128643   4.188   1.709   6.229
 9248SOL    HW228644   4.174   1.653   6.382
 9249SOL     OW28645   3.969   6.551   3.699
 9249SOL    HW128646   4.025   6.468   3.712
 9249SOL    HW228647   3.954   6.595   3.788
 9250SOL     OW28648   4.870   3.774   3.055
 9250SOL    HW128649   4.929   3.765   3.135
 9250SOL    HW228650   4.794   3.835   3.077
 9251SOL     OW28651   3.815   1.835   1.993
 9251SOL    HW128652   3.772   1.861   2.080
 9251SOL    HW228653   3.824   1.736   1.988
 9252SOL     OW28654   1.875   6.677   4.374
 9252SOL    HW128655   1.816   6.634   4.442
 9252SOL    HW228656   1.969   6.647   4.386
 9253SOL     OW28657   1.216   6.624   6.247
 9253SOL    HW128658   1.174   6.696   6.191
 9253SOL    HW228659   1.165   6.539   6.235
 9254SOL     OW28660   4.868   2.275   1.207
 9254SOL    HW128661   4.844   2.315   1.118
 9254SOL    HW228662   4.965   2.291   1.225
 9255SOL     OW28663   0.110   5.130   0.481
 9255SOL    HW128664   0.138   5.167   0.570
 9255SOL    HW228665   0.026   5.077   0.493
 9256SOL     OW28666   4.012   5.241   3.060
 9256SOL    HW128667   4.085   5.307   3.075
 9256SOL    HW228668   4.051   5.149   3.053
 9257SOL     OW28669   0.499   3.423   0.788
 9257SOL    HW128670   0.416   3.381   0.823
 9257SOL    HW228671   0.551   3.463   0.863
 9258SOL     OW28672   3.336   2.998   4.767
 9258SOL    HW128673   3.269   2.983   4.840
 9258SOL    HW228674   3.296   2.970   4.680
 9259SOL     OW28675   1.565   2.353   0.480
 9259SOL    HW128676   1.480   2.302   0.495
 9259SOL    HW228677   1.573   2.378   0.383
 9260SOL     OW28678   0.006   3.734   6.995
 9260SOL    HW128679   0.080   3.694   6.943
 9260SOL    HW228680   0.033   3.743   0.071
 9261SOL     OW28681   2.753   6.681   5.746
 9261SOL    HW128682   2.779   6.640   5.833
 9261SOL    HW228683   2.758   6.611   5.674
 9262SOL     OW28684   5.858   0.102   6.224
 9262SOL    HW128685   5.895   0.021   6.269
 9262SOL    HW228686   5.930   0.171   6.215
 9263SOL     OW28687   6.139   4.090   2.021
 9263SOL    HW128688   6.056   4.141   1.999
 9263SOL    HW228689   6.127   4.044   2.109
 9264SOL     OW28690   5.744   2.581   0.095
 9264SOL    HW128691   5.680   2.506   0.109
 9264SOL    HW228692   5.745   2.639   0.177
 9265SOL     OW28693   1.788   2.362   5.246
 9265SOL    HW128694   1.753   2.381   5.338
 9265SOL    HW228695   1.752   2.430   5.182
 9266SOL     OW28696   2.858   6.383   2.416
 9266SOL    HW128697   2.785   6.381   2.484
 9266SOL    HW228698   2.837   6.317   2.343
 9267SOL     OW28699   2.997   4.905   6.169
 9267SOL    HW128700   3.032   4.948   6.253
 9267SOL    HW228701   3.028   4.956   6.090
 9268SOL     OW28702   1.381   1.003   2.962
 9268SOL    HW128703   1.411   1.081   2.907
 9268SOL    HW228704   1.282   0.992   2.953
 9269SOL     OW28705   4.172   1.258   5.384
 9269SOL    HW128706   4.269   1.243   5.362
 9269SOL    HW228707   4.161   1.264   5.483
 9270SOL     OW28708   1.800   0.356   5.629
 9270SOL    HW128709   1.791   0.343   5.530
 9270SOL    HW228710   1.871   0.424   5.648
 9271SOL     OW28711   0.371   5.076   5.866
 9271SOL    HW128712   0.444   5.034   5.920
 9271SOL    HW228713   0.323   5.144   5.921
 9272SOL     OW28714   2.173   5.213   6.532
 9272SOL    HW128715   2.077   5.233   6.513
 9272SOL    HW228716   2.185   5.191   6.628
 9273SOL     OW28717   3.530   6.231   6.040
 9273SOL    HW128718   3.596   6.200   5.971
 9273SOL    HW228719   3.479   6.310   6.005
 9274SOL     OW28720   5.116   2.223   2.205
 9274SOL    HW128721   5.059   2.296   2.168
 9274SOL    HW228722   5.066   2.172   2.274
 9275SOL     OW28723   0.043   0.387   6.066
 9275SOL    HW128724   0.026   0.288   6.059
 9275SOL    HW228725   0.127   0.403   6.118
 9276SOL     OW28726   4.415   6.773   4.215
 9276SOL    HW128727   4.372   6.722   4.290
 9276SOL    HW228728   4.457   6.856   4.251
 9277SOL     OW28729   4.755   2.597   6.913
 9277SOL    HW128730   4.710   2.513   6.945
 9277SOL    HW228731   4.685   2.665   6.889
 9278SOL     OW28732   1.323   2.512   1.133
 9278SOL    HW128733   1.353   2.441   1.070
 9278SOL    HW228734   1.323   2.476   1.227
 9279SOL     OW28735   2.160   6.335   0.508
 9279SOL    HW128736   2.223   6.402   0.468
 9279SOL    HW228737   2.213   6.266   0.558
 9280SOL     OW28738   1.541   0.520   2.910
 9280SOL    HW128739   1.509   0.547   3.001
 9280SOL    HW228740   1.636   0.548   2.898
 9281SOL     OW28741   2.089   2.395   0.307
 9281SOL    HW128742   2.167   2.457   0.316
 9281SOL    HW228743   2.017   2.439   0.253
 9282SOL     OW28744   3.997   1.302   6.761
 9282SOL    HW128745   3.996   1.215   6.711
 9282SOL    HW228746   3.937   1.368   6.715
 9283SOL     OW28747   5.076   2.316   2.925
 9283SOL    HW128748   5.002   2.346   2.864
 9283SOL    HW228749   5.044   2.240   2.982
 9284SOL     OW28750   3.729   3.929   2.086
 9284SOL    HW128751   3.700   4.019   2.120
 9284SOL    HW228752   3.759   3.873   2.163
 9285SOL     OW28753   6.460   3.047   6.337
 9285SOL    HW128754   6.531   2.978   6.354
 9285SOL    HW228755   6.378   3.002   6.303
 9286SOL     OW28756   5.721   5.304   4.259
 9286SOL    HW128757   5.700   5.398   4.283
 9286SOL    HW228758   5.656   5.272   4.190
 9287SOL     OW28759   3.054   7.014   2.737
 9287SOL    HW128760   3.151   0.013   2.749
 9287SOL    HW228761   3.003   0.035   2.814
 9288SOL     OW28762   4.597   2.264   6.405
 9288SOL    HW128763   4.550   2.203   6.469
 9288SOL    HW228764   4.551   2.353   6.405
 9289SOL     OW28765   5.653   4.032   2.531
 9289SOL    HW128766   5.579   4.057   2.468
 9289SOL    HW228767   5.674   4.110   2.590
 9290SOL     OW28768   4.582   2.190   4.062
 9290SOL    HW128769   4.536   2.279   4.066
 9290SOL    HW228770   4.680   2.205   4.053
 9291SOL     OW28771   1.084   2.406   5.221
 9291SOL    HW128772   1.155   2.385   5.154
 9291SOL    HW228773   1.065   2.325   5.276
 9292SOL     OW28774   0.580   3.763   0.260
 9292SOL    HW128775   0.607   3.846   0.308
 9292SOL    HW228776   0.662   3.711   0.234
 9293SOL     OW28777   5.912   3.846   5.912
 9293SOL    HW128778   5.951   3.910   5.978
 9293SOL    HW228779   5.977   3.773   5.892
 9294SOL     OW28780   5.412   5.781   6.451
 9294SOL    HW128781   5.468   5.862   6.473
 9294SOL    HW228782   5.368   5.748   6.534
 9295SOL     OW28783   4.748   2.813   3.376
 9295SOL    HW128784   4.676   2.786   3.441
 9295SOL    HW228785   4.710   2.818   3.284
 9296SOL     OW28786   6.038   0.503   5.095
 9296SOL    HW128787   6.084   0.560   5.163
 9296SOL    HW228788   5.974   0.559   5.043
 9297SOL     OW28789   0.711   0.530   1.991
 9297SOL    HW128790   0.762   0.614   1.976
 9297SOL    HW228791   0.774   0.454   2.004
 9298SOL     OW28792   0.810   6.753   4.983
 9298SOL    HW128793   0.770   6.844   4.973
 9298SOL    HW228794   0.900   6.751   4.941
 9299SOL     OW28795   1.870   2.842   4.284
 9299SOL    HW128796   1.880   2.750   4.323
 9299SOL    HW228797   1.942   2.901   4.319
 9300SOL     OW28798   6.013   4.791   3.460
 9300SOL    HW128799   6.016   4.699   3.422
 9300SOL    HW228800   6.087   4.846   3.421
 9301SOL     OW28801   6.735   4.827   1.184
 9301SOL    HW128802   6.708   4.748   1.239
 9301SOL    HW228803   6.654   4.879   1.157
 9302SOL     OW28804   1.444   2.181   2.302
 9302SOL    HW128805   1.388   2.149   2.378
 9302SOL    HW228806   1.432   2.119   2.224
 9303SOL     OW28807   4.810   3.981   0.703
 9303SOL    HW128808   4.786   4.073   0.734
 9303SOL    HW228809   4.815   3.980   0.603
 9304SOL     OW28810   4.545   3.877   0.984
 9304SOL    HW128811   4.460   3.925   0.964
 9304SOL    HW228812   4.532   3.817   1.063
 9305SOL     OW28813   4.888   3.823   1.881
 9305SOL    HW128814   4.792   3.801   1.868
 9305SOL    HW228815   4.937   3.811   1.794
 9306SOL     OW28816   6.880   5.857   3.944
 9306SOL    HW128817   6.851   5.876   4.038
 9306SOL    HW228818   6.820   5.789   3.903
 9307SOL     OW28819   2.124   0.815   5.809
 9307SOL    HW128820   2.155   0.910   5.811
 9307SOL    HW228821   2.188   0.759   5.757
 9308SOL     OW28822   6.877   2.489   0.300
 9308SOL    HW128823   6.850   2.514   0.393
 9308SOL    HW228824   6.798   2.451   0.252
 9309SOL     OW28825   5.176   3.043   6.375
 9309SOL    HW128826   5.128   3.058   6.462
 9309SOL    HW228827   5.122   2.980   6.318
 9310SOL     OW28828   3.643   0.066   1.538
 9310SOL    HW128829   3.715   0.012   1.495
 9310SOL    HW228830   3.566   0.006   1.562
 9311SOL     OW28831   6.942   3.615   1.789
 9311SOL    HW128832   6.983   3.586   1.702
 9311SOL    HW228833   6.861   3.670   1.770
 9312SOL     OW28834   1.927   4.006   4.934
 9312SOL    HW128835   2.007   4.029   4.880
 9312SOL    HW228836   1.856   3.967   4.875
 9313SOL     OW28837   6.302   6.815   2.498
 9313SOL    HW128838   6.227   6.807   2.432
 9313SOL    HW228839   6.384   6.847   2.451
 9314SOL     OW28840   6.616   4.272   0.343
 9314SOL    HW128841   6.703   4.270   0.294
 9314SOL    HW228842   6.603   4.185   0.391
 9315SOL     OW28843   0.351   6.079   6.492
 9315SOL    HW128844   0.266   6.105   6.538
 9315SOL    HW228845   0.367   5.981   6.506
 9316SOL     OW28846   3.191   5.155   4.384
 9316SOL    HW128847   3.102   5.141   4.341
 9316SOL    HW228848   3.203   5.089   4.458
 9317SOL     OW28849   4.426   4.043   5.654
 9317SOL    HW128850   4.343   3.988   5.664
 9317SOL    HW228851   4.483   4.033   5.736
 9318SOL     OW28852   6.688   6.582   6.230
 9318SOL    HW128853   6.647   6.646   6.166
 9318SOL    HW228854   6.645   6.492   6.222
 9319SOL     OW28855   6.189   3.786   4.635
 9319SOL    HW128856   6.149   3.780   4.544
 9319SOL    HW228857   6.149   3.715   4.693
 9320SOL     OW28858   3.788   2.990   5.838
 9320SOL    HW128859   3.845   2.942   5.772
 9320SOL    HW228860   3.724   2.925   5.880
 9321SOL     OW28861   6.025   6.287   4.373
 9321SOL    HW128862   5.969   6.207   4.398
 9321SOL    HW228863   6.042   6.343   4.454
 9322SOL     OW28864   1.106   6.216   0.678
 9322SOL    HW128865   1.195   6.241   0.717
 9322SOL    HW228866   1.033   6.239   0.742
 9323SOL     OW28867   0.447   1.300   6.569
 9323SOL    HW128868   0.542   1.270   6.558
 9323SOL    HW228869   0.398   1.284   6.483
 9324SOL     OW28870   1.368   5.189   6.861
 9324SOL    HW128871   1.400   5.159   6.771
 9324SOL    HW228872   1.291   5.251   6.849
 9325SOL     OW28873   0.336   2.756   6.840
 9325SOL    HW128874   0.319   2.703   6.923
 9325SOL    HW228875   0.335   2.696   6.761
 9326SOL     OW28876   2.319   5.829   1.658
 9326SOL    HW128877   2.240   5.771   1.640
 9326SOL    HW228878   2.385   5.779   1.715
 9327SOL     OW28879   2.540   1.566   3.727
 9327SOL    HW128880   2.574   1.496   3.664
 9327SOL    HW228881   2.589   1.652   3.712
 9328SOL     OW28882   2.694   1.062   2.521
 9328SOL    HW128883   2.706   1.028   2.614
 9328SOL    HW228884   2.596   1.062   2.498
 9329SOL     OW28885   0.694   4.072   1.817
 9329SOL    HW128886   0.651   4.013   1.885
 9329SOL    HW228887   0.792   4.052   1.813
 9330SOL     OW28888   4.886   6.284   6.710
 9330SOL    HW128889   4.964   6.283   6.773
 9330SOL    HW228890   4.869   6.378   6.681
 9331SOL     OW28891   0.854   1.530   0.465
 9331SOL    HW128892   0.770   1.564   0.422
 9331SOL    HW228893   0.898   1.464   0.404
 9332SOL     OW28894   3.650   4.064   5.435
 9332SOL    HW128895   3.583   3.991   5.419
 9332SOL    HW228896   3.698   4.047   5.521
 9333SOL     OW28897   5.071   6.187   0.994
 9333SOL    HW128898   5.015   6.147   0.922
 9333SOL    HW228899   5.032   6.164   1.083
 9334SOL     OW28900   2.452   6.872   4.147
 9334SOL    HW128901   2.531   6.819   4.178
 9334SOL    HW228902   2.445   6.956   4.200
 9335SOL     OW28903   0.273   1.530   1.942
 9335SOL    HW128904   0.283   1.534   1.842
 9335SOL    HW228905   0.351   1.482   1.981
 9336SOL     OW28906   2.918   0.042   5.140
 9336SOL    HW128907   2.969   0.069   5.059
 9336SOL    HW228908   2.973   0.061   5.222
 9337SOL     OW28909   4.766   6.741   2.913
 9337SOL    HW128910   4.695   6.765   2.847
 9337SOL    HW228911   4.840   6.808   2.907
 9338SOL     OW28912   2.603   6.749   2.206
 9338SOL    HW128913   2.575   6.660   2.169
 9338SOL    HW228914   2.577   6.755   2.302
 9339SOL     OW28915   3.541   5.583   1.684
 9339SOL    HW128916   3.450   5.621   1.699
 9339SOL    HW228917   3.571   5.604   1.591
 9340SOL     OW28918   6.773   2.833   0.500
 9340SOL    HW128919   6.716   2.751   0.512
 9340SOL    HW228920   6.857   2.808   0.453
 9341SOL     OW28921   0.787   4.033   5.685
 9341SOL    HW128922   0.782   4.115   5.628
 9341SOL    HW228923   0.707   4.029   5.745
 9342SOL     OW28924   1.773   0.598   6.831
 9342SOL    HW128925   1.864   0.607   6.871
 9342SOL    HW228926   1.771   0.523   6.765
 9343SOL     OW28927   5.820   6.469   3.699
 9343SOL    HW128928   5.899   6.508   3.745
 9343SOL    HW228929   5.802   6.519   3.614
 9344SOL     OW28930   5.222   6.394   0.546
 9344SOL    HW128931   5.129   6.369   0.519
 9344SOL    HW228932   5.278   6.407   0.464
 9345SOL     OW28933   0.453   2.322   0.745
 9345SOL    HW128934   0.434   2.278   0.657
 9345SOL    HW228935   0.535   2.378   0.736
 9346SOL     OW28936   5.665   0.835   0.376
 9346SOL    HW128937   5.690   0.749   0.420
 9346SOL    HW228938   5.588   0.820   0.314
 9347SOL     OW28939   1.703   6.196   2.102
 9347SOL    HW128940   1.778   6.237   2.050
 9347SOL    HW228941   1.674   6.259   2.174
 9348SOL     OW28942   2.998   5.121   0.604
 9348SOL    HW128943   2.965   5.213   0.626
 9348SOL    HW228944   2.979   5.059   0.680
 9349SOL     OW28945   1.428   6.207   2.557
 9349SOL    HW128946   1.364   6.249   2.621
 9349SOL    HW228947   1.387   6.203   2.466
 9350SOL     OW28948   0.394   3.075   5.673
 9350SOL    HW128949   0.483   3.030   5.678
 9350SOL    HW228950   0.335   3.026   5.609
 9351SOL     OW28951   3.070   6.586   6.518
 9351SOL    HW128952   3.154   6.614   6.564
 9351SOL    HW228953   3.092   6.538   6.433
 9352SOL     OW28954   2.629   4.916   6.200
 9352SOL    HW128955   2.560   4.851   6.231
 9352SOL    HW228956   2.720   4.875   6.211
 9353SOL     OW28957   5.903   0.848   1.228
 9353SOL    HW128958   5.967   0.821   1.156
 9353SOL    HW228959   5.918   0.791   1.309
 9354SOL     OW28960   1.032   1.252   5.779
 9354SOL    HW128961   1.021   1.167   5.830
 9354SOL    HW228962   1.105   1.307   5.820
 9355SOL     OW28963   1.186   1.717   5.206
 9355SOL    HW128964   1.096   1.704   5.163
 9355SOL    HW228965   1.210   1.814   5.203
 9356SOL     OW28966   3.856   0.329   3.889
 9356SOL    HW128967   3.860   0.422   3.854
 9356SOL    HW228968   3.809   0.327   3.977
 9357SOL     OW28969   1.971   2.062   0.389
 9357SOL    HW128970   1.903   2.109   0.333
 9357SOL    HW228971   1.980   2.110   0.476
 9358SOL     OW28972   0.877   1.909   1.011
 9358SOL    HW128973   0.891   1.812   1.031
 9358SOL    HW228974   0.907   1.928   0.918
 9359SOL     OW28975   1.104   0.728   5.317
 9359SOL    HW128976   1.030   0.786   5.284
 9359SOL    HW228977   1.111   0.647   5.258
 9360SOL     OW28978   0.145   0.596   5.542
 9360SOL    HW128979   0.130   0.535   5.620
 9360SOL    HW228980   0.209   0.669   5.569
 9361SOL     OW28981   2.085   5.684   4.020
 9361SOL    HW128982   2.130   5.598   3.995
 9361SOL    HW228983   2.041   5.673   4.109
 9362SOL     OW28984   1.702   0.272   2.445
 9362SOL    HW128985   1.772   0.233   2.385
 9362SOL    HW228986   1.650   0.342   2.396
 9363SOL     OW28987   2.093   2.548   2.567
 9363SOL    HW128988   2.149   2.575   2.489
 9363SOL    HW228989   2.152   2.530   2.645
 9364SOL     OW28990   0.332   2.083   6.531
 9364SOL    HW128991   0.304   2.010   6.470
 9364SOL    HW228992   0.430   2.076   6.549
 9365SOL     OW28993   2.676   1.124   5.556
 9365SOL    HW128994   2.660   1.223   5.553
 9365SOL    HW228995   2.651   1.089   5.647
 9366SOL     OW28996   3.425   6.901   2.284
 9366SOL    HW128997   3.379   6.881   2.370
 9366SOL    HW228998   3.380   6.852   2.210
 9367SOL     OW28999   6.917   0.217   1.220
 9367SOL    HW129000   6.840   0.235   1.282
 9367SOL    HW229001   6.946   0.122   1.230
 9368SOL     OW29002   2.437   0.634   3.016
 9368SOL    HW129003   2.346   0.594   3.023
 9368SOL    HW229004   2.436   0.708   2.949
 9369SOL     OW29005   3.880   5.314   1.200
 9369SOL    HW129006   3.874   5.248   1.275
 9369SOL    HW229007   3.952   5.286   1.137
 9370SOL     OW29008   4.477   2.522   5.362
 9370SOL    HW129009   4.455   2.613   5.328
 9370SOL    HW229010   4.544   2.479   5.300
 9371SOL     OW29011   4.148   4.758   0.815
 9371SOL    HW129012   4.213   4.794   0.748
 9371SOL    HW229013   4.088   4.692   0.771
 9372SOL     OW29014   4.691   6.795   1.056
 9372SOL    HW129015   4.717   6.752   0.969
 9372SOL    HW229016   4.773   6.831   1.101
 9373SOL     OW29017   0.373   2.308   1.440
 9373SOL    HW129018   0.464   2.268   1.446
 9373SOL    HW229019   0.331   2.281   1.353
 9374SOL     OW29020   6.989   5.042   6.293
 9374SOL    HW129021   0.055   5.013   6.251
 9374SOL    HW229022   7.008   5.078   6.385
 9375SOL     OW29023   1.960   1.268   6.717
 9375SOL    HW129024   1.913   1.290   6.631
 9375SOL    HW229025   1.964   1.169   6.728
 9376SOL     OW29026   3.062   3.634   0.227
 9376SOL    HW129027   3.112   3.720   0.229
 9376SOL    HW229028   3.126   3.559   0.207
 9377SOL     OW29029   1.010   0.463   3.391
 9377SOL    HW129030   0.973   0.376   3.423
 9377SOL    HW229031   0.947   0.537   3.414
 9378SOL     OW29032   3.933   1.438   5.416
 9378SOL    HW129033   4.008   1.376   5.440
 9378SOL    HW229034   3.861   1.386   5.369
 9379SOL     OW29035   4.079   0.343   4.778
 9379SOL    HW129036   4.133   0.290   4.712
 9379SOL    HW229037   4.137   0.368   4.856
 9380SOL     OW29038   5.267   6.372   1.012
 9380SOL    HW129039   5.214   6.289   0.992
 9380SOL    HW229040   5.315   6.360   1.099
 9381SOL     OW29041   4.967   0.684   4.886
 9381SOL    HW129042   4.960   0.689   4.787
 9381SOL    HW229043   5.053   0.727   4.915
 9382SOL     OW29044   3.165   5.514   6.688
 9382SOL    HW129045   3.246   5.493   6.743
 9382SOL    HW229046   3.100   5.440   6.695
 9383SOL     OW29047   6.354   3.962   1.593
 9383SOL    HW129048   6.257   3.976   1.573
 9383SOL    HW229049   6.407   4.037   1.554
 9384SOL     OW29050   3.755   0.017   0.563
 9384SOL    HW129051   3.695   0.077   0.616
 9384SOL    HW229052   3.830   7.006   0.622
 9385SOL     OW29053   4.075   2.268   3.994
 9385SOL    HW129054   4.161   2.304   3.959
 9385SOL    HW229055   4.020   2.343   4.031
 9386SOL     OW29056   5.460   0.284   0.975
 9386SOL    HW129057   5.537   0.239   1.019
 9386SOL    HW229058   5.488   0.322   0.887
 9387SOL     OW29059   2.435   1.990   6.853
 9387SOL    HW129060   2.405   1.900   6.886
 9387SOL    HW229061   2.535   1.989   6.841
 9388SOL     OW29062   2.503   6.679   4.704
 9388SOL    HW129063   2.560   6.762   4.704
 9388SOL    HW229064   2.412   6.701   4.740
 9389SOL     OW29065   2.145   4.011   1.956
 9389SOL    HW129066   2.059   4.059   1.969
 9389SOL    HW229067   2.167   3.959   2.038
 9390SOL     OW29068   6.005   5.307   3.868
 9390SOL    HW129069   6.026   5.210   3.881
 9390SOL    HW229070   5.994   5.351   3.957
 9391SOL     OW29071   0.601   4.803   3.892
 9391SOL    HW129072   0.644   4.854   3.818
 9391SOL    HW229073   0.619   4.849   3.979
 9392SOL     OW29074   3.792   5.106   2.613
 9392SOL    HW129075   3.736   5.125   2.693
 9392SOL    HW229076   3.822   5.011   2.614
 9393SOL     OW29077   1.755   4.961   6.919
 9393SOL    HW129078   1.696   4.894   6.964
 9393SOL    HW229079   1.735   5.052   6.954
 9394SOL     OW29080   4.464   0.434   6.897
 9394SOL    HW129081   4.426   0.400   6.983
 9394SOL    HW229082   4.496   0.528   6.909
 9395SOL     OW29083   0.663   1.307   1.646
 9395SOL    HW129084   0.681   1.260   1.559
 9395SOL    HW229085   0.740   1.294   1.708
 9396SOL     OW29086   1.169   1.114   6.443
 9396SOL    HW129087   1.266   1.136   6.457
 9396SOL    HW229088   1.158   1.067   6.355
 9397SOL     OW29089   3.255   1.605   5.358
 9397SOL    HW129090   3.233   1.543   5.433
 9397SOL    HW229091   3.179   1.669   5.345
 9398SOL     OW29092   6.613   2.174   6.517
 9398SOL    HW129093   6.574   2.169   6.425
 9398SOL    HW229094   6.578   2.098   6.572
 9399SOL     OW29095   1.377   2.202   4.719
 9399SOL    HW129096   1.446   2.141   4.680
 9399SOL    HW229097   1.414   2.295   4.723
 9400SOL     OW29098   6.145   1.029   1.202
 9400SOL    HW129099   6.215   0.971   1.243
 9400SOL    HW229100   6.074   1.049   1.269
 9401SOL     OW29101   6.935   2.021   3.478
 9401SOL    HW129102   6.950   2.109   3.432
 9401SOL    HW229103   6.946   1.947   3.411
 9402SOL     OW29104   3.350   6.306   5.485
 9402SOL    HW129105   3.373   6.313   5.388
 9402SOL    HW229106   3.376   6.216   5.520
 9403SOL     OW29107   5.452   2.011   1.158
 9403SOL    HW129108   5.529   2.026   1.095
 9403SOL    HW229109   5.479   1.944   1.227
 9404SOL     OW29110   2.668   2.653   0.712
 9404SOL    HW129111   2.753   2.706   0.714
 9404SOL    HW229112   2.635   2.647   0.618
 9405SOL     OW29113   6.091   5.700   5.328
 9405SOL    HW129114   6.020   5.667   5.390
 9405SOL    HW229115   6.108   5.630   5.258
 9406SOL     OW29116   1.556   0.977   1.283
 9406SOL    HW129117   1.591   1.068   1.261
 9406SOL    HW229118   1.534   0.929   1.199
 9407SOL     OW29119   1.651   4.769   4.622
 9407SOL    HW129120   1.616   4.678   4.645
 9407SOL    HW229121   1.690   4.767   4.530
 9408SOL     OW29122   5.867   4.794   3.703
 9408SOL    HW129123   5.899   4.767   3.612
 9408SOL    HW229124   5.798   4.866   3.694
 9409SOL     OW29125   5.920   5.530   1.441
 9409SOL    HW129126   6.009   5.484   1.433
 9409SOL    HW229127   5.923   5.595   1.518
 9410SOL     OW29128   4.352   6.963   0.543
 9410SOL    HW129129   4.284   6.990   0.474
 9410SOL    HW229130   4.414   0.019   0.559
 9411SOL     OW29131   3.297   3.881   4.275
 9411SOL    HW129132   3.395   3.885   4.291
 9411SOL    HW229133   3.269   3.961   4.222
 9412SOL     OW29134   4.101   6.771   1.705
 9412SOL    HW129135   4.179   6.831   1.688
 9412SOL    HW229136   4.117   6.682   1.662
 9413SOL     OW29137   3.942   4.789   3.379
 9413SOL    HW129138   3.954   4.693   3.356
 9413SOL    HW229139   3.885   4.833   3.309
 9414SOL     OW29140   2.072   0.881   2.345
 9414SOL    HW129141   1.994   0.818   2.341
 9414SOL    HW229142   2.039   0.974   2.358
 9415SOL     OW29143   5.011   0.638   0.851
 9415SOL    HW129144   5.111   0.639   0.863
 9415SOL    HW229145   4.971   0.711   0.907
 9416SOL     OW29146   6.413   4.674   5.373
 9416SOL    HW129147   6.424   4.575   5.362
 9416SOL    HW229148   6.334   4.693   5.432
 9417SOL     OW29149   3.907   6.283   3.030
 9417SOL    HW129150   3.813   6.310   3.053
 9417SOL    HW229151   3.921   6.187   3.054
 9418SOL     OW29152   2.892   2.154   4.439
 9418SOL    HW129153   2.890   2.200   4.527
 9418SOL    HW229154   2.801   2.155   4.398
 9419SOL     OW29155   2.314   2.283   6.110
 9419SOL    HW129156   2.295   2.378   6.083
 9419SOL    HW229157   2.409   2.261   6.088
 9420SOL     OW29158   5.513   3.196   5.881
 9420SOL    HW129159   5.566   3.189   5.797
 9420SOL    HW229160   5.415   3.202   5.858
 9421SOL     OW29161   3.651   6.695   0.418
 9421SOL    HW129162   3.730   6.655   0.465
 9421SOL    HW229163   3.596   6.621   0.379
 9422SOL     OW29164   2.109   6.305   6.010
 9422SOL    HW129165   2.114   6.404   5.998
 9422SOL    HW229166   2.097   6.261   5.922
 9423SOL     OW29167   4.806   4.911   0.470
 9423SOL    HW129168   4.739   4.848   0.432
 9423SOL    HW229169   4.831   4.979   0.401
 9424SOL     OW29170   6.213   0.185   3.507
 9424SOL    HW129171   6.296   0.133   3.484
 9424SOL    HW229172   6.208   0.197   3.606
 9425SOL     OW29173   6.821   5.746   1.417
 9425SOL    HW129174   6.895   5.797   1.461
 9425SOL    HW229175   6.799   5.665   1.471
 9426SOL     OW29176   4.306   1.973   6.336
 9426SOL    HW129177   4.260   2.060   6.321
 9426SOL    HW229178   4.251   1.917   6.399
 9427SOL     OW29179   3.647   5.524   2.402
 9427SOL    HW129180   3.648   5.432   2.442
 9427SOL    HW229181   3.692   5.522   2.313
 9428SOL     OW29182   0.362   6.338   4.928
 9428SOL    HW129183   0.329   6.269   4.863
 9428SOL    HW229184   0.462   6.339   4.929
 9429SOL     OW29185   2.873   2.247   4.165
 9429SOL    HW129186   2.874   2.176   4.095
 9429SOL    HW229187   2.967   2.280   4.180
 9430SOL     OW29188   1.458   6.629   3.981
 9430SOL    HW129189   1.548   6.587   3.976
 9430SOL    HW229190   1.435   6.669   3.892
 9431SOL     OW29191   1.303   4.945   4.962
 9431SOL    HW129192   1.286   4.866   5.022
 9431SOL    HW229193   1.385   4.929   4.908
 9432SOL     OW29194   6.872   1.488   2.911
 9432SOL    HW129195   6.808   1.511   2.984
 9432SOL    HW229196   6.965   1.512   2.940
 9433SOL     OW29197   3.773   5.466   1.800
 9433SOL    HW129198   3.694   5.506   1.752
 9433SOL    HW229199   3.828   5.539   1.841
 9434SOL     OW29200   5.038   5.752   5.188
 9434SOL    HW129201   4.994   5.709   5.109
 9434SOL    HW229202   4.968   5.797   5.244
 9435SOL     OW29203   6.572   3.813   6.421
 9435SOL    HW129204   6.550   3.746   6.493
 9435SOL    HW229205   6.502   3.810   6.350
 9436SOL     OW29206   2.635   1.983   2.654
 9436SOL    HW129207   2.600   1.992   2.561
 9436SOL    HW229208   2.642   1.886   2.678
 9437SOL     OW29209   4.849   1.486   3.746
 9437SOL    HW129210   4.817   1.401   3.789
 9437SOL    HW229211   4.872   1.553   3.816
 9438SOL     OW29212   5.260   0.199   2.817
 9438SOL    HW129213   5.179   0.255   2.804
 9438SOL    HW229214   5.334   0.254   2.855
 9439SOL     OW29215   2.063   4.714   1.341
 9439SOL    HW129216   2.101   4.635   1.389
 9439SOL    HW229217   2.107   4.797   1.375
 9440SOL     OW29218   2.018   5.391   4.941
 9440SOL    HW129219   2.011   5.351   4.849
 9440SOL    HW229220   1.965   5.336   5.005
 9441SOL     OW29221   6.659   6.397   4.101
 9441SOL    HW129222   6.662   6.463   4.026
 9441SOL    HW229223   6.744   6.343   4.101
 9442SOL     OW29224   6.450   2.441   0.950
 9442SOL    HW129225   6.432   2.517   0.888
 9442SOL    HW229226   6.543   2.448   0.986
 9443SOL     OW29227   2.119   4.502   1.564
 9443SOL    HW129228   2.083   4.429   1.506
 9443SOL    HW229229   2.050   4.526   1.633
 9444SOL     OW29230   2.088   5.812   5.846
 9444SOL    HW129231   2.109   5.752   5.924
 9444SOL    HW229232   2.044   5.758   5.774
 9445SOL     OW29233   0.952   0.969   4.002
 9445SOL    HW129234   0.981   0.879   3.970
 9445SOL    HW229235   0.853   0.969   4.013
 9446SOL     OW29236   5.550   5.330   3.835
 9446SOL    HW129237   5.592   5.309   3.747
 9446SOL    HW229238   5.451   5.326   3.826
 9447SOL     OW29239   5.642   5.301   1.987
 9447SOL    HW129240   5.694   5.236   1.931
 9447SOL    HW229241   5.580   5.251   2.048
 9448SOL     OW29242   4.781   2.571   6.412
 9448SOL    HW129243   4.799   2.520   6.497
 9448SOL    HW229244   4.794   2.510   6.334
 9449SOL     OW29245   4.682   6.644   3.229
 9449SOL    HW129246   4.727   6.582   3.165
 9449SOL    HW229247   4.704   6.738   3.205
 9450SOL     OW29248   0.743   0.129   2.416
 9450SOL    HW129249   0.760   0.114   2.319
 9450SOL    HW229250   0.644   0.131   2.433
 9451SOL     OW29251   4.180   5.707   0.684
 9451SOL    HW129252   4.149   5.721   0.778
 9451SOL    HW229253   4.218   5.615   0.674
 9452SOL     OW29254   6.247   2.702   6.019
 9452SOL    HW129255   6.158   2.660   6.031
 9452SOL    HW229256   6.244   2.767   5.943
 9453SOL     OW29257   6.731   4.809   2.304
 9453SOL    HW129258   6.742   4.712   2.326
 9453SOL    HW229259   6.816   4.844   2.265
 9454SOL     OW29260   5.333   5.405   0.386
 9454SOL    HW129261   5.359   5.318   0.428
 9454SOL    HW229262   5.279   5.459   0.450
 9455SOL     OW29263   4.485   0.779   1.269
 9455SOL    HW129264   4.551   0.799   1.196
 9455SOL    HW229265   4.440   0.692   1.250
 9456SOL     OW29266   6.457   2.943   2.296
 9456SOL    HW129267   6.479   2.868   2.232
 9456SOL    HW229268   6.518   2.937   2.375
 9457SOL     OW29269   6.510   6.519   4.402
 9457SOL    HW129270   6.454   6.495   4.481
 9457SOL    HW229271   6.604   6.535   4.431
 9458SOL     OW29272   0.029   4.435   0.178
 9458SOL    HW129273   0.103   4.496   0.207
 9458SOL    HW229274   7.011   4.468   0.092
 9459SOL     OW29275   5.021   4.358   5.092
 9459SOL    HW129276   4.971   4.284   5.047
 9459SOL    HW229277   5.033   4.434   5.028
 9460SOL     OW29278   1.932   3.054   3.242
 9460SOL    HW129279   1.885   2.974   3.277
 9460SOL    HW229280   2.030   3.033   3.231
 9461SOL     OW29281   1.669   1.669   1.213
 9461SOL    HW129282   1.615   1.695   1.294
 9461SOL    HW229283   1.742   1.736   1.199
 9462SOL     OW29284   0.059   1.270   5.325
 9462SOL    HW129285   0.155   1.258   5.349
 9462SOL    HW229286   0.028   1.360   5.356
 9463SOL     OW29287   6.937   5.287   0.840
 9463SOL    HW129288   6.925   5.249   0.748
 9463SOL    HW229289   6.901   5.223   0.907
 9464SOL     OW29290   1.159   0.449   2.234
 9464SOL    HW129291   1.178   0.547   2.240
 9464SOL    HW229292   1.236   0.402   2.191
 9465SOL     OW29293   0.482   5.974   6.976
 9465SOL    HW129294   0.467   5.941   0.049
 9465SOL    HW229295   0.562   6.034   6.974
 9466SOL     OW29296   4.140   4.291   5.816
 9466SOL    HW129297   4.083   4.329   5.744
 9466SOL    HW229298   4.137   4.352   5.896
 9467SOL     OW29299   1.305   3.667   1.442
 9467SOL    HW129300   1.402   3.652   1.458
 9467SOL    HW229301   1.285   3.765   1.443
 9468SOL     OW29302   6.269   1.807   1.241
 9468SOL    HW129303   6.344   1.788   1.179
 9468SOL    HW229304   6.264   1.735   1.310
 9469SOL     OW29305   6.212   6.698   1.844
 9469SOL    HW129306   6.265   6.641   1.781
 9469SOL    HW229307   6.211   6.654   1.934
 9470SOL     OW29308   3.799   3.695   0.959
 9470SOL    HW129309   3.803   3.771   0.895
 9470SOL    HW229310   3.890   3.655   0.969
 9471SOL     OW29311   6.506   2.793   4.506
 9471SOL    HW129312   6.524   2.694   4.511
 9471SOL    HW229313   6.577   2.836   4.449
 9472SOL     OW29314   2.353   4.228   5.880
 9472SOL    HW129315   2.286   4.253   5.810
 9472SOL    HW229316   2.315   4.247   5.971
 9473SOL     OW29317   2.844   3.131   1.678
 9473SOL    HW129318   2.885   3.178   1.600
 9473SOL    HW229319   2.881   3.038   1.684
 9474SOL     OW29320   6.225   4.353   0.754
 9474SOL    HW129321   6.303   4.325   0.697
 9474SOL    HW229322   6.153   4.284   0.746
 9475SOL     OW29323   6.186   3.552   6.766
 9475SOL    HW129324   6.140   3.565   6.854
 9475SOL    HW229325   6.175   3.634   6.710
 9476SOL     OW29326   3.877   4.090   1.058
 9476SOL    HW129327   3.889   4.067   1.154
 9476SOL    HW229328   3.962   4.128   1.022
 9477SOL     OW29329   1.502   5.724   0.692
 9477SOL    HW129330   1.484   5.641   0.638
 9477SOL    HW229331   1.500   5.701   0.789
 9478SOL     OW29332   6.992   3.095   5.597
 9478SOL    HW129333   0.028   3.177   5.604
 9478SOL    HW229334   6.901   3.113   5.634
 9479SOL     OW29335   4.501   1.127   2.041
 9479SOL    HW129336   4.556   1.166   2.115
 9479SOL    HW229337   4.404   1.143   2.060
 9480SOL     OW29338   5.293   0.552   0.584
 9480SOL    HW129339   5.310   0.454   0.573
 9480SOL    HW229340   5.317   0.600   0.500
 9481SOL     OW29341   4.380   0.073   3.688
 9481SOL    HW129342   4.373   0.147   3.622
 9481SOL    HW229343   4.294   0.023   3.692
 9482SOL     OW29344   6.233   4.207   5.531
 9482SOL    HW129345   6.211   4.129   5.590
 9482SOL    HW229346   6.308   4.260   5.571
 9483SOL     OW29347   5.977   5.135   6.421
 9483SOL    HW129348   6.047   5.197   6.458
 9483SOL    HW229349   5.914   5.187   6.363
 9484SOL     OW29350   1.465   5.244   3.990
 9484SOL    HW129351   1.552   5.212   4.028
 9484SOL    HW229352   1.483   5.308   3.915
 9485SOL     OW29353   0.317   1.218   5.376
 9485SOL    HW129354   0.361   1.129   5.364
 9485SOL    HW229355   0.314   1.241   5.473
 9486SOL     OW29356   6.913   5.655   6.427
 9486SOL    HW129357   6.931   5.558   6.413
 9486SOL    HW229358   6.885   5.670   6.522
 9487SOL     OW29359   3.461   3.228   3.617
 9487SOL    HW129360   3.446   3.203   3.713
 9487SOL    HW229361   3.397   3.179   3.559
 9488SOL     OW29362   1.186   0.741   2.540
 9488SOL    HW129363   1.138   0.829   2.534
 9488SOL    HW229364   1.257   0.737   2.469
 9489SOL     OW29365   6.905   4.120   6.694
 9489SOL    HW129366   6.870   4.117   6.788
 9489SOL    HW229367   6.958   4.204   6.681
 9490SOL     OW29368   5.611   3.545   5.215
 9490SOL    HW129369   5.694   3.490   5.220
 9490SOL    HW229370   5.620   3.612   5.141
 9491SOL     OW29371   4.821   0.036   2.084
 9491SOL    HW129372   4.828   7.003   1.999
 9491SOL    HW229373   4.725   0.061   2.100
 9492SOL     OW29374   4.905   3.391   3.777
 9492SOL    HW129375   4.951   3.397   3.865
 9492SOL    HW229376   4.878   3.482   3.748
 9493SOL     OW29377   3.095   6.409   2.603
 9493SOL    HW129378   3.059   6.497   2.633
 9493SOL    HW229379   3.034   6.370   2.534
 9494SOL     OW29380   5.008   2.575   2.630
 9494SOL    HW129381   5.070   2.533   2.564
 9494SOL    HW229382   4.979   2.506   2.697
 9495SOL     OW29383   5.303   2.750   1.071
 9495SOL    HW129384   5.270   2.659   1.095
 9495SOL    HW229385   5.348   2.747   0.981
 9496SOL     OW29386   6.333   3.087   1.178
 9496SOL    HW129387   6.310   3.076   1.081
 9496SOL    HW229388   6.261   3.140   1.223
 9497SOL     OW29389   4.993   4.134   4.819
 9497SOL    HW129390   4.910   4.129   4.764
 9497SOL    HW229391   5.050   4.210   4.787
 9498SOL     OW29392   0.872   6.083   5.907
 9498SOL    HW129393   0.938   6.032   5.852
 9498SOL    HW229394   0.915   6.114   5.992
 9499SOL     OW29395   5.830   6.852   3.647
 9499SOL    HW129396   5.756   6.788   3.631
 9499SOL    HW229397   5.844   6.908   3.566
 9500SOL     OW29398   3.151   1.860   0.697
 9500SOL    HW129399   3.090   1.792   0.657
 9500SOL    HW229400   3.098   1.934   0.738
 9501SOL     OW29401   1.543   3.386   5.305
 9501SOL    HW129402   1.526   3.457   5.374
 9501SOL    HW229403   1.542   3.297   5.349
 9502SOL     OW29404   5.803   4.443   3.748
 9502SOL    HW129405   5.867   4.467   3.674
 9502SOL    HW229406   5.738   4.517   3.761
 9503SOL     OW29407   6.361   0.862   0.229
 9503SOL    HW129408   6.297   0.814   0.289
 9503SOL    HW229409   6.311   0.910   0.158
 9504SOL     OW29410   6.617   5.017   2.796
 9504SOL    HW129411   6.672   4.943   2.835
 9504SOL    HW229412   6.678   5.091   2.766
 9505SOL     OW29413   4.855   3.024   0.219
 9505SOL    HW129414   4.845   3.090   0.293
 9505SOL    HW229415   4.938   3.046   0.167
 9506SOL     OW29416   3.760   1.361   1.595
 9506SOL    HW129417   3.776   1.270   1.632
 9506SOL    HW229418   3.837   1.421   1.618
 9507SOL     OW29419   6.816   6.153   1.816
 9507SOL    HW129420   6.796   6.138   1.719
 9507SOL    HW229421   6.762   6.089   1.871
 9508SOL     OW29422   5.368   1.498   2.148
 9508SOL    HW129423   5.273   1.526   2.160
 9508SOL    HW229424   5.413   1.494   2.237
 9509SOL     OW29425   5.973   1.359   3.882
 9509SOL    HW129426   5.925   1.292   3.939
 9509SOL    HW229427   5.962   1.450   3.922
 9510SOL     OW29428   1.624   3.656   2.113
 9510SOL    HW129429   1.541   3.605   2.092
 9510SOL    HW229430   1.601   3.751   2.132
 9511SOL     OW29431   0.622   1.753   0.670
 9511SOL    HW129432   0.557   1.827   0.653
 9511SOL    HW229433   0.590   1.669   0.627
 9512SOL     OW29434   6.179   2.651   1.542
 9512SOL    HW129435   6.114   2.703   1.598
 9512SOL    HW229436   6.261   2.706   1.526
 9513SOL     OW29437   4.813   3.909   4.650
 9513SOL    HW129438   4.790   3.990   4.596
 9513SOL    HW229439   4.825   3.831   4.588
 9514SOL     OW29440   3.484   3.302   1.099
 9514SOL    HW129441   3.526   3.213   1.119
 9514SOL    HW229442   3.393   3.305   1.141
 9515SOL     OW29443   6.926   6.116   3.126
 9515SOL    HW129444   6.865   6.089   3.051
 9515SOL    HW229445   6.968   6.035   3.167
 9516SOL     OW29446   0.720   3.223   6.794
 9516SOL    HW129447   0.758   3.136   6.826
 9516SOL    HW229448   0.687   3.213   6.700
 9517SOL     OW29449   1.083   6.759   2.129
 9517SOL    HW129450   1.075   6.683   2.065
 9517SOL    HW229451   1.178   6.768   2.158
 9518SOL     OW29452   0.155   0.504   1.309
 9518SOL    HW129453   0.070   0.538   1.269
 9518SOL    HW229454   0.148   0.405   1.325
 9519SOL     OW29455   1.768   2.938   5.840
 9519SOL    HW129456   1.816   2.952   5.753
 9519SOL    HW229457   1.717   2.853   5.837
 9520SOL     OW29458   4.328   6.898   1.977
 9520SOL    HW129459   4.265   6.954   2.030
 9520SOL    HW229460   4.276   6.830   1.924
 9521SOL     OW29461   5.621   4.940   3.284
 9521SOL    HW129462   5.591   5.023   3.238
 9521SOL    HW229463   5.633   4.866   3.217
 9522SOL     OW29464   3.305   5.210   5.800
 9522SOL    HW129465   3.300   5.289   5.740
 9522SOL    HW229466   3.218   5.197   5.846
 9523SOL     OW29467   1.670   6.976   5.033
 9523SOL    HW129468   1.625   6.981   4.943
 9523SOL    HW229469   1.608   7.009   5.103
 9524SOL     OW29470   6.195   3.589   0.273
 9524SOL    HW129471   6.267   3.588   0.342
 9524SOL    HW229472   6.107   3.570   0.316
 9525SOL     OW29473   4.142   0.150   4.341
 9525SOL    HW129474   4.087   0.069   4.320
 9525SOL    HW229475   4.134   0.216   4.265
 9526SOL     OW29476   4.755   5.267   0.379
 9526SOL    HW129477   4.666   5.257   0.422
 9526SOL    HW229478   4.778   5.182   0.332
 9527SOL     OW29479   6.664   1.369   0.649
 9527SOL    HW129480   6.605   1.390   0.726
 9527SOL    HW229481   6.746   1.321   0.681
 9528SOL     OW29482   5.684   1.122   1.462
 9528SOL    HW129483   5.636   1.040   1.492
 9528SOL    HW229484   5.718   1.172   1.541
 9529SOL     OW29485   1.855   2.653   5.658
 9529SOL    HW129486   1.888   2.747   5.650
 9529SOL    HW229487   1.932   2.592   5.672
 9530SOL     OW29488   2.229   1.332   3.993
 9530SOL    HW129489   2.323   1.363   3.982
 9530SOL    HW229490   2.175   1.363   3.915
 9531SOL     OW29491   2.689   6.460   3.929
 9531SOL    HW129492   2.701   6.455   4.028
 9531SOL    HW229493   2.664   6.553   3.903
 9532SOL     OW29494   3.549   1.146   1.314
 9532SOL    HW129495   3.526   1.163   1.218
 9532SOL    HW229496   3.466   1.122   1.364
 9533SOL     OW29497   0.429   1.790   4.229
 9533SOL    HW129498   0.448   1.692   4.227
 9533SOL    HW229499   0.441   1.825   4.322
 9534SOL     OW29500   5.224   0.843   4.091
 9534SOL    HW129501   5.128   0.817   4.078
 9534SOL    HW229502   5.231   0.943   4.096
 9535SOL     OW29503   2.794   1.699   4.711
 9535SOL    HW129504   2.829   1.793   4.705
 9535SOL    HW229505   2.755   1.672   4.623
 9536SOL     OW29506   1.911   5.472   6.837
 9536SOL    HW129507   1.936   5.508   6.927
 9536SOL    HW229508   1.978   5.501   6.769
 9537SOL     OW29509   2.157   0.199   0.280
 9537SOL    HW129510   2.217   0.131   0.238
 9537SOL    HW229511   2.063   0.163   0.284
 9538SOL     OW29512   5.733   4.252   3.054
 9538SOL    HW129513   5.789   4.169   3.053
 9538SOL    HW229514   5.785   4.328   3.015
 9539SOL     OW29515   0.841   3.435   6.934
 9539SOL    HW129516   0.782   3.360   6.904
 9539SOL    HW229517   0.936   3.414   6.911
 9540SOL     OW29518   5.951   3.190   5.328
 9540SOL    HW129519   6.048   3.198   5.352
 9540SOL    HW229520   5.900   3.161   5.408
 9541SOL     OW29521   6.287   1.739   3.400
 9541SOL    HW129522   6.335   1.790   3.470
 9541SOL    HW229523   6.232   1.801   3.344
 9542SOL     OW29524   4.983   3.448   4.543
 9542SOL    HW129525   5.005   3.385   4.617
 9542SOL    HW229526   5.057   3.514   4.532
 9543SOL     OW29527   4.181   1.964   0.573
 9543SOL    HW129528   4.150   1.871   0.553
 9543SOL    HW229529   4.186   2.016   0.488
 9544SOL     OW29530   5.173   0.248   1.565
 9544SOL    HW129531   5.082   0.290   1.564
 9544SOL    HW229532   5.168   0.162   1.616
 9545SOL     OW29533   1.381   6.697   4.221
 9545SOL    HW129534   1.411   6.680   4.127
 9545SOL    HW229535   1.318   6.625   4.249
 9546SOL     OW29536   3.063   3.909   1.974
 9546SOL    HW129537   3.016   3.831   2.016
 9546SOL    HW229538   3.097   3.969   2.046
 9547SOL     OW29539   5.536   6.338   2.638
 9547SOL    HW129540   5.599   6.289   2.579
 9547SOL    HW229541   5.508   6.423   2.594
 9548SOL     OW29542   6.074   6.477   1.991
 9548SOL    HW129543   6.146   6.419   1.955
 9548SOL    HW229544   6.013   6.423   2.050
 9549SOL     OW29545   2.031   6.091   0.271
 9549SOL    HW129546   1.935   6.080   0.296
 9549SOL    HW229547   2.083   6.011   0.302
 9550SOL     OW29548   1.765   0.418   0.155
 9550SOL    HW129549   1.724   0.403   0.245
 9550SOL    HW229550   1.862   0.439   0.167
 9551SOL     OW29551   1.143   5.699   4.559
 9551SOL    HW129552   1.112   5.610   4.594
 9551SOL    HW229553   1.141   5.697   4.459
 9552SOL     OW29554   6.962   5.462   3.063
 9552SOL    HW129555   0.036   5.446   3.032
 9552SOL    HW229556   6.937   5.557   3.045
 9553SOL     OW29557   5.683   4.495   6.586
 9553SOL    HW129558   5.613   4.566   6.597
 9553SOL    HW229559   5.643   4.406   6.608
 9554SOL     OW29560   1.372   2.535   1.619
 9554SOL    HW129561   1.458   2.518   1.666
 9554SOL    HW229562   1.341   2.628   1.639
 9555SOL     OW29563   0.078   2.467   6.672
 9555SOL    HW129564   0.013   2.506   6.608
 9555SOL    HW229565   0.168   2.508   6.658
 9556SOL     OW29566   6.168   0.093   1.290
 9556SOL    HW129567   6.078   0.113   1.329
 9556SOL    HW229568   6.195   7.020   1.313
 9557SOL     OW29569   5.186   1.846   1.880
 9557SOL    HW129570   5.243   1.794   1.816
 9557SOL    HW229571   5.135   1.916   1.831
 9558SOL     OW29572   6.898   3.859   1.428
 9558SOL    HW129573   6.822   3.885   1.368
 9558SOL    HW229574   6.876   3.882   1.522
 9559SOL     OW29575   0.958   4.835   3.482
 9559SOL    HW129576   0.985   4.926   3.451
 9559SOL    HW229577   0.902   4.791   3.413
 9560SOL     OW29578   3.568   1.916   6.075
 9560SOL    HW129579   3.569   2.009   6.111
 9560SOL    HW229580   3.657   1.874   6.088
 9561SOL     OW29581   3.554   5.142   6.741
 9561SOL    HW129582   3.548   5.129   6.642
 9561SOL    HW229583   3.472   5.190   6.772
 9562SOL     OW29584   6.651   5.426   3.761
 9562SOL    HW129585   6.696   5.340   3.787
 9562SOL    HW229586   6.709   5.503   3.789
 9563SOL     OW29587   0.922   0.729   6.245
 9563SOL    HW129588   0.922   0.705   6.342
 9563SOL    HW229589   0.832   0.707   6.206
 9564SOL     OW29590   0.394   0.355   5.968
 9564SOL    HW129591   0.346   0.369   5.882
 9564SOL    HW229592   0.407   0.257   5.984
 9565SOL     OW29593   2.662   5.297   5.123
 9565SOL    HW129594   2.702   5.223   5.068
 9565SOL    HW229595   2.674   5.277   5.220
 9566SOL     OW29596   2.339   5.643   5.108
 9566SOL    HW129597   2.330   5.545   5.094
 9566SOL    HW229598   2.251   5.681   5.135
 9567SOL     OW29599   6.172   5.654   4.191
 9567SOL    HW129600   6.188   5.624   4.097
 9567SOL    HW229601   6.256   5.693   4.228
 9568SOL     OW29602   6.227   3.186   5.350
 9568SOL    HW129603   6.260   3.272   5.312
 9568SOL    HW229604   6.218   3.118   5.277
 9569SOL     OW29605   5.218   0.174   1.070
 9569SOL    HW129606   5.294   0.198   1.009
 9569SOL    HW229607   5.232   0.217   1.159
 9570SOL     OW29608   0.232   2.995   6.438
 9570SOL    HW129609   0.308   3.045   6.479
 9570SOL    HW229610   0.150   3.009   6.493
 9571SOL     OW29611   3.371   1.677   0.422
 9571SOL    HW129612   3.448   1.624   0.458
 9571SOL    HW229613   3.386   1.774   0.440
 9572SOL     OW29614   0.588   3.200   0.653
 9572SOL    HW129615   0.610   3.267   0.723
 9572SOL    HW229616   0.672   3.161   0.616
 9573SOL     OW29617   4.692   1.714   1.867
 9573SOL    HW129618   4.622   1.675   1.808
 9573SOL    HW229619   4.652   1.782   1.928
 9574SOL     OW29620   1.687   1.540   3.900
 9574SOL    HW129621   1.630   1.595   3.961
 9574SOL    HW229622   1.728   1.465   3.952
 9575SOL     OW29623   3.381   1.725   2.752
 9575SOL    HW129624   3.389   1.677   2.665
 9575SOL    HW229625   3.289   1.763   2.761
 9576SOL     OW29626   3.980   3.060   6.112
 9576SOL    HW129627   3.967   3.072   6.210
 9576SOL    HW229628   3.929   3.130   6.062
 9577SOL     OW29629   0.572   5.339   3.483
 9577SOL    HW129630   0.666   5.362   3.505
 9577SOL    HW229631   0.525   5.419   3.447
 9578SOL     OW29632   6.894   4.604   1.052
 9578SOL    HW129633   6.844   4.606   0.966
 9578SOL    HW229634   6.833   4.631   1.127
 9579SOL     OW29635   1.117   4.909   2.712
 9579SOL    HW129636   1.084   4.970   2.784
 9579SOL    HW229637   1.212   4.884   2.730
 9580SOL     OW29638   3.957   4.092   5.139
 9580SOL    HW129639   3.873   4.146   5.150
 9580SOL    HW229640   3.945   4.029   5.062
 9581SOL     OW29641   0.715   0.017   6.387
 9581SOL    HW129642   0.654   0.074   6.441
 9581SOL    HW229643   0.771   6.981   6.448
 9582SOL     OW29644   4.142   5.740   3.297
 9582SOL    HW129645   4.235   5.759   3.328
 9582SOL    HW229646   4.076   5.776   3.364
 9583SOL     OW29647   1.114   4.496   2.867
 9583SOL    HW129648   1.211   4.518   2.858
 9583SOL    HW229649   1.080   4.532   2.954
 9584SOL     OW29650   5.324   4.334   6.749
 9584SOL    HW129651   5.287   4.344   6.656
 9584SOL    HW229652   5.407   4.278   6.746
 9585SOL     OW29653   6.138   1.000   2.723
 9585SOL    HW129654   6.067   0.929   2.723
 9585SOL    HW229655   6.215   0.971   2.779
 9586SOL     OW29656   4.102   4.716   2.490
 9586SOL    HW129657   4.068   4.790   2.431
 9586SOL    HW229658   4.129   4.638   2.433
 9587SOL     OW29659   4.646   6.319   1.612
 9587SOL    HW129660   4.627   6.308   1.515
 9587SOL    HW229661   4.570   6.282   1.665
 9588SOL     OW29662   6.411   1.227   3.731
 9588SOL    HW129663   6.330   1.284   3.718
 9588SOL    HW229664   6.463   1.224   3.645
 9589SOL     OW29665   4.228   1.746   5.079
 9589SOL    HW129666   4.146   1.689   5.074
 9589SOL    HW229667   4.211   1.834   5.033
 9590SOL     OW29668   0.210   4.989   4.697
 9590SOL    HW129669   0.279   4.991   4.769
 9590SOL    HW229670   0.225   4.910   4.638
 9591SOL     OW29671   6.964   4.629   2.220
 9591SOL    HW129672   0.002   4.578   2.284
 9591SOL    HW229673   7.009   4.633   2.131
 9592SOL     OW29674   4.292   5.342   0.800
 9592SOL    HW129675   4.274   5.359   0.703
 9592SOL    HW229676   4.377   5.291   0.809
 9593SOL     OW29677   2.074   2.438   3.754
 9593SOL    HW129678   2.024   2.411   3.836
 9593SOL    HW229679   2.010   2.456   3.680
 9594SOL     OW29680   5.675   0.236   0.393
 9594SOL    HW129681   5.697   0.284   0.308
 9594SOL    HW229682   5.707   0.290   0.471
 9595SOL     OW29683   2.256   4.922   5.378
 9595SOL    HW129684   2.193   4.870   5.435
 9595SOL    HW229685   2.292   4.863   5.306
 9596SOL     OW29686   5.636   4.825   2.458
 9596SOL    HW129687   5.632   4.814   2.557
 9596SOL    HW229688   5.545   4.849   2.423
 9597SOL     OW29689   1.450   4.028   1.846
 9597SOL    HW129690   1.507   4.083   1.786
 9597SOL    HW229691   1.469   4.051   1.941
 9598SOL     OW29692   0.405   6.001   5.161
 9598SOL    HW129693   0.490   6.052   5.147
 9598SOL    HW229694   0.384   5.947   5.079
 9599SOL     OW29695   3.504   2.059   5.367
 9599SOL    HW129696   3.430   1.992   5.370
 9599SOL    HW229697   3.510   2.105   5.455
 9600SOL     OW29698   1.461   5.599   6.925
 9600SOL    HW129699   1.511   5.674   6.967
 9600SOL    HW229700   1.525   5.537   6.880
 9601SOL     OW29701   1.382   0.058   4.618
 9601SOL    HW129702   1.426   0.129   4.673
 9601SOL    HW229703   1.418   0.061   4.525
 9602SOL     OW29704   1.014   5.549   6.146
 9602SOL    HW129705   0.977   5.641   6.154
 9602SOL    HW229706   0.959   5.495   6.082
 9603SOL     OW29707   1.538   5.268   2.253
 9603SOL    HW129708   1.535   5.210   2.335
 9603SOL    HW229709   1.486   5.352   2.271
 9604SOL     OW29710   6.720   0.360   6.097
 9604SOL    HW129711   6.755   0.320   6.012
 9604SOL    HW229712   6.780   0.434   6.126
 9605SOL     OW29713   3.690   4.305   0.838
 9605SOL    HW129714   3.644   4.391   0.862
 9605SOL    HW229715   3.624   4.244   0.794
 9606SOL     OW29716   6.692   1.871   4.621
 9606SOL    HW129717   6.635   1.949   4.593
 9606SOL    HW229718   6.681   1.796   4.556
 9607SOL     OW29719   6.989   3.062   3.022
 9607SOL    HW129720   7.008   3.138   3.084
 9607SOL    HW229721   6.956   3.098   2.935
 9608SOL     OW29722   5.383   0.894   1.410
 9608SOL    HW129723   5.358   0.797   1.406
 9608SOL    HW229724   5.466   0.910   1.357
 9609SOL     OW29725   1.067   1.892   4.219
 9609SOL    HW129726   1.139   1.903   4.151
 9609SOL    HW229727   1.061   1.797   4.247
 9610SOL     OW29728   4.654   1.248   6.395
 9610SOL    HW129729   4.645   1.334   6.445
 9610SOL    HW229730   4.676   1.266   6.299
 9611SOL     OW29731   4.917   5.864   1.294
 9611SOL    HW129732   4.907   5.904   1.203
 9611SOL    HW229733   5.014   5.846   1.312
 9612SOL     OW29734   4.870   3.956   3.629
 9612SOL    HW129735   4.872   3.960   3.729
 9612SOL    HW229736   4.817   4.034   3.594
 9613SOL     OW29737   5.226   0.776   4.949
 9613SOL    HW129738   5.245   0.857   5.004
 9613SOL    HW229739   5.302   0.759   4.886
 9614SOL     OW29740   3.380   2.655   0.048
 9614SOL    HW129741   3.301   2.681   0.104
 9614SOL    HW229742   3.461   2.705   0.079
 9615SOL     OW29743   6.640   6.441   3.777
 9615SOL    HW129744   6.612   6.516   3.837
 9615SOL    HW229745   6.591   6.358   3.801
 9616SOL     OW29746   0.005   2.080   1.154
 9616SOL    HW129747   6.933   2.097   1.119
 9616SOL    HW229748   0.011   2.109   1.249
 9617SOL     OW29749   0.703   3.601   3.547
 9617SOL    HW129750   0.613   3.607   3.503
 9617SOL    HW229751   0.724   3.687   3.592
 9618SOL     OW29752   5.491   3.980   1.913
 9618SOL    HW129753   5.503   3.930   1.999
 9618SOL    HW229754   5.449   4.069   1.932
 9619SOL     OW29755   1.300   0.548   1.126
 9619SOL    HW129756   1.321   0.461   1.172
 9619SOL    HW229757   1.219   0.588   1.167
 9620SOL     OW29758   3.703   1.296   6.107
 9620SOL    HW129759   3.655   1.277   6.193
 9620SOL    HW229760   3.751   1.383   6.115
 9621SOL     OW29761   6.487   1.015   0.600
 9621SOL    HW129762   6.482   1.009   0.699
 9621SOL    HW229763   6.401   0.981   0.560
 9622SOL     OW29764   6.682   0.009   4.945
 9622SOL    HW129765   6.644   6.939   4.969
 9622SOL    HW229766   6.701   0.061   5.029
 9623SOL     OW29767   2.341   5.747   6.259
 9623SOL    HW129768   2.389   5.821   6.211
 9623SOL    HW229769   2.251   5.780   6.289
 9624SOL     OW29770   4.088   4.850   6.667
 9624SOL    HW129771   4.086   4.758   6.629
 9624SOL    HW229772   4.062   4.846   6.764
 9625SOL     OW29773   5.302   4.578   5.869
 9625SOL    HW129774   5.365   4.504   5.846
 9625SOL    HW229775   5.267   4.619   5.784
 9626SOL     OW29776   2.687   2.748   6.620
 9626SOL    HW129777   2.673   2.690   6.540
 9626SOL    HW229778   2.774   2.797   6.611
 9627SOL     OW29779   6.692   5.908   6.926
 9627SOL    HW129780   6.608   5.959   6.947
 9627SOL    HW229781   6.672   5.841   6.854
 9628SOL     OW29782   6.221   1.554   5.376
 9628SOL    HW129783   6.207   1.456   5.362
 9628SOL    HW229784   6.219   1.574   5.474
 9629SOL     OW29785   0.802   5.625   3.819
 9629SOL    HW129786   0.772   5.624   3.915
 9629SOL    HW229787   0.776   5.712   3.777
 9630SOL     OW29788   6.615   0.178   5.698
 9630SOL    HW129789   6.543   0.119   5.733
 9630SOL    HW229790   6.581   0.272   5.692
 9631SOL     OW29791   4.560   6.124   0.468
 9631SOL    HW129792   4.514   6.046   0.511
 9631SOL    HW229793   4.636   6.091   0.412
 9632SOL     OW29794   2.893   6.002   2.621
 9632SOL    HW129795   2.932   5.961   2.539
 9632SOL    HW229796   2.794   6.008   2.612
 9633SOL     OW29797   2.930   3.095   5.452
 9633SOL    HW129798   2.942   3.017   5.513
 9633SOL    HW229799   2.958   3.179   5.499
 9634SOL     OW29800   6.318   4.582   3.322
 9634SOL    HW129801   6.313   4.656   3.388
 9634SOL    HW229802   6.226   4.546   3.305
 9635SOL     OW29803   0.625   5.295   4.341
 9635SOL    HW129804   0.548   5.353   4.317
 9635SOL    HW229805   0.708   5.329   4.297
 9636SOL     OW29806   4.910   3.966   3.914
 9636SOL    HW129807   4.888   3.933   4.005
 9636SOL    HW229808   5.003   4.004   3.913
 9637SOL     OW29809   3.395   2.848   6.464
 9637SOL    HW129810   3.422   2.780   6.395
 9637SOL    HW229811   3.297   2.866   6.457
 9638SOL     OW29812   0.619   4.576   6.209
 9638SOL    HW129813   0.633   4.562   6.307
 9638SOL    HW229814   0.568   4.499   6.172
 9639SOL     OW29815   5.466   3.152   2.003
 9639SOL    HW129816   5.498   3.085   2.070
 9639SOL    HW229817   5.479   3.115   1.911
 9640SOL     OW29818   3.626   0.096   3.519
 9640SOL    HW129819   3.636   0.101   3.619
 9640SOL    HW229820   3.679   0.169   3.476
 9641SOL     OW29821   0.878   2.324   4.554
 9641SOL    HW129822   0.879   2.366   4.644
 9641SOL    HW229823   0.889   2.394   4.484
 9642SOL     OW29824   0.619   2.700   4.722
 9642SOL    HW129825   0.538   2.703   4.781
 9642SOL    HW229826   0.700   2.680   4.777
 9643SOL     OW29827   6.371   5.379   4.456
 9643SOL    HW129828   6.422   5.333   4.384
 9643SOL    HW229829   6.401   5.475   4.462
 9644SOL     OW29830   0.757   4.720   3.327
 9644SOL    HW129831   0.741   4.641   3.387
 9644SOL    HW229832   0.670   4.767   3.311
 9645SOL     OW29833   0.518   4.987   0.306
 9645SOL    HW129834   0.544   4.901   0.262
 9645SOL    HW229835   0.573   5.062   0.268
 9646SOL     OW29836   2.837   4.976   0.886
 9646SOL    HW129837   2.782   4.995   0.968
 9646SOL    HW229838   2.790   4.907   0.830
 9647SOL     OW29839   5.460   6.753   2.954
 9647SOL    HW129840   5.413   6.841   2.948
 9647SOL    HW229841   5.528   6.747   2.880
 9648SOL     OW29842   3.649   2.258   1.024
 9648SOL    HW129843   3.704   2.276   0.943
 9648SOL    HW229844   3.627   2.344   1.070
 9649SOL     OW29845   0.297   5.876   0.490
 9649SOL    HW129846   0.300   5.875   0.590
 9649SOL    HW229847   0.384   5.843   0.453
 9650SOL     OW29848   6.845   5.319   5.233
 9650SOL    HW129849   6.774   5.324   5.303
 9650SOL    HW229850   6.807   5.277   5.151
 9651SOL     OW29851   3.475   1.276   6.995
 9651SOL    HW129852   3.511   1.289   0.067
 9651SOL    HW229853   3.428   1.360   6.965
 9652SOL     OW29854   0.031   3.767   0.274
 9652SOL    HW129855   0.131   3.776   0.270
 9652SOL    HW229856   0.008   3.680   0.317
 9653SOL     OW29857   5.673   3.726   5.053
 9653SOL    HW129858   5.731   3.696   4.978
 9653SOL    HW229859   5.601   3.786   5.018
 9654SOL     OW29860   4.092   3.340   4.965
 9654SOL    HW129861   4.123   3.386   4.882
 9654SOL    HW229862   4.144   3.255   4.978
 9655SOL     OW29863   4.872   0.391   0.786
 9655SOL    HW129864   4.885   0.488   0.805
 9655SOL    HW229865   4.802   0.379   0.716
 9656SOL     OW29866   5.209   4.717   5.667
 9656SOL    HW129867   5.179   4.800   5.714
 9656SOL    HW229868   5.135   4.683   5.610
 9657SOL     OW29869   5.276   5.359   2.478
 9657SOL    HW129870   5.265   5.278   2.536
 9657SOL    HW229871   5.367   5.358   2.437
 9658SOL     OW29872   5.273   1.238   2.794
 9658SOL    HW129873   5.302   1.308   2.729
 9658SOL    HW229874   5.341   1.227   2.866
 9659SOL     OW29875   3.980   3.189   0.486
 9659SOL    HW129876   3.907   3.178   0.553
 9659SOL    HW229877   4.029   3.275   0.502
 9660SOL     OW29878   2.704   6.895   1.709
 9660SOL    HW129879   2.750   6.983   1.725
 9660SOL    HW229880   2.610   6.900   1.744
 9661SOL     OW29881   3.710   4.089   2.526
 9661SOL    HW129882   3.797   4.040   2.525
 9661SOL    HW229883   3.692   4.121   2.619
 9662SOL     OW29884   4.224   0.765   4.823
 9662SOL    HW129885   4.155   0.696   4.844
 9662SOL    HW229886   4.179   0.846   4.784
 9663SOL     OW29887   1.248   5.807   2.516
 9663SOL    HW129888   1.319   5.832   2.450
 9663SOL    HW229889   1.274   5.842   2.606
 9664SOL     OW29890   2.144   4.619   2.788
 9664SOL    HW129891   2.184   4.640   2.878
 9664SOL    HW229892   2.165   4.693   2.724
 9665SOL     OW29893   6.128   3.792   6.618
 9665SOL    HW129894   6.030   3.780   6.603
 9665SOL    HW229895   6.175   3.801   6.529
 9666SOL     OW29896   5.151   4.244   1.074
 9666SOL    HW129897   5.070   4.300   1.055
 9666SOL    HW229898   5.232   4.289   1.036
 9667SOL     OW29899   6.083   6.274   0.153
 9667SOL    HW129900   6.120   6.326   0.076
 9667SOL    HW229901   6.142   6.287   0.233
 9668SOL     OW29902   1.927   0.279   0.652
 9668SOL    HW129903   2.014   0.303   0.609
 9668SOL    HW229904   1.901   0.187   0.623
 9669SOL     OW29905   3.151   0.128   0.313
 9669SOL    HW129906   3.184   0.096   0.224
 9669SOL    HW229907   3.078   0.196   0.299
 9670SOL     OW29908   0.774   0.007   2.672
 9670SOL    HW129909   0.682   0.012   2.710
 9670SOL    HW229910   0.777   0.057   2.585
 9671SOL     OW29911   1.017   5.912   6.367
 9671SOL    HW129912   1.059   5.990   6.415
 9671SOL    HW229913   0.935   5.883   6.417
 9672SOL     OW29914   0.226   4.460   5.173
 9672SOL    HW129915   0.244   4.557   5.163
 9672SOL    HW229916   0.244   4.433   5.268
 9673SOL     OW29917   2.220   3.059   5.826
 9673SOL    HW129918   2.265   2.973   5.799
 9673SOL    HW229919   2.282   3.111   5.885
 9674SOL     OW29920   1.795   6.944   3.745
 9674SOL    HW129921   1.863   7.003   3.701
 9674SOL    HW229922   1.818   6.848   3.729
 9675SOL     OW29923   6.587   4.068   6.107
 9675SOL    HW129924   6.666   4.007   6.116
 9675SOL    HW229925   6.616   4.162   6.126
 9676SOL     OW29926   0.830   3.104   6.496
 9676SOL    HW129927   0.923   3.106   6.533
 9676SOL    HW229928   0.792   3.012   6.511
 9677SOL     OW29929   0.602   4.972   2.506
 9677SOL    HW129930   0.558   4.895   2.553
 9677SOL    HW229931   0.659   4.938   2.432
 9678SOL     OW29932   5.037   3.142   6.594
 9678SOL    HW129933   4.942   3.114   6.609
 9678SOL    HW229934   5.042   3.242   6.587
 9679SOL     OW29935   1.633   1.063   4.719
 9679SOL    HW129936   1.707   1.111   4.766
 9679SOL    HW229937   1.598   1.120   4.644
 9680SOL     OW29938   4.446   6.917   2.227
 9680SOL    HW129939   4.406   6.919   2.135
 9680SOL    HW229940   4.533   6.868   2.224
 9681SOL     OW29941   0.468   2.611   1.243
 9681SOL    HW129942   0.403   2.591   1.317
 9681SOL    HW229943   0.555   2.565   1.262
 9682SOL     OW29944   3.824   6.221   5.256
 9682SOL    HW129945   3.745   6.205   5.195
 9682SOL    HW229946   3.869   6.134   5.273
 9683SOL     OW29947   3.324   5.782   3.861
 9683SOL    HW129948   3.403   5.732   3.824
 9683SOL    HW229949   3.240   5.746   3.820
 9684SOL     OW29950   1.206   2.490   6.411
 9684SOL    HW129951   1.265   2.411   6.395
 9684SOL    HW229952   1.258   2.574   6.394
 9685SOL     OW29953   3.700   4.528   1.645
 9685SOL    HW129954   3.667   4.568   1.731
 9685SOL    HW229955   3.643   4.449   1.622
 9686SOL     OW29956   0.820   1.724   5.792
 9686SOL    HW129957   0.752   1.744   5.863
 9686SOL    HW229958   0.835   1.626   5.788
 9687SOL     OW29959   5.745   0.518   3.809
 9687SOL    HW129960   5.726   0.518   3.711
 9687SOL    HW229961   5.797   0.600   3.833
 9688SOL     OW29962   0.501   5.238   2.215
 9688SOL    HW129963   0.516   5.330   2.178
 9688SOL    HW229964   0.589   5.198   2.241
 9689SOL     OW29965   1.793   5.250   1.274
 9689SOL    HW129966   1.824   5.345   1.283
 9689SOL    HW229967   1.740   5.224   1.355
 9690SOL     OW29968   6.225   4.820   4.239
 9690SOL    HW129969   6.262   4.877   4.312
 9690SOL    HW229970   6.299   4.789   4.180
 9691SOL     OW29971   3.723   3.843   2.361
 9691SOL    HW129972   3.788   3.883   2.426
 9691SOL    HW229973   3.646   3.906   2.348
 9692SOL     OW29974   6.260   5.266   0.522
 9692SOL    HW129975   6.294   5.290   0.613
 9692SOL    HW229976   6.317   5.309   0.452
 9693SOL     OW29977   4.363   3.328   6.640
 9693SOL    HW129978   4.308   3.245   6.630
 9693SOL    HW229979   4.404   3.331   6.731
 9694SOL     OW29980   2.806   6.344   0.898
 9694SOL    HW129981   2.903   6.322   0.900
 9694SOL    HW229982   2.776   6.349   0.802
 9695SOL     OW29983   1.870   2.911   3.593
 9695SOL    HW129984   1.899   2.955   3.679
 9695SOL    HW229985   1.938   2.843   3.566
 9696SOL     OW29986   4.878   3.963   3.316
 9696SOL    HW129987   4.949   3.941   3.383
 9696SOL    HW229988   4.919   4.003   3.235
 9697SOL     OW29989   6.257   0.169   2.380
 9697SOL    HW129990   6.243   0.166   2.479
 9697SOL    HW229991   6.350   0.140   2.359
 9698SOL     OW29992   6.894   2.627   0.948
 9698SOL    HW129993   6.830   2.562   0.907
 9698SOL    HW229994   6.903   2.707   0.888
 9699SOL     OW29995   1.647   6.658   2.341
 9699SOL    HW129996   1.622   6.724   2.411
 9699SOL    HW229997   1.599   6.680   2.256
 9700SOL     OW29998   6.042   0.444   5.853
 9700SOL    HW129999   6.094   0.435   5.938
 9700SOL    HW230000   6.080   0.381   5.785
 9701SOL     OW30001   6.111   4.184   6.646
 9701SOL    HW130002   6.207   4.166   6.628
 9701SOL    HW230003   6.066   4.100   6.675
 9702SOL     OW30004   2.839   3.571   1.991
 9702SOL    HW130005   2.831   3.483   1.945
 9702SOL    HW230006   2.846   3.558   2.090
 9703SOL     OW30007   6.930   4.777   2.702
 9703SOL    HW130008   6.868   4.747   2.774
 9703SOL    HW230009   6.892   4.857   2.656
 9704SOL     OW30010   0.758   5.142   2.268
 9704SOL    HW130011   0.852   5.177   2.271
 9704SOL    HW230012   0.741   5.085   2.348
 9705SOL     OW30013   0.120   4.011   5.481
 9705SOL    HW130014   0.074   4.042   5.565
 9705SOL    HW230015   0.215   3.989   5.501
 9706SOL     OW30016   0.482   6.911   2.493
 9706SOL    HW130017   0.415   6.873   2.555
 9706SOL    HW230018   0.549   6.840   2.468
 9707SOL     OW30019   1.121   4.817   2.059
 9707SOL    HW130020   1.034   4.767   2.058
 9707SOL    HW230021   1.162   4.808   2.150
 9708SOL     OW30022   2.766   1.022   1.866
 9708SOL    HW130023   2.693   0.999   1.930
 9708SOL    HW230024   2.784   1.120   1.870
 9709SOL     OW30025   4.268   1.286   2.371
 9709SOL    HW130026   4.188   1.226   2.361
 9709SOL    HW230027   4.350   1.230   2.383
 9710SOL     OW30028   5.071   4.373   4.281
 9710SOL    HW130029   5.016   4.374   4.365
 9710SOL    HW230030   5.135   4.450   4.283
 9711SOL     OW30031   3.011   0.286   6.937
 9711SOL    HW130032   3.090   0.226   6.927
 9711SOL    HW230033   3.028   0.372   6.889
 9712SOL     OW30034   4.605   0.045   5.614
 9712SOL    HW130035   4.617   6.995   5.544
 9712SOL    HW230036   4.520   0.029   5.663
 9713SOL     OW30037   0.951   0.696   2.894
 9713SOL    HW130038   0.921   0.609   2.853
 9713SOL    HW230039   0.894   0.716   2.973
 9714SOL     OW30040   2.315   2.561   3.761
 9714SOL    HW130041   2.311   2.660   3.768
 9714SOL    HW230042   2.223   2.523   3.770
 9715SOL     OW30043   0.022   1.614   6.504
 9715SOL    HW130044   0.014   1.599   6.406
 9715SOL    HW230045   0.103   1.568   6.539
 9716SOL     OW30046   1.795   6.237   0.608
 9716SOL    HW130047   1.852   6.157   0.587
 9716SOL    HW230048   1.746   6.221   0.693
 9717SOL     OW30049   4.332   2.109   5.880
 9717SOL    HW130050   4.392   2.133   5.957
 9717SOL    HW230051   4.268   2.037   5.909
 9718SOL     OW30052   2.870   1.994   6.393
 9718SOL    HW130053   2.910   1.965   6.306
 9718SOL    HW230054   2.782   1.948   6.406
 9719SOL     OW30055   3.952   6.722   5.667
 9719SOL    HW130056   4.000   6.687   5.586
 9719SOL    HW230057   3.854   6.726   5.648
 9720SOL     OW30058   2.095   2.480   1.680
 9720SOL    HW130059   2.046   2.567   1.688
 9720SOL    HW230060   2.149   2.466   1.764
 9721SOL     OW30061   0.465   1.980   1.592
 9721SOL    HW130062   0.378   1.990   1.545
 9721SOL    HW230063   0.537   1.960   1.526
 9722SOL     OW30064   3.510   2.990   5.453
 9722SOL    HW130065   3.506   2.892   5.471
 9722SOL    HW230066   3.463   3.040   5.526
 9723SOL     OW30067   5.693   1.253   4.961
 9723SOL    HW130068   5.736   1.180   5.015
 9723SOL    HW230069   5.744   1.266   4.876
 9724SOL     OW30070   1.799   4.798   1.269
 9724SOL    HW130071   1.852   4.741   1.332
 9724SOL    HW230072   1.849   4.882   1.250
 9725SOL     OW30073   5.575   5.567   4.255
 9725SOL    HW130074   5.506   5.551   4.326
 9725SOL    HW230075   5.543   5.527   4.169
 9726SOL     OW30076   6.928   6.999   3.618
 9726SOL    HW130077   6.830   6.985   3.620
 9726SOL    HW230078   6.975   6.912   3.606
 9727SOL     OW30079   6.517   3.047   1.394
 9727SOL    HW130080   6.530   3.126   1.455
 9727SOL    HW230081   6.466   3.075   1.313
 9728SOL     OW30082   5.554   1.809   5.204
 9728SOL    HW130083   5.550   1.853   5.294
 9728SOL    HW230084   5.509   1.868   5.137
 9729SOL     OW30085   0.125   3.914   2.192
 9729SOL    HW130086   0.124   3.867   2.280
 9729SOL    HW230087   0.183   3.863   2.128
 9730SOL     OW30088   1.194   5.707   3.468
 9730SOL    HW130089   1.157   5.797   3.450
 9730SOL    HW230090   1.120   5.643   3.488
 9731SOL     OW30091   6.264   1.589   1.468
 9731SOL    HW130092   6.256   1.494   1.438
 9731SOL    HW230093   6.238   1.597   1.564
 9732SOL     OW30094   0.011   2.601   3.203
 9732SOL    HW130095   0.039   2.578   3.110
 9732SOL    HW230096   0.039   2.528   3.266
 9733SOL     OW30097   5.300   5.610   7.012
 9733SOL    HW130098   5.287   5.672   0.069
 9733SOL    HW230099   5.383   5.556   0.006
 9734SOL     OW30100   3.978   3.658   0.028
 9734SOL    HW130101   4.025   3.603   0.096
 9734SOL    HW230102   3.889   3.617   0.007
 9735SOL     OW30103   1.372   1.564   0.438
 9735SOL    HW130104   1.289   1.619   0.450
 9735SOL    HW230105   1.437   1.614   0.382
 9736SOL     OW30106   5.233   2.612   6.318
 9736SOL    HW130107   5.287   2.661   6.387
 9736SOL    HW230108   5.206   2.523   6.353
 9737SOL     OW30109   5.190   3.374   5.389
 9737SOL    HW130110   5.188   3.471   5.413
 9737SOL    HW230111   5.277   3.334   5.418
 9738SOL     OW30112   2.556   6.316   1.515
 9738SOL    HW130113   2.472   6.362   1.542
 9738SOL    HW230114   2.559   6.225   1.557
 9739SOL     OW30115   5.780   6.357   0.677
 9739SOL    HW130116   5.839   6.432   0.705
 9739SOL    HW230117   5.741   6.313   0.759
 9740SOL     OW30118   6.460   0.937   0.869
 9740SOL    HW130119   6.544   0.917   0.919
 9740SOL    HW230120   6.425   0.853   0.828
 9741SOL     OW30121   2.382   2.602   2.866
 9741SOL    HW130122   2.468   2.567   2.829
 9741SOL    HW230123   2.359   2.551   2.949
 9742SOL     OW30124   4.297   0.080   0.009
 9742SOL    HW130125   4.285   0.158   6.967
 9742SOL    HW230126   4.348   0.108   0.090
 9743SOL     OW30127   6.053   3.762   4.373
 9743SOL    HW130128   5.960   3.726   4.364
 9743SOL    HW230129   6.067   3.835   4.307
 9744SOL     OW30130   1.621   2.893   2.067
 9744SOL    HW130131   1.638   2.962   1.996
 9744SOL    HW230132   1.541   2.838   2.041
 9745SOL     OW30133   1.227   6.713   5.856
 9745SOL    HW130134   1.326   6.717   5.844
 9745SOL    HW230135   1.203   6.755   5.944
 9746SOL     OW30136   3.329   6.060   5.859
 9746SOL    HW130137   3.364   5.988   5.920
 9746SOL    HW230138   3.268   6.120   5.911
 9747SOL     OW30139   4.393   1.506   3.338
 9747SOL    HW130140   4.440   1.564   3.272
 9747SOL    HW230141   4.429   1.525   3.430
 9748SOL     OW30142   0.613   2.163   2.142
 9748SOL    HW130143   0.554   2.083   2.146
 9748SOL    HW230144   0.559   2.244   2.118
 9749SOL     OW30145   6.815   0.371   1.456
 9749SOL    HW130146   6.730   0.335   1.495
 9749SOL    HW230147   6.893   0.319   1.492
 9750SOL     OW30148   5.757   2.065   4.601
 9750SOL    HW130149   5.815   2.071   4.520
 9750SOL    HW230150   5.814   2.057   4.683
 9751SOL     OW30151   2.796   5.500   1.019
 9751SOL    HW130152   2.889   5.482   0.986
 9751SOL    HW230153   2.737   5.522   0.941
 9752SOL     OW30154   4.324   3.998   0.934
 9752SOL    HW130155   4.296   3.954   0.848
 9752SOL    HW230156   4.247   4.048   0.972
 9753SOL     OW30157   6.439   6.638   3.203
 9753SOL    HW130158   6.477   6.549   3.178
 9753SOL    HW230159   6.376   6.628   3.279
 9754SOL     OW30160   3.273   0.392   1.769
 9754SOL    HW130161   3.184   0.392   1.724
 9754SOL    HW230162   3.342   0.434   1.710
 9755SOL     OW30163   3.064   4.244   1.063
 9755SOL    HW130164   2.971   4.274   1.080
 9755SOL    HW230165   3.074   4.148   1.090
 9756SOL     OW30166   4.614   6.672   0.010
 9756SOL    HW130167   4.594   6.681   0.108
 9756SOL    HW230168   4.682   6.741   7.003
 9757SOL     OW30169   5.139   3.996   4.245
 9757SOL    HW130170   5.155   4.088   4.281
 9757SOL    HW230171   5.213   3.971   4.182
 9758SOL     OW30172   3.350   1.008   1.498
 9758SOL    HW130173   3.397   0.922   1.518
 9758SOL    HW230174   3.266   1.013   1.552
 9759SOL     OW30175   6.410   1.854   0.784
 9759SOL    HW130176   6.313   1.874   0.775
 9759SOL    HW230177   6.437   1.787   0.715
 9760SOL     OW30178   4.809   0.910   6.608
 9760SOL    HW130179   4.803   0.981   6.678
 9760SOL    HW230180   4.831   0.951   6.520
 9761SOL     OW30181   0.965   2.255   1.884
 9761SOL    HW130182   0.908   2.192   1.937
 9761SOL    HW230183   0.922   2.271   1.795
 9762SOL     OW30184   3.916   1.066   5.966
 9762SOL    HW130185   3.890   0.982   5.919
 9762SOL    HW230186   3.866   1.073   6.052
 9763SOL     OW30187   5.693   1.959   1.025
 9763SOL    HW130188   5.718   1.922   0.936
 9763SOL    HW230189   5.767   2.017   1.059
 9764SOL     OW30190   0.571   2.506   3.573
 9764SOL    HW130191   0.519   2.456   3.503
 9764SOL    HW230192   0.664   2.471   3.577
 9765SOL     OW30193   5.988   2.347   0.901
 9765SOL    HW130194   5.919   2.333   0.831
 9765SOL    HW230195   6.023   2.258   0.932
 9766SOL     OW30196   0.382   2.367   2.944
 9766SOL    HW130197   0.347   2.460   2.935
 9766SOL    HW230198   0.312   2.309   2.985
 9767SOL     OW30199   3.731   1.670   4.547
 9767SOL    HW130200   3.789   1.726   4.487
 9767SOL    HW230201   3.699   1.589   4.497
 9768SOL     OW30202   4.881   2.823   6.509
 9768SOL    HW130203   4.821   2.744   6.502
 9768SOL    HW230204   4.932   2.834   6.424
 9769SOL     OW30205   3.685   1.035   5.401
 9769SOL    HW130206   3.692   0.989   5.490
 9769SOL    HW230207   3.675   0.966   5.329
 9770SOL     OW30208   2.112   3.329   5.490
 9770SOL    HW130209   2.206   3.295   5.481
 9770SOL    HW230210   2.087   3.333   5.587
 9771SOL     OW30211   3.200   0.822   1.875
 9771SOL    HW130212   3.100   0.827   1.887
 9771SOL    HW230213   3.225   0.864   1.788
 9772SOL     OW30214   0.238   0.687   1.826
 9772SOL    HW130215   0.227   0.782   1.854
 9772SOL    HW230216   0.257   0.684   1.728
 9773SOL     OW30217   4.628   6.352   2.031
 9773SOL    HW130218   4.724   6.328   2.021
 9773SOL    HW230219   4.621   6.446   2.065
 9774SOL     OW30220   1.353   5.207   4.911
 9774SOL    HW130221   1.336   5.121   4.958
 9774SOL    HW230222   1.386   5.188   4.818
 9775SOL     OW30223   1.656   1.078   3.514
 9775SOL    HW130224   1.588   1.150   3.529
 9775SOL    HW230225   1.636   1.001   3.574
 9776SOL     OW30226   1.359   5.830   1.686
 9776SOL    HW130227   1.348   5.926   1.711
 9776SOL    HW230228   1.315   5.772   1.755
 9777SOL     OW30229   4.567   1.892   5.323
 9777SOL    HW130230   4.566   1.970   5.385
 9777SOL    HW230231   4.540   1.809   5.373
 9778SOL     OW30232   1.566   3.596   2.754
 9778SOL    HW130233   1.653   3.548   2.767
 9778SOL    HW230234   1.579   3.676   2.695
 9779SOL     OW30235   2.291   1.140   2.688
 9779SOL    HW130236   2.273   1.237   2.705
 9779SOL    HW230237   2.216   1.086   2.726
 9780SOL     OW30238   1.539   1.562   0.973
 9780SOL    HW130239   1.455   1.557   1.027
 9780SOL    HW230240   1.612   1.602   1.029
 9781SOL     OW30241   1.766   0.981   2.171
 9781SOL    HW130242   1.824   1.009   2.096
 9781SOL    HW230243   1.754   1.058   2.235
 9782SOL     OW30244   6.980   2.417   6.911
 9782SOL    HW130245   7.019   2.458   6.829
 9782SOL    HW230246   6.982   2.483   6.986
 9783SOL     OW30247   4.865   1.437   2.224
 9783SOL    HW130248   4.796   1.499   2.186
 9783SOL    HW230249   4.826   1.345   2.231
 9784SOL     OW30250   2.121   1.339   0.409
 9784SOL    HW130251   2.078   1.301   0.491
 9784SOL    HW230252   2.071   1.309   0.328
 9785SOL     OW30253   1.491   3.363   4.767
 9785SOL    HW130254   1.475   3.431   4.839
 9785SOL    HW230255   1.475   3.271   4.803
 9786SOL     OW30256   2.954   4.144   0.088
 9786SOL    HW130257   2.947   4.187   7.018
 9786SOL    HW230258   3.036   4.177   0.135
 9787SOL     OW30259   2.644   3.253   0.825
 9787SOL    HW130260   2.698   3.313   0.884
 9787SOL    HW230261   2.551   3.291   0.817
 9788SOL     OW30262   2.591   6.989   2.981
 9788SOL    HW130263   2.588   0.053   3.035
 9788SOL    HW230264   2.560   6.912   3.038
 9789SOL     OW30265   4.573   1.770   0.097
 9789SOL    HW130266   4.646   1.798   0.159
 9789SOL    HW230267   4.510   1.709   0.145
 9790SOL     OW30268   4.536   6.027   4.991
 9790SOL    HW130269   4.442   6.058   4.979
 9790SOL    HW230270   4.537   5.931   5.018
 9791SOL     OW30271   0.062   1.087   0.968
 9791SOL    HW130272   0.054   0.990   0.993
 9791SOL    HW230273   0.037   1.143   1.047
 9792SOL     OW30274   3.530   3.391   0.692
 9792SOL    HW130275   3.450   3.356   0.742
 9792SOL    HW230276   3.613   3.372   0.745
 9793SOL     OW30277   6.056   1.045   1.765
 9793SOL    HW130278   6.070   1.035   1.863
 9793SOL    HW230279   5.967   1.088   1.747
 9794SOL     OW30280   4.215   5.826   4.864
 9794SOL    HW130281   4.231   5.923   4.877
 9794SOL    HW230282   4.267   5.793   4.786
 9795SOL     OW30283   1.806   4.145   2.850
 9795SOL    HW130284   1.877   4.207   2.881
 9795SOL    HW230285   1.748   4.119   2.928
 9796SOL     OW30286   3.905   3.602   4.980
 9796SOL    HW130287   3.859   3.611   4.892
 9796SOL    HW230288   3.985   3.543   4.971
 9797SOL     OW30289   3.477   5.412   0.220
 9797SOL    HW130290   3.405   5.451   0.162
 9797SOL    HW230291   3.443   5.330   0.266
 9798SOL     OW30292   0.189   4.055   6.277
 9798SOL    HW130293   0.116   4.036   6.343
 9798SOL    HW230294   0.273   4.011   6.309
 9799SOL     OW30295   3.507   6.715   6.452
 9799SOL    HW130296   3.451   6.680   6.526
 9799SOL    HW230297   3.451   6.726   6.370
 9800SOL     OW30298   0.038   4.384   4.564
 9800SOL    HW130299   0.034   4.285   4.578
 9800SOL    HW230300   7.008   4.431   4.637
 9801SOL     OW30301   3.939   6.980   0.758
 9801SOL    HW130302   3.863   6.960   0.821
 9801SOL    HW230303   4.024   6.987   0.810
 9802SOL     OW30304   3.866   2.522   0.377
 9802SOL    HW130305   3.962   2.532   0.351
 9802SOL    HW230306   3.808   2.559   0.304
 9803SOL     OW30307   2.577   3.787   0.536
 9803SOL    HW130308   2.633   3.821   0.461
 9803SOL    HW230309   2.631   3.788   0.621
 9804SOL     OW30310   1.140   4.010   2.535
 9804SOL    HW130311   1.142   4.093   2.591
 9804SOL    HW230312   1.211   4.016   2.465
 9805SOL     OW30313   6.897   4.908   5.109
 9805SOL    HW130314   6.909   4.994   5.060
 9805SOL    HW230315   6.834   4.920   5.185
 9806SOL     OW30316   3.338   0.808   6.789
 9806SOL    HW130317   3.263   0.860   6.748
 9806SOL    HW230318   3.379   0.861   6.863
 9807SOL     OW30319   3.612   3.157   4.769
 9807SOL    HW130320   3.658   3.078   4.730
 9807SOL    HW230321   3.517   3.133   4.792
 9808SOL     OW30322   2.444   5.974   2.928
 9808SOL    HW130323   2.538   5.938   2.920
 9808SOL    HW230324   2.446   6.059   2.979
 9809SOL     OW30325   6.370   3.522   1.543
 9809SOL    HW130326   6.438   3.449   1.551
 9809SOL    HW230327   6.293   3.489   1.489
 9810SOL     OW30328   4.155   3.004   0.879
 9810SOL    HW130329   4.089   2.939   0.841
 9810SOL    HW230330   4.238   3.004   0.823
 9811SOL     OW30331   5.215   3.589   4.120
 9811SOL    HW130332   5.274   3.580   4.040
 9811SOL    HW230333   5.126   3.623   4.092
 9812SOL     OW30334   3.228   5.208   6.520
 9812SOL    HW130335   3.162   5.278   6.546
 9812SOL    HW230336   3.243   5.146   6.597
 9813SOL     OW30337   4.464   0.597   1.904
 9813SOL    HW130338   4.540   0.603   1.969
 9813SOL    HW230339   4.417   0.685   1.900
 9814SOL     OW30340   6.721   1.430   6.185
 9814SOL    HW130341   6.736   1.517   6.138
 9814SOL    HW230342   6.677   1.446   6.273
 9815SOL     OW30343   5.715   2.599   4.618
 9815SOL    HW130344   5.684   2.504   4.606
 9815SOL    HW230345   5.751   2.633   4.531
 9816SOL     OW30346   3.398   0.645   0.377
 9816SOL    HW130347   3.337   0.614   0.303
 9816SOL    HW230348   3.493   0.643   0.345
 9817SOL     OW30349   6.348   0.446   1.257
 9817SOL    HW130350   6.343   0.358   1.209
 9817SOL    HW230351   6.365   0.430   1.354
 9818SOL     OW30352   3.722   2.294   5.320
 9818SOL    HW130353   3.690   2.389   5.320
 9818SOL    HW230354   3.656   2.236   5.367
 9819SOL     OW30355   2.484   0.626   1.805
 9819SOL    HW130356   2.508   0.530   1.787
 9819SOL    HW230357   2.507   0.649   1.899
 9820SOL     OW30358   3.670   2.653   0.072
 9820SOL    HW130359   3.605   2.580   0.093
 9820SOL    HW230360   3.681   2.661   6.993
 9821SOL     OW30361   0.716   6.408   6.699
 9821SOL    HW130362   0.633   6.366   6.663
 9821SOL    HW230363   0.768   6.450   6.625
 9822SOL     OW30364   0.235   0.884   2.294
 9822SOL    HW130365   0.312   0.943   2.322
 9822SOL    HW230366   0.269   0.793   2.271
 9823SOL     OW30367   3.215   6.906   2.023
 9823SOL    HW130368   3.306   6.904   1.981
 9823SOL    HW230369   3.155   6.842   1.976
 9824SOL     OW30370   2.223   3.949   5.337
 9824SOL    HW130371   2.207   3.857   5.373
 9824SOL    HW230372   2.312   3.952   5.291
 9825SOL     OW30373   4.090   4.780   5.242
 9825SOL    HW130374   4.018   4.713   5.261
 9825SOL    HW230375   4.097   4.844   5.318
 9826SOL     OW30376   5.439   6.748   5.448
 9826SOL    HW130377   5.403   6.833   5.487
 9826SOL    HW230378   5.382   6.671   5.477
 9827SOL     OW30379   0.837   5.561   4.569
 9827SOL    HW130380   0.896   5.481   4.557
 9827SOL    HW230381   0.792   5.583   4.482
 9828SOL     OW30382   2.465   1.482   0.220
 9828SOL    HW130383   2.516   1.447   0.141
 9828SOL    HW230384   2.394   1.416   0.245
 9829SOL     OW30385   2.929   3.953   1.728
 9829SOL    HW130386   2.974   4.037   1.699
 9829SOL    HW230387   2.963   3.925   1.817
 9830SOL     OW30388   5.995   1.666   0.975
 9830SOL    HW130389   6.086   1.633   0.950
 9830SOL    HW230390   5.927   1.629   0.912
 9831SOL     OW30391   6.121   6.504   1.409
 9831SOL    HW130392   6.029   6.531   1.379
 9831SOL    HW230393   6.188   6.534   1.342
 9832SOL     OW30394   3.211   3.600   0.573
 9832SOL    HW130395   3.117   3.598   0.539
 9832SOL    HW230396   3.217   3.547   0.658
 9833SOL     OW30397   5.008   4.315   6.895
 9833SOL    HW130398   5.061   4.399   6.887
 9833SOL    HW230399   4.976   4.304   6.989
 9834SOL     OW30400   1.975   2.659   3.511
 9834SOL    HW130401   1.979   2.612   3.423
 9834SOL    HW230402   1.880   2.680   3.533
 9835SOL     OW30403   5.220   1.846   4.232
 9835SOL    HW130404   5.249   1.923   4.289
 9835SOL    HW230405   5.291   1.776   4.232
 9836SOL     OW30406   5.352   5.452   1.583
 9836SOL    HW130407   5.357   5.474   1.681
 9836SOL    HW230408   5.440   5.472   1.540
 9837SOL     OW30409   2.742   5.739   5.987
 9837SOL    HW130410   2.789   5.695   5.911
 9837SOL    HW230411   2.761   5.837   5.986
 9838SOL     OW30412   6.789   6.469   5.024
 9838SOL    HW130413   6.874   6.484   5.076
 9838SOL    HW230414   6.712   6.504   5.077
 9839SOL     OW30415   5.844   3.091   2.964
 9839SOL    HW130416   5.790   3.160   3.013
 9839SOL    HW230417   5.860   3.121   2.870
 9840SOL     OW30418   5.878   0.225   0.109
 9840SOL    HW130419   5.827   0.291   0.054
 9840SOL    HW230420   5.975   0.230   0.085
 9841SOL     OW30421   2.016   2.926   4.634
 9841SOL    HW130422   2.038   2.952   4.540
 9841SOL    HW230423   2.023   3.005   4.694
 9842SOL     OW30424   3.278   3.207   4.157
 9842SOL    HW130425   3.316   3.286   4.206
 9842SOL    HW230426   3.335   3.187   4.078
 9843SOL     OW30427   5.926   4.404   2.914
 9843SOL    HW130428   5.867   4.446   2.845
 9843SOL    HW230429   5.987   4.472   2.953
 9844SOL     OW30430   4.736   0.128   1.784
 9844SOL    HW130431   4.680   0.088   1.857
 9844SOL    HW230432   4.783   0.209   1.820
 9845SOL     OW30433   1.530   1.689   4.044
 9845SOL    HW130434   1.546   1.687   4.143
 9845SOL    HW230435   1.435   1.665   4.025
 9846SOL     OW30436   2.999   3.226   4.112
 9846SOL    HW130437   3.095   3.205   4.127
 9846SOL    HW230438   2.968   3.293   4.179
 9847SOL     OW30439   2.151   4.483   4.650
 9847SOL    HW130440   2.233   4.456   4.702
 9847SOL    HW230441   2.097   4.401   4.631
 9848SOL     OW30442   6.471   4.248   0.102
 9848SOL    HW130443   6.522   4.250   0.188
 9848SOL    HW230444   6.506   4.175   0.043
 9849SOL     OW30445   6.987   6.096   5.275
 9849SOL    HW130446   6.932   6.150   5.339
 9849SOL    HW230447   6.926   6.046   5.213
 9850SOL     OW30448   5.041   0.451   3.484
 9850SOL    HW130449   5.095   0.378   3.442
 9850SOL    HW230450   5.067   0.539   3.443
 9851SOL     OW30451   5.097   2.501   5.518
 9851SOL    HW130452   5.000   2.491   5.498
 9851SOL    HW230453   5.130   2.419   5.563
 9852SOL     OW30454   5.289   1.499   4.170
 9852SOL    HW130455   5.224   1.468   4.240
 9852SOL    HW230456   5.372   1.444   4.176
 9853SOL     OW30457   0.979   5.272   1.060
 9853SOL    HW130458   0.892   5.234   1.029
 9853SOL    HW230459   1.013   5.216   1.136
 9854SOL     OW30460   3.524   6.998   3.964
 9854SOL    HW130461   3.464   6.929   3.924
 9854SOL    HW230462   3.481   0.017   4.046
 9855SOL     OW30463   2.023   4.564   0.659
 9855SOL    HW130464   1.976   4.523   0.738
 9855SOL    HW230465   1.956   4.600   0.595
 9856SOL     OW30466   3.799   3.470   1.327
 9856SOL    HW130467   3.801   3.550   1.267
 9856SOL    HW230468   3.735   3.487   1.402
 9857SOL     OW30469   6.267   4.373   2.600
 9857SOL    HW130470   6.249   4.433   2.677
 9857SOL    HW230471   6.257   4.278   2.628
 9858SOL     OW30472   3.235   1.499   1.693
 9858SOL    HW130473   3.148   1.548   1.697
 9858SOL    HW230474   3.308   1.564   1.671
 9859SOL     OW30475   0.583   6.615   1.195
 9859SOL    HW130476   0.573   6.650   1.102
 9859SOL    HW230477   0.603   6.517   1.192
 9860SOL     OW30478   1.160   1.140   2.677
 9860SOL    HW130479   1.136   1.046   2.701
 9860SOL    HW230480   1.096   1.175   2.609
 9861SOL     OW30481   3.052   6.594   3.676
 9861SOL    HW130482   3.079   6.690   3.687
 9861SOL    HW230483   2.954   6.589   3.659
 9862SOL     OW30484   0.200   1.878   1.134
 9862SOL    HW130485   0.143   1.960   1.130
 9862SOL    HW230486   0.296   1.904   1.122
 9863SOL     OW30487   3.750   0.333   0.468
 9863SOL    HW130488   3.676   0.399   0.471
 9863SOL    HW230489   3.727   0.259   0.405
 9864SOL     OW30490   4.384   6.060   3.355
 9864SOL    HW130491   4.331   6.126   3.409
 9864SOL    HW230492   4.481   6.068   3.379
 9865SOL     OW30493   1.917   3.304   4.094
 9865SOL    HW130494   1.981   3.319   4.018
 9865SOL    HW230495   1.874   3.214   4.084
 9866SOL     OW30496   3.116   4.867   3.516
 9866SOL    HW130497   3.084   4.961   3.517
 9866SOL    HW230498   3.209   4.864   3.478
 9867SOL     OW30499   3.705   6.902   6.476
 9867SOL    HW130500   3.634   6.831   6.477
 9867SOL    HW230501   3.794   6.860   6.460
 9868SOL     OW30502   1.301   4.860   5.622
 9868SOL    HW130503   1.217   4.861   5.675
 9868SOL    HW230504   1.315   4.949   5.579
 9869SOL     OW30505   1.606   4.514   2.832
 9869SOL    HW130506   1.624   4.472   2.921
 9869SOL    HW230507   1.689   4.515   2.777
 9870SOL     OW30508   3.897   5.558   1.430
 9870SOL    HW130509   3.971   5.601   1.379
 9870SOL    HW230510   3.906   5.581   1.527
 9871SOL     OW30511   1.773   2.536   5.895
 9871SOL    HW130512   1.858   2.538   5.948
 9871SOL    HW230513   1.790   2.576   5.805
 9872SOL     OW30514   1.382   3.784   3.356
 9872SOL    HW130515   1.361   3.727   3.277
 9872SOL    HW230516   1.322   3.760   3.432
 9873SOL     OW30517   1.717   1.782   0.726
 9873SOL    HW130518   1.753   1.804   0.635
 9873SOL    HW230519   1.793   1.761   0.788
 9874SOL     OW30520   1.265   3.439   4.975
 9874SOL    HW130521   1.192   3.375   4.952
 9874SOL    HW230522   1.267   3.454   5.074
 9875SOL     OW30523   1.384   1.178   3.168
 9875SOL    HW130524   1.468   1.233   3.172
 9875SOL    HW230525   1.394   1.108   3.097
 9876SOL     OW30526   6.868   5.836   2.518
 9876SOL    HW130527   6.804   5.774   2.564
 9876SOL    HW230528   6.849   5.837   2.420
 9877SOL     OW30529   4.020   0.292   1.283
 9877SOL    HW130530   4.012   0.359   1.209
 9877SOL    HW230531   3.970   0.325   1.364
 9878SOL     OW30532   0.125   1.043   5.136
 9878SOL    HW130533   0.108   1.130   5.181
 9878SOL    HW230534   0.141   0.972   5.205
 9879SOL     OW30535   5.236   5.580   4.983
 9879SOL    HW130536   5.248   5.624   5.072
 9879SOL    HW230537   5.297   5.501   4.975
 9880SOL     OW30538   1.232   2.244   4.050
 9880SOL    HW130539   1.144   2.244   4.097
 9880SOL    HW230540   1.218   2.262   3.952
 9881SOL     OW30541   0.632   1.281   5.844
 9881SOL    HW130542   0.709   1.251   5.789
 9881SOL    HW230543   0.613   1.378   5.824
 9882SOL     OW30544   2.286   2.315   3.601
 9882SOL    HW130545   2.336   2.395   3.568
 9882SOL    HW230546   2.205   2.345   3.652
 9883SOL     OW30547   2.923   1.415   2.411
 9883SOL    HW130548   2.954   1.320   2.411
 9883SOL    HW230549   2.936   1.455   2.320
 9884SOL     OW30550   3.409   0.526   3.960
 9884SOL    HW130551   3.484   0.592   3.963
 9884SOL    HW230552   3.443   0.436   3.986
 9885SOL     OW30553   6.533   3.441   4.502
 9885SOL    HW130554   6.622   3.458   4.460
 9885SOL    HW230555   6.523   3.343   4.521
 9886SOL     OW30556   0.101   3.095   1.568
 9886SOL    HW130557   0.094   3.061   1.475
 9886SOL    HW230558   0.105   3.018   1.632
 9887SOL     OW30559   4.652   6.504   5.917
 9887SOL    HW130560   4.626   6.430   5.854
 9887SOL    HW230561   4.694   6.578   5.865
 9888SOL     OW30562   6.444   4.651   5.726
 9888SOL    HW130563   6.477   4.740   5.757
 9888SOL    HW230564   6.354   4.663   5.684
 9889SOL     OW30565   0.433   5.911   0.744
 9889SOL    HW130566   0.513   5.852   0.735
 9889SOL    HW230567   0.386   5.890   0.830
 9890SOL     OW30568   0.644   2.606   0.485
 9890SOL    HW130569   0.740   2.623   0.462
 9890SOL    HW230570   0.600   2.693   0.507
 9891SOL     OW30571   5.113   1.301   1.845
 9891SOL    HW130572   5.108   1.398   1.872
 9891SOL    HW230573   5.185   1.256   1.897
 9892SOL     OW30574   1.081   0.112   6.492
 9892SOL    HW130575   1.039   0.203   6.488
 9892SOL    HW230576   1.130   0.102   6.579
 9893SOL     OW30577   2.094   0.846   0.103
 9893SOL    HW130578   2.024   0.848   0.175
 9893SOL    HW230579   2.183   0.825   0.143
 9894SOL     OW30580   1.890   0.927   1.381
 9894SOL    HW130581   1.842   0.844   1.409
 9894SOL    HW230582   1.929   0.914   1.290
 9895SOL     OW30583   4.419   3.058   5.328
 9895SOL    HW130584   4.497   3.122   5.327
 9895SOL    HW230585   4.334   3.110   5.329
 9896SOL     OW30586   6.370   6.568   5.691
 9896SOL    HW130587   6.343   6.508   5.766
 9896SOL    HW230588   6.466   6.551   5.668
 9897SOL     OW30589   4.955   4.701   4.758
 9897SOL    HW130590   5.008   4.730   4.679
 9897SOL    HW230591   4.974   4.604   4.776
 9898SOL     OW30592   2.668   6.979   6.103
 9898SOL    HW130593   2.742   6.974   6.169
 9898SOL    HW230594   2.625   6.889   6.094
 9899SOL     OW30595   0.225   4.635   0.255
 9899SOL    HW130596   0.186   4.706   0.313
 9899SOL    HW230597   0.286   4.676   0.188
 9900SOL     OW30598   2.252   4.169   3.260
 9900SOL    HW130599   2.156   4.192   3.247
 9900SOL    HW230600   2.267   4.073   3.238
 9901SOL     OW30601   2.171   3.029   5.559
 9901SOL    HW130602   2.208   3.102   5.501
 9901SOL    HW230603   2.186   3.052   5.655
 9902SOL     OW30604   2.791   4.562   0.794
 9902SOL    HW130605   2.713   4.578   0.733
 9902SOL    HW230606   2.804   4.464   0.806
 9903SOL     OW30607   5.381   1.262   4.988
 9903SOL    HW130608   5.460   1.217   4.945
 9903SOL    HW230609   5.377   1.357   4.960
 9904SOL     OW30610   6.088   2.098   0.360
 9904SOL    HW130611   6.122   2.018   0.310
 9904SOL    HW230612   6.051   2.164   0.294
 9905SOL     OW30613   4.574   0.372   0.327
 9905SOL    HW130614   4.673   0.369   0.339
 9905SOL    HW230615   4.551   0.433   0.251
 9906SOL     OW30616   2.934   3.335   4.790
 9906SOL    HW130617   2.842   3.319   4.826
 9906SOL    HW230618   2.978   3.409   4.843
 9907SOL     OW30619   1.487   6.598   1.549
 9907SOL    HW130620   1.415   6.648   1.501
 9907SOL    HW230621   1.570   6.598   1.494
 9908SOL     OW30622   5.273   3.928   1.672
 9908SOL    HW130623   5.325   3.999   1.720
 9908SOL    HW230624   5.258   3.957   1.577
 9909SOL     OW30625   2.151   0.425   4.902
 9909SOL    HW130626   2.052   0.426   4.897
 9909SOL    HW230627   2.190   0.435   4.811
 9910SOL     OW30628   6.733   4.480   3.605
 9910SOL    HW130629   6.722   4.504   3.508
 9910SOL    HW230630   6.806   4.412   3.614
 9911SOL     OW30631   2.424   6.175   2.379
 9911SOL    HW130632   2.382   6.188   2.289
 9911SOL    HW230633   2.359   6.201   2.450
 9912SOL     OW30634   4.478   0.831   6.301
 9912SOL    HW130635   4.505   0.818   6.206
 9912SOL    HW230636   4.443   0.744   6.338
 9913SOL     OW30637   5.367   3.532   0.562
 9913SOL    HW130638   5.291   3.466   0.568
 9913SOL    HW230639   5.330   3.621   0.535
 9914SOL     OW30640   6.967   3.628   4.681
 9914SOL    HW130641   6.926   3.546   4.720
 9914SOL    HW230642   6.945   3.632   4.583
 9915SOL     OW30643   4.442   1.526   3.609
 9915SOL    HW130644   4.491   1.551   3.692
 9915SOL    HW230645   4.381   1.449   3.629
 9916SOL     OW30646   1.267   2.904   1.423
 9916SOL    HW130647   1.341   2.853   1.378
 9916SOL    HW230648   1.287   2.913   1.520
 9917SOL     OW30649   6.203   4.055   5.102
 9917SOL    HW130650   6.295   4.066   5.140
 9917SOL    HW230651   6.188   4.122   5.030
 9918SOL     OW30652   4.861   3.098   2.296
 9918SOL    HW130653   4.960   3.097   2.280
 9918SOL    HW230654   4.814   3.056   2.219
 9919SOL     OW30655   5.436   5.834   0.463
 9919SOL    HW130656   5.357   5.891   0.442
 9919SOL    HW230657   5.408   5.759   0.523
 9920SOL     OW30658   4.914   1.527   2.488
 9920SOL    HW130659   4.929   1.498   2.393
 9920SOL    HW230660   4.935   1.451   2.550
 9921SOL     OW30661   4.133   5.048   6.485
 9921SOL    HW130662   4.144   4.982   6.410
 9921SOL    HW230663   4.121   4.998   6.571
 9922SOL     OW30664   0.056   6.116   1.533
 9922SOL    HW130665   7.015   6.168   1.473
 9922SOL    HW230666   0.151   6.134   1.506
 9923SOL     OW30667   5.719   4.840   0.764
 9923SOL    HW130668   5.729   4.740   0.760
 9923SOL    HW230669   5.649   4.864   0.832
 9924SOL     OW30670   1.696   3.737   4.455
 9924SOL    HW130671   1.622   3.799   4.428
 9924SOL    HW230672   1.782   3.768   4.414
 9925SOL     OW30673   5.100   2.437   4.339
 9925SOL    HW130674   5.081   2.535   4.349
 9925SOL    HW230675   5.100   2.393   4.429
 9926SOL     OW30676   3.426   5.125   1.418
 9926SOL    HW130677   3.457   5.219   1.415
 9926SOL    HW230678   3.333   5.119   1.380
 9927SOL     OW30679   5.104   6.989   4.262
 9927SOL    HW130680   5.019   6.980   4.211
 9927SOL    HW230681   5.098   0.045   4.326
 9928SOL     OW30682   4.985   4.261   2.372
 9928SOL    HW130683   5.018   4.175   2.411
 9928SOL    HW230684   4.999   4.335   2.439
 9929SOL     OW30685   0.999   4.208   3.170
 9929SOL    HW130686   1.042   4.279   3.226
 9929SOL    HW230687   1.070   4.161   3.116
 9930SOL     OW30688   5.771   0.997   3.000
 9930SOL    HW130689   5.831   1.046   2.937
 9930SOL    HW230690   5.705   0.943   2.947
 9931SOL     OW30691   1.251   5.551   5.451
 9931SOL    HW130692   1.306   5.482   5.497
 9931SOL    HW230693   1.259   5.540   5.352
 9932SOL     OW30694   0.981   5.960   4.635
 9932SOL    HW130695   0.899   5.905   4.644
 9932SOL    HW230696   0.957   6.051   4.602
 9933SOL     OW30697   6.770   6.707   2.915
 9933SOL    HW130698   6.706   6.763   2.967
 9933SOL    HW230699   6.777   6.616   2.958
 9934SOL     OW30700   0.087   2.201   4.997
 9934SOL    HW130701   7.015   2.199   5.037
 9934SOL    HW230702   0.155   2.212   5.069
 9935SOL     OW30703   2.309   0.526   6.206
 9935SOL    HW130704   2.299   0.616   6.164
 9935SOL    HW230705   2.274   0.456   6.143
 9936SOL     OW30706   1.512   3.701   3.650
 9936SOL    HW130707   1.589   3.714   3.588
 9936SOL    HW230708   1.546   3.694   3.744
 9937SOL     OW30709   6.420   2.257   5.942
 9937SOL    HW130710   6.511   2.216   5.936
 9937SOL    HW230711   6.429   2.351   5.975
 9938SOL     OW30712   6.565   6.520   2.918
 9938SOL    HW130713   6.508   6.532   2.836
 9938SOL    HW230714   6.506   6.493   2.994
 9939SOL     OW30715   3.129   3.389   3.605
 9939SOL    HW130716   3.030   3.407   3.607
 9939SOL    HW230717   3.178   3.472   3.630
 9940SOL     OW30718   0.516   1.308   1.126
 9940SOL    HW130719   0.531   1.358   1.041
 9940SOL    HW230720   0.468   1.222   1.105
 9941SOL     OW30721   3.118   5.689   4.512
 9941SOL    HW130722   3.181   5.738   4.451
 9941SOL    HW230723   3.112   5.593   4.484
 9942SOL     OW30724   2.549   5.517   4.043
 9942SOL    HW130725   2.592   5.605   4.021
 9942SOL    HW230726   2.586   5.446   3.985
 9943SOL     OW30727   0.362   0.049   4.833
 9943SOL    HW130728   0.280   0.045   4.890
 9943SOL    HW230729   0.389   0.144   4.820
 9944SOL     OW30730   1.663   4.473   6.334
 9944SOL    HW130731   1.579   4.446   6.287
 9944SOL    HW230732   1.731   4.500   6.266
 9945SOL     OW30733   0.071   5.915   6.812
 9945SOL    HW130734   0.011   5.926   6.892
 9945SOL    HW230735   0.147   5.856   6.835
 9946SOL     OW30736   5.495   0.341   3.960
 9946SOL    HW130737   5.503   0.339   3.861
 9946SOL    HW230738   5.417   0.285   3.988
 9947SOL     OW30739   6.060   4.679   4.037
 9947SOL    HW130740   6.049   4.757   3.975
 9947SOL    HW230741   6.091   4.711   4.127
 9948SOL     OW30742   5.323   3.987   3.654
 9948SOL    HW130743   5.296   4.057   3.588
 9948SOL    HW230744   5.299   3.897   3.618
 9949SOL     OW30745   6.183   5.306   1.857
 9949SOL    HW130746   6.241   5.362   1.797
 9949SOL    HW230747   6.231   5.222   1.882
 9950SOL     OW30748   3.782   6.221   6.933
 9950SOL    HW130749   3.767   6.220   0.012
 9950SOL    HW230750   3.877   6.242   6.914
 9951SOL     OW30751   6.289   3.002   3.031
 9951SOL    HW130752   6.218   3.019   2.963
 9951SOL    HW230753   6.338   2.918   3.008
 9952SOL     OW30754   0.438   3.956   6.340
 9952SOL    HW130755   0.443   3.894   6.418
 9952SOL    HW230756   0.506   3.929   6.272
 9953SOL     OW30757   5.415   3.311   3.835
 9953SOL    HW130758   5.490   3.288   3.773
 9953SOL    HW230759   5.346   3.239   3.833
 9954SOL     OW30760   4.510   0.441   4.884
 9954SOL    HW130761   4.487   0.469   4.978
 9954SOL    HW230762   4.523   0.341   4.882
 9955SOL     OW30763   0.331   4.822   4.003
 9955SOL    HW130764   0.429   4.830   3.983
 9955SOL    HW230765   0.308   4.880   4.081
 9956SOL     OW30766   1.379   6.431   0.397
 9956SOL    HW130767   1.461   6.377   0.416
 9956SOL    HW230768   1.320   6.381   0.335
 9957SOL     OW30769   5.731   5.454   2.288
 9957SOL    HW130770   5.826   5.476   2.312
 9957SOL    HW230771   5.715   5.477   2.192
 9958SOL     OW30772   3.227   4.494   0.959
 9958SOL    HW130773   3.168   4.418   0.989
 9958SOL    HW230774   3.172   4.576   0.948
 9959SOL     OW30775   3.351   4.057   0.939
 9959SOL    HW130776   3.347   4.140   0.995
 9959SOL    HW230777   3.358   4.082   0.842
 9960SOL     OW30778   0.755   0.834   2.430
 9960SOL    HW130779   0.741   0.773   2.508
 9960SOL    HW230780   0.740   0.929   2.459
 9961SOL     OW30781   2.131   3.708   4.801
 9961SOL    HW130782   2.045   3.662   4.777
 9961SOL    HW230783   2.158   3.683   4.893
 9962SOL     OW30784   5.630   6.029   4.522
 9962SOL    HW130785   5.689   6.098   4.564
 9962SOL    HW230786   5.620   6.048   4.425
 9963SOL     OW30787   3.212   1.871   0.195
 9963SOL    HW130788   3.217   1.969   0.180
 9963SOL    HW230789   3.284   1.843   0.259
 9964SOL     OW30790   5.818   6.460   4.805
 9964SOL    HW130791   5.852   6.554   4.794
 9964SOL    HW230792   5.748   6.458   4.877
 9965SOL     OW30793   5.265   6.826   0.830
 9965SOL    HW130794   5.235   6.765   0.757
 9965SOL    HW230795   5.318   6.774   0.897
 9966SOL     OW30796   6.533   1.061   2.755
 9966SOL    HW130797   6.597   1.135   2.773
 9966SOL    HW230798   6.485   1.037   2.840
 9967SOL     OW30799   1.151   5.757   0.528
 9967SOL    HW130800   1.099   5.744   0.444
 9967SOL    HW230801   1.171   5.854   0.540
 9968SOL     OW30802   3.666   3.575   3.143
 9968SOL    HW130803   3.656   3.521   3.226
 9968SOL    HW230804   3.758   3.561   3.106
 9969SOL     OW30805   1.471   3.315   1.148
 9969SOL    HW130806   1.423   3.240   1.194
 9969SOL    HW230807   1.533   3.277   1.079
 9970SOL     OW30808   6.340   4.703   2.162
 9970SOL    HW130809   6.297   4.619   2.195
 9970SOL    HW230810   6.274   4.755   2.108
 9971SOL     OW30811   2.865   6.680   6.652
 9971SOL    HW130812   2.913   6.701   6.738
 9971SOL    HW230813   2.927   6.631   6.591
 9972SOL     OW30814   0.045   5.145   1.506
 9972SOL    HW130815   7.011   5.092   1.441
 9972SOL    HW230816   7.004   5.190   1.571
 9973SOL     OW30817   5.362   6.363   3.637
 9973SOL    HW130818   5.378   6.450   3.685
 9973SOL    HW230819   5.417   6.361   3.553
 9974SOL     OW30820   2.260   0.652   4.373
 9974SOL    HW130821   2.216   0.739   4.354
 9974SOL    HW230822   2.209   0.579   4.327
 9975SOL     OW30823   6.986   4.235   0.966
 9975SOL    HW130824   6.911   4.210   0.904
 9975SOL    HW230825   6.959   4.216   1.060
 9976SOL     OW30826   3.515   6.696   4.329
 9976SOL    HW130827   3.437   6.672   4.387
 9976SOL    HW230828   3.508   6.646   4.243
 9977SOL     OW30829   6.686   5.186   3.863
 9977SOL    HW130830   6.701   5.142   3.774
 9977SOL    HW230831   6.596   5.162   3.897
 9978SOL     OW30832   6.707   2.916   4.363
 9978SOL    HW130833   6.729   2.904   4.266
 9978SOL    HW230834   6.789   2.898   4.418
 9979SOL     OW30835   1.094   3.741   4.937
 9979SOL    HW130836   1.164   3.697   4.881
 9979SOL    HW230837   1.043   3.671   4.987
 9980SOL     OW30838   2.777   6.177   5.046
 9980SOL    HW130839   2.701   6.196   4.983
 9980SOL    HW230840   2.862   6.170   4.995
 9981SOL     OW30841   3.877   2.172   3.181
 9981SOL    HW130842   3.966   2.214   3.199
 9981SOL    HW230843   3.804   2.233   3.213
 9982SOL     OW30844   6.180   6.893   2.732
 9982SOL    HW130845   6.246   6.876   2.804
 9982SOL    HW230846   6.220   6.871   2.643
 9983SOL     OW30847   6.817   0.626   1.542
 9983SOL    HW130848   6.810   0.537   1.497
 9983SOL    HW230849   6.806   0.699   1.474
 9984SOL     OW30850   3.289   0.849   6.288
 9984SOL    HW130851   3.360   0.792   6.247
 9984SOL    HW230852   3.242   0.797   6.359
 9985SOL     OW30853   1.612   1.301   1.313
 9985SOL    HW130854   1.702   1.267   1.284
 9985SOL    HW230855   1.590   1.384   1.263
 9986SOL     OW30856   5.126   3.856   4.537
 9986SOL    HW130857   5.032   3.846   4.505
 9986SOL    HW230858   5.164   3.942   4.503
 9987SOL     OW30859   6.936   4.128   5.299
 9987SOL    HW130860   6.920   4.105   5.203
 9987SOL    HW230861   0.003   4.089   5.329
 9988SOL     OW30862   6.702   1.040   4.107
 9988SOL    HW130863   6.763   1.112   4.140
 9988SOL    HW230864   6.607   1.069   4.121
 9989SOL     OW30865   2.063   2.337   4.889
 9989SOL    HW130866   2.154   2.318   4.852
 9989SOL    HW230867   2.053   2.435   4.904
 9990SOL     OW30868   1.168   4.842   1.783
 9990SOL    HW130869   1.138   4.937   1.784
 9990SOL    HW230870   1.198   4.815   1.875
 9991SOL     OW30871   3.521   2.082   3.468
 9991SOL    HW130872   3.575   2.125   3.541
 9991SOL    HW230873   3.567   2.098   3.380
 9992SOL     OW30874   5.955   5.361   6.193
 9992SOL    HW130875   6.032   5.320   6.144
 9992SOL    HW230876   5.987   5.438   6.248
 9993SOL     OW30877   1.367   0.681   2.327
 9993SOL    HW130878   1.439   0.736   2.286
 9993SOL    HW230879   1.406   0.597   2.365
 9994SOL     OW30880   6.081   4.191   3.670
 9994SOL    HW130881   6.155   4.232   3.724
 9994SOL    HW230882   5.997   4.189   3.725
 9995SOL     OW30883   5.662   1.816   4.510
 9995SOL    HW130884   5.725   1.752   4.554
 9995SOL    HW230885   5.687   1.910   4.535
 9996SOL     OW30886   3.110   3.172   0.460
 9996SOL    HW130887   3.202   3.175   0.420
 9996SOL    HW230888   3.094   3.082   0.500
 9997SOL     OW30889   2.551   1.067   4.519
 9997SOL    HW130890   2.576   1.052   4.615
 9997SOL    HW230891   2.468   1.014   4.498
 9998SOL     OW30892   6.121   6.018   4.916
 9998SOL    HW130893   6.095   6.000   4.822
 9998SOL    HW230894   6.220   6.008   4.927
 9999SOL     OW30895   0.217   1.112   4.893
 9999SOL    HW130896   0.273   1.037   4.860
 9999SOL    HW230897   0.168   1.083   4.976
10000SOL     OW30898   6.841   4.857   0.862
10000SOL    HW130899   6.759   4.841   0.916
10000SOL    HW230900   6.835   4.807   0.775
10001SOL     OW30901   3.871   0.596   3.849
10001SOL    HW130902   3.778   0.623   3.823
10001SOL    HW230903   3.918   0.673   3.891
10002SOL     OW30904   0.848   1.908   1.385
10002SOL    HW130905   0.757   1.868   1.392
10002SOL    HW230906   0.841   2.008   1.382
10003SOL     OW30907   5.353   4.203   2.016
10003SOL    HW130908   5.256   4.190   2.035
10003SOL    HW230909   5.395   4.254   2.090
10004SOL     OW30910   6.669   3.962   4.027
10004SOL    HW130911   6.759   3.977   4.068
10004SOL    HW230912   6.657   4.023   3.949
10005SOL     OW30913   4.664   0.523   3.520
10005SOL    HW130914   4.707   0.438   3.551
10005SOL    HW230915   4.585   0.501   3.462
10006SOL     OW30916   4.849   2.668   4.264
10006SOL    HW130917   4.945   2.691   4.255
10006SOL    HW230918   4.836   2.570   4.247
10007SOL     OW30919   5.239   5.199   3.988
10007SOL    HW130920   5.182   5.250   3.924
10007SOL    HW230921   5.309   5.259   4.026
10008SOL     OW30922   2.642   6.642   4.218
10008SOL    HW130923   2.727   6.695   4.212
10008SOL    HW230924   2.663   6.545   4.219
10009SOL     OW30925   2.035   4.273   1.428
10009SOL    HW130926   1.970   4.273   1.504
10009SOL    HW230927   1.985   4.285   1.342
10010SOL     OW30928   5.678   0.798   6.400
10010SOL    HW130929   5.702   0.859   6.475
10010SOL    HW230930   5.703   0.704   6.423
10011SOL     OW30931   0.099   6.670   3.869
10011SOL    HW130932   0.065   6.699   3.779
10011SOL    HW230933   0.022   6.640   3.925
10012SOL     OW30934   4.972   1.074   5.278
10012SOL    HW130935   5.058   1.078   5.329
10012SOL    HW230936   4.901   1.030   5.334
10013SOL     OW30937   1.201   0.403   1.339
10013SOL    HW130938   1.276   0.411   1.405
10013SOL    HW230939   1.172   0.308   1.333
10014SOL     OW30940   1.629   4.944   5.881
10014SOL    HW130941   1.654   4.849   5.862
10014SOL    HW230942   1.540   4.947   5.926
10015SOL     OW30943   2.538   5.965   6.207
10015SOL    HW130944   2.610   5.960   6.277
10015SOL    HW230945   2.576   5.935   6.119
10016SOL     OW30946   2.316   1.181   5.425
10016SOL    HW130947   2.412   1.206   5.441
10016SOL    HW230948   2.268   1.175   5.512
10017SOL     OW30949   6.693   2.343   3.298
10017SOL    HW130950   6.670   2.429   3.344
10017SOL    HW230951   6.634   2.331   3.218
10018SOL     OW30952   4.819   6.701   6.468
10018SOL    HW130953   4.864   6.779   6.511
10018SOL    HW230954   4.752   6.734   6.400
10019SOL     OW30955   0.852   0.712   3.568
10019SOL    HW130956   0.752   0.714   3.559
10019SOL    HW230957   0.892   0.761   3.491
10020SOL     OW30958   0.908   3.814   0.086
10020SOL    HW130959   0.898   3.738   0.150
10020SOL    HW230960   0.857   3.893   0.119
10021SOL     OW30961   4.710   3.121   1.181
10021SOL    HW130962   4.806   3.097   1.169
10021SOL    HW230963   4.662   3.112   1.093
10022SOL     OW30964   2.154   1.064   6.182
10022SOL    HW130965   2.060   1.034   6.197
10022SOL    HW230966   2.182   1.125   6.256
10023SOL     OW30967   0.087   3.104   0.350
10023SOL    HW130968   0.136   3.123   0.265
10023SOL    HW230969   7.012   3.134   0.341
10024SOL     OW30970   1.084   3.791   2.704
10024SOL    HW130971   1.034   3.842   2.774
10024SOL    HW230972   1.085   3.844   2.619
10025SOL     OW30973   1.247   1.552   0.796
10025SOL    HW130974   1.218   1.469   0.748
10025SOL    HW230975   1.273   1.529   0.890
10026SOL     OW30976   6.048   0.861   4.590
10026SOL    HW130977   6.110   0.871   4.512
10026SOL    HW230978   5.973   0.800   4.565
10027SOL     OW30979   5.723   2.971   6.096
10027SOL    HW130980   5.630   2.986   6.129
10027SOL    HW230981   5.779   3.051   6.119
10028SOL     OW30982   1.817   1.597   1.531
10028SOL    HW130983   1.732   1.648   1.515
10028SOL    HW230984   1.868   1.641   1.605
10029SOL     OW30985   3.707   1.476   4.348
10029SOL    HW130986   3.707   1.486   4.248
10029SOL    HW230987   3.619   1.439   4.378
10030SOL     OW30988   0.560   1.095   2.183
10030SOL    HW130989   0.643   1.136   2.145
10030SOL    HW230990   0.567   0.996   2.178
10031SOL     OW30991   0.192   5.391   2.987
10031SOL    HW130992   0.247   5.342   3.054
10031SOL    HW230993   0.215   5.359   2.895
10032SOL     OW30994   3.599   2.029   5.108
10032SOL    HW130995   3.559   2.047   5.198
10032SOL    HW230996   3.683   2.082   5.098
10033SOL     OW30997   5.719   2.666   3.651
10033SOL    HW130998   5.646   2.663   3.719
10033SOL    HW230999   5.732   2.760   3.620
10034SOL     OW31000   3.834   6.586   5.960
10034SOL    HW131001   3.832   6.579   5.860
10034SOL    HW231002   3.920   6.627   5.989
10035SOL     OW31003   0.347   6.619   4.243
10035SOL    HW131004   0.336   6.569   4.329
10035SOL    HW231005   0.439   6.603   4.206
10036SOL     OW31006   6.193   0.504   0.230
10036SOL    HW131007   6.159   0.539   0.142
10036SOL    HW231008   6.199   0.580   0.295
10037SOL     OW31009   0.101   6.755   1.276
10037SOL    HW131010   0.152   6.795   1.199
10037SOL    HW231011   0.158   6.756   1.358
10038SOL     OW31012   5.984   7.018   1.036
10038SOL    HW131013   6.050   0.002   1.112
10038SOL    HW231014   5.893   6.996   1.072
10039SOL     OW31015   4.014   0.935   2.989
10039SOL    HW131016   4.069   1.018   2.999
10039SOL    HW231017   4.064   0.858   3.029
10040SOL     OW31018   0.874   1.985   0.468
10040SOL    HW131019   0.911   1.979   0.561
10040SOL    HW231020   0.777   1.962   0.469
10041SOL     OW31021   1.338   6.844   0.144
10041SOL    HW131022   1.390   6.796   0.214
10041SOL    HW231023   1.244   6.858   0.175
10042SOL     OW31024   6.443   1.870   3.598
10042SOL    HW131025   6.463   1.776   3.627
10042SOL    HW231026   6.526   1.926   3.609
10043SOL     OW31027   2.470   2.858   5.722
10043SOL    HW131028   2.561   2.820   5.733
10043SOL    HW231029   2.428   2.871   5.812
10044SOL     OW31030   4.279   0.675   7.020
10044SOL    HW131031   4.343   0.717   6.955
10044SOL    HW231032   4.186   0.682   6.984
10045SOL     OW31033   2.290   0.467   1.490
10045SOL    HW131034   2.278   0.399   1.418
10045SOL    HW231035   2.203   0.512   1.508
10046SOL     OW31036   0.737   5.968   6.718
10046SOL    HW131037   0.822   6.000   6.677
10046SOL    HW231038   0.712   6.028   6.795
10047SOL     OW31039   1.564   3.926   1.161
10047SOL    HW131040   1.617   3.844   1.138
10047SOL    HW231041   1.582   3.951   1.256
10048SOL     OW31042   6.237   3.516   1.091
10048SOL    HW131043   6.158   3.462   1.119
10048SOL    HW231044   6.238   3.526   0.992
10049SOL     OW31045   6.501   2.020   4.454
10049SOL    HW131046   6.587   2.065   4.428
10049SOL    HW231047   6.426   2.085   4.442
10050SOL     OW31048   0.178   2.205   5.879
10050SOL    HW131049   0.189   2.113   5.919
10050SOL    HW231050   0.230   2.271   5.933
10051SOL     OW31051   1.706   0.392   3.131
10051SOL    HW131052   1.638   0.463   3.148
10051SOL    HW231053   1.767   0.385   3.210
10052SOL     OW31054   0.937   0.044   4.060
10052SOL    HW131055   1.024   0.029   4.107
10052SOL    HW231056   0.942   0.007   3.967
10053SOL     OW31057   5.985   5.549   2.339
10053SOL    HW131058   5.990   5.540   2.439
10053SOL    HW231059   6.031   5.473   2.296
10054SOL     OW31060   5.252   4.177   3.468
10054SOL    HW131061   5.178   4.182   3.400
10054SOL    HW231062   5.331   4.132   3.427
10055SOL     OW31063   1.791   1.647   0.005
10055SOL    HW131064   1.731   1.688   6.957
10055SOL    HW231065   1.843   1.573   6.983
10056SOL     OW31066   5.057   2.627   4.722
10056SOL    HW131067   5.099   2.539   4.698
10056SOL    HW231068   4.970   2.611   4.768
10057SOL     OW31069   5.756   4.209   4.744
10057SOL    HW131070   5.734   4.275   4.816
10057SOL    HW231071   5.706   4.231   4.661
10058SOL     OW31072   6.360   4.082   3.975
10058SOL    HW131073   6.278   4.047   4.021
10058SOL    HW231074   6.413   4.005   3.938
10059SOL     OW31075   5.601   6.220   5.992
10059SOL    HW131076   5.618   6.292   6.059
10059SOL    HW231077   5.514   6.175   6.013
10060SOL     OW31078   3.041   1.691   1.785
10060SOL    HW131079   2.966   1.705   1.849
10060SOL    HW231080   3.126   1.677   1.836
10061SOL     OW31081   4.119   6.734   3.556
10061SOL    HW131082   4.089   6.827   3.578
10061SOL    HW231083   4.067   6.669   3.611
10062SOL     OW31084   6.672   0.376   4.582
10062SOL    HW131085   6.586   0.344   4.541
10062SOL    HW231086   6.673   0.353   4.679
10063SOL     OW31087   4.093   2.276   3.285
10063SOL    HW131088   4.161   2.325   3.230
10063SOL    HW231089   4.137   2.237   3.366
10064SOL     OW31090   2.427   6.257   2.716
10064SOL    HW131091   2.370   6.193   2.665
10064SOL    HW231092   2.424   6.235   2.813
10065SOL     OW31093   6.342   2.030   1.442
10065SOL    HW131094   6.404   1.982   1.503
10065SOL    HW231095   6.306   1.966   1.374
10066SOL     OW31096   5.881   4.144   3.467
10066SOL    HW131097   5.976   4.159   3.493
10066SOL    HW231098   5.859   4.201   3.388
10067SOL     OW31099   5.450   3.395   5.056
10067SOL    HW131100   5.445   3.295   5.054
10067SOL    HW231101   5.527   3.424   5.112
10068SOL     OW31102   2.132   3.675   2.984
10068SOL    HW131103   2.134   3.638   2.892
10068SOL    HW231104   2.159   3.605   3.050
10069SOL     OW31105   2.865   5.245   1.645
10069SOL    HW131106   2.932   5.283   1.581
10069SOL    HW231107   2.879   5.147   1.655
10070SOL     OW31108   4.909   0.599   0.065
10070SOL    HW131109   4.918   0.694   0.094
10070SOL    HW231110   4.890   0.595   6.987
10071SOL     OW31111   5.269   1.022   5.074
10071SOL    HW131112   5.320   1.107   5.063
10071SOL    HW231113   5.260   1.001   5.171
10072SOL     OW31114   5.788   3.091   2.240
10072SOL    HW131115   5.864   3.074   2.177
10072SOL    HW231116   5.707   3.042   2.208
10073SOL     OW31117   5.672   5.909   5.227
10073SOL    HW131118   5.766   5.908   5.192
10073SOL    HW231119   5.615   5.848   5.173
10074SOL     OW31120   1.882   4.499   0.873
10074SOL    HW131121   1.784   4.517   0.864
10074SOL    HW231122   1.927   4.577   0.916
10075SOL     OW31123   0.716   3.227   1.245
10075SOL    HW131124   0.811   3.200   1.232
10075SOL    HW231125   0.662   3.201   1.164
10076SOL     OW31126   6.078   4.881   3.867
10076SOL    HW131127   5.993   4.861   3.818
10076SOL    HW231128   6.149   4.817   3.839
10077SOL     OW31129   4.159   3.750   6.801
10077SOL    HW131130   4.102   3.709   6.872
10077SOL    HW231131   4.186   3.680   6.735
10078SOL     OW31132   5.997   6.153   3.940
10078SOL    HW131133   5.901   6.129   3.923
10078SOL    HW231134   6.040   6.178   3.853
10079SOL     OW31135   6.043   5.008   2.997
10079SOL    HW131136   5.999   4.934   3.047
10079SOL    HW231137   6.140   5.011   3.020
10080SOL     OW31138   5.168   2.879   5.191
10080SOL    HW131139   5.129   2.892   5.100
10080SOL    HW231140   5.109   2.819   5.244
10081SOL     OW31141   1.390   5.139   0.929
10081SOL    HW131142   1.489   5.148   0.939
10081SOL    HW231143   1.356   5.215   0.873
10082SOL     OW31144   0.313   4.677   1.888
10082SOL    HW131145   0.232   4.652   1.942
10082SOL    HW231146   0.287   4.694   1.793
10083SOL     OW31147   3.337   6.043   2.844
10083SOL    HW131148   3.383   6.033   2.932
10083SOL    HW231149   3.242   6.012   2.852
10084SOL     OW31150   1.761   3.079   4.848
10084SOL    HW131151   1.852   3.049   4.819
10084SOL    HW231152   1.737   3.163   4.799
10085SOL     OW31153   3.723   6.940   1.865
10085SOL    HW131154   3.761   6.921   1.956
10085SOL    HW231155   3.701   0.018   1.859
10086SOL     OW31156   2.660   1.083   3.223
10086SOL    HW131157   2.586   1.144   3.196
10086SOL    HW231158   2.623   0.993   3.245
10087SOL     OW31159   1.679   5.647   6.186
10087SOL    HW131160   1.668   5.716   6.257
10087SOL    HW231161   1.595   5.641   6.132
10088SOL     OW31162   5.809   1.630   0.763
10088SOL    HW131163   5.734   1.623   0.828
10088SOL    HW231164   5.848   1.540   0.747
10089SOL     OW31165   3.706   6.688   3.052
10089SOL    HW131166   3.672   6.606   3.099
10089SOL    HW231167   3.634   6.757   3.050
10090SOL     OW31168   3.480   6.184   2.261
10090SOL    HW131169   3.562   6.191   2.205
10090SOL    HW231170   3.502   6.140   2.348
10091SOL     OW31171   5.062   5.961   3.062
10091SOL    HW131172   5.040   6.015   3.143
10091SOL    HW231173   5.148   5.912   3.076
10092SOL     OW31174   6.957   1.539   2.498
10092SOL    HW131175   0.032   1.507   2.497
10092SOL    HW231176   6.896   1.461   2.486
10093SOL     OW31177   4.694   4.128   6.187
10093SOL    HW131178   4.629   4.196   6.154
10093SOL    HW231179   4.776   4.130   6.129
10094SOL     OW31180   4.121   2.502   0.346
10094SOL    HW131181   4.146   2.569   0.276
10094SOL    HW231182   4.204   2.462   0.385
10095SOL     OW31183   4.452   2.789   5.334
10095SOL    HW131184   4.374   2.754   5.386
10095SOL    HW231185   4.452   2.889   5.338
10096SOL     OW31186   6.911   4.844   1.726
10096SOL    HW131187   6.992   4.901   1.738
10096SOL    HW231188   6.883   4.808   1.815
10097SOL     OW31189   0.856   0.896   1.401
10097SOL    HW131190   0.833   0.823   1.465
10097SOL    HW231191   0.943   0.937   1.427
10098SOL     OW31192   3.998   5.024   0.517
10098SOL    HW131193   4.091   5.059   0.507
10098SOL    HW231194   3.976   5.015   0.614
10099SOL     OW31195   6.692   6.221   3.341
10099SOL    HW131196   6.743   6.245   3.259
10099SOL    HW231197   6.748   6.240   3.422
10100SOL     OW31198   5.312   5.503   4.050
10100SOL    HW131199   5.222   5.462   4.062
10100SOL    HW231200   5.322   5.581   4.112
10101SOL     OW31201   6.907   2.109   6.066
10101SOL    HW131202   6.921   2.196   6.114
10101SOL    HW231203   6.995   2.070   6.041
10102SOL     OW31204   0.347   5.211   3.152
10102SOL    HW131205   0.423   5.170   3.203
10102SOL    HW231206   0.315   5.147   3.082
10103SOL     OW31207   0.067   0.650   6.921
10103SOL    HW131208   0.103   0.699   6.999
10103SOL    HW231209   0.011   0.573   6.953
10104SOL     OW31210   2.510   1.411   4.612
10104SOL    HW131211   2.447   1.487   4.597
10104SOL    HW231212   2.457   1.327   4.628
10105SOL     OW31213   3.526   1.709   4.002
10105SOL    HW131214   3.464   1.751   3.935
10105SOL    HW231215   3.472   1.667   4.075
10106SOL     OW31216   6.953   3.452   1.075
10106SOL    HW131217   6.931   3.506   0.994
10106SOL    HW231218   6.969   3.513   1.153
10107SOL     OW31219   4.675   5.310   5.442
10107SOL    HW131220   4.693   5.283   5.537
10107SOL    HW231221   4.731   5.389   5.418
10108SOL     OW31222   3.235   1.887   4.763
10108SOL    HW131223   3.136   1.874   4.776
10108SOL    HW231224   3.270   1.945   4.836
10109SOL     OW31225   1.205   2.979   0.821
10109SOL    HW131226   1.222   2.902   0.883
10109SOL    HW231227   1.245   2.960   0.732
10110SOL     OW31228   6.034   6.377   1.635
10110SOL    HW131229   6.111   6.345   1.690
10110SOL    HW231230   6.068   6.412   1.548
10111SOL     OW31231   6.171   2.106   2.059
10111SOL    HW131232   6.174   2.186   1.999
10111SOL    HW231233   6.087   2.054   2.040
10112SOL     OW31234   0.321   2.647   3.702
10112SOL    HW131235   0.381   2.607   3.771
10112SOL    HW231236   0.376   2.686   3.629
10113SOL     OW31237   6.925   6.979   6.273
10113SOL    HW131238   6.889   6.904   6.328
10113SOL    HW231239   6.900   0.047   6.314
10114SOL     OW31240   6.219   4.417   1.031
10114SOL    HW131241   6.131   4.458   1.006
10114SOL    HW231242   6.271   4.396   0.948
10115SOL     OW31243   3.334   1.861   6.498
10115SOL    HW131244   3.352   1.951   6.459
10115SOL    HW231245   3.420   1.822   6.531
10116SOL     OW31246   1.084   6.391   6.305
10116SOL    HW131247   1.057   6.427   6.394
10116SOL    HW231248   1.002   6.369   6.252
10117SOL     OW31249   0.695   4.282   1.291
10117SOL    HW131250   0.674   4.329   1.376
10117SOL    HW231251   0.793   4.259   1.288
10118SOL     OW31252   3.624   5.162   3.777
10118SOL    HW131253   3.567   5.082   3.797
10118SOL    HW231254   3.565   5.237   3.746
10119SOL     OW31255   5.568   5.836   0.008
10119SOL    HW131256   5.552   5.737   0.008
10119SOL    HW231257   5.644   5.858   6.967
10120SOL     OW31258   2.595   2.449   2.760
10120SOL    HW131259   2.558   2.492   2.677
10120SOL    HW231260   2.688   2.418   2.743
10121SOL     OW31261   6.646   5.857   1.902
10121SOL    HW131262   6.728   5.850   1.846
10121SOL    HW231263   6.671   5.862   1.999
10122SOL     OW31264   1.931   0.166   3.446
10122SOL    HW131265   1.917   0.071   3.470
10122SOL    HW231266   2.008   0.173   3.382
10123SOL     OW31267   6.274   6.807   6.619
10123SOL    HW131268   6.363   6.767   6.598
10123SOL    HW231269   6.207   6.776   6.551
10124SOL     OW31270   0.518   4.852   3.279
10124SOL    HW131271   0.518   4.949   3.303
10124SOL    HW231272   0.427   4.814   3.296
10125SOL     OW31273   1.987   2.769   4.017
10125SOL    HW131274   1.942   2.683   3.996
10125SOL    HW231275   1.979   2.789   4.115
10126SOL     OW31276   7.004   5.955   4.488
10126SOL    HW131277   6.958   5.877   4.444
10126SOL    HW231278   0.010   6.021   4.418
10127SOL     OW31279   2.619   0.958   4.780
10127SOL    HW131280   2.686   0.901   4.827
10127SOL    HW231281   2.534   0.906   4.767
10128SOL     OW31282   2.758   1.181   0.603
10128SOL    HW131283   2.715   1.091   0.589
10128SOL    HW231284   2.854   1.168   0.627
10129SOL     OW31285   6.357   1.506   5.790
10129SOL    HW131286   6.324   1.412   5.792
10129SOL    HW231287   6.457   1.507   5.790
10130SOL     OW31288   1.238   2.760   3.308
10130SOL    HW131289   1.268   2.666   3.291
10130SOL    HW231290   1.311   2.823   3.283
10131SOL     OW31291   2.790   1.000   5.107
10131SOL    HW131292   2.768   1.063   5.182
10131SOL    HW231293   2.814   1.052   5.026
10132SOL     OW31294   6.172   0.519   2.032
10132SOL    HW131295   6.074   0.514   2.013
10132SOL    HW231296   6.194   0.455   2.106
10133SOL     OW31297   4.760   5.715   1.478
10133SOL    HW131298   4.797   5.765   1.400
10133SOL    HW231299   4.686   5.655   1.447
10134SOL     OW31300   6.326   1.684   2.906
10134SOL    HW131301   6.297   1.715   2.816
10134SOL    HW231302   6.335   1.585   2.907
10135SOL     OW31303   6.612   6.856   3.127
10135SOL    HW131304   6.560   6.779   3.164
10135SOL    HW231305   6.707   6.850   3.156
10136SOL     OW31306   5.033   0.364   2.802
10136SOL    HW131307   5.017   0.418   2.719
10136SOL    HW231308   4.988   0.408   2.879
10137SOL     OW31309   5.911   6.020   2.672
10137SOL    HW131310   5.849   5.946   2.699
10137SOL    HW231311   5.984   5.983   2.614
10138SOL     OW31312   6.872   1.894   2.024
10138SOL    HW131313   6.843   1.979   2.067
10138SOL    HW231314   6.799   1.859   1.965
10139SOL     OW31315   4.173   2.601   1.064
10139SOL    HW131316   4.234   2.544   1.120
10139SOL    HW231317   4.183   2.697   1.090
10140SOL     OW31318   6.144   6.230   3.726
10140SOL    HW131319   6.182   6.322   3.737
10140SOL    HW231320   6.185   6.187   3.645
10141SOL     OW31321   0.852   1.962   4.707
10141SOL    HW131322   0.943   2.000   4.690
10141SOL    HW231323   0.793   2.034   4.743
10142SOL     OW31324   4.691   6.582   1.695
10142SOL    HW131325   4.735   6.565   1.784
10142SOL    HW231326   4.675   6.495   1.649
10143SOL     OW31327   0.110   3.420   0.093
10143SOL    HW131328   0.126   3.403   7.015
10143SOL    HW231329   0.190   3.466   0.132
10144SOL     OW31330   4.743   0.351   2.254
10144SOL    HW131331   4.666   0.354   2.190
10144SOL    HW231332   4.801   0.431   2.241
10145SOL     OW31333   6.430   0.499   5.321
10145SOL    HW131334   6.515   0.495   5.372
10145SOL    HW231335   6.428   0.582   5.265
10146SOL     OW31336   1.633   1.764   5.326
10146SOL    HW131337   1.575   1.789   5.249
10146SOL    HW231338   1.576   1.730   5.401
10147SOL     OW31339   3.511   4.731   0.671
10147SOL    HW131340   3.559   4.665   0.613
10147SOL    HW231341   3.419   4.746   0.635
10148SOL     OW31342   6.874   5.783   6.667
10148SOL    HW131343   6.933   5.734   6.731
10148SOL    HW231344   6.881   5.881   6.684
10149SOL     OW31345   3.815   3.027   4.312
10149SOL    HW131346   3.741   2.965   4.341
10149SOL    HW231347   3.778   3.093   4.247
10150SOL     OW31348   6.382   4.102   6.602
10150SOL    HW131349   6.465   4.113   6.547
10150SOL    HW231350   6.372   4.006   6.629
10151SOL     OW31351   0.551   0.406   0.094
10151SOL    HW131352   0.489   0.473   0.133
10151SOL    HW231353   0.530   0.392   7.017
10152SOL     OW31354   3.571   6.665   4.066
10152SOL    HW131355   3.609   6.615   3.988
10152SOL    HW231356   3.645   6.698   4.124
10153SOL     OW31357   4.931   4.403   1.015
10153SOL    HW131358   4.860   4.391   0.946
10153SOL    HW231359   4.917   4.490   1.062
10154SOL     OW31360   5.065   5.180   6.333
10154SOL    HW131361   5.079   5.264   6.281
10154SOL    HW231362   5.090   5.101   6.278
10155SOL     OW31363   4.687   2.441   5.178
10155SOL    HW131364   4.617   2.492   5.128
10155SOL    HW231365   4.721   2.366   5.120
10156SOL     OW31366   3.227   1.961   6.721
10156SOL    HW131367   3.273   1.921   6.800
10156SOL    HW231368   3.260   1.918   6.637
10157SOL     OW31369   7.005   5.975   2.218
10157SOL    HW131370   0.014   5.973   2.122
10157SOL    HW231371   6.906   5.966   2.223
10158SOL     OW31372   0.180   4.722   6.383
10158SOL    HW131373   0.104   4.690   6.327
10158SOL    HW231374   0.225   4.798   6.338
10159SOL     OW31375   4.006   3.073   1.711
10159SOL    HW131376   3.982   2.987   1.756
10159SOL    HW231377   4.065   3.127   1.771
10160SOL     OW31378   0.122   4.432   2.348
10160SOL    HW131379   0.086   4.391   2.432
10160SOL    HW231380   0.178   4.365   2.299
10161SOL     OW31381   6.581   2.565   0.504
10161SOL    HW131382   6.599   2.473   0.538
10161SOL    HW231383   6.548   2.559   0.410
10162SOL     OW31384   1.960   2.029   1.982
10162SOL    HW131385   1.871   1.986   1.971
10162SOL    HW231386   1.997   2.053   1.892
10163SOL     OW31387   3.734   5.255   5.125
10163SOL    HW131388   3.760   5.324   5.057
10163SOL    HW231389   3.816   5.222   5.172
10164SOL     OW31390   0.741   1.389   3.695
10164SOL    HW131391   0.822   1.346   3.734
10164SOL    HW231392   0.762   1.483   3.669
10165SOL     OW31393   2.157   3.238   3.502
10165SOL    HW131394   2.145   3.191   3.414
10165SOL    HW231395   2.167   3.336   3.485
10166SOL     OW31396   3.349   6.180   3.648
10166SOL    HW131397   3.330   6.143   3.739
10166SOL    HW231398   3.319   6.275   3.642
10167SOL     OW31399   3.726   1.326   0.379
10167SOL    HW131400   3.784   1.360   0.305
10167SOL    HW231401   3.769   1.247   0.422
10168SOL     OW31402   0.418   1.021   6.979
10168SOL    HW131403   0.440   0.952   0.028
10168SOL    HW231404   0.325   1.005   6.945
10169SOL     OW31405   4.639   5.040   2.675
10169SOL    HW131406   4.569   4.971   2.655
10169SOL    HW231407   4.594   5.122   2.712
10170SOL     OW31408   4.458   6.497   6.870
10170SOL    HW131409   4.504   6.567   6.925
10170SOL    HW231410   4.423   6.538   6.786
10171SOL     OW31411   1.656   4.384   3.071
10171SOL    HW131412   1.571   4.350   3.110
10171SOL    HW231413   1.727   4.313   3.079
10172SOL     OW31414   0.695   0.661   3.206
10172SOL    HW131415   0.688   0.569   3.245
10172SOL    HW231416   0.790   0.693   3.214
10173SOL     OW31417   4.298   2.347   4.643
10173SOL    HW131418   4.227   2.309   4.584
10173SOL    HW231419   4.342   2.424   4.597
10174SOL     OW31420   4.451   5.080   1.371
10174SOL    HW131421   4.424   5.050   1.462
10174SOL    HW231422   4.521   5.150   1.378
10175SOL     OW31423   6.806   6.885   4.330
10175SOL    HW131424   6.758   6.951   4.388
10175SOL    HW231425   6.889   6.854   4.375
10176SOL     OW31426   6.966   1.450   5.095
10176SOL    HW131427   6.943   1.471   5.190
10176SOL    HW231428   6.976   1.536   5.045
10177SOL     OW31429   3.216   1.081   4.951
10177SOL    HW131430   3.131   1.102   4.903
10177SOL    HW231431   3.289   1.065   4.884
10178SOL     OW31432   6.065   1.604   1.968
10178SOL    HW131433   6.092   1.699   1.951
10178SOL    HW231434   6.004   1.573   1.896
10179SOL     OW31435   6.969   6.076   1.096
10179SOL    HW131436   6.930   6.093   1.006
10179SOL    HW231437   6.987   5.978   1.106
10180SOL     OW31438   1.789   0.141   5.953
10180SOL    HW131439   1.699   0.181   5.940
10180SOL    HW231440   1.793   0.096   6.043
10181SOL     OW31441   0.596   3.849   1.975
10181SOL    HW131442   0.563   3.857   2.069
10181SOL    HW231443   0.610   3.753   1.952
10182SOL     OW31444   2.666   6.595   6.313
10182SOL    HW131445   2.602   6.532   6.269
10182SOL    HW231446   2.747   6.605   6.256
10183SOL     OW31447   3.964   5.950   6.413
10183SOL    HW131448   3.973   6.047   6.393
10183SOL    HW231449   3.925   5.939   6.505
10184SOL     OW31450   4.671   2.717   4.074
10184SOL    HW131451   4.745   2.731   4.141
10184SOL    HW231452   4.637   2.806   4.044
10185SOL     OW31453   3.030   4.507   1.629
10185SOL    HW131454   2.968   4.473   1.700
10185SOL    HW231455   3.041   4.606   1.639
10186SOL     OW31456   3.630   2.957   1.755
10186SOL    HW131457   3.644   2.874   1.700
10186SOL    HW231458   3.705   3.021   1.738
10187SOL     OW31459   1.311   3.188   5.334
10187SOL    HW131460   1.314   3.286   5.312
10187SOL    HW231461   1.376   3.169   5.408
10188SOL     OW31462   2.344   6.423   6.659
10188SOL    HW131463   2.440   6.411   6.634
10188SOL    HW231464   2.338   6.448   6.755
10189SOL     OW31465   2.321   1.658   5.393
10189SOL    HW131466   2.358   1.693   5.479
10189SOL    HW231467   2.396   1.631   5.333
10190SOL     OW31468   2.801   4.304   1.064
10190SOL    HW131469   2.769   4.265   0.977
10190SOL    HW231470   2.761   4.395   1.076
10191SOL     OW31471   6.115   0.661   7.009
10191SOL    HW131472   6.119   0.591   6.938
10191SOL    HW231473   6.168   0.741   6.980
10192SOL     OW31474   2.788   0.744   4.292
10192SOL    HW131475   2.843   0.706   4.367
10192SOL    HW231476   2.708   0.791   4.329
10193SOL     OW31477   3.723   3.762   3.610
10193SOL    HW131478   3.656   3.710   3.558
10193SOL    HW231479   3.807   3.708   3.618
10194SOL     OW31480   2.988   5.910   3.100
10194SOL    HW131481   2.985   5.822   3.147
10194SOL    HW231482   3.002   5.983   3.167
10195SOL     OW31483   5.281   0.028   2.233
10195SOL    HW131484   5.250   0.107   2.286
10195SOL    HW231485   5.254   0.040   2.138
10196SOL     OW31486   4.915   4.566   3.948
10196SOL    HW131487   4.895   4.596   3.855
10196SOL    HW231488   4.832   4.568   4.003
10197SOL     OW31489   5.712   1.874   2.696
10197SOL    HW131490   5.720   1.795   2.635
10197SOL    HW231491   5.684   1.843   2.787
10198SOL     OW31492   3.690   1.258   2.134
10198SOL    HW131493   3.723   1.164   2.127
10198SOL    HW231494   3.614   1.271   2.071
10199SOL     OW31495   1.320   2.015   0.063
10199SOL    HW131496   1.409   2.046   0.029
10199SOL    HW231497   1.326   1.918   0.086
10200SOL     OW31498   4.794   6.637   3.931
10200SOL    HW131499   4.820   6.733   3.914
10200SOL    HW231500   4.696   6.626   3.918
10201SOL     OW31501   0.712   5.372   3.229
10201SOL    HW131502   0.649   5.449   3.222
10201SOL    HW231503   0.731   5.354   3.326
10202SOL     OW31504   1.256   2.430   3.520
10202SOL    HW131505   1.351   2.409   3.498
10202SOL    HW231506   1.252   2.513   3.576
10203SOL     OW31507   6.100   2.572   1.300
10203SOL    HW131508   6.076   2.648   1.239
10203SOL    HW231509   6.140   2.607   1.384
10204SOL     OW31510   1.649   6.022   4.362
10204SOL    HW131511   1.614   5.975   4.281
10204SOL    HW231512   1.656   6.120   4.343
10205SOL     OW31513   3.575   6.958   0.880
10205SOL    HW131514   3.564   0.024   0.830
10205SOL    HW231515   3.573   6.975   0.978
10206SOL     OW31516   5.796   5.945   6.894
10206SOL    HW131517   5.857   5.963   6.817
10206SOL    HW231518   5.841   5.972   6.980
10207SOL     OW31519   3.545   1.543   1.979
10207SOL    HW131520   3.505   1.455   1.953
10207SOL    HW231521   3.642   1.544   1.956
10208SOL     OW31522   0.470   2.058   6.099
10208SOL    HW131523   0.509   2.000   6.170
10208SOL    HW231524   0.411   2.127   6.141
10209SOL     OW31525   3.863   6.329   0.201
10209SOL    HW131526   3.861   6.340   0.300
10209SOL    HW231527   3.771   6.341   0.164
10210SOL     OW31528   4.418   6.372   6.552
10210SOL    HW131529   4.343   6.413   6.602
10210SOL    HW231530   4.488   6.342   6.617
10211SOL     OW31531   4.093   5.145   4.606
10211SOL    HW131532   4.063   5.170   4.698
10211SOL    HW231533   4.037   5.068   4.574
10212SOL     OW31534   6.724   5.992   5.681
10212SOL    HW131535   6.794   5.925   5.655
10212SOL    HW231536   6.754   6.041   5.762
10213SOL     OW31537   3.692   6.950   4.624
10213SOL    HW131538   3.753   0.004   4.596
10213SOL    HW231539   3.627   6.986   4.691
10214SOL     OW31540   6.864   0.368   0.384
10214SOL    HW131541   6.875   0.274   0.417
10214SOL    HW231542   6.893   0.373   0.289
10215SOL     OW31543   5.012   2.578   0.304
10215SOL    HW131544   4.932   2.624   0.265
10215SOL    HW231545   5.000   2.479   0.298
10216SOL     OW31546   5.183   0.654   2.233
10216SOL    HW131547   5.215   0.621   2.321
10216SOL    HW231548   5.219   0.746   2.216
10217SOL     OW31549   2.862   1.756   6.654
10217SOL    HW131550   2.779   1.786   6.607
10217SOL    HW231551   2.941   1.771   6.595
10218SOL     OW31552   3.856   0.614   6.317
10218SOL    HW131553   3.885   0.686   6.254
10218SOL    HW231554   3.823   0.535   6.265
10219SOL     OW31555   0.351   5.328   1.044
10219SOL    HW131556   0.254   5.313   1.066
10219SOL    HW231557   0.404   5.335   1.129
10220SOL     OW31558   4.243   2.814   6.395
10220SOL    HW131559   4.146   2.835   6.387
10220SOL    HW231560   4.265   2.736   6.336
10221SOL     OW31561   2.052   6.975   4.989
10221SOL    HW131562   2.009   7.001   4.902
10221SOL    HW231563   2.136   0.008   5.002
10222SOL     OW31564   2.553   4.917   5.197
10222SOL    HW131565   2.631   4.872   5.241
10222SOL    HW231566   2.479   4.851   5.186
10223SOL     OW31567   2.225   5.649   6.060
10223SOL    HW131568   2.276   5.680   6.140
10223SOL    HW231569   2.184   5.559   6.079
10224SOL     OW31570   3.821   5.784   5.521
10224SOL    HW131571   3.853   5.813   5.611
10224SOL    HW231572   3.723   5.803   5.513
10225SOL     OW31573   5.074   6.975   4.742
10225SOL    HW131574   5.021   7.009   4.819
10225SOL    HW231575   5.164   7.018   4.741
10226SOL     OW31576   6.496   2.450   6.306
10226SOL    HW131577   6.538   2.539   6.321
10226SOL    HW231578   6.567   2.384   6.282
10227SOL     OW31579   4.443   4.816   5.318
10227SOL    HW131580   4.440   4.833   5.416
10227SOL    HW231581   4.465   4.901   5.270
10228SOL     OW31582   1.053   2.561   1.144
10228SOL    HW131583   1.152   2.549   1.137
10228SOL    HW231584   1.030   2.656   1.127
10229SOL     OW31585   2.850   0.579   1.762
10229SOL    HW131586   2.843   0.574   1.662
10229SOL    HW231587   2.877   0.671   1.789
10230SOL     OW31588   5.452   0.320   2.954
10230SOL    HW131589   5.535   0.346   2.906
10230SOL    HW231590   5.467   0.328   3.053
10231SOL     OW31591   4.820   6.672   4.870
10231SOL    HW131592   4.889   6.632   4.810
10231SOL    HW231593   4.863   6.703   4.955
10232SOL     OW31594   4.136   2.252   2.959
10232SOL    HW131595   4.111   2.159   2.984
10232SOL    HW231596   4.172   2.253   2.866
10233SOL     OW31597   5.292   6.536   5.476
10233SOL    HW131598   5.347   6.452   5.472
10233SOL    HW231599   5.237   6.535   5.560
10234SOL     OW31600   4.131   4.474   0.967
10234SOL    HW131601   4.153   4.533   1.045
10234SOL    HW231602   4.210   4.466   0.907
10235SOL     OW31603   5.004   0.189   6.841
10235SOL    HW131604   4.910   0.223   6.841
10235SOL    HW231605   5.044   0.202   6.932
10236SOL     OW31606   1.267   4.625   1.362
10236SOL    HW131607   1.311   4.605   1.274
10236SOL    HW231608   1.199   4.555   1.381
10237SOL     OW31609   5.828   2.276   2.877
10237SOL    HW131610   5.827   2.347   2.947
10237SOL    HW231611   5.855   2.316   2.789
10238SOL     OW31612   5.231   5.219   5.665
10238SOL    HW131613   5.261   5.198   5.572
10238SOL    HW231614   5.277   5.302   5.697
10239SOL     OW31615   5.472   3.892   4.105
10239SOL    HW131616   5.420   3.808   4.117
10239SOL    HW231617   5.484   3.910   4.007
10240SOL     OW31618   4.852   3.809   2.635
10240SOL    HW131619   4.788   3.734   2.621
10240SOL    HW231620   4.862   3.861   2.550
10241SOL     OW31621   1.458   2.615   2.297
10241SOL    HW131622   1.409   2.702   2.296
10241SOL    HW231623   1.401   2.544   2.337
10242SOL     OW31624   0.829   5.323   6.654
10242SOL    HW131625   0.738   5.284   6.643
10242SOL    HW231626   0.826   5.420   6.633
10243SOL     OW31627   0.002   5.545   3.951
10243SOL    HW131628   0.010   5.642   3.972
10243SOL    HW231629   0.073   5.494   3.998
10244SOL     OW31630   3.158   5.935   0.280
10244SOL    HW131631   3.217   6.006   0.243
10244SOL    HW231632   3.124   5.964   0.370
10245SOL     OW31633   3.689   3.811   1.187
10245SOL    HW131634   3.594   3.841   1.185
10245SOL    HW231635   3.714   3.773   1.098
10246SOL     OW31636   2.990   3.749   4.766
10246SOL    HW131637   3.032   3.820   4.709
10246SOL    HW231638   2.969   3.786   4.856
10247SOL     OW31639   1.187   5.272   6.538
10247SOL    HW131640   1.233   5.361   6.539
10247SOL    HW231641   1.100   5.280   6.491
10248SOL     OW31642   6.250   6.910   3.773
10248SOL    HW131643   6.244   6.998   3.820
10248SOL    HW231644   6.294   6.843   3.832
10249SOL     OW31645   4.660   1.427   5.957
10249SOL    HW131646   4.563   1.401   5.958
10249SOL    HW231647   4.684   1.460   5.866
10250SOL     OW31648   4.176   5.757   0.966
10250SOL    HW131649   4.084   5.755   1.007
10250SOL    HW231650   4.215   5.665   0.970
10251SOL     OW31651   3.854   4.468   1.302
10251SOL    HW131652   3.911   4.468   1.384
10251SOL    HW231653   3.903   4.424   1.227
10252SOL     OW31654   0.095   4.784   0.504
10252SOL    HW131655   7.017   4.780   0.483
10252SOL    HW231656   0.113   4.738   0.591
10253SOL     OW31657   5.601   4.320   0.181
10253SOL    HW131658   5.562   4.345   0.093
10253SOL    HW231659   5.644   4.230   0.174
10254SOL     OW31660   3.244   2.372   5.901
10254SOL    HW131661   3.221   2.341   5.992
10254SOL    HW231662   3.163   2.369   5.842
10255SOL     OW31663   2.861   4.747   4.011
10255SOL    HW131664   2.800   4.668   4.006
10255SOL    HW231665   2.860   4.785   4.103
10256SOL     OW31666   5.345   5.329   0.125
10256SOL    HW131667   5.357   5.344   0.223
10256SOL    HW231668   5.250   5.347   0.099
10257SOL     OW31669   1.666   3.997   4.784
10257SOL    HW131670   1.641   4.093   4.798
10257SOL    HW231671   1.737   3.991   4.714
10258SOL     OW31672   4.434   1.088   2.602
10258SOL    HW131673   4.477   1.014   2.653
10258SOL    HW231674   4.500   1.127   2.537
10259SOL     OW31675   5.773   3.604   3.989
10259SOL    HW131676   5.705   3.663   3.946
10259SOL    HW231677   5.726   3.528   4.034
10260SOL     OW31678   6.947   5.904   2.782
10260SOL    HW131679   0.017   5.947   2.775
10260SOL    HW231680   6.920   5.868   2.693
10261SOL     OW31681   2.194   6.976   2.449
10261SOL    HW131682   2.220   6.959   2.354
10261SOL    HW231683   2.255   6.924   2.509
10262SOL     OW31684   6.902   6.334   3.837
10262SOL    HW131685   6.932   6.415   3.889
10262SOL    HW231686   6.806   6.346   3.811
10263SOL     OW31687   6.906   3.735   5.196
10263SOL    HW131688   6.884   3.748   5.100
10263SOL    HW231689   6.870   3.647   5.227
10264SOL     OW31690   0.333   0.579   0.871
10264SOL    HW131691   0.426   0.550   0.849
10264SOL    HW231692   0.291   0.514   0.934
10265SOL     OW31693   5.419   2.395   4.510
10265SOL    HW131694   5.509   2.388   4.554
10265SOL    HW231695   5.427   2.456   4.430
10266SOL     OW31696   3.368   3.621   7.014
10266SOL    HW131697   3.287   3.650   6.962
10266SOL    HW231698   3.343   3.544   0.052
10267SOL     OW31699   0.058   0.760   6.250
10267SOL    HW131700   0.022   0.794   6.337
10267SOL    HW231701   7.020   0.791   6.175
10268SOL     OW31702   6.717   4.745   0.652
10268SOL    HW131703   6.681   4.823   0.601
10268SOL    HW231704   6.725   4.666   0.591
10269SOL     OW31705   4.588   1.812   5.869
10269SOL    HW131706   4.557   1.764   5.951
10269SOL    HW231707   4.625   1.901   5.893
10270SOL     OW31708   3.456   6.033   3.077
10270SOL    HW131709   3.423   6.045   3.170
10270SOL    HW231710   3.541   5.981   3.077
10271SOL     OW31711   1.680   4.495   1.211
10271SOL    HW131712   1.677   4.594   1.216
10271SOL    HW231713   1.588   4.458   1.198
10272SOL     OW31714   1.854   3.433   4.332
10272SOL    HW131715   1.876   3.383   4.249
10272SOL    HW231716   1.790   3.507   4.311
10273SOL     OW31717   4.636   6.978   3.725
10273SOL    HW131718   4.562   0.024   3.716
10273SOL    HW231719   4.639   6.920   3.643
10274SOL     OW31720   1.619   4.271   0.002
10274SOL    HW131721   1.583   4.185   0.038
10274SOL    HW231722   1.601   4.277   6.924
10275SOL     OW31723   0.204   5.698   1.794
10275SOL    HW131724   0.148   5.615   1.796
10275SOL    HW231725   0.258   5.700   1.710
10276SOL     OW31726   2.551   0.033   0.496
10276SOL    HW131727   2.552   0.036   0.596
10276SOL    HW231728   2.499   0.111   0.462
10277SOL     OW31729   6.550   5.466   2.093
10277SOL    HW131730   6.596   5.483   2.006
10277SOL    HW231731   6.597   5.391   2.141
10278SOL     OW31732   6.393   0.952   5.024
10278SOL    HW131733   6.366   0.988   4.934
10278SOL    HW231734   6.436   1.025   5.077
10279SOL     OW31735   4.022   6.270   3.985
10279SOL    HW131736   4.014   6.195   4.051
10279SOL    HW231737   3.932   6.311   3.972
10280SOL     OW31738   2.849   2.659   0.071
10280SOL    HW131739   2.844   2.733   0.004
10280SOL    HW231740   2.756   2.631   0.097
10281SOL     OW31741   4.469   1.131   4.372
10281SOL    HW131742   4.452   1.227   4.393
10281SOL    HW231743   4.563   1.108   4.399
10282SOL     OW31744   1.561   2.944   4.390
10282SOL    HW131745   1.575   2.863   4.334
10282SOL    HW231746   1.648   2.975   4.427
10283SOL     OW31747   1.303   5.517   6.589
10283SOL    HW131748   1.381   5.508   6.652
10283SOL    HW231749   1.318   5.595   6.529
10284SOL     OW31750   5.530   2.961   0.600
10284SOL    HW131751   5.523   3.014   0.515
10284SOL    HW231752   5.597   2.888   0.588
10285SOL     OW31753   4.905   1.619   0.617
10285SOL    HW131754   4.904   1.525   0.651
10285SOL    HW231755   4.917   1.618   0.518
10286SOL     OW31756   3.442   0.275   4.049
10286SOL    HW131757   3.395   0.218   4.116
10286SOL    HW231758   3.541   0.271   4.066
10287SOL     OW31759   2.187   3.882   2.174
10287SOL    HW131760   2.205   3.785   2.159
10287SOL    HW231761   2.134   3.894   2.258
10288SOL     OW31762   4.414   6.440   4.176
10288SOL    HW131763   4.443   6.370   4.241
10288SOL    HW231764   4.481   6.515   4.175
10289SOL     OW31765   2.496   1.561   2.251
10289SOL    HW131766   2.550   1.634   2.293
10289SOL    HW231767   2.412   1.598   2.214
10290SOL     OW31768   3.275   2.916   3.835
10290SOL    HW131769   3.346   2.915   3.906
10290SOL    HW231770   3.238   3.009   3.827
10291SOL     OW31771   4.142   7.015   3.745
10291SOL    HW131772   4.071   0.012   3.677
10291SOL    HW231773   4.103   0.002   3.837
10292SOL     OW31774   6.541   3.135   4.445
10292SOL    HW131775   6.443   3.116   4.448
10292SOL    HW231776   6.591   3.051   4.427
10293SOL     OW31777   1.653   4.577   3.276
10293SOL    HW131778   1.663   4.488   3.230
10293SOL    HW231779   1.725   4.639   3.245
10294SOL     OW31780   5.997   0.796   2.972
10294SOL    HW131781   6.055   0.716   2.955
10294SOL    HW231782   5.938   0.813   2.893
10295SOL     OW31783   1.641   4.047   3.047
10295SOL    HW131784   1.616   3.951   3.034
10295SOL    HW231785   1.562   4.099   3.080
10296SOL     OW31786   6.761   3.841   1.666
10296SOL    HW131787   6.766   3.938   1.691
10296SOL    HW231788   6.666   3.811   1.665
10297SOL     OW31789   3.546   4.626   5.580
10297SOL    HW131790   3.543   4.540   5.632
10297SOL    HW231791   3.594   4.696   5.633
10298SOL     OW31792   6.023   3.296   3.213
10298SOL    HW131793   6.010   3.351   3.130
10298SOL    HW231794   6.019   3.356   3.293
10299SOL     OW31795   4.200   5.480   2.357
10299SOL    HW131796   4.136   5.468   2.281
10299SOL    HW231797   4.158   5.448   2.442
10300SOL     OW31798   0.161   6.106   2.407
10300SOL    HW131799   0.101   6.070   2.335
10300SOL    HW231800   0.212   6.184   2.372
10301SOL     OW31801   4.483   0.885   1.879
10301SOL    HW131802   4.400   0.882   1.823
10301SOL    HW231803   4.480   0.965   1.940
10302SOL     OW31804   0.183   4.123   3.510
10302SOL    HW131805   0.190   4.193   3.439
10302SOL    HW231806   0.242   4.147   3.587
10303SOL     OW31807   4.830   3.747   1.180
10303SOL    HW131808   4.787   3.796   1.256
10303SOL    HW231809   4.822   3.802   1.097
10304SOL     OW31810   6.051   5.952   4.141
10304SOL    HW131811   6.009   6.027   4.090
10304SOL    HW231812   6.019   5.865   4.105
10305SOL     OW31813   2.205   4.943   1.423
10305SOL    HW131814   2.204   5.040   1.399
10305SOL    HW231815   2.296   4.905   1.405
10306SOL     OW31816   4.798   3.747   0.020
10306SOL    HW131817   4.827   3.668   0.074
10306SOL    HW231818   4.864   3.765   6.968
10307SOL     OW31819   3.125   2.319   6.143
10307SOL    HW131820   3.026   2.325   6.130
10307SOL    HW231821   3.149   2.226   6.171
10308SOL     OW31822   3.062   5.225   4.017
10308SOL    HW131823   3.110   5.313   4.012
10308SOL    HW231824   3.035   5.207   4.112
10309SOL     OW31825   6.886   6.247   3.547
10309SOL    HW131826   6.945   6.175   3.511
10309SOL    HW231827   6.867   6.230   3.644
10310SOL     OW31828   3.306   4.174   4.230
10310SOL    HW131829   3.380   4.178   4.162
10310SOL    HW231830   3.343   4.196   4.320
10311SOL     OW31831   1.114   6.822   0.627
10311SOL    HW131832   1.183   6.852   0.561
10311SOL    HW231833   1.095   6.725   0.612
10312SOL     OW31834   3.084   4.427   0.415
10312SOL    HW131835   3.059   4.511   0.462
10312SOL    HW231836   3.013   4.402   0.349
10313SOL     OW31837   6.692   5.707   3.798
10313SOL    HW131838   6.613   5.766   3.812
10313SOL    HW231839   6.731   5.725   3.708
10314SOL     OW31840   6.794   5.184   4.998
10314SOL    HW131841   6.700   5.167   4.968
10314SOL    HW231842   6.850   5.208   4.919
10315SOL     OW31843   4.310   5.826   5.475
10315SOL    HW131844   4.286   5.811   5.571
10315SOL    HW231845   4.275   5.915   5.445
10316SOL     OW31846   6.916   2.634   4.066
10316SOL    HW131847   6.920   2.548   4.117
10316SOL    HW231848   6.919   2.615   3.968
10317SOL     OW31849   6.002   4.415   6.033
10317SOL    HW131850   5.968   4.489   6.092
10317SOL    HW231851   6.096   4.435   6.005
10318SOL     OW31852   4.810   4.989   2.431
10318SOL    HW131853   4.779   5.043   2.509
10318SOL    HW231854   4.838   4.898   2.463
10319SOL     OW31855   5.589   6.739   3.542
10319SOL    HW131856   5.566   6.807   3.473
10319SOL    HW231857   5.506   6.700   3.580
10320SOL     OW31858   3.201   6.496   1.855
10320SOL    HW131859   3.135   6.569   1.873
10320SOL    HW231860   3.175   6.447   1.772
10321SOL     OW31861   4.554   6.360   4.889
10321SOL    HW131862   4.479   6.421   4.868
10321SOL    HW231863   4.519   6.268   4.908
10322SOL     OW31864   0.163   1.624   6.237
10322SOL    HW131865   0.113   1.616   6.151
10322SOL    HW231866   0.247   1.569   6.232
10323SOL     OW31867   0.377   2.027   5.181
10323SOL    HW131868   0.308   1.955   5.179
10323SOL    HW231869   0.449   2.006   5.114
10324SOL     OW31870   3.427   3.584   4.706
10324SOL    HW131871   3.431   3.643   4.625
10324SOL    HW231872   3.367   3.506   4.687
10325SOL     OW31873   0.835   2.966   3.884
10325SOL    HW131874   0.745   2.999   3.912
10325SOL    HW231875   0.905   3.029   3.915
10326SOL     OW31876   6.207   1.303   1.139
10326SOL    HW131877   6.209   1.240   1.216
10326SOL    HW231878   6.282   1.369   1.147
10327SOL     OW31879   6.066   1.944   3.779
10327SOL    HW131880   6.074   2.016   3.710
10327SOL    HW231881   5.973   1.908   3.779
10328SOL     OW31882   6.734   3.363   1.921
10328SOL    HW131883   6.747   3.365   1.822
10328SOL    HW231884   6.807   3.414   1.967
10329SOL     OW31885   2.636   5.673   2.797
10329SOL    HW131886   2.667   5.719   2.880
10329SOL    HW231887   2.714   5.656   2.737
10330SOL     OW31888   4.052   3.571   0.955
10330SOL    HW131889   4.046   3.472   0.946
10330SOL    HW231890   4.145   3.597   0.982
10331SOL     OW31891   5.123   1.773   4.636
10331SOL    HW131892   5.132   1.685   4.681
10331SOL    HW231893   5.212   1.802   4.600
10332SOL     OW31894   1.495   2.905   6.817
10332SOL    HW131895   1.396   2.911   6.802
10332SOL    HW231896   1.540   2.885   6.730
10333SOL     OW31897   0.183   4.486   5.468
10333SOL    HW131898   0.106   4.549   5.470
10333SOL    HW231899   0.181   4.427   5.548
10334SOL     OW31900   1.043   4.948   5.772
10334SOL    HW131901   1.027   5.032   5.824
10334SOL    HW231902   1.038   4.869   5.833
10335SOL     OW31903   2.798   4.962   2.505
10335SOL    HW131904   2.852   4.999   2.429
10335SOL    HW231905   2.701   4.957   2.478
10336SOL     OW31906   4.499   0.039   3.236
10336SOL    HW131907   4.585   7.013   3.218
10336SOL    HW231908   4.516   0.135   3.260
10337SOL     OW31909   1.409   3.538   6.041
10337SOL    HW131910   1.318   3.549   6.081
10337SOL    HW231911   1.473   3.600   6.086
10338SOL     OW31912   2.187   3.935   2.839
10338SOL    HW131913   2.134   3.884   2.906
10338SOL    HW231914   2.164   3.904   2.746
10339SOL     OW31915   3.231   6.290   6.627
10339SOL    HW131916   3.258   6.344   6.707
10339SOL    HW231917   3.131   6.286   6.623
10340SOL     OW31918   2.348   5.894   0.944
10340SOL    HW131919   2.277   5.824   0.935
10340SOL    HW231920   2.311   5.971   0.996
10341SOL     OW31921   6.817   3.046   1.424
10341SOL    HW131922   6.720   3.024   1.412
10341SOL    HW231923   6.867   2.962   1.447
10342SOL     OW31924   3.542   5.324   3.543
10342SOL    HW131925   3.479   5.246   3.554
10342SOL    HW231926   3.636   5.291   3.551
10343SOL     OW31927   2.840   2.304   4.648
10343SOL    HW131928   2.761   2.338   4.700
10343SOL    HW231929   2.866   2.372   4.580
10344SOL     OW31930   4.961   4.034   1.293
10344SOL    HW131931   4.976   4.132   1.310
10344SOL    HW231932   4.921   3.992   1.375
10345SOL     OW31933   3.077   1.788   6.476
10345SOL    HW131934   3.005   1.847   6.440
10345SOL    HW231935   3.162   1.840   6.482
10346SOL     OW31936   6.743   5.298   0.015
10346SOL    HW131937   6.671   5.262   6.975
10346SOL    HW231938   6.724   5.271   0.109
10347SOL     OW31939   3.924   6.990   2.503
10347SOL    HW131940   3.870   7.002   2.586
10347SOL    HW231941   4.019   6.972   2.527
10348SOL     OW31942   0.042   3.222   4.463
10348SOL    HW131943   6.965   3.236   4.481
10348SOL    HW231944   0.078   3.151   4.523
10349SOL     OW31945   6.114   1.867   0.223
10349SOL    HW131946   6.094   1.807   0.300
10349SOL    HW231947   6.094   1.820   0.137
10350SOL     OW31948   2.046   5.350   4.292
10350SOL    HW131949   1.982   5.277   4.317
10350SOL    HW231950   2.133   5.309   4.262
10351SOL     OW31951   3.807   5.641   5.149
10351SOL    HW131952   3.790   5.570   5.081
10351SOL    HW231953   3.876   5.610   5.214
10352SOL     OW31954   0.537   1.583   1.701
10352SOL    HW131955   0.589   1.499   1.717
10352SOL    HW231956   0.577   1.657   1.754
10353SOL     OW31957   5.452   2.769   3.266
10353SOL    HW131958   5.417   2.680   3.294
10353SOL    HW231959   5.421   2.790   3.173
10354SOL     OW31960   0.049   2.625   1.607
10354SOL    HW131961   0.078   2.599   1.514
10354SOL    HW231962   0.095   2.566   1.674
10355SOL     OW31963   6.535   1.869   0.400
10355SOL    HW131964   6.500   1.799   0.462
10355SOL    HW231965   6.565   1.827   0.315
10356SOL     OW31966   6.228   2.417   6.300
10356SOL    HW131967   6.194   2.511   6.307
10356SOL    HW231968   6.328   2.419   6.292
10357SOL     OW31969   0.272   6.747   6.546
10357SOL    HW131970   0.256   6.660   6.592
10357SOL    HW231971   0.209   6.816   6.583
10358SOL     OW31972   0.593   3.652   4.175
10358SOL    HW131973   0.544   3.567   4.155
10358SOL    HW231974   0.607   3.661   4.273
10359SOL     OW31975   1.138   2.716   2.201
10359SOL    HW131976   1.213   2.743   2.262
10359SOL    HW231977   1.067   2.671   2.254
10360SOL     OW31978   6.104   4.815   0.705
10360SOL    HW131979   6.094   4.913   0.686
10360SOL    HW231980   6.141   4.769   0.624
10361SOL     OW31981   5.780   1.921   3.705
10361SOL    HW131982   5.762   1.891   3.611
10361SOL    HW231983   5.699   1.903   3.761
10362SOL     OW31984   0.060   6.895   2.147
10362SOL    HW131985   0.139   6.886   2.208
10362SOL    HW231986   0.064   6.982   2.099
10363SOL     OW31987   5.532   5.104   6.250
10363SOL    HW131988   5.539   5.030   6.184
10363SOL    HW231989   5.511   5.067   6.341
10364SOL     OW31990   6.140   5.540   0.866
10364SOL    HW131991   6.055   5.505   0.906
10364SOL    HW231992   6.123   5.629   0.825
10365SOL     OW31993   6.233   6.039   6.481
10365SOL    HW131994   6.165   6.113   6.473
10365SOL    HW231995   6.215   5.986   6.564
10366SOL     OW31996   2.466   0.164   3.402
10366SOL    HW131997   2.524   0.091   3.437
10366SOL    HW231998   2.517   0.250   3.402
10367SOL     OW31999   3.891   6.003   2.411
10367SOL    HW132000   3.901   6.059   2.493
10367SOL    HW232001   3.798   5.968   2.406
10368SOL     OW32002   1.360   5.437   1.841
10368SOL    HW132003   1.342   5.340   1.861
10368SOL    HW232004   1.440   5.443   1.781
10369SOL     OW32005   2.593   0.824   5.423
10369SOL    HW132006   2.616   0.877   5.505
10369SOL    HW232007   2.496   0.836   5.402
10370SOL     OW32008   2.100   1.952   6.941
10370SOL    HW132009   2.158   2.025   6.904
10370SOL    HW232010   2.091   1.963   0.020
10371SOL     OW32011   3.997   5.604   2.851
10371SOL    HW132012   3.988   5.515   2.806
10371SOL    HW232013   3.951   5.602   2.940
10372SOL     OW32014   1.029   6.363   1.486
10372SOL    HW132015   0.958   6.326   1.426
10372SOL    HW232016   1.117   6.364   1.439
10373SOL     OW32017   6.711   0.515   5.411
10373SOL    HW132018   6.702   0.613   5.429
10373SOL    HW232019   6.808   0.492   5.401
10374SOL     OW32020   2.062   4.996   2.371
10374SOL    HW132021   2.111   4.909   2.382
10374SOL    HW232022   2.012   5.018   2.454
10375SOL     OW32023   2.687   5.665   6.698
10375SOL    HW132024   2.785   5.686   6.697
10375SOL    HW232025   2.652   5.664   6.604
10376SOL     OW32026   1.901   4.653   3.972
10376SOL    HW132027   1.814   4.603   3.978
10376SOL    HW232028   1.940   4.641   3.881
10377SOL     OW32029   3.179   0.989   3.929
10377SOL    HW132030   3.188   0.902   3.881
10377SOL    HW232031   3.203   0.977   4.025
10378SOL     OW32032   0.073   6.889   5.335
10378SOL    HW132033   0.163   6.914   5.368
10378SOL    HW232034   0.010   6.879   5.412
10379SOL     OW32035   1.203   5.232   3.207
10379SOL    HW132036   1.243   5.276   3.288
10379SOL    HW232037   1.134   5.291   3.167
10380SOL     OW32038   2.973   1.424   4.025
10380SOL    HW132039   3.004   1.333   4.051
10380SOL    HW232040   2.926   1.466   4.102
10381SOL     OW32041   2.604   6.981   3.562
10381SOL    HW132042   2.591   0.033   3.630
10381SOL    HW232043   2.699   6.948   3.565
10382SOL     OW32044   4.056   5.778   2.378
10382SOL    HW132045   4.018   5.867   2.407
10382SOL    HW232046   4.099   5.733   2.456
10383SOL     OW32047   0.392   6.863   0.053
10383SOL    HW132048   0.431   6.804   7.002
10383SOL    HW232049   0.438   6.952   0.052
10384SOL     OW32050   5.193   5.512   1.357
10384SOL    HW132051   5.097   5.520   1.384
10384SOL    HW232052   5.246   5.469   1.430
10385SOL     OW32053   3.929   4.262   6.385
10385SOL    HW132054   3.963   4.281   6.477
10385SOL    HW232055   3.910   4.164   6.376
10386SOL     OW32056   0.240   0.405   2.071
10386SOL    HW132057   0.246   0.337   1.997
10386SOL    HW232058   0.318   0.393   2.133
10387SOL     OW32059   5.639   1.249   2.061
10387SOL    HW132060   5.697   1.294   2.128
10387SOL    HW232061   5.691   1.178   2.014
10388SOL     OW32062   1.076   0.077   4.452
10388SOL    HW132063   1.062   0.123   4.364
10388SOL    HW232064   1.115   0.142   4.518
10389SOL     OW32065   0.472   3.779   0.799
10389SOL    HW132066   0.442   3.723   0.722
10389SOL    HW232067   0.438   3.872   0.788
10390SOL     OW32068   1.877   2.062   2.316
10390SOL    HW132069   1.916   2.118   2.389
10390SOL    HW232070   1.822   2.120   2.256
10391SOL     OW32071   6.390   0.055   3.146
10391SOL    HW132072   6.299   0.017   3.138
10391SOL    HW232073   6.446   7.017   3.205
10392SOL     OW32074   6.204   3.418   3.804
10392SOL    HW132075   6.170   3.457   3.890
10392SOL    HW232076   6.302   3.434   3.797
10393SOL     OW32077   1.598   2.457   1.403
10393SOL    HW132078   1.626   2.375   1.353
10393SOL    HW232079   1.534   2.432   1.475
10394SOL     OW32080   3.067   5.927   3.694
10394SOL    HW132081   3.139   5.971   3.749
10394SOL    HW232082   2.981   5.975   3.706
10395SOL     OW32083   0.352   1.354   1.627
10395SOL    HW132084   0.452   1.355   1.638
10395SOL    HW232085   0.330   1.350   1.530
10396SOL     OW32086   3.220   1.823   5.081
10396SOL    HW132087   3.189   1.743   5.028
10396SOL    HW232088   3.315   1.843   5.058
10397SOL     OW32089   5.168   1.867   3.948
10397SOL    HW132090   5.189   1.867   4.046
10397SOL    HW232091   5.183   1.775   3.911
10398SOL     OW32092   4.869   3.137   2.851
10398SOL    HW132093   4.881   3.174   2.759
10398SOL    HW232094   4.779   3.095   2.859
10399SOL     OW32095   1.066   3.421   1.971
10399SOL    HW132096   1.146   3.369   2.003
10399SOL    HW232097   0.985   3.362   1.973
10400SOL     OW32098   2.353   6.481   0.365
10400SOL    HW132099   2.293   6.458   0.288
10400SOL    HW232100   2.412   6.557   0.338
10401SOL     OW32101   6.598   1.005   5.368
10401SOL    HW132102   6.539   0.977   5.443
10401SOL    HW232103   6.545   1.055   5.300
10402SOL     OW32104   6.496   4.410   5.339
10402SOL    HW132105   6.569   4.357   5.381
10402SOL    HW232106   6.432   4.348   5.294
10403SOL     OW32107   3.507   0.209   1.095
10403SOL    HW132108   3.438   0.275   1.063
10403SOL    HW232109   3.482   0.177   1.186
10404SOL     OW32110   0.469   5.375   5.380
10404SOL    HW132111   0.468   5.448   5.312
10404SOL    HW232112   0.563   5.346   5.398
10405SOL     OW32113   0.347   1.278   0.017
10405SOL    HW132114   0.382   1.186   0.003
10405SOL    HW232115   0.269   1.294   6.978
10406SOL     OW32116   1.630   5.659   0.930
10406SOL    HW132117   1.569   5.626   1.002
10406SOL    HW232118   1.665   5.582   0.877
10407SOL     OW32119   2.023   5.524   0.060
10407SOL    HW132120   1.952   5.526   0.130
10407SOL    HW232121   2.105   5.480   0.097
10408SOL     OW32122   4.300   0.426   0.098
10408SOL    HW132123   4.240   0.426   0.178
10408SOL    HW232124   4.321   0.521   0.073
10409SOL     OW32125   6.576   4.031   0.446
10409SOL    HW132126   6.534   3.953   0.400
10409SOL    HW232127   6.595   4.007   0.542
10410SOL     OW32128   4.089   6.409   0.903
10410SOL    HW132129   4.148   6.355   0.962
10410SOL    HW232130   4.014   6.352   0.869
10411SOL     OW32131   1.296   5.064   4.204
10411SOL    HW132132   1.393   5.045   4.193
10411SOL    HW232133   1.273   5.063   4.302
10412SOL     OW32134   5.122   0.555   1.594
10412SOL    HW132135   5.064   0.484   1.554
10412SOL    HW232136   5.121   0.547   1.694
10413SOL     OW32137   6.156   3.220   1.641
10413SOL    HW132138   6.067   3.181   1.663
10413SOL    HW232139   6.213   3.223   1.724
10414SOL     OW32140   5.608   3.380   4.034
10414SOL    HW132141   5.546   3.354   3.960
10414SOL    HW232142   5.556   3.425   4.107
10415SOL     OW32143   0.920   0.465   6.892
10415SOL    HW132144   1.012   0.504   6.883
10415SOL    HW232145   0.903   0.441   6.988
10416SOL     OW32146   5.589   3.244   3.481
10416SOL    HW132147   5.512   3.291   3.439
10416SOL    HW232148   5.602   3.155   3.438
10417SOL     OW32149   1.784   3.971   2.366
10417SOL    HW132150   1.750   4.016   2.449
10417SOL    HW232151   1.872   3.929   2.385
10418SOL     OW32152   1.791   5.791   5.923
10418SOL    HW132153   1.864   5.847   5.883
10418SOL    HW232154   1.828   5.700   5.944
10419SOL     OW32155   1.454   0.496   6.373
10419SOL    HW132156   1.422   0.438   6.299
10419SOL    HW232157   1.401   0.477   6.456
10420SOL     OW32158   0.676   2.607   2.180
10420SOL    HW132159   0.759   2.614   2.235
10420SOL    HW232160   0.616   2.684   2.200
10421SOL     OW32161   1.165   1.699   2.527
10421SOL    HW132162   1.080   1.747   2.549
10421SOL    HW232163   1.182   1.706   2.428
10422SOL     OW32164   5.676   2.204   0.299
10422SOL    HW132165   5.731   2.123   0.323
10422SOL    HW232166   5.724   2.286   0.328
10423SOL     OW32167   4.628   5.622   2.973
10423SOL    HW132168   4.570   5.640   2.893
10423SOL    HW232169   4.715   5.669   2.963
10424SOL     OW32170   4.307   1.579   6.496
10424SOL    HW132171   4.402   1.612   6.489
10424SOL    HW232172   4.308   1.483   6.523
10425SOL     OW32173   1.725   6.481   1.880
10425SOL    HW132174   1.784   6.467   1.801
10425SOL    HW232175   1.659   6.554   1.860
10426SOL     OW32176   6.408   3.843   6.181
10426SOL    HW132177   6.389   3.782   6.104
10426SOL    HW232178   6.474   3.912   6.153
10427SOL     OW32179   4.798   1.077   1.380
10427SOL    HW132180   4.860   1.001   1.364
10427SOL    HW232181   4.805   1.143   1.305
10428SOL     OW32182   4.595   2.186   3.362
10428SOL    HW132183   4.590   2.117   3.289
10428SOL    HW232184   4.574   2.276   3.325
10429SOL     OW32185   5.425   5.625   2.635
10429SOL    HW132186   5.375   5.553   2.683
10429SOL    HW232187   5.402   5.714   2.675
10430SOL     OW32188   4.164   6.255   2.949
10430SOL    HW132189   4.073   6.281   2.981
10430SOL    HW232190   4.217   6.217   3.025
10431SOL     OW32191   2.897   1.727   5.753
10431SOL    HW132192   2.960   1.653   5.775
10431SOL    HW232193   2.844   1.703   5.672
10432SOL     OW32194   4.368   0.456   4.452
10432SOL    HW132195   4.309   0.507   4.389
10432SOL    HW232196   4.358   0.494   4.544
10433SOL     OW32197   2.547   6.044   1.606
10433SOL    HW132198   2.516   5.964   1.555
10433SOL    HW232199   2.603   6.014   1.683
10434SOL     OW32200   3.265   2.257   5.362
10434SOL    HW132201   3.259   2.163   5.328
10434SOL    HW232202   3.209   2.317   5.305
10435SOL     OW32203   5.530   5.487   5.977
10435SOL    HW132204   5.583   5.516   6.057
10435SOL    HW232205   5.543   5.389   5.962
10436SOL     OW32206   0.090   1.725   2.796
10436SOL    HW132207   7.010   1.738   2.800
10436SOL    HW232208   0.110   1.636   2.757
10437SOL     OW32209   0.861   3.137   0.051
10437SOL    HW132210   0.909   3.109   6.987
10437SOL    HW232211   0.847   3.058   0.109
10438SOL     OW32212   3.346   0.027   5.864
10438SOL    HW132213   3.252   0.040   5.834
10438SOL    HW232214   3.350   0.035   5.964
10439SOL     OW32215   3.704   0.164   5.622
10439SOL    HW132216   3.620   0.187   5.671
10439SOL    HW232217   3.767   0.242   5.624
10440SOL     OW32218   1.254   5.796   0.982
10440SOL    HW132219   1.175   5.782   1.042
10440SOL    HW232220   1.228   5.773   0.888
10441SOL     OW32221   4.200   6.652   0.929
10441SOL    HW132222   4.212   6.652   1.029
10441SOL    HW232223   4.153   6.569   0.900
10442SOL     OW32224   3.892   6.298   5.946
10442SOL    HW132225   3.866   6.386   5.984
10442SOL    HW232226   3.899   6.305   5.847
10443SOL     OW32227   6.587   2.761   5.124
10443SOL    HW132228   6.519   2.732   5.191
10443SOL    HW232229   6.575   2.858   5.104
10444SOL     OW32230   4.107   4.973   4.878
10444SOL    HW132231   4.165   5.054   4.892
10444SOL    HW232232   4.163   4.891   4.889
10445SOL     OW32233   6.280   6.226   2.048
10445SOL    HW132234   6.293   6.240   1.950
10445SOL    HW232235   6.192   6.180   2.064
10446SOL     OW32236   1.144   6.459   5.535
10446SOL    HW132237   1.055   6.462   5.581
10446SOL    HW232238   1.151   6.374   5.482
10447SOL     OW32239   5.049   2.146   6.942
10447SOL    HW132240   5.004   2.117   6.858
10447SOL    HW232241   5.098   2.069   6.983
10448SOL     OW32242   3.500   3.570   2.607
10448SOL    HW132243   3.483   3.660   2.566
10448SOL    HW232244   3.583   3.530   2.567
10449SOL     OW32245   1.418   5.280   4.629
10449SOL    HW132246   1.492   5.346   4.643
10449SOL    HW232247   1.357   5.314   4.558
10450SOL     OW32248   0.417   3.603   0.587
10450SOL    HW132249   0.447   3.537   0.656
10450SOL    HW232250   0.418   3.559   0.497
10451SOL     OW32251   2.380   4.465   2.151
10451SOL    HW132252   2.327   4.549   2.140
10451SOL    HW232253   2.321   4.386   2.135
10452SOL     OW32254   2.251   2.967   6.213
10452SOL    HW132255   2.251   3.062   6.245
10452SOL    HW232256   2.163   2.947   6.170
10453SOL     OW32257   5.338   0.927   1.898
10453SOL    HW132258   5.268   0.872   1.851
10453SOL    HW232259   5.349   1.014   1.849
10454SOL     OW32260   4.174   4.969   2.569
10454SOL    HW132261   4.124   5.019   2.499
10454SOL    HW232262   4.169   4.871   2.551
10455SOL     OW32263   1.167   4.647   3.088
10455SOL    HW132264   1.212   4.699   3.160
10455SOL    HW232265   1.071   4.634   3.111
10456SOL     OW32266   3.809   6.968   1.347
10456SOL    HW132267   3.753   6.898   1.304
10456SOL    HW232268   3.810   0.030   1.289
10457SOL     OW32269   3.753   2.946   4.700
10457SOL    HW132270   3.709   2.883   4.765
10457SOL    HW232271   3.716   2.932   4.609
10458SOL     OW32272   6.725   5.980   2.231
10458SOL    HW132273   6.658   5.956   2.301
10458SOL    HW232274   6.729   6.080   2.221
10459SOL     OW32275   0.249   5.286   1.356
10459SOL    HW132276   0.199   5.253   1.437
10459SOL    HW232277   0.191   5.278   1.276
10460SOL     OW32278   0.991   3.962   1.468
10460SOL    HW132279   0.921   3.904   1.427
10460SOL    HW232280   0.973   3.972   1.566
10461SOL     OW32281   3.521   0.282   6.566
10461SOL    HW132282   3.583   0.256   6.640
10461SOL    HW232283   3.474   0.367   6.589
10462SOL     OW32284   5.065   6.654   1.378
10462SOL    HW132285   5.127   6.662   1.456
10462SOL    HW232286   4.988   6.594   1.401
10463SOL     OW32287   4.285   3.204   0.346
10463SOL    HW132288   4.211   3.139   0.328
10463SOL    HW232289   4.254   3.272   0.413
10464SOL     OW32290   5.953   6.375   2.196
10464SOL    HW132291   5.858   6.405   2.193
10464SOL    HW232292   6.001   6.423   2.269
10465SOL     OW32293   0.129   5.172   4.994
10465SOL    HW132294   0.124   5.159   5.093
10465SOL    HW232295   0.224   5.164   4.964
10466SOL     OW32296   4.345   5.933   5.771
10466SOL    HW132297   4.276   5.883   5.824
10466SOL    HW232298   4.387   6.003   5.828
10467SOL     OW32299   3.929   1.279   4.320
10467SOL    HW132300   3.849   1.339   4.326
10467SOL    HW232301   3.960   1.256   4.413
10468SOL     OW32302   2.904   4.790   3.348
10468SOL    HW132303   2.928   4.770   3.443
10468SOL    HW232304   2.914   4.888   3.332
10469SOL     OW32305   1.371   4.929   6.016
10469SOL    HW132306   1.356   4.975   6.103
10469SOL    HW232307   1.324   4.979   5.943
10470SOL     OW32308   2.585   1.944   4.708
10470SOL    HW132309   2.615   1.929   4.614
10470SOL    HW232310   2.503   1.891   4.727
10471SOL     OW32311   4.693   3.994   6.970
10471SOL    HW132312   4.732   3.905   6.996
10471SOL    HW232313   4.748   4.034   6.897
10472SOL     OW32314   3.883   1.241   3.545
10472SOL    HW132315   3.783   1.238   3.547
10472SOL    HW232316   3.920   1.189   3.622
10473SOL     OW32317   5.088   4.592   6.243
10473SOL    HW132318   5.045   4.649   6.314
10473SOL    HW232319   5.168   4.640   6.206
10474SOL     OW32320   4.961   0.773   4.014
10474SOL    HW132321   4.911   0.715   3.950
10474SOL    HW232322   4.941   0.744   4.108
10475SOL     OW32323   3.956   6.732   1.426
10475SOL    HW132324   3.974   6.824   1.393
10475SOL    HW232325   3.994   6.721   1.518
10476SOL     OW32326   0.531   4.815   6.595
10476SOL    HW132327   0.578   4.839   6.680
10476SOL    HW232328   0.553   4.883   6.525
10477SOL     OW32329   4.782   4.626   5.396
10477SOL    HW132330   4.721   4.578   5.334
10477SOL    HW232331   4.792   4.721   5.367
10478SOL     OW32332   0.934   6.640   2.952
10478SOL    HW132333   0.877   6.641   2.870
10478SOL    HW232334   0.876   6.643   3.033
10479SOL     OW32335   0.822   4.161   2.507
10479SOL    HW132336   0.878   4.165   2.590
10479SOL    HW232337   0.850   4.081   2.453
10480SOL     OW32338   4.743   1.049   0.173
10480SOL    HW132339   4.823   1.020   0.121
10480SOL    HW232340   4.765   1.131   0.225
10481SOL     OW32341   3.144   1.899   3.826
10481SOL    HW132342   3.132   1.838   3.905
10481SOL    HW232343   3.235   1.885   3.786
10482SOL     OW32344   0.911   6.499   6.480
10482SOL    HW132345   0.855   6.514   6.398
10482SOL    HW232346   0.939   6.587   6.518
10483SOL     OW32347   1.067   6.177   1.062
10483SOL    HW132348   1.155   6.213   1.094
10483SOL    HW232349   1.040   6.224   0.978
10484SOL     OW32350   6.663   1.773   1.772
10484SOL    HW132351   6.757   1.771   1.738
10484SOL    HW232352   6.649   1.698   1.836
10485SOL     OW32353   3.713   4.105   4.378
10485SOL    HW132354   3.772   4.066   4.448
10485SOL    HW232355   3.628   4.139   4.419
10486SOL     OW32356   6.105   4.618   5.392
10486SOL    HW132357   6.024   4.676   5.385
10486SOL    HW232358   6.078   4.527   5.423
10487SOL     OW32359   5.565   3.887   2.760
10487SOL    HW132360   5.613   3.948   2.696
10487SOL    HW232361   5.513   3.820   2.709
10488SOL     OW32362   0.591   2.327   5.603
10488SOL    HW132363   0.529   2.395   5.564
10488SOL    HW232364   0.556   2.297   5.692
10489SOL     OW32365   5.963   4.907   2.745
10489SOL    HW132366   5.992   4.925   2.839
10489SOL    HW232367   6.012   4.969   2.683
10490SOL     OW32368   4.924   6.321   6.220
10490SOL    HW132369   5.019   6.317   6.189
10490SOL    HW232370   4.909   6.251   6.290
10491SOL     OW32371   2.398   1.762   5.658
10491SOL    HW132372   2.383   1.739   5.754
10491SOL    HW232373   2.426   1.858   5.651
10492SOL     OW32374   2.929   6.455   6.906
10492SOL    HW132375   2.986   6.536   6.893
10492SOL    HW232376   2.921   6.435   7.003
10493SOL     OW32377   3.730   6.307   0.457
10493SOL    HW132378   3.713   6.361   0.540
10493SOL    HW232379   3.644   6.265   0.427
10494SOL     OW32380   0.026   5.236   3.230
10494SOL    HW132381   0.000   5.308   3.166
10494SOL    HW232382   0.092   5.272   3.296
10495SOL     OW32383   6.477   6.054   7.018
10495SOL    HW132384   6.454   6.129   6.956
10495SOL    HW232385   6.509   6.091   0.085
10496SOL     OW32386   0.758   4.333   5.784
10496SOL    HW132387   0.771   4.237   5.808
10496SOL    HW232388   0.688   4.373   5.843
10497SOL     OW32389   4.089   6.385   6.795
10497SOL    HW132390   4.061   6.425   6.883
10497SOL    HW232391   4.151   6.309   6.812
10498SOL     OW32392   3.170   3.875   0.193
10498SOL    HW132393   3.249   3.913   0.145
10498SOL    HW232394   3.088   3.888   0.136
10499SOL     OW32395   4.264   4.654   3.399
10499SOL    HW132396   4.357   4.653   3.433
10499SOL    HW232397   4.265   4.665   3.300
10500SOL     OW32398   1.757   2.979   5.344
10500SOL    HW132399   1.732   3.039   5.268
10500SOL    HW232400   1.845   3.007   5.381
10501SOL     OW32401   3.810   4.933   3.183
10501SOL    HW132402   3.839   4.910   3.090
10501SOL    HW232403   3.756   5.017   3.181
10502SOL     OW32404   2.911   3.529   2.522
10502SOL    HW132405   2.877   3.436   2.506
10502SOL    HW232406   2.910   3.580   2.436
10503SOL     OW32407   6.669   0.033   0.650
10503SOL    HW132408   6.631   6.961   0.643
10503SOL    HW232409   6.635   0.076   0.734
10504SOL     OW32410   1.589   2.720   6.156
10504SOL    HW132411   1.527   2.718   6.233
10504SOL    HW232412   1.675   2.765   6.183
10505SOL     OW32413   5.695   6.627   1.557
10505SOL    HW132414   5.628   6.699   1.538
10505SOL    HW232415   5.779   6.667   1.593
10506SOL     OW32416   0.993   4.887   5.273
10506SOL    HW132417   0.969   4.920   5.365
10506SOL    HW232418   0.912   4.893   5.214
10507SOL     OW32419   1.885   6.056   5.901
10507SOL    HW132420   1.981   6.076   5.883
10507SOL    HW232421   1.857   6.100   5.986
10508SOL     OW32422   2.022   6.157   1.257
10508SOL    HW132423   2.031   6.257   1.255
10508SOL    HW232424   1.993   6.128   1.348
10509SOL     OW32425   4.875   3.570   2.034
10509SOL    HW132426   4.900   3.664   2.011
10509SOL    HW232427   4.854   3.520   1.950
10510SOL     OW32428   5.575   6.158   2.083
10510SOL    HW132429   5.560   6.071   2.130
10510SOL    HW232430   5.655   6.150   2.024
10511SOL     OW32431   4.367   1.693   0.888
10511SOL    HW132432   4.335   1.693   0.982
10511SOL    HW232433   4.448   1.752   0.880
10512SOL     OW32434   3.540   0.468   5.121
10512SOL    HW132435   3.577   0.433   5.207
10512SOL    HW232436   3.610   0.521   5.073
10513SOL     OW32437   3.618   3.656   0.588
10513SOL    HW132438   3.585   3.728   0.650
10513SOL    HW232439   3.582   3.568   0.617
10514SOL     OW32440   1.682   5.222   1.999
10514SOL    HW132441   1.700   5.124   2.005
10514SOL    HW232442   1.639   5.253   2.084
10515SOL     OW32443   2.084   3.845   5.106
10515SOL    HW132444   2.018   3.909   5.067
10515SOL    HW232445   2.168   3.895   5.131
10516SOL     OW32446   5.611   2.116   1.745
10516SOL    HW132447   5.557   2.134   1.663
10516SOL    HW232448   5.570   2.161   1.824
10517SOL     OW32449   6.986   2.263   2.345
10517SOL    HW132450   0.046   2.258   2.285
10517SOL    HW232451   6.993   2.194   2.417
10518SOL     OW32452   0.704   5.645   2.726
10518SOL    HW132453   0.739   5.569   2.780
10518SOL    HW232454   0.615   5.621   2.688
10519SOL     OW32455   2.004   0.016   0.708
10519SOL    HW132456   2.006   6.940   0.682
10519SOL    HW232457   2.085   0.063   0.671
10520SOL     OW32458   3.107   2.616   5.953
10520SOL    HW132459   3.147   2.528   5.977
10520SOL    HW232460   3.089   2.668   6.037
10521SOL     OW32461   6.153   2.083   2.517
10521SOL    HW132462   6.192   1.992   2.528
10521SOL    HW232463   6.053   2.078   2.525
10522SOL     OW32464   5.023   1.472   2.960
10522SOL    HW132465   4.948   1.493   3.022
10522SOL    HW232466   5.038   1.548   2.898
10523SOL     OW32467   0.372   3.959   1.423
10523SOL    HW132468   0.404   4.020   1.495
10523SOL    HW232469   0.286   3.917   1.451
10524SOL     OW32470   5.857   6.732   4.751
10524SOL    HW132471   5.838   6.711   4.656
10524SOL    HW232472   5.910   6.817   4.756
10525SOL     OW32473   4.996   1.868   3.325
10525SOL    HW132474   5.031   1.846   3.233
10525SOL    HW232475   5.030   1.957   3.353
10526SOL     OW32476   1.618   5.980   5.844
10526SOL    HW132477   1.662   5.899   5.884
10526SOL    HW232478   1.669   6.062   5.869
10527SOL     OW32479   0.340   6.109   6.001
10527SOL    HW132480   0.421   6.130   5.948
10527SOL    HW232481   0.276   6.185   5.996
10528SOL     OW32482   2.603   6.522   5.187
10528SOL    HW132483   2.636   6.474   5.106
10528SOL    HW232484   2.518   6.481   5.218
10529SOL     OW32485   6.873   4.946   6.809
10529SOL    HW132486   6.795   4.892   6.774
10529SOL    HW232487   6.878   5.032   6.759
10530SOL     OW32488   5.867   0.292   1.305
10530SOL    HW132489   5.921   0.263   1.225
10530SOL    HW232490   5.894   0.238   1.384
10531SOL     OW32491   3.226   1.142   6.454
10531SOL    HW132492   3.288   1.076   6.413
10531SOL    HW232493   3.266   1.233   6.449
10532SOL     OW32494   4.312   5.499   6.043
10532SOL    HW132495   4.246   5.514   6.116
10532SOL    HW232496   4.346   5.405   6.047
10533SOL     OW32497   4.579   6.663   3.478
10533SOL    HW132498   4.526   6.746   3.496
10533SOL    HW232499   4.617   6.667   3.386
10534SOL     OW32500   0.602   6.507   4.609
10534SOL    HW132501   0.562   6.473   4.523
10534SOL    HW232502   0.624   6.604   4.599
10535SOL     OW32503   4.237   1.552   2.255
10535SOL    HW132504   4.173   1.606   2.308
10535SOL    HW232505   4.265   1.472   2.308
10536SOL     OW32506   5.862   3.298   4.365
10536SOL    HW132507   5.867   3.286   4.266
10536SOL    HW232508   5.766   3.305   4.393
10537SOL     OW32509   3.372   1.064   2.831
10537SOL    HW132510   3.387   1.152   2.786
10537SOL    HW232511   3.443   1.000   2.801
10538SOL     OW32512   6.524   3.233   3.671
10538SOL    HW132513   6.430   3.202   3.653
10538SOL    HW232514   6.559   3.187   3.752
10539SOL     OW32515   6.853   0.199   1.787
10539SOL    HW132516   6.763   0.159   1.805
10539SOL    HW232517   6.884   0.171   1.696
10540SOL     OW32518   1.871   2.697   6.565
10540SOL    HW132519   1.819   2.783   6.575
10540SOL    HW232520   1.898   2.665   6.655
10541SOL     OW32521   4.033   2.448   6.354
10541SOL    HW132522   4.063   2.533   6.311
10541SOL    HW232523   4.006   2.465   6.448
10542SOL     OW32524   3.739   6.767   2.399
10542SOL    HW132525   3.672   6.802   2.465
10542SOL    HW232526   3.829   6.805   2.418
10543SOL     OW32527   1.328   2.706   4.307
10543SOL    HW132528   1.287   2.789   4.345
10543SOL    HW232529   1.353   2.644   4.382
10544SOL     OW32530   2.812   2.131   2.307
10544SOL    HW132531   2.883   2.138   2.377
10544SOL    HW232532   2.821   2.206   2.242
10545SOL     OW32533   1.234   3.332   1.372
10545SOL    HW132534   1.186   3.388   1.439
10545SOL    HW232535   1.188   3.340   1.283
10546SOL     OW32536   1.938   0.111   5.201
10546SOL    HW132537   1.854   0.146   5.158
10546SOL    HW232538   1.998   0.074   5.130
10547SOL     OW32539   3.491   5.588   6.552
10547SOL    HW132540   3.420   5.638   6.501
10547SOL    HW232541   3.453   5.555   6.638
10548SOL     OW32542   1.412   4.955   2.736
10548SOL    HW132543   1.400   5.050   2.765
10548SOL    HW232544   1.414   4.896   2.817
10549SOL     OW32545   6.998   1.061   2.592
10549SOL    HW132546   0.063   1.105   2.565
10549SOL    HW232547   6.929   1.076   2.521
10550SOL     OW32548   6.698   5.276   2.553
10550SOL    HW132549   6.725   5.371   2.570
10550SOL    HW232550   6.598   5.270   2.552
10551SOL     OW32551   5.121   0.162   4.441
10551SOL    HW132552   5.041   0.135   4.496
10551SOL    HW232553   5.161   0.245   4.480
10552SOL     OW32554   2.812   0.427   3.354
10552SOL    HW132555   2.894   0.485   3.349
10552SOL    HW232556   2.748   0.454   3.282
10553SOL     OW32557   5.373   5.679   1.216
10553SOL    HW132558   5.377   5.659   1.118
10553SOL    HW232559   5.310   5.616   1.261
10554SOL     OW32560   6.022   5.748   1.096
10554SOL    HW132561   5.983   5.825   1.146
10554SOL    HW232562   6.100   5.779   1.042
10555SOL     OW32563   3.251   3.306   1.923
10555SOL    HW132564   3.252   3.208   1.903
10555SOL    HW232565   3.296   3.356   1.849
10556SOL     OW32566   2.305   2.202   1.751
10556SOL    HW132567   2.368   2.146   1.805
10556SOL    HW232568   2.278   2.282   1.803
10557SOL     OW32569   0.590   4.182   2.864
10557SOL    HW132570   0.627   4.196   2.956
10557SOL    HW232571   0.547   4.266   2.831
10558SOL     OW32572   5.001   5.268   4.664
10558SOL    HW132573   5.005   5.169   4.650
10558SOL    HW232574   4.946   5.310   4.591
10559SOL     OW32575   3.369   5.970   1.172
10559SOL    HW132576   3.442   6.034   1.196
10559SOL    HW232577   3.328   5.934   1.256
10560SOL     OW32578   5.884   0.307   3.895
10560SOL    HW132579   5.832   0.263   3.967
10560SOL    HW232580   5.835   0.388   3.863
10561SOL     OW32581   0.696   5.882   5.336
10561SOL    HW132582   0.636   5.920   5.267
10561SOL    HW232583   0.741   5.800   5.300
10562SOL     OW32584   3.149   1.020   2.654
10562SOL    HW132585   3.120   1.055   2.744
10562SOL    HW232586   3.244   0.989   2.660
10563SOL     OW32587   1.512   5.629   1.988
10563SOL    HW132588   1.455   5.554   1.953
10563SOL    HW232589   1.608   5.612   1.966
10564SOL     OW32590   5.206   5.233   2.905
10564SOL    HW132591   5.147   5.249   2.984
10564SOL    HW232592   5.274   5.164   2.928
10565SOL     OW32593   6.732   1.239   4.561
10565SOL    HW132594   6.774   1.161   4.606
10565SOL    HW232595   6.769   1.324   4.598
10566SOL     OW32596   3.838   1.700   0.189
10566SOL    HW132597   3.823   1.602   0.201
10566SOL    HW232598   3.873   1.717   0.097
10567SOL     OW32599   3.242   1.413   6.559
10567SOL    HW132600   3.318   1.412   6.624
10567SOL    HW232601   3.268   1.465   6.478
10568SOL     OW32602   5.972   1.843   6.684
10568SOL    HW132603   5.930   1.913   6.741
10568SOL    HW232604   6.011   1.885   6.602
10569SOL     OW32605   3.728   0.425   1.273
10569SOL    HW132606   3.755   0.511   1.316
10569SOL    HW232607   3.642   0.437   1.224
10570SOL     OW32608   1.314   4.077   3.354
10570SOL    HW132609   1.275   4.115   3.437
10570SOL    HW232610   1.352   3.986   3.373
10571SOL     OW32611   0.442   3.983   4.839
10571SOL    HW132612   0.477   4.053   4.777
10571SOL    HW232613   0.469   4.006   4.933
10572SOL     OW32614   0.463   5.575   0.911
10572SOL    HW132615   0.516   5.551   0.993
10572SOL    HW232616   0.454   5.494   0.853
10573SOL     OW32617   5.760   2.473   3.386
10573SOL    HW132618   5.752   2.462   3.485
10573SOL    HW232619   5.852   2.445   3.357
10574SOL     OW32620   4.731   2.180   2.772
10574SOL    HW132621   4.646   2.202   2.819
10574SOL    HW232622   4.752   2.083   2.783
10575SOL     OW32623   5.181   0.165   2.465
10575SOL    HW132624   5.202   0.256   2.499
10575SOL    HW232625   5.087   0.161   2.433
10576SOL     OW32626   1.374   2.784   5.323
10576SOL    HW132627   1.315   2.844   5.377
10576SOL    HW232628   1.354   2.795   5.226
10577SOL     OW32629   4.507   4.350   6.476
10577SOL    HW132630   4.422   4.345   6.424
10577SOL    HW232631   4.523   4.262   6.522
10578SOL     OW32632   1.392   3.102   2.396
10578SOL    HW132633   1.468   3.151   2.353
10578SOL    HW232634   1.419   3.075   2.489
10579SOL     OW32635   0.261   3.543   0.296
10579SOL    HW132636   0.320   3.467   0.322
10579SOL    HW232637   0.316   3.613   0.250
10580SOL     OW32638   5.301   6.765   6.083
10580SOL    HW132639   5.287   6.846   6.027
10580SOL    HW232640   5.280   6.786   6.179
10581SOL     OW32641   4.421   0.680   2.348
10581SOL    HW132642   4.483   0.676   2.427
10581SOL    HW232643   4.401   0.587   2.316
10582SOL     OW32644   6.707   3.500   0.419
10582SOL    HW132645   6.722   3.408   0.455
10582SOL    HW232646   6.756   3.510   0.332
10583SOL     OW32647   3.958   2.103   6.082
10583SOL    HW132648   3.978   2.056   6.168
10583SOL    HW232649   4.008   2.059   6.007
10584SOL     OW32650   6.330   0.535   4.016
10584SOL    HW132651   6.408   0.473   4.017
10584SOL    HW232652   6.247   0.484   3.991
10585SOL     OW32653   1.522   1.120   5.024
10585SOL    HW132654   1.427   1.147   5.041
10585SOL    HW232655   1.523   1.044   4.958
10586SOL     OW32656   4.852   3.807   6.356
10586SOL    HW132657   4.923   3.859   6.403
10586SOL    HW232658   4.890   3.767   6.272
10587SOL     OW32659   2.171   5.362   5.470
10587SOL    HW132660   2.257   5.314   5.449
10587SOL    HW232661   2.151   5.355   5.567
10588SOL     OW32662   1.226   4.252   4.391
10588SOL    HW132663   1.204   4.348   4.375
10588SOL    HW232664   1.237   4.205   4.303
10589SOL     OW32665   5.671   0.848   3.403
10589SOL    HW132666   5.689   0.939   3.367
10589SOL    HW232667   5.655   0.784   3.328
10590SOL     OW32668   0.076   6.461   2.008
10590SOL    HW132669   0.080   6.361   2.018
10590SOL    HW232670   0.144   6.503   2.068
10591SOL     OW32671   6.741   4.555   2.368
10591SOL    HW132672   6.775   4.509   2.286
10591SOL    HW232673   6.654   4.515   2.395
10592SOL     OW32674   6.407   3.795   4.949
10592SOL    HW132675   6.379   3.879   4.903
10592SOL    HW232676   6.419   3.723   4.881
10593SOL     OW32677   3.857   5.696   3.121
10593SOL    HW132678   3.866   5.777   3.063
10593SOL    HW232679   3.895   5.716   3.212
10594SOL     OW32680   4.148   5.898   3.973
10594SOL    HW132681   4.122   5.952   3.893
10594SOL    HW232682   4.218   5.831   3.948
10595SOL     OW32683   5.952   5.502   0.284
10595SOL    HW132684   5.941   5.599   0.264
10595SOL    HW232685   5.863   5.457   0.279
10596SOL     OW32686   5.789   4.039   0.682
10596SOL    HW132687   5.749   3.948   0.691
10596SOL    HW232688   5.791   4.066   0.586
10597SOL     OW32689   0.890   6.502   5.361
10597SOL    HW132690   0.927   6.557   5.287
10597SOL    HW232691   0.891   6.555   5.446
10598SOL     OW32692   3.146   1.758   0.961
10598SOL    HW132693   3.159   1.819   1.039
10598SOL    HW232694   3.168   1.807   0.877
10599SOL     OW32695   0.481   1.980   0.687
10599SOL    HW132696   0.383   1.997   0.700
10599SOL    HW232697   0.530   2.000   0.771
10600SOL     OW32698   4.738   1.208   2.194
10600SOL    HW132699   4.755   1.200   2.096
10600SOL    HW232700   4.815   1.170   2.245
10601SOL     OW32701   2.252   2.022   5.377
10601SOL    HW132702   2.166   1.984   5.342
10601SOL    HW232703   2.237   2.056   5.470
10602SOL     OW32704   6.778   6.739   1.041
10602SOL    HW132705   6.798   6.649   1.002
10602SOL    HW232706   6.842   6.807   1.004
10603SOL     OW32707   5.445   0.618   2.448
10603SOL    HW132708   5.470   0.580   2.360
10603SOL    HW232709   5.473   0.555   2.521
10604SOL     OW32710   5.479   2.261   4.905
10604SOL    HW132711   5.513   2.204   4.980
10604SOL    HW232712   5.452   2.350   4.941
10605SOL     OW32713   4.544   2.007   1.157
10605SOL    HW132714   4.619   1.984   1.219
10605SOL    HW232715   4.546   1.946   1.077
10606SOL     OW32716   5.969   1.387   0.725
10606SOL    HW132717   5.990   1.314   0.791
10606SOL    HW232718   5.957   1.347   0.634
10607SOL     OW32719   2.197   5.197   1.296
10607SOL    HW132720   2.289   5.199   1.256
10607SOL    HW232721   2.202   5.222   1.393
10608SOL     OW32722   5.347   4.326   2.835
10608SOL    HW132723   5.286   4.271   2.891
10608SOL    HW232724   5.342   4.296   2.740
10609SOL     OW32725   5.475   6.493   6.897
10609SOL    HW132726   5.474   6.592   6.912
10609SOL    HW232727   5.418   6.472   6.817
10610SOL     OW32728   0.332   1.972   3.274
10610SOL    HW132729   0.330   1.872   3.267
10610SOL    HW232730   0.427   2.003   3.281
10611SOL     OW32731   4.115   5.533   6.233
10611SOL    HW132732   4.075   5.462   6.176
10611SOL    HW232733   4.151   5.492   6.317
10612SOL     OW32734   5.413   2.464   3.583
10612SOL    HW132735   5.394   2.380   3.634
10612SOL    HW232736   5.382   2.453   3.489
10613SOL     OW32737   5.527   5.115   5.603
10613SOL    HW132738   5.464   5.075   5.536
10613SOL    HW232739   5.570   5.042   5.656
10614SOL     OW32740   4.147   1.819   0.054
10614SOL    HW132741   4.174   1.779   0.142
10614SOL    HW232742   4.098   1.750   0.000
10615SOL     OW32743   3.020   2.281   5.751
10615SOL    HW132744   2.972   2.327   5.676
10615SOL    HW232745   2.959   2.213   5.792
10616SOL     OW32746   1.490   5.710   0.295
10616SOL    HW132747   1.400   5.678   0.262
10616SOL    HW232748   1.550   5.631   0.310
10617SOL     OW32749   2.375   3.348   0.104
10617SOL    HW132750   2.443   3.416   0.132
10617SOL    HW232751   2.339   3.372   0.014
10618SOL     OW32752   0.177   4.820   4.347
10618SOL    HW132753   0.162   4.795   4.443
10618SOL    HW232754   0.111   4.771   4.289
10619SOL     OW32755   1.059   2.279   0.855
10619SOL    HW132756   1.078   2.375   0.834
10619SOL    HW232757   1.144   2.232   0.876
10620SOL     OW32758   4.048   0.985   5.527
10620SOL    HW132759   3.972   1.040   5.495
10620SOL    HW232760   4.128   1.043   5.540
10621SOL     OW32761   0.671   4.982   4.717
10621SOL    HW132762   0.636   5.073   4.692
10621SOL    HW232763   0.660   4.920   4.640
10622SOL     OW32764   3.953   1.915   6.283
10622SOL    HW132765   4.014   1.851   6.329
10622SOL    HW232766   3.898   1.965   6.350
10623SOL     OW32767   5.050   4.654   5.468
10623SOL    HW132768   4.952   4.651   5.449
10623SOL    HW232769   5.098   4.589   5.409
10624SOL     OW32770   0.299   1.276   5.639
10624SOL    HW132771   0.369   1.328   5.687
10624SOL    HW232772   0.262   1.206   5.700
10625SOL     OW32773   5.755   5.457   6.897
10625SOL    HW132774   5.716   5.371   6.865
10625SOL    HW232775   5.692   5.501   6.961
10626SOL     OW32776   5.644   3.722   1.841
10626SOL    HW132777   5.698   3.719   1.925
10626SOL    HW232778   5.562   3.777   1.855
10627SOL     OW32779   5.135   4.908   5.408
10627SOL    HW132780   5.059   4.964   5.440
10627SOL    HW232781   5.116   4.812   5.427
10628SOL     OW32782   2.697   5.987   1.838
10628SOL    HW132783   2.626   6.016   1.902
10628SOL    HW232784   2.773   5.948   1.888
10629SOL     OW32785   4.391   5.739   4.384
10629SOL    HW132786   4.472   5.738   4.443
10629SOL    HW232787   4.399   5.815   4.319
10630SOL     OW32788   4.203   0.582   1.595
10630SOL    HW132789   4.131   0.598   1.527
10630SOL    HW232790   4.198   0.488   1.627
10631SOL     OW32791   3.756   6.492   2.330
10631SOL    HW132792   3.726   6.530   2.242
10631SOL    HW232793   3.759   6.564   2.399
10632SOL     OW32794   5.613   0.254   4.961
10632SOL    HW132795   5.535   0.289   4.909
10632SOL    HW232796   5.680   0.214   4.898
10633SOL     OW32797   3.059   3.196   0.184
10633SOL    HW132798   2.967   3.235   0.183
10633SOL    HW232799   3.073   3.144   0.268
10634SOL     OW32800   0.674   4.310   0.423
10634SOL    HW132801   0.718   4.399   0.423
10634SOL    HW232802   0.630   4.294   0.334
10635SOL     OW32803   3.010   4.249   6.868
10635SOL    HW132804   3.072   4.280   6.797
10635SOL    HW232805   2.940   4.189   6.828
10636SOL     OW32806   6.715   2.464   0.798
10636SOL    HW132807   6.703   2.397   0.725
10636SOL    HW232808   6.649   2.538   0.785
10637SOL     OW32809   1.961   0.134   5.606
10637SOL    HW132810   1.976   0.075   5.685
10637SOL    HW232811   1.914   0.217   5.636
10638SOL     OW32812   5.999   4.935   6.622
10638SOL    HW132813   6.090   4.895   6.631
10638SOL    HW232814   5.999   5.001   6.548
10639SOL     OW32815   6.724   5.518   6.711
10639SOL    HW132816   6.656   5.580   6.749
10639SOL    HW232817   6.786   5.489   6.785
10640SOL     OW32818   3.995   5.642   4.838
10640SOL    HW132819   4.016   5.560   4.892
10640SOL    HW232820   4.057   5.715   4.864
10641SOL     OW32821   1.210   1.255   3.901
10641SOL    HW132822   1.266   1.172   3.893
10641SOL    HW232823   1.229   1.316   3.825
10642SOL     OW32824   6.976   1.820   5.856
10642SOL    HW132825   6.889   1.865   5.834
10642SOL    HW232826   0.031   1.868   5.810
10643SOL     OW32827   3.072   5.442   4.795
10643SOL    HW132828   2.999   5.507   4.774
10643SOL    HW232829   3.033   5.351   4.806
10644SOL     OW32830   1.357   3.284   3.450
10644SOL    HW132831   1.277   3.228   3.469
10644SOL    HW232832   1.360   3.360   3.514
10645SOL     OW32833   1.865   3.512   3.741
10645SOL    HW132834   1.807   3.463   3.675
10645SOL    HW232835   1.947   3.544   3.695
10646SOL     OW32836   5.279   1.530   3.299
10646SOL    HW132837   5.226   1.602   3.345
10646SOL    HW232838   5.366   1.517   3.348
10647SOL     OW32839   4.474   5.677   4.774
10647SOL    HW132840   4.423   5.595   4.746
10647SOL    HW232841   4.566   5.650   4.803
10648SOL     OW32842   4.689   3.442   5.669
10648SOL    HW132843   4.641   3.510   5.614
10648SOL    HW232844   4.787   3.464   5.673
10649SOL     OW32845   5.850   3.090   3.247
10649SOL    HW132846   5.908   3.172   3.242
10649SOL    HW232847   5.886   3.020   3.185
10650SOL     OW32848   1.135   0.192   3.260
10650SOL    HW132849   1.164   0.286   3.240
10650SOL    HW232850   1.147   0.136   3.178
10651SOL     OW32851   2.269   5.901   5.318
10651SOL    HW132852   2.246   5.885   5.222
10651SOL    HW232853   2.188   5.884   5.375
10652SOL     OW32854   2.696   0.409   0.055
10652SOL    HW132855   2.764   0.395   0.127
10652SOL    HW232856   2.650   0.497   0.071
10653SOL     OW32857   5.843   6.197   4.631
10653SOL    HW132858   5.873   6.291   4.645
10653SOL    HW232859   5.921   6.142   4.600
10654SOL     OW32860   6.819   1.441   4.031
10654SOL    HW132861   6.759   1.445   3.951
10654SOL    HW232862   6.779   1.379   4.099
10655SOL     OW32863   6.146   4.908   6.991
10655SOL    HW132864   6.057   4.952   6.979
10655SOL    HW232865   6.154   4.871   0.064
10656SOL     OW32866   5.794   0.522   6.111
10656SOL    HW132867   5.769   0.616   6.089
10656SOL    HW232868   5.770   0.462   6.035
10657SOL     OW32869   4.361   6.943   5.216
10657SOL    HW132870   4.325   6.855   5.187
10657SOL    HW232871   4.460   6.935   5.232
10658SOL     OW32872   1.479   1.351   5.401
10658SOL    HW132873   1.470   1.427   5.337
10658SOL    HW232874   1.572   1.315   5.397
10659SOL     OW32875   0.725   5.533   6.529
10659SOL    HW132876   0.689   5.554   6.620
10659SOL    HW232877   0.649   5.513   6.467
10660SOL     OW32878   6.128   2.154   6.243
10660SOL    HW132879   6.165   2.246   6.239
10660SOL    HW232880   6.116   2.126   6.338
10661SOL     OW32881   3.303   5.451   5.630
10661SOL    HW132882   3.401   5.464   5.614
10661SOL    HW232883   3.267   5.530   5.679
10662SOL     OW32884   3.408   1.853   1.075
10662SOL    HW132885   3.365   1.907   1.147
10662SOL    HW232886   3.468   1.912   1.020
10663SOL     OW32887   6.641   3.102   3.859
10663SOL    HW132888   6.725   3.053   3.835
10663SOL    HW232889   6.632   3.108   3.958
10664SOL     OW32890   1.166   6.600   4.688
10664SOL    HW132891   1.076   6.569   4.659
10664SOL    HW232892   1.209   6.653   4.615
10665SOL     OW32893   4.205   3.405   0.524
10665SOL    HW132894   4.254   3.409   0.610
10665SOL    HW232895   4.203   3.495   0.481
10666SOL     OW32896   5.011   3.382   1.567
10666SOL    HW132897   5.060   3.440   1.501
10666SOL    HW232898   4.924   3.353   1.528
10667SOL     OW32899   5.747   2.563   4.323
10667SOL    HW132900   5.780   2.488   4.265
10667SOL    HW232901   5.648   2.572   4.314
10668SOL     OW32902   3.431   3.520   5.756
10668SOL    HW132903   3.465   3.429   5.734
10668SOL    HW232904   3.491   3.589   5.716
10669SOL     OW32905   6.336   2.890   1.765
10669SOL    HW132906   6.243   2.920   1.742
10669SOL    HW232907   6.362   2.813   1.707
10670SOL     OW32908   4.600   4.783   4.263
10670SOL    HW132909   4.660   4.741   4.195
10670SOL    HW232910   4.518   4.818   4.218
10671SOL     OW32911   2.033   3.175   4.752
10671SOL    HW132912   2.008   3.270   4.736
10671SOL    HW232913   2.092   3.169   4.833
10672SOL     OW32914   6.409   4.872   1.204
10672SOL    HW132915   6.434   4.790   1.255
10672SOL    HW232916   6.337   4.850   1.138
10673SOL     OW32917   3.074   1.195   1.863
10673SOL    HW132918   3.073   1.155   1.955
10673SOL    HW232919   3.060   1.294   1.870
10674SOL     OW32920   4.096   3.285   4.604
10674SOL    HW132921   4.152   3.357   4.645
10674SOL    HW232922   4.090   3.208   4.667
10675SOL     OW32923   3.303   6.716   5.747
10675SOL    HW132924   3.326   6.621   5.723
10675SOL    HW232925   3.307   6.773   5.666
10676SOL     OW32926   1.407   1.488   4.426
10676SOL    HW132927   1.314   1.474   4.395
10676SOL    HW232928   1.409   1.557   4.499
10677SOL     OW32929   0.077   1.597   6.881
10677SOL    HW132930   0.070   1.620   6.784
10677SOL    HW232931   0.101   1.679   6.933
10678SOL     OW32932   3.556   4.878   2.540
10678SOL    HW132933   3.466   4.843   2.511
10678SOL    HW232934   3.622   4.863   2.467
10679SOL     OW32935   5.446   3.937   0.477
10679SOL    HW132936   5.435   4.019   0.421
10679SOL    HW232937   5.359   3.887   0.481
10680SOL     OW32938   4.439   1.382   5.258
10680SOL    HW132939   4.427   1.434   5.174
10680SOL    HW232940   4.523   1.412   5.305
10681SOL     OW32941   2.991   3.423   5.294
10681SOL    HW132942   2.939   3.504   5.321
10681SOL    HW232943   2.943   3.375   5.221
10682SOL     OW32944   4.832   3.344   6.103
10682SOL    HW132945   4.741   3.341   6.062
10682SOL    HW232946   4.893   3.283   6.053
10683SOL     OW32947   2.010   0.737   3.286
10683SOL    HW132948   1.925   0.691   3.261
10683SOL    HW232949   2.020   0.820   3.231
10684SOL     OW32950   4.714   4.299   1.256
10684SOL    HW132951   4.717   4.320   1.354
10684SOL    HW232952   4.780   4.357   1.208
10685SOL     OW32953   0.835   0.463   2.716
10685SOL    HW132954   0.869   0.384   2.766
10685SOL    HW232955   0.863   0.457   2.620
10686SOL     OW32956   3.042   1.300   6.708
10686SOL    HW132957   3.139   1.312   6.689
10686SOL    HW232958   2.993   1.284   6.622
10687SOL     OW32959   0.346   2.700   3.223
10687SOL    HW132960   0.258   2.688   3.177
10687SOL    HW232961   0.380   2.611   3.254
10688SOL     OW32962   5.192   0.934   3.597
10688SOL    HW132963   5.174   0.950   3.694
10688SOL    HW232964   5.133   0.993   3.542
10689SOL     OW32965   1.609   1.456   2.857
10689SOL    HW132966   1.621   1.452   2.956
10689SOL    HW232967   1.571   1.369   2.825
10690SOL     OW32968   0.710   6.767   4.577
10690SOL    HW132969   0.739   6.822   4.499
10690SOL    HW232970   0.725   6.818   4.662
10691SOL     OW32971   3.426   6.647   1.641
10691SOL    HW132972   3.457   6.630   1.547
10691SOL    HW232973   3.340   6.599   1.657
10692SOL     OW32974   2.654   2.201   4.312
10692SOL    HW132975   2.580   2.268   4.313
10692SOL    HW232976   2.720   2.225   4.240
10693SOL     OW32977   1.210   4.037   0.410
10693SOL    HW132978   1.293   4.089   0.391
10693SOL    HW232979   1.130   4.092   0.387
10694SOL     OW32980   5.537   2.013   5.454
10694SOL    HW132981   5.501   2.106   5.454
10694SOL    HW232982   5.570   1.990   5.545
10695SOL     OW32983   5.026   4.595   1.276
10695SOL    HW132984   5.060   4.671   1.332
10695SOL    HW232985   5.039   4.509   1.326
10696SOL     OW32986   6.459   4.731   4.049
10696SOL    HW132987   6.481   4.653   4.108
10696SOL    HW232988   6.505   4.721   3.962
10697SOL     OW32989   2.617   4.965   4.547
10697SOL    HW132990   2.690   4.923   4.494
10697SOL    HW232991   2.647   5.054   4.582
10698SOL     OW32992   3.908   4.578   0.089
10698SOL    HW132993   3.992   4.597   0.038
10698SOL    HW232994   3.870   4.664   0.124
10699SOL     OW32995   3.868   4.006   1.318
10699SOL    HW132996   3.791   3.944   1.308
10699SOL    HW232997   3.949   3.954   1.345
10700SOL     OW32998   5.008   0.401   1.215
10700SOL    HW132999   5.088   0.461   1.206
10700SOL    HW233000   4.994   0.351   1.129
10701SOL     OW33001   3.194   6.510   6.047
10701SOL    HW133002   3.128   6.530   5.974
10701SOL    HW233003   3.272   6.460   6.010
10702SOL     OW33004   5.393   2.823   2.326
10702SOL    HW133005   5.437   2.734   2.337
10702SOL    HW233006   5.320   2.817   2.258
10703SOL     OW33007   0.762   1.776   5.505
10703SOL    HW133008   0.786   1.767   5.601
10703SOL    HW233009   0.726   1.688   5.471
10704SOL     OW33010   5.541   6.907   1.952
10704SOL    HW133011   5.454   6.869   1.985
10704SOL    HW233012   5.524   6.964   1.872
10705SOL     OW33013   4.773   3.268   1.446
10705SOL    HW133014   4.718   3.196   1.404
10705SOL    HW233015   4.762   3.353   1.394
10706SOL     OW33016   2.937   0.818   1.917
10706SOL    HW133017   2.948   0.823   2.017
10706SOL    HW233018   2.874   0.890   1.887
10707SOL     OW33019   4.252   6.633   3.324
10707SOL    HW133020   4.199   6.552   3.298
10707SOL    HW233021   4.254   6.641   3.424
10708SOL     OW33022   3.887   0.772   1.029
10708SOL    HW133023   3.934   0.684   1.026
10708SOL    HW233024   3.828   0.781   0.949
10709SOL     OW33025   5.926   4.185   2.632
10709SOL    HW133026   5.977   4.126   2.694
10709SOL    HW233027   5.866   4.245   2.685
10710SOL     OW33028   4.519   1.668   3.167
10710SOL    HW133029   4.525   1.714   3.079
10710SOL    HW233030   4.586   1.707   3.230
10711SOL     OW33031   2.796   6.672   3.213
10711SOL    HW133032   2.826   6.608   3.143
10711SOL    HW233033   2.876   6.706   3.263
10712SOL     OW33034   5.468   0.799   3.614
10712SOL    HW133035   5.550   0.821   3.560
10712SOL    HW233036   5.389   0.845   3.574
10713SOL     OW33037   1.333   3.604   1.143
10713SOL    HW133038   1.365   3.523   1.191
10713SOL    HW233039   1.298   3.671   1.209
10714SOL     OW33040   3.313   4.231   5.198
10714SOL    HW133041   3.228   4.282   5.211
10714SOL    HW233042   3.390   4.287   5.227
10715SOL     OW33043   5.812   1.030   2.030
10715SOL    HW133044   5.749   0.954   2.018
10715SOL    HW233045   5.904   0.995   2.050
10716SOL     OW33046   5.107   1.073   3.153
10716SOL    HW133047   5.055   1.050   3.236
10716SOL    HW233048   5.139   1.167   3.159
10717SOL     OW33049   3.445   2.428   0.747
10717SOL    HW133050   3.395   2.483   0.680
10717SOL    HW233051   3.393   2.345   0.767
10718SOL     OW33052   1.604   5.234   6.534
10718SOL    HW133053   1.571   5.229   6.440
10718SOL    HW233054   1.588   5.147   6.580
10719SOL     OW33055   0.361   5.191   5.217
10719SOL    HW133056   0.398   5.256   5.283
10719SOL    HW233057   0.357   5.100   5.259
10720SOL     OW33058   0.088   5.619   2.780
10720SOL    HW133059   0.145   5.555   2.833
10720SOL    HW233060   0.117   5.713   2.798
10721SOL     OW33061   4.940   2.324   5.743
10721SOL    HW133062   4.897   2.248   5.792
10721SOL    HW233063   5.028   2.295   5.707
10722SOL     OW33064   0.513   3.724   5.252
10722SOL    HW133065   0.482   3.659   5.182
10722SOL    HW233066   0.452   3.803   5.253
10723SOL     OW33067   6.081   6.499   0.489
10723SOL    HW133068   6.036   6.567   0.547
10723SOL    HW233069   6.013   6.435   0.454
10724SOL     OW33070   0.163   5.932   5.880
10724SOL    HW133071   0.233   5.994   5.916
10724SOL    HW233072   0.197   5.888   5.797
10725SOL     OW33073   2.315   6.536   6.163
10725SOL    HW133074   2.333   6.554   6.260
10725SOL    HW233075   2.334   6.439   6.143
10726SOL     OW33076   4.222   0.591   4.205
10726SOL    HW133077   4.236   0.672   4.148
10726SOL    HW233078   4.272   0.514   4.166
10727SOL     OW33079   2.387   6.517   6.919
10727SOL    HW133080   2.339   6.597   6.956
10727SOL    HW233081   2.357   6.435   6.968
10728SOL     OW33082   5.350   6.354   1.260
10728SOL    HW133083   5.443   6.322   1.247
10728SOL    HW233084   5.298   6.286   1.312
10729SOL     OW33085   6.466   2.124   0.515
10729SOL    HW133086   6.476   2.032   0.478
10729SOL    HW233087   6.431   2.119   0.609
10730SOL     OW33088   4.935   0.536   2.994
10730SOL    HW133089   4.841   0.513   2.969
10730SOL    HW233090   4.943   0.635   3.007
10731SOL     OW33091   3.349   6.966   1.079
10731SOL    HW133092   3.313   6.913   1.003
10731SOL    HW233093   3.326   0.043   1.066
10732SOL     OW33094   0.926   3.233   6.162
10732SOL    HW133095   0.866   3.237   6.242
10732SOL    HW233096   0.984   3.152   6.168
10733SOL     OW33097   5.654   0.404   0.164
10733SOL    HW133098   5.736   0.461   0.169
10733SOL    HW233099   5.582   0.453   0.115
10734SOL     OW33100   6.033   3.045   2.126
10734SOL    HW133101   6.035   3.111   2.051
10734SOL    HW233102   6.027   2.952   2.089
10735SOL     OW33103   0.612   5.928   3.015
10735SOL    HW133104   0.710   5.923   2.996
10735SOL    HW233105   0.562   5.872   2.948
10736SOL     OW33106   2.203   1.514   4.867
10736SOL    HW133107   2.295   1.549   4.884
10736SOL    HW233108   2.156   1.574   4.801
10737SOL     OW33109   6.335   2.054   6.894
10737SOL    HW133110   6.423   2.093   6.870
10737SOL    HW233111   6.339   2.016   6.987
10738SOL     OW33112   4.003   0.111   3.969
10738SOL    HW133113   3.928   0.062   4.012
10738SOL    HW233114   3.967   0.175   3.901
10739SOL     OW33115   2.380   1.994   2.183
10739SOL    HW133116   2.339   2.083   2.204
10739SOL    HW233117   2.312   1.922   2.197
10740SOL     OW33118   4.683   6.083   3.371
10740SOL    HW133119   4.743   6.061   3.448
10740SOL    HW233120   4.733   6.070   3.286
10741SOL     OW33121   2.645   0.528   3.190
10741SOL    HW133122   2.730   0.574   3.166
10741SOL    HW233123   2.572   0.559   3.129
10742SOL     OW33124   6.885   5.528   0.442
10742SOL    HW133125   6.982   5.544   0.462
10742SOL    HW233126   6.869   5.430   0.431
10743SOL     OW33127   2.721   1.733   4.997
10743SOL    HW133128   2.749   1.734   4.900
10743SOL    HW233129   2.737   1.823   5.037
10744SOL     OW33130   6.040   1.488   0.142
10744SOL    HW133131   6.061   1.547   0.221
10744SOL    HW233132   6.084   1.527   0.061
10745SOL     OW33133   0.494   5.730   6.130
10745SOL    HW133134   0.512   5.802   6.197
10745SOL    HW233135   0.403   5.743   6.090
10746SOL     OW33136   2.031   4.546   5.700
10746SOL    HW133137   1.944   4.583   5.669
10746SOL    HW233138   2.100   4.559   5.628
10747SOL     OW33139   3.233   2.110   4.561
10747SOL    HW133140   3.162   2.154   4.618
10747SOL    HW233141   3.244   2.015   4.590
10748SOL     OW33142   5.560   1.351   2.649
10748SOL    HW133143   5.559   1.398   2.737
10748SOL    HW233144   5.499   1.397   2.586
10749SOL     OW33145   3.175   6.616   0.339
10749SOL    HW133146   3.076   6.620   0.355
10749SOL    HW233147   3.224   6.638   0.423
10750SOL     OW33148   4.385   6.667   5.752
10750SOL    HW133149   4.396   6.597   5.822
10750SOL    HW233150   4.314   6.731   5.780
10751SOL     OW33151   2.568   5.264   3.398
10751SOL    HW133152   2.598   5.174   3.428
10751SOL    HW233153   2.532   5.258   3.305
10752SOL     OW33154   5.158   4.980   3.866
10752SOL    HW133155   5.120   4.921   3.937
10752SOL    HW233156   5.200   5.060   3.908
10753SOL     OW33157   5.923   4.103   4.324
10753SOL    HW133158   5.842   4.045   4.330
10753SOL    HW233159   5.978   4.093   4.407
10754SOL     OW33160   1.376   6.906   2.910
10754SOL    HW133161   1.362   6.956   2.825
10754SOL    HW233162   1.466   6.862   2.909
10755SOL     OW33163   6.159   5.408   1.437
10755SOL    HW133164   6.210   5.425   1.521
10755SOL    HW233165   6.222   5.372   1.367
10756SOL     OW33166   0.811   0.549   5.144
10756SOL    HW133167   0.852   0.498   5.220
10756SOL    HW233168   0.781   0.639   5.176
10757SOL     OW33169   3.153   3.243   1.575
10757SOL    HW133170   3.238   3.269   1.530
10757SOL    HW233171   3.097   3.325   1.589
10758SOL     OW33172   0.223   5.132   3.965
10758SOL    HW133173   0.160   5.081   3.907
10758SOL    HW233174   0.256   5.073   4.039
10759SOL     OW33175   6.935   0.937   6.871
10759SOL    HW133176   6.928   0.837   6.873
10759SOL    HW233177   6.888   0.975   6.951
10760SOL     OW33178   5.832   1.644   4.631
10760SOL    HW133179   5.839   1.644   4.730
10760SOL    HW233180   5.903   1.585   4.593
10761SOL     OW33181   2.871   4.840   5.761
10761SOL    HW133182   2.800   4.904   5.789
10761SOL    HW233183   2.937   4.827   5.835
10762SOL     OW33184   3.249   1.542   6.325
10762SOL    HW133185   3.231   1.640   6.337
10762SOL    HW233186   3.300   1.528   6.240
10763SOL     OW33187   4.704   5.932   4.101
10763SOL    HW133188   4.604   5.926   4.111
10763SOL    HW233189   4.729   6.023   4.070
10764SOL     OW33190   4.411   0.142   4.847
10764SOL    HW133191   4.409   0.152   4.748
10764SOL    HW233192   4.494   0.092   4.873
10765SOL     OW33193   6.774   3.684   6.923
10765SOL    HW133194   6.860   3.734   6.924
10765SOL    HW233195   6.705   3.735   6.975
10766SOL     OW33196   3.411   3.443   1.730
10766SOL    HW133197   3.436   3.452   1.633
10766SOL    HW233198   3.494   3.438   1.785
10767SOL     OW33199   4.354   1.904   2.550
10767SOL    HW133200   4.264   1.938   2.524
10767SOL    HW233201   4.424   1.947   2.493
10768SOL     OW33202   5.996   4.812   5.997
10768SOL    HW133203   6.012   4.906   6.028
10768SOL    HW233204   5.982   4.753   6.076
10769SOL     OW33205   1.815   3.822   5.204
10769SOL    HW133206   1.912   3.816   5.180
10769SOL    HW233207   1.765   3.746   5.161
10770SOL     OW33208   4.247   5.461   4.124
10770SOL    HW133209   4.267   5.430   4.031
10770SOL    HW233210   4.150   5.482   4.132
10771SOL     OW33211   2.313   1.748   4.290
10771SOL    HW133212   2.403   1.778   4.258
10771SOL    HW233213   2.246   1.819   4.269
10772SOL     OW33214   5.459   5.859   3.805
10772SOL    HW133215   5.379   5.807   3.773
10772SOL    HW233216   5.431   5.951   3.831
10773SOL     OW33217   5.578   5.018   2.851
10773SOL    HW133218   5.648   5.088   2.864
10773SOL    HW233219   5.621   4.932   2.824
10774SOL     OW33220   0.171   6.659   3.363
10774SOL    HW133221   0.129   6.638   3.274
10774SOL    HW233222   0.270   6.666   3.352
10775SOL     OW33223   0.281   3.584   1.156
10775SOL    HW133224   0.327   3.505   1.117
10775SOL    HW233225   0.295   3.586   1.255
10776SOL     OW33226   1.266   0.328   5.779
10776SOL    HW133227   1.303   0.248   5.732
10776SOL    HW233228   1.312   0.340   5.867
10777SOL     OW33229   2.442   5.520   1.608
10777SOL    HW133230   2.402   5.441   1.653
10777SOL    HW233231   2.480   5.582   1.677
10778SOL     OW33232   6.071   5.867   2.128
10778SOL    HW133233   6.150   5.810   2.108
10778SOL    HW233234   5.987   5.816   2.110
10779SOL     OW33235   4.882   3.015   3.508
10779SOL    HW133236   4.960   3.051   3.455
10779SOL    HW233237   4.833   2.948   3.453
10780SOL     OW33238   6.861   0.463   1.973
10780SOL    HW133239   6.923   0.540   1.955
10780SOL    HW233240   6.889   0.385   1.917
10781SOL     OW33241   3.290   0.040   4.535
10781SOL    HW133242   3.381   0.023   4.496
10781SOL    HW233243   3.299   0.063   4.632
10782SOL     OW33244   6.483   5.284   3.443
10782SOL    HW133245   6.470   5.356   3.511
10782SOL    HW233246   6.491   5.195   3.489
10783SOL     OW33247   6.693   2.707   3.086
10783SOL    HW133248   6.611   2.763   3.074
10783SOL    HW233249   6.681   2.620   3.038
10784SOL     OW33250   2.380   1.784   4.759
10784SOL    HW133251   2.427   1.727   4.827
10784SOL    HW233252   2.309   1.838   4.804
10785SOL     OW33253   0.929   2.777   6.318
10785SOL    HW133254   1.006   2.831   6.352
10785SOL    HW233255   0.851   2.838   6.301
10786SOL     OW33256   6.464   3.812   4.135
10786SOL    HW133257   6.512   3.740   4.086
10786SOL    HW233258   6.511   3.899   4.121
10787SOL     OW33259   2.333   2.032   6.419
10787SOL    HW133260   2.396   2.102   6.386
10787SOL    HW233261   2.262   2.074   6.475
10788SOL     OW33262   5.832   3.458   6.192
10788SOL    HW133263   5.797   3.475   6.100
10788SOL    HW233264   5.870   3.366   6.197
10789SOL     OW33265   4.891   1.313   0.161
10789SOL    HW133266   4.942   1.385   0.114
10789SOL    HW233267   4.930   1.224   0.138
10790SOL     OW33268   5.828   6.133   2.921
10790SOL    HW133269   5.843   6.114   2.824
10790SOL    HW233270   5.735   6.166   2.934
10791SOL     OW33271   1.029   6.528   2.589
10791SOL    HW133272   0.949   6.542   2.648
10791SOL    HW233273   0.999   6.521   2.494
10792SOL     OW33274   3.918   4.817   6.159
10792SOL    HW133275   3.986   4.750   6.190
10792SOL    HW233276   3.885   4.869   6.237
10793SOL     OW33277   5.712   3.897   4.366
10793SOL    HW133278   5.688   3.890   4.269
10793SOL    HW233279   5.737   3.807   4.401
10794SOL     OW33280   3.192   3.524   4.482
10794SOL    HW133281   3.102   3.556   4.511
10794SOL    HW233282   3.202   3.538   4.383
10795SOL     OW33283   0.264   5.287   2.718
10795SOL    HW133284   0.221   5.314   2.632
10795SOL    HW233285   0.264   5.188   2.726
10796SOL     OW33286   0.877   6.485   5.683
10796SOL    HW133287   0.836   6.418   5.621
10796SOL    HW233288   0.836   6.476   5.774
10797SOL     OW33289   3.820   2.906   0.119
10797SOL    HW133290   3.822   2.901   0.219
10797SOL    HW233291   3.761   2.834   0.083
10798SOL     OW33292   5.997   1.280   0.981
10798SOL    HW133293   6.088   1.291   1.020
10798SOL    HW233294   5.939   1.231   1.046
10799SOL     OW33295   5.077   1.753   0.928
10799SOL    HW133296   5.152   1.770   0.864
10799SOL    HW233297   5.034   1.665   0.907
10800SOL     OW33298   6.777   0.255   0.955
10800SOL    HW133299   6.821   0.206   1.031
10800SOL    HW233300   6.687   0.216   0.937
10801SOL     OW33301   2.054   0.586   1.574
10801SOL    HW133302   2.028   0.648   1.500
10801SOL    HW233303   1.986   0.513   1.582
10802SOL     OW33304   5.572   1.488   3.810
10802SOL    HW133305   5.521   1.564   3.769
10802SOL    HW233306   5.611   1.518   3.898
10803SOL     OW33307   2.386   5.161   5.442
10803SOL    HW133308   2.476   5.139   5.479
10803SOL    HW233309   2.335   5.077   5.427
10804SOL     OW33310   6.315   3.453   4.222
10804SOL    HW133311   6.306   3.494   4.313
10804SOL    HW233312   6.411   3.455   4.194
10805SOL     OW33313   6.597   0.246   6.631
10805SOL    HW133314   6.639   0.259   6.541
10805SOL    HW233315   6.638   0.310   6.696
10806SOL     OW33316   1.540   5.891   0.492
10806SOL    HW133317   1.520   5.829   0.416
10806SOL    HW233318   1.521   5.845   0.579
10807SOL     OW33319   3.385   5.352   4.513
10807SOL    HW133320   3.389   5.318   4.607
10807SOL    HW233321   3.321   5.297   4.460
10808SOL     OW33322   1.365   3.162   6.560
10808SOL    HW133323   1.370   3.188   6.656
10808SOL    HW233324   1.457   3.143   6.525
10809SOL     OW33325   1.574   0.258   4.731
10809SOL    HW133326   1.642   0.203   4.683
10809SOL    HW233327   1.596   0.262   4.828
10810SOL     OW33328   6.056   0.700   4.178
10810SOL    HW133329   6.138   0.735   4.132
10810SOL    HW233330   6.080   0.621   4.235
10811SOL     OW33331   5.546   6.149   4.895
10811SOL    HW133332   5.632   6.192   4.923
10811SOL    HW233333   5.554   6.116   4.801
10812SOL     OW33334   0.254   2.958   0.556
10812SOL    HW133335   0.198   2.947   0.638
10812SOL    HW233336   0.217   3.032   0.500
10813SOL     OW33337   1.194   3.824   0.043
10813SOL    HW133338   1.097   3.805   0.056
10813SOL    HW233339   1.244   3.796   0.125
10814SOL     OW33340   3.069   2.025   1.403
10814SOL    HW133341   3.100   1.960   1.472
10814SOL    HW233342   2.995   1.983   1.349
10815SOL     OW33343   4.924   0.810   4.351
10815SOL    HW133344   4.872   0.878   4.299
10815SOL    HW233345   5.013   0.847   4.377
10816SOL     OW33346   3.275   3.277   5.282
10816SOL    HW133347   3.188   3.231   5.259
10816SOL    HW233348   3.351   3.221   5.249
10817SOL     OW33349   1.315   5.947   4.233
10817SOL    HW133350   1.333   6.012   4.160
10817SOL    HW233351   1.346   5.985   4.321
10818SOL     OW33352   4.222   3.981   0.198
10818SOL    HW133353   4.242   3.945   0.289
10818SOL    HW233354   4.252   3.915   0.129
10819SOL     OW33355   6.082   5.969   5.351
10819SOL    HW133356   6.161   5.979   5.412
10819SOL    HW233357   6.065   5.871   5.334
10820SOL     OW33358   2.037   4.811   6.152
10820SOL    HW133359   2.024   4.895   6.098
10820SOL    HW233360   2.071   4.739   6.092
10821SOL     OW33361   4.283   5.351   3.866
10821SOL    HW133362   4.219   5.277   3.885
10821SOL    HW233363   4.253   5.400   3.784
10822SOL     OW33364   5.936   0.911   2.326
10822SOL    HW133365   6.019   0.868   2.361
10822SOL    HW233366   5.922   0.999   2.371
10823SOL     OW33367   5.552   6.571   2.474
10823SOL    HW133368   5.494   6.571   2.393
10823SOL    HW233369   5.575   6.665   2.498
10824SOL     OW33370   1.017   2.991   2.860
10824SOL    HW133371   0.917   2.986   2.865
10824SOL    HW233372   1.048   3.073   2.908
10825SOL     OW33373   6.968   1.697   0.667
10825SOL    HW133374   7.015   1.738   0.745
10825SOL    HW233375   0.014   1.683   0.592
10826SOL     OW33376   6.561   3.213   2.472
10826SOL    HW133377   6.611   3.179   2.393
10826SOL    HW233378   6.493   3.279   2.442
10827SOL     OW33379   6.881   3.372   4.246
10827SOL    HW133380   6.795   3.327   4.222
10827SOL    HW233381   6.928   3.400   4.162
10828SOL     OW33382   0.154   4.088   4.880
10828SOL    HW133383   0.180   4.119   4.789
10828SOL    HW233384   0.235   4.084   4.939
10829SOL     OW33385   3.748   3.226   5.501
10829SOL    HW133386   3.815   3.154   5.482
10829SOL    HW233387   3.659   3.184   5.520
10830SOL     OW33388   5.532   2.043   3.519
10830SOL    HW133389   5.612   2.084   3.476
10830SOL    HW233390   5.452   2.057   3.461
10831SOL     OW33391   4.324   6.696   3.797
10831SOL    HW133392   4.272   6.716   3.714
10831SOL    HW233393   4.288   6.614   3.840
10832SOL     OW33394   6.693   2.679   6.784
10832SOL    HW133395   6.617   2.682   6.718
10832SOL    HW233396   6.715   2.584   6.805
10833SOL     OW33397   0.573   1.567   6.721
10833SOL    HW133398   0.658   1.523   6.751
10833SOL    HW233399   0.495   1.520   6.761
10834SOL     OW33400   6.280   6.091   1.579
10834SOL    HW133401   6.348   6.022   1.602
10834SOL    HW233402   6.301   6.129   1.489
10835SOL     OW33403   6.727   2.317   5.332
10835SOL    HW133404   6.776   2.234   5.305
10835SOL    HW233405   6.754   2.393   5.273
10836SOL     OW33406   0.059   1.601   3.426
10836SOL    HW133407   0.070   1.685   3.372
10836SOL    HW233408   6.985   1.569   3.418
10837SOL     OW33409   6.921   3.405   3.968
10837SOL    HW133410   6.948   3.310   3.949
10837SOL    HW233411   6.941   3.462   3.888
10838SOL     OW33412   0.170   6.326   2.769
10838SOL    HW133413   0.171   6.416   2.726
10838SOL    HW233414   0.220   6.329   2.855
10839SOL     OW33415   4.499   2.347   0.265
10839SOL    HW133416   4.457   2.416   0.324
10839SOL    HW233417   4.439   2.327   0.188
10840SOL     OW33418   2.721   0.643   2.258
10840SOL    HW133419   2.719   0.588   2.174
10840SOL    HW233420   2.676   0.593   2.332
10841SOL     OW33421   2.346   5.258   5.155
10841SOL    HW133422   2.409   5.259   5.233
10841SOL    HW233423   2.270   5.197   5.175
10842SOL     OW33424   6.711   4.634   1.376
10842SOL    HW133425   6.785   4.641   1.443
10842SOL    HW233426   6.695   4.538   1.353
10843SOL     OW33427   2.561   1.397   1.841
10843SOL    HW133428   2.616   1.335   1.786
10843SOL    HW233429   2.580   1.491   1.815
10844SOL     OW33430   2.265   5.576   4.670
10844SOL    HW133431   2.240   5.604   4.577
10844SOL    HW233432   2.183   5.547   4.719
10845SOL     OW33433   4.633   0.754   4.406
10845SOL    HW133434   4.620   0.719   4.498
10845SOL    HW233435   4.628   0.678   4.341
10846SOL     OW33436   5.884   6.805   5.889
10846SOL    HW133437   5.798   6.774   5.929
10846SOL    HW233438   5.865   6.871   5.816
10847SOL     OW33439   2.875   0.029   6.987
10847SOL    HW133440   2.883   0.128   6.992
10847SOL    HW233441   2.884   7.019   6.892
10848SOL     OW33442   1.769   3.324   1.879
10848SOL    HW133443   1.801   3.389   1.949
10848SOL    HW233444   1.701   3.369   1.821
10849SOL     OW33445   1.764   6.648   3.642
10849SOL    HW133446   1.707   6.595   3.579
10849SOL    HW233447   1.849   6.599   3.660
10850SOL     OW33448   4.801   4.290   0.489
10850SOL    HW133449   4.855   4.206   0.488
10850SOL    HW233450   4.811   4.334   0.578
10851SOL     OW33451   1.498   4.840   0.811
10851SOL    HW133452   1.563   4.825   0.885
10851SOL    HW233453   1.454   4.929   0.823
10852SOL     OW33454   2.886   1.503   2.117
10852SOL    HW133455   2.967   1.490   2.059
10852SOL    HW233456   2.827   1.423   2.110
10853SOL     OW33457   3.477   1.054   6.556
10853SOL    HW133458   3.480   1.130   6.620
10853SOL    HW233459   3.505   0.970   6.602
10854SOL     OW33460   3.220   5.872   6.195
10854SOL    HW133461   3.223   5.853   6.097
10854SOL    HW233462   3.287   5.943   6.217
10855SOL     OW33463   4.027   1.015   6.678
10855SOL    HW133464   4.026   1.014   6.778
10855SOL    HW233465   4.062   0.928   6.644
10856SOL     OW33466   0.691   1.350   0.618
10856SOL    HW133467   0.665   1.339   0.522
10856SOL    HW233468   0.748   1.432   0.627
10857SOL     OW33469   6.865   2.720   1.762
10857SOL    HW133470   6.929   2.691   1.691
10857SOL    HW233471   6.856   2.819   1.760
10858SOL     OW33472   2.292   6.483   2.080
10858SOL    HW133473   2.209   6.513   2.129
10858SOL    HW233474   2.286   6.512   1.985
10859SOL     OW33475   1.303   4.735   3.903
10859SOL    HW133476   1.256   4.735   3.991
10859SOL    HW233477   1.236   4.748   3.830
10860SOL     OW33478   0.296   3.296   3.202
10860SOL    HW133479   0.217   3.271   3.146
10860SOL    HW233480   0.285   3.259   3.294
10861SOL     OW33481   4.193   3.208   5.303
10861SOL    HW133482   4.117   3.238   5.246
10861SOL    HW233483   4.231   3.287   5.352
10862SOL     OW33484   1.322   0.894   5.359
10862SOL    HW133485   1.282   0.983   5.380
10862SOL    HW233486   1.250   0.832   5.329
10863SOL     OW33487   2.243   6.386   4.058
10863SOL    HW133488   2.291   6.465   4.095
10863SOL    HW233489   2.237   6.315   4.128
10864SOL     OW33490   3.568   6.970   3.300
10864SOL    HW133491   3.660   6.944   3.271
10864SOL    HW233492   3.573   7.010   3.391
10865SOL     OW33493   6.597   1.022   6.462
10865SOL    HW133494   6.631   0.946   6.406
10865SOL    HW233495   6.520   1.066   6.416
10866SOL     OW33496   5.675   4.909   6.533
10866SOL    HW133497   5.616   4.962   6.594
10866SOL    HW233498   5.770   4.937   6.544
10867SOL     OW33499   2.711   1.724   7.019
10867SOL    HW133500   2.798   1.680   0.020
10867SOL    HW233501   2.637   1.657   0.004
10868SOL     OW33502   1.700   2.425   3.167
10868SOL    HW133503   1.746   2.341   3.137
10868SOL    HW233504   1.608   2.403   3.199
10869NA      NA33505   6.348   2.058   5.331
10870NA      NA33506   4.362   4.592   5.253
10871NA      NA33507   2.266   3.339   1.707
10872NA      NA33508   4.833   3.684   5.273
10873NA      NA33509   4.047   2.449   5.337
10874NA      NA33510   3.658   4.957   1.820
10875NA      NA33511   6.824   6.305   4.836
10876NA      NA33512   3.691   3.638   5.053
10877NA      NA33513   4.717   6.405   6.130
10878NA      NA33514   2.748   0.495   5.077
10879NA      NA33515   0.541   5.131   2.700
10880NA      NA33516   2.289   0.519   2.566
10881NA      NA33517   3.624   4.461   1.301
10882NA      NA33518   3.938   3.367   2.916
   7.01991   7.01991   7.01991
