Generated by trjconv : CNT in water t= 355.00000
33518
    1C        C    1   2.841   2.765   4.745
    1C        C    2   2.896   2.715   4.865
    1C        C    3   2.840   2.769   4.981
    1C        C    4   2.852   2.776   4.260
    1C        C    5   2.900   2.721   4.381
    1C        C    6   2.845   2.771   4.501
    1C        C    7   3.008   2.634   4.623
    1C        C    8   2.894   2.717   4.622
    1C        C    9   3.075   2.599   4.743
    1C        C   10   3.009   2.630   4.864
    1C        C   11   3.179   2.485   4.979
    1C        C   12   3.060   2.558   4.973
    1C        C   13   2.847   2.769   3.769
    1C        C   14   2.900   2.721   3.892
    1C        C   15   2.848   2.773   4.013
    1C        C   16   3.015   2.645   4.137
    1C        C   17   2.904   2.731   4.136
    1C        C   18   3.079   2.606   4.258
    1C        C   19   3.015   2.639   4.379
    1C        C   20   3.205   2.549   4.503
    1C        C   21   3.073   2.601   4.502
    1C        C   22   3.273   2.523   4.624
    1C        C   23   3.203   2.538   4.746
    1C        C   24   3.407   2.475   4.861
    1C        C   25   3.265   2.491   4.865
    1C        C   26   3.489   2.468   4.975
    1C        C   27   2.846   2.760   3.277
    1C        C   28   2.901   2.720   3.401
    1C        C   29   2.848   2.767   3.524
    1C        C   30   3.011   2.635   3.649
    1C        C   31   2.897   2.718   3.647
    1C        C   32   3.074   2.600   3.770
    1C        C   33   3.011   2.634   3.892
    1C        C   34   3.207   2.558   4.013
    1C        C   35   3.073   2.604   4.015
    1C        C   36   3.275   2.533   4.135
    1C        C   37   3.212   2.558   4.259
    1C        C   38   3.414   2.503   4.378
    1C        C   39   3.277   2.538   4.382
    1C        C   40   3.484   2.499   4.501
    1C        C   41   3.413   2.500   4.623
    1C        C   42   3.626   2.476   4.741
    1C        C   43   3.484   2.473   4.741
    1C        C   44   3.702   2.482   4.860
    1C        C   45   3.628   2.478   4.979
    1C        C   46   2.835   2.747   2.791
    1C        C   47   2.893   2.707   2.913
    1C        C   48   2.842   2.759   3.034
    1C        C   49   3.013   2.629   3.160
    1C        C   50   2.898   2.712   3.155
    1C        C   51   3.076   2.597   3.282
    1C        C   52   3.014   2.635   3.403
    1C        C   53   3.204   2.548   3.523
    1C        C   54   3.072   2.599   3.526
    1C        C   55   3.273   2.529   3.645
    1C        C   56   3.207   2.550   3.768
    1C        C   57   3.413   2.507   3.892
    1C        C   58   3.275   2.537   3.891
    1C        C   59   3.483   2.494   4.013
    1C        C   60   3.412   2.501   4.135
    1C        C   61   3.627   2.499   4.256
    1C        C   62   3.485   2.499   4.256
    1C        C   63   3.697   2.509   4.378
    1C        C   64   3.625   2.504   4.500
    1C        C   65   3.831   2.545   4.620
    1C        C   66   3.697   2.501   4.621
    1C        C   67   3.899   2.563   4.742
    1C        C   68   3.839   2.516   4.861
    1C        C   69   4.047   2.579   4.973
    1C        C   70   3.919   2.523   4.975
    1C        C   71   2.818   2.729   2.306
    1C        C   72   2.878   2.687   2.427
    1C        C   73   2.826   2.740   2.547
    1C        C   74   3.005   2.623   2.670
    1C        C   75   2.887   2.702   2.668
    1C        C   76   3.068   2.589   2.792
    1C        C   77   3.009   2.626   2.914
    1C        C   78   3.203   2.539   3.035
    1C        C   79   3.074   2.598   3.036
    1C        C   80   3.271   2.517   3.156
    1C        C   81   3.205   2.539   3.279
    1C        C   82   3.411   2.500   3.400
    1C        C   83   3.271   2.521   3.402
    1C        C   84   3.481   2.496   3.523
    1C        C   85   3.412   2.505   3.646
    1C        C   86   3.623   2.502   3.767
    1C        C   87   3.482   2.499   3.769
    1C        C   88   3.693   2.516   3.889
    1C        C   89   3.625   2.502   4.012
    1C        C   90   3.833   2.542   4.130
    1C        C   91   3.697   2.506   4.134
    1C        C   92   3.899   2.565   4.253
    1C        C   93   3.835   2.539   4.376
    1C        C   94   4.024   2.636   4.496
    1C        C   95   3.900   2.568   4.498
    1C        C   96   4.085   2.671   4.618
    1C        C   97   4.026   2.627   4.738
    1C        C   98   4.188   2.761   4.860
    1C        C   99   4.095   2.652   4.860
    1C        C  100   4.207   2.839   4.975
    1C        C  101   2.818   2.730   2.067
    1C        C  102   2.989   2.594   2.185
    1C        C  103   2.873   2.678   2.185
    1C        C  104   3.061   2.575   2.307
    1C        C  105   2.999   2.614   2.428
    1C        C  106   3.195   2.530   2.547
    1C        C  107   3.064   2.582   2.549
    1C        C  108   3.265   2.515   2.670
    1C        C  109   3.197   2.532   2.793
    1C        C  110   3.410   2.497   2.912
    1C        C  111   3.270   2.514   2.913
    1C        C  112   3.481   2.496   3.034
    1C        C  113   3.412   2.502   3.157
    1C        C  114   3.624   2.500   3.276
    1C        C  115   3.483   2.493   3.279
    1C        C  116   3.692   2.507   3.400
    1C        C  117   3.622   2.498   3.522
    1C        C  118   3.831   2.538   3.643
    1C        C  119   3.693   2.504   3.644
    1C        C  120   3.899   2.566   3.764
    1C        C  121   3.830   2.548   3.886
    1C        C  122   4.022   2.639   4.008
    1C        C  123   3.898   2.570   4.008
    1C        C  124   4.081   2.672   4.132
    1C        C  125   4.024   2.632   4.254
    1C        C  126   4.193   2.765   4.375
    1C        C  127   4.085   2.673   4.374
    1C        C  128   4.245   2.815   4.496
    1C        C  129   4.194   2.761   4.616
    1C        C  130   4.320   2.932   4.738
    1C        C  131   4.241   2.814   4.739
    1C        C  132   4.348   3.003   4.857
    1C        C  133   4.285   2.954   4.972
    1C        C  134   3.165   2.461   2.081
    1C        C  135   3.031   2.501   2.085
    1C        C  136   3.254   2.472   2.189
    1C        C  137   3.190   2.517   2.306
    1C        C  138   3.402   2.483   2.425
    1C        C  139   3.262   2.500   2.427
    1C        C  140   3.475   2.486   2.546
    1C        C  141   3.405   2.497   2.668
    1C        C  142   3.620   2.500   2.789
    1C        C  143   3.479   2.497   2.788
    1C        C  144   3.692   2.505   2.910
    1C        C  145   3.622   2.498   3.033
    1C        C  146   3.832   2.541   3.154
    1C        C  147   3.695   2.506   3.154
    1C        C  148   3.898   2.564   3.277
    1C        C  149   3.829   2.542   3.398
    1C        C  150   4.022   2.629   3.518
    1C        C  151   3.896   2.565   3.521
    1C        C  152   4.084   2.665   3.640
    1C        C  153   4.022   2.634   3.763
    1C        C  154   4.192   2.762   3.885
    1C        C  155   4.077   2.680   3.885
    1C        C  156   4.244   2.808   4.009
    1C        C  157   4.192   2.760   4.131
    1C        C  158   4.336   2.917   4.250
    1C        C  159   4.248   2.807   4.252
    1C        C  160   4.367   2.982   4.372
    1C        C  161   4.328   2.929   4.497
    1C        C  162   4.433   3.115   4.615
    1C        C  163   4.369   2.990   4.618
    1C        C  164   4.459   3.187   4.734
    1C        C  165   4.424   3.122   4.854
    1C        C  166   4.503   3.323   4.969
    1C        C  167   4.467   3.189   4.969
    1C        C  168   3.471   2.429   2.072
    1C        C  169   3.395   2.457   2.186
    1C        C  170   3.614   2.468   2.303
    1C        C  171   3.472   2.463   2.304
    1C        C  172   3.688   2.490   2.422
    1C        C  173   3.616   2.493   2.543
    1C        C  174   3.823   2.547   2.662
    1C        C  175   3.687   2.509   2.665
    1C        C  176   3.890   2.564   2.786
    1C        C  177   3.828   2.541   2.910
    1C        C  178   4.027   2.623   3.028
    1C        C  179   3.897   2.566   3.031
    1C        C  180   4.088   2.659   3.150
    1C        C  181   4.025   2.625   3.272
    1C        C  182   4.194   2.749   3.394
    1C        C  183   4.084   2.660   3.396
    1C        C  184   4.240   2.805   3.515
    1C        C  185   4.192   2.756   3.638
    1C        C  186   4.337   2.910   3.760
    1C        C  187   4.244   2.804   3.761
    1C        C  188   4.379   2.969   3.881
    1C        C  189   4.338   2.913   4.004
    1C        C  190   4.440   3.099   4.123
    1C        C  191   4.376   2.973   4.127
    1C        C  192   4.463   3.167   4.245
    1C        C  193   4.433   3.107   4.369
    1C        C  194   4.499   3.310   4.487
    1C        C  195   4.461   3.175   4.490
    1C        C  196   4.515   3.387   4.604
    1C        C  197   4.503   3.322   4.729
    1C        C  198   4.552   3.534   4.847
    1C        C  199   4.526   3.394   4.850
    1C        C  200   4.590   3.622   4.953
    1C        C  201   3.611   2.426   2.067
    1C        C  202   3.825   2.506   2.178
    1C        C  203   3.687   2.468   2.181
    1C        C  204   3.893   2.546   2.296
    1C        C  205   3.824   2.527   2.418
    1C        C  206   4.017   2.624   2.540
    1C        C  207   3.889   2.564   2.538
    1C        C  208   4.080   2.659   2.662
    1C        C  209   4.017   2.625   2.784
    1C        C  210   4.198   2.741   2.903
    1C        C  211   4.082   2.661   2.904
    1C        C  212   4.251   2.789   3.025
    1C        C  213   4.200   2.746   3.149
    1C        C  214   4.336   2.906   3.270
    1C        C  215   4.251   2.793   3.272
    1C        C  216   4.373   2.969   3.391
    1C        C  217   4.335   2.910   3.513
    1C        C  218   4.434   3.096   3.637
    1C        C  219   4.375   2.968   3.636
    1C        C  220   4.459   3.165   3.758
    1C        C  221   4.439   3.097   3.880
    1C        C  222   4.500   3.302   3.999
    1C        C  223   4.466   3.165   4.001
    1C        C  224   4.505   3.375   4.120
    1C        C  225   4.496   3.305   4.242
    1C        C  226   4.514   3.518   4.363
    1C        C  227   4.512   3.377   4.362
    1C        C  228   4.519   3.595   4.481
    1C        C  229   4.529   3.528   4.605
    1C        C  230   4.498   3.741   4.723
    1C        C  231   4.538   3.604   4.724
    1C        C  232   4.494   3.818   4.841
    1C        C  233   4.547   3.755   4.954
    1C        C  234   4.012   2.613   2.060
    1C        C  235   3.893   2.542   2.061
    1C        C  236   4.082   2.645   2.177
    1C        C  237   4.017   2.615   2.299
    1C        C  238   4.200   2.733   2.415
    1C        C  239   4.081   2.655   2.419
    1C        C  240   4.256   2.778   2.537
    1C        C  241   4.196   2.739   2.659
    1C        C  242   4.343   2.894   2.779
    1C        C  243   4.252   2.787   2.780
    1C        C  244   4.384   2.953   2.901
    1C        C  245   4.344   2.895   3.024
    1C        C  246   4.440   3.086   3.143
    1C        C  247   4.376   2.959   3.145
    1C        C  248   4.463   3.156   3.264
    1C        C  249   4.434   3.096   3.388
    1C        C  250   4.491   3.296   3.510
    1C        C  251   4.456   3.159   3.513
    1C        C  252   4.500   3.368   3.631
    1C        C  253   4.494   3.302   3.756
    1C        C  254   4.518   3.513   3.875
    1C        C  255   4.512   3.372   3.877
    1C        C  256   4.511   3.584   3.997
    1C        C  257   4.511   3.516   4.121
    1C        C  258   4.489   3.730   4.236
    1C        C  259   4.511   3.590   4.241
    1C        C  260   4.472   3.801   4.357
    1C        C  261   4.488   3.733   4.480
    1C        C  262   4.424   3.937   4.600
    1C        C  263   4.474   3.806   4.600
    1C        C  264   4.398   4.009   4.719
    1C        C  265   4.432   3.945   4.840
    1C        C  266   4.323   4.130   4.957
    1C        C  267   4.392   4.009   4.958
    1C        C  268   4.257   2.777   2.056
    1C        C  269   4.195   2.730   2.173
    1C        C  270   4.347   2.883   2.293
    1C        C  271   4.254   2.775   2.292
    1C        C  272   4.388   2.944   2.414
    1C        C  273   4.347   2.886   2.535
    1C        C  274   4.446   3.077   2.657
    1C        C  275   4.385   2.949   2.656
    1C        C  276   4.471   3.147   2.777
    1C        C  277   4.445   3.080   2.899
    1C        C  278   4.497   3.287   3.022
    1C        C  279   4.468   3.149   3.020
    1C        C  280   4.508   3.361   3.141
    1C        C  281   4.501   3.292   3.265
    1C        C  282   4.503   3.505   3.386
    1C        C  283   4.505   3.364   3.386
    1C        C  284   4.504   3.578   3.507
    1C        C  285   4.510   3.509   3.630
    1C        C  286   4.485   3.720   3.751
    1C        C  287   4.513   3.582   3.751
    1C        C  288   4.467   3.791   3.872
    1C        C  289   4.482   3.723   3.995
    1C        C  290   4.423   3.931   4.111
    1C        C  291   4.468   3.797   4.114
    1C        C  292   4.397   3.997   4.233
    1C        C  293   4.430   3.936   4.356
    1C        C  294   4.322   4.122   4.478
    1C        C  295   4.393   3.999   4.477
    1C        C  296   4.282   4.184   4.598
    1C        C  297   4.324   4.130   4.722
    1C        C  298   4.194   4.309   4.836
    1C        C  299   4.282   4.196   4.841
    1C        C  300   4.164   4.396   4.945
    1C        C  301   4.352   2.879   2.057
    1C        C  302   4.472   3.064   2.173
    1C        C  303   4.398   2.941   2.174
    1C        C  304   4.483   3.137   2.294
    1C        C  305   4.450   3.071   2.415
    1C        C  306   4.500   3.281   2.532
    1C        C  307   4.471   3.142   2.535
    1C        C  308   4.506   3.355   2.652
    1C        C  309   4.501   3.285   2.775
    1C        C  310   4.520   3.494   2.895
    1C        C  311   4.516   3.353   2.898
    1C        C  312   4.507   3.569   3.015
    1C        C  313   4.511   3.502   3.140
    1C        C  314   4.477   3.711   3.261
    1C        C  315   4.506   3.573   3.262
    1C        C  316   4.462   3.782   3.382
    1C        C  317   4.480   3.717   3.506
    1C        C  318   4.420   3.921   3.625
    1C        C  319   4.464   3.787   3.628
    1C        C  320   4.392   3.988   3.746
    1C        C  321   4.422   3.925   3.869
    1C        C  322   4.320   4.115   3.988
    1C        C  323   4.396   3.996   3.989
    1C        C  324   4.277   4.169   4.111
    1C        C  325   4.325   4.118   4.234
    1C        C  326   4.183   4.279   4.350
    1C        C  327   4.282   4.178   4.355
    1C        C  328   4.133   4.332   4.471
    1C        C  329   4.189   4.290   4.594
    1C        C  330   4.021   4.431   4.710
    1C        C  331   4.135   4.346   4.712
    1C        C  332   3.968   4.494   4.825
    1C        C  333   4.047   4.474   4.939
    1C        C  334   4.553   3.264   2.059
    1C        C  335   4.534   3.125   2.060
    1C        C  336   4.537   3.347   2.171
    1C        C  337   4.511   3.277   2.291
    1C        C  338   4.517   3.492   2.407
    1C        C  339   4.516   3.351   2.411
    1C        C  340   4.517   3.564   2.529
    1C        C  341   4.519   3.496   2.652
    1C        C  342   4.484   3.705   2.770
    1C        C  343   4.510   3.567   2.774
    1C        C  344   4.468   3.777   2.891
    1C        C  345   4.485   3.708   3.013
    1C        C  346   4.420   3.910   3.136
    1C        C  347   4.465   3.776   3.136
    1C        C  348   4.389   3.978   3.256
    1C        C  349   4.421   3.917   3.379
    1C        C  350   4.316   4.102   3.501
    1C        C  351   4.390   3.982   3.501
    1C        C  352   4.276   4.166   3.620
    1C        C  353   4.315   4.106   3.742
    1C        C  354   4.173   4.264   3.865
    1C        C  355   4.270   4.161   3.864
    1C        C  356   4.121   4.317   3.985
    1C        C  357   4.178   4.271   4.106
    1C        C  358   4.012   4.404   4.228
    1C        C  359   4.128   4.324   4.227
    1C        C  360   3.950   4.440   4.349
    1C        C  361   4.018   4.413   4.470
    1C        C  362   3.824   4.513   4.592
    1C        C  363   3.954   4.457   4.588
    1C        C  364   3.759   4.548   4.712
    1C        C  365   3.836   4.543   4.831
    1C        C  366   3.623   4.585   4.948
    1C        C  367   3.761   4.574   4.946
    1C        C  368   4.514   3.560   2.049
    1C        C  369   4.530   3.488   2.168
    1C        C  370   4.500   3.704   2.283
    1C        C  371   4.518   3.564   2.286
    1C        C  372   4.481   3.773   2.404
    1C        C  373   4.490   3.703   2.527
    1C        C  374   4.421   3.906   2.646
    1C        C  375   4.469   3.773   2.647
    1C        C  376   4.387   3.971   2.767
    1C        C  377   4.416   3.908   2.890
    1C        C  378   4.315   4.092   3.011
    1C        C  379   4.390   3.972   3.013
    1C        C  380   4.270   4.152   3.131
    1C        C  381   4.312   4.097   3.254
    1C        C  382   4.173   4.255   3.376
    1C        C  383   4.270   4.152   3.377
    1C        C  384   4.118   4.305   3.496
    1C        C  385   4.171   4.262   3.619
    1C        C  386   4.007   4.392   3.740
    1C        C  387   4.121   4.309   3.742
    1C        C  388   3.946   4.433   3.861
    1C        C  389   4.007   4.400   3.983
    1C        C  390   3.815   4.486   4.103
    1C        C  391   3.945   4.431   4.106
    1C        C  392   3.750   4.508   4.227
    1C        C  393   3.818   4.492   4.350
    1C        C  394   3.614   4.549   4.472
    1C        C  395   3.754   4.525   4.471
    1C        C  396   3.542   4.559   4.593
    1C        C  397   3.618   4.559   4.711
    1C        C  398   3.407   4.544   4.839
    1C        C  399   3.546   4.565   4.833
    1C        C  400   3.340   4.497   4.953
    1C        C  401   4.495   3.698   2.047
    1C        C  402   4.442   3.911   2.163
    1C        C  403   4.490   3.778   2.163
    1C        C  404   4.408   3.975   2.284
    1C        C  405   4.434   3.906   2.404
    1C        C  406   4.327   4.095   2.520
    1C        C  407   4.398   3.972   2.523
    1C        C  408   4.279   4.150   2.640
    1C        C  409   4.316   4.093   2.764
    1C        C  410   4.177   4.249   2.888
    1C        C  411   4.279   4.151   2.887
    1C        C  412   4.118   4.294   3.008
    1C        C  413   4.168   4.250   3.132
    1C        C  414   4.000   4.379   3.251
    1C        C  415   4.116   4.298   3.254
    1C        C  416   3.939   4.414   3.373
    1C        C  417   3.998   4.379   3.497
    1C        C  418   3.810   4.477   3.614
    1C        C  419   3.939   4.420   3.619
    1C        C  420   3.743   4.499   3.737
    1C        C  421   3.812   4.478   3.859
    1C        C  422   3.608   4.532   3.982
    1C        C  423   3.747   4.506   3.981
    1C        C  424   3.540   4.539   4.105
    1C        C  425   3.611   4.534   4.227
    1C        C  426   3.402   4.539   4.353
    1C        C  427   3.542   4.549   4.350
    1C        C  428   3.331   4.536   4.475
    1C        C  429   3.401   4.551   4.597
    1C        C  430   3.192   4.516   4.720
    1C        C  431   3.332   4.539   4.719
    1C        C  432   3.121   4.492   4.841
    1C        C  433   3.201   4.490   4.956
    1C        C  434   4.383   4.121   2.047
    1C        C  435   4.442   3.994   2.051
    1C        C  436   4.297   4.158   2.156
    1C        C  437   4.327   4.092   2.278
    1C        C  438   4.184   4.253   2.398
    1C        C  439   4.282   4.151   2.398
    1C        C  440   4.128   4.298   2.520
    1C        C  441   4.181   4.252   2.643
    1C        C  442   4.008   4.374   2.762
    1C        C  443   4.126   4.296   2.765
    1C        C  444   3.943   4.410   2.882
    1C        C  445   4.003   4.377   3.006
    1C        C  446   3.811   4.469   3.126
    1C        C  447   3.942   4.415   3.128
    1C        C  448   3.744   4.493   3.248
    1C        C  449   3.812   4.476   3.370
    1C        C  450   3.604   4.524   3.494
    1C        C  451   3.743   4.500   3.491
    1C        C  452   3.535   4.537   3.616
    1C        C  453   3.606   4.531   3.739
    1C        C  454   3.395   4.543   3.859
    1C        C  455   3.536   4.545   3.861
    1C        C  456   3.329   4.535   3.984
    1C        C  457   3.399   4.536   4.107
    1C        C  458   3.194   4.497   4.233
    1C        C  459   3.331   4.528   4.231
    1C        C  460   3.125   4.485   4.356
    1C        C  461   3.193   4.506   4.479
    1C        C  462   2.993   4.430   4.601
    1C        C  463   3.123   4.486   4.600
    1C        C  464   2.925   4.402   4.721
    1C        C  465   2.988   4.439   4.843
    1C        C  466   2.795   4.338   4.954
    1C        C  467   2.904   4.426   4.958
    1C        C  468   4.126   4.288   2.038
    1C        C  469   4.188   4.251   2.158
    1C        C  470   4.007   4.373   2.275
    1C        C  471   4.130   4.301   2.277
    1C        C  472   3.943   4.403   2.397
    1C        C  473   4.009   4.373   2.519
    1C        C  474   3.814   4.460   2.638
    1C        C  475   3.946   4.409   2.640
    1C        C  476   3.746   4.483   2.759
    1C        C  477   3.812   4.463   2.882
    1C        C  478   3.605   4.518   3.005
    1C        C  479   3.743   4.486   3.003
    1C        C  480   3.533   4.521   3.126
    1C        C  481   3.604   4.516   3.248
    1C        C  482   3.394   4.521   3.372
    1C        C  483   3.535   4.527   3.371
    1C        C  484   3.324   4.518   3.496
    1C        C  485   3.394   4.538   3.617
    1C        C  486   3.186   4.494   3.742
    1C        C  487   3.321   4.534   3.738
    1C        C  488   3.127   4.470   3.868
    1C        C  489   3.193   4.498   3.990
    1C        C  490   3.001   4.410   4.110
    1C        C  491   3.124   4.480   4.112
    1C        C  492   2.943   4.377   4.235
    1C        C  493   2.998   4.423   4.357
    1C        C  494   2.826   4.299   4.480
    1C        C  495   2.937   4.386   4.478
    1C        C  496   2.768   4.255   4.601
    1C        C  497   2.811   4.317   4.720
    1C        C  498   2.656   4.166   4.840
    1C        C  499   2.747   4.274   4.839
    1C        C  500   2.586   4.120   4.952
    1C        C  501   4.001   4.350   2.038
    1C        C  502   3.813   4.459   2.151
    1C        C  503   3.943   4.404   2.153
    1C        C  504   3.743   4.474   2.273
    1C        C  505   3.810   4.450   2.395
    1C        C  506   3.605   4.506   2.517
    1C        C  507   3.742   4.470   2.517
    1C        C  508   3.533   4.514   2.639
    1C        C  509   3.606   4.506   2.759
    1C        C  510   3.395   4.515   2.883
    1C        C  511   3.537   4.518   2.882
    1C        C  512   3.322   4.514   3.004
    1C        C  513   3.392   4.522   3.127
    1C        C  514   3.186   4.481   3.252
    1C        C  515   3.323   4.518   3.250
    1C        C  516   3.120   4.459   3.375
    1C        C  517   3.186   4.488   3.496
    1C        C  518   2.994   4.407   3.622
    1C        C  519   3.119   4.472   3.620
    1C        C  520   2.939   4.368   3.746
    1C        C  521   3.002   4.404   3.868
    1C        C  522   2.832   4.278   3.992
    1C        C  523   2.940   4.368   3.990
    1C        C  524   2.782   4.235   4.117
    1C        C  525   2.833   4.288   4.237
    1C        C  526   2.690   4.133   4.360
    1C        C  527   2.778   4.244   4.359
    1C        C  528   2.645   4.078   4.483
    1C        C  529   2.682   4.143   4.602
    1C        C  530   2.577   3.959   4.726
    1C        C  531   2.633   4.090   4.724
    1C        C  532   2.539   3.902   4.850
    1C        C  533   2.525   3.994   4.958
    1C        C  534   3.613   4.548   2.035
    1C        C  535   3.748   4.510   2.038
    1C        C  536   3.535   4.533   2.154
    1C        C  537   3.604   4.505   2.275
    1C        C  538   3.392   4.515   2.394
    1C        C  539   3.533   4.516   2.396
    1C        C  540   3.322   4.505   2.517
    1C        C  541   3.392   4.510   2.640
    1C        C  542   3.184   4.480   2.762
    1C        C  543   3.322   4.511   2.763
    1C        C  544   3.119   4.455   2.884
    1C        C  545   3.185   4.481   3.006
    1C        C  546   2.993   4.396   3.129
    1C        C  547   3.120   4.460   3.129
    1C        C  548   2.934   4.360   3.253
    1C        C  549   2.991   4.401   3.375
    1C        C  550   2.828   4.276   3.503
    1C        C  551   2.934   4.369   3.500
    1C        C  552   2.782   4.223   3.626
    1C        C  553   2.830   4.277   3.747
    1C        C  554   2.696   4.116   3.871
    1C        C  555   2.778   4.231   3.870
    1C        C  556   2.658   4.061   3.996
    1C        C  557   2.694   4.125   4.117
    1C        C  558   2.592   3.941   4.242
    1C        C  559   2.654   4.068   4.240
    1C        C  560   2.562   3.877   4.364
    1C        C  561   2.587   3.949   4.483
    1C        C  562   2.524   3.750   4.611
    1C        C  563   2.555   3.888   4.606
    1C        C  564   2.513   3.682   4.734
    1C        C  565   2.515   3.761   4.853
    1C        C  566   2.529   3.546   4.972
    1C        C  567   2.526   3.685   4.970
    1C        C  568   3.323   4.465   2.039
    1C        C  569   3.396   4.503   2.152
    1C        C  570   3.182   4.469   2.276
    1C        C  571   3.321   4.502   2.273
    1C        C  572   3.114   4.450   2.399
    1C        C  573   3.184   4.475   2.519
    1C        C  574   2.987   4.398   2.643
    1C        C  575   3.114   4.461   2.640
    1C        C  576   2.929   4.356   2.764
    1C        C  577   2.991   4.394   2.885
    1C        C  578   2.824   4.268   3.010
    1C        C  579   2.930   4.360   3.008
    1C        C  580   2.774   4.219   3.133
    1C        C  581   2.826   4.269   3.255
    1C        C  582   2.696   4.110   3.381
    1C        C  583   2.780   4.224   3.381
    1C        C  584   2.660   4.052   3.505
    1C        C  585   2.694   4.112   3.628
    1C        C  586   2.591   3.928   3.752
    1C        C  587   2.660   4.051   3.751
    1C        C  588   2.567   3.866   3.877
    1C        C  589   2.601   3.931   3.998
    1C        C  590   2.533   3.734   4.125
    1C        C  591   2.571   3.870   4.122
    1C        C  592   2.513   3.668   4.248
    1C        C  593   2.526   3.740   4.369
    1C        C  594   2.503   3.533   4.492
    1C        C  595   2.512   3.674   4.493
    1C        C  596   2.510   3.465   4.615
    1C        C  597   2.516   3.540   4.735
    1C        C  598   2.532   3.326   4.857
    1C        C  599   2.526   3.467   4.855
    1C        C  600   2.532   3.249   4.973
    1C        C  601   3.188   4.436   2.039
    1C        C  602   2.979   4.386   2.157
    1C        C  603   3.112   4.438   2.157
    1C        C  604   2.922   4.350   2.282
    1C        C  605   2.989   4.385   2.401
    1C        C  606   2.818   4.263   2.523
    1C        C  607   2.924   4.357   2.523
    1C        C  608   2.765   4.217   2.646
    1C        C  609   2.816   4.271   2.766
    1C        C  610   2.682   4.108   2.892
    1C        C  611   2.771   4.218   2.889
    1C        C  612   2.647   4.050   3.016
    1C        C  613   2.689   4.107   3.138
    1C        C  614   2.585   3.924   3.262
    1C        C  615   2.653   4.048   3.262
    1C        C  616   2.565   3.862   3.387
    1C        C  617   2.595   3.926   3.509
    1C        C  618   2.527   3.725   3.637
    1C        C  619   2.564   3.862   3.631
    1C        C  620   2.511   3.659   3.760
    1C        C  621   2.524   3.732   3.880
    1C        C  622   2.508   3.522   4.005
    1C        C  623   2.517   3.663   4.004
    1C        C  624   2.511   3.453   4.129
    1C        C  625   2.505   3.526   4.249
    1C        C  626   2.536   3.319   4.375
    1C        C  627   2.512   3.458   4.372
    1C        C  628   2.554   3.252   4.499
    1C        C  629   2.533   3.325   4.618
    1C        C  630   2.598   3.118   4.742
    1C        C  631   2.553   3.253   4.738
    1C        C  632   2.618   3.046   4.863
    1C        C  633   2.560   3.111   4.976
    1C        C  634   2.781   4.297   2.049
    1C        C  635   2.890   4.385   2.045
    1C        C  636   2.740   4.225   2.163
    1C        C  637   2.806   4.267   2.281
    1C        C  638   2.677   4.101   2.407
    1C        C  639   2.764   4.212   2.403
    1C        C  640   2.640   4.042   2.530
    1C        C  641   2.681   4.104   2.650
    1C        C  642   2.581   3.918   2.776
    1C        C  643   2.643   4.045   2.772
    1C        C  644   2.560   3.851   2.898
    1C        C  645   2.589   3.921   3.017
    1C        C  646   2.522   3.722   3.148
    1C        C  647   2.557   3.859   3.140
    1C        C  648   2.512   3.651   3.270
    1C        C  649   2.531   3.724   3.389
    1C        C  650   2.506   3.516   3.517
    1C        C  651   2.519   3.657   3.513
    1C        C  652   2.508   3.450   3.642
    1C        C  653   2.499   3.518   3.765
    1C        C  654   2.520   3.306   3.889
    1C        C  655   2.498   3.446   3.887
    1C        C  656   2.536   3.239   4.012
    1C        C  657   2.524   3.312   4.132
    1C        C  658   2.587   3.110   4.257
    1C        C  659   2.545   3.245   4.255
    1C        C  660   2.632   3.052   4.377
    1C        C  661   2.604   3.120   4.498
    1C        C  662   2.707   2.935   4.623
    1C        C  663   2.633   3.056   4.621
    1C        C  664   2.744   2.869   4.742
    1C        C  665   2.696   2.926   4.863
    1C        C  666   2.744   2.869   4.982
    1C        C  667   2.679   4.017   2.052
    1C        C  668   2.681   4.097   2.166
    1C        C  669   2.583   3.906   2.289
    1C        C  670   2.640   4.036   2.287
    1C        C  671   2.548   3.845   2.412
    1C        C  672   2.578   3.915   2.531
    1C        C  673   2.508   3.717   2.657
    1C        C  674   2.551   3.851   2.654
    1C        C  675   2.501   3.647   2.780
    1C        C  676   2.520   3.715   2.902
    1C        C  677   2.506   3.509   3.029
    1C        C  678   2.512   3.650   3.027
    1C        C  679   2.511   3.439   3.152
    1C        C  680   2.506   3.510   3.273
    1C        C  681   2.530   3.302   3.401
    1C        C  682   2.508   3.442   3.397
    1C        C  683   2.550   3.237   3.525
    1C        C  684   2.534   3.311   3.644
    1C        C  685   2.600   3.109   3.771
    1C        C  686   2.548   3.241   3.766
    1C        C  687   2.636   3.051   3.894
    1C        C  688   2.596   3.111   4.016
    1C        C  689   2.707   2.932   4.136
    1C        C  690   2.617   3.041   4.137
    1C        C  691   2.755   2.878   4.258
    1C        C  692   2.713   2.936   4.380
    1C        C  693   2.755   2.879   4.503
    1C        C  694   2.622   3.889   2.053
    1C        C  695   2.523   3.699   2.173
    1C        C  696   2.573   3.831   2.170
    1C        C  697   2.503   3.634   2.297
    1C        C  698   2.511   3.709   2.416
    1C        C  699   2.484   3.500   2.542
    1C        C  700   2.492   3.642   2.539
    1C        C  701   2.499   3.432   2.665
    1C        C  702   2.501   3.505   2.786
    1C        C  703   2.522   3.295   2.910
    1C        C  704   2.505   3.435   2.908
    1C        C  705   2.549   3.231   3.033
    1C        C  706   2.529   3.299   3.155
    1C        C  707   2.594   3.100   3.278
    1C        C  708   2.546   3.233   3.279
    1C        C  709   2.632   3.041   3.400
    1C        C  710   2.601   3.105   3.522
    1C        C  711   2.709   2.930   3.646
    1C        C  712   2.629   3.046   3.648
    1C        C  713   2.757   2.877   3.768
    1C        C  714   2.718   2.936   3.890
    1C        C  715   2.755   2.879   4.014
    1C        C  716   2.441   3.492   2.060
    1C        C  717   2.479   3.627   2.061
    1C        C  718   2.463   3.417   2.180
    1C        C  719   2.482   3.493   2.299
    1C        C  720   2.515   3.287   2.422
    1C        C  721   2.487   3.425   2.423
    1C        C  722   2.535   3.220   2.545
    1C        C  723   2.520   3.293   2.666
    1C        C  724   2.594   3.095   2.787
    1C        C  725   2.539   3.225   2.788
    1C        C  726   2.627   3.033   2.910
    1C        C  727   2.598   3.098   3.032
    1C        C  728   2.700   2.916   3.157
    1C        C  729   2.624   3.035   3.156
    1C        C  730   2.748   2.862   3.278
    1C        C  731   2.712   2.924   3.400
    1C        C  732   2.754   2.873   3.524
    1C        C  733   2.491   3.196   2.069
    1C        C  734   2.482   3.276   2.184
    1C        C  735   2.585   3.083   2.302
    1C        C  736   2.523   3.210   2.304
    1C        C  737   2.615   3.020   2.425
    1C        C  738   2.581   3.087   2.545
    1C        C  739   2.699   2.909   2.667
    1C        C  740   2.623   3.028   2.666
    1C        C  741   2.741   2.853   2.790
    1C        C  742   2.699   2.911   2.911
    1C        C  743   2.742   2.859   3.035
    1C        C  744   2.539   3.066   2.071
    1C        C  745   2.682   2.892   2.181
    1C        C  746   2.602   3.009   2.183
    1C        C  747   2.721   2.833   2.303
    1C        C  748   2.684   2.897   2.423
    1C        C  749   2.731   2.844   2.545
    1C        C  750   2.731   2.839   2.061
    1C        C  751   3.661   2.319   1.977
    1C        O  752   3.644   2.194   1.983
    1C        O  753   3.655   2.360   1.844
    1C        C  754   4.639   3.057   1.979
    1C        O  755   4.616   3.032   1.858
    1C        O  756   4.769   3.035   2.025
    1C        C  757   4.455   4.227   1.972
    1C        O  758   4.554   4.285   2.022
    1C        O  759   4.466   4.208   1.834
    1C        C  760   3.577   4.649   1.933
    1C        O  761   3.545   4.764   1.974
    1C        O  762   3.605   4.654   1.796
    1C        C  763   2.883   4.496   1.948
    1C        O  764   2.882   4.482   1.822
    1C        O  765   2.852   4.623   1.997
    1C        C  766   2.355   3.456   1.945
    1C        O  767   2.406   3.416   1.837
    1C        O  768   2.215   3.462   1.945
    1C        C  769   4.696   3.584   5.050
    1C        O  770   4.663   3.557   5.168
    1C        O  771   4.830   3.606   5.015
    1C        C  772   4.261   4.420   5.054
    1C        O  773   4.234   4.397   5.175
    1C        O  774   4.395   4.453   5.033
    1C        C  775   4.137   2.513   5.071
    1C        O  776   4.218   2.432   5.019
    1C        O  777   4.127   2.513   5.210
    1C        C  778   2.888   4.533   5.059
    1C        O  779   2.832   4.644   5.035
    1C        O  780   2.961   4.522   5.178
    1C        C  781   2.478   3.029   5.069
    1C        O  782   2.374   2.977   5.022
    1C        O  783   2.473   3.041   5.207
    1C        C  784   2.397   4.005   5.032
    1C        O  785   2.299   4.069   4.987
    1C        O  786   2.402   3.972   5.168
    1C        C  787   2.937   2.407   2.019
    1C        O  788   2.917   2.420   1.895
    1C        O  789   2.921   2.276   2.063
    1C        C  790   3.181   2.366   5.068
    1C        O  791   3.146   2.254   5.022
    1C        O  792   3.218   2.364   5.203
    1C        H  793   4.288   3.002   5.068
    1C        H  794   4.129   2.850   5.047
    1C        H  795   4.502   3.128   5.050
    1C        H  796   4.502   3.378   5.061
    1C        H  797   4.584   3.813   5.037
    1C        H  798   4.377   3.948   5.045
    1C        H  799   4.292   4.170   5.052
    1C        H  800   4.040   4.552   5.011
    1C        H  801   3.810   4.629   5.023
    1C        H  802   3.589   4.665   5.012
    1C        H  803   3.393   4.495   5.045
    1C        H  804   3.160   4.440   5.041
    1C        H  805   3.891   2.476   5.068
    1C        H  806   3.681   2.476   5.072
    1C        H  807   2.987   2.526   5.043
    1C        H  808   3.442   2.461   5.070
    1C        H  809   2.848   2.722   5.077
    1C        H  810   2.671   2.854   5.060
    1C        H  811   2.489   3.288   5.063
    1C        H  812   2.490   3.490   5.055
    1C        H  813   2.557   3.735   5.059
    1C        H  814   2.544   4.195   5.016
    1C        H  815   2.759   4.303   5.049
    1C        H  816   2.715   2.893   1.970
    1C        H  817   2.862   2.700   1.975
    1C        H  818   3.209   2.482   1.985
    1C        H  819   3.420   2.410   1.980
    1C        H  820   3.857   2.507   1.966
    1C        H  821   4.065   2.597   1.968
    1C        H  822   4.263   2.716   1.969
    1C        H  823   4.360   2.931   1.964
    1C        H  824   4.543   3.312   1.964
    1C        H  825   4.549   3.517   1.958
    1C        H  826   4.471   3.745   1.954
    1C        H  827   3.815   4.548   1.964
    1C        H  828   3.944   4.325   1.952
    1C        H  829   4.171   4.264   1.944
    1C        H  830   4.486   3.960   1.960
    1C        H  831   2.646   3.825   1.970
    1C        H  832   2.712   4.054   1.957
    1C        H  833   2.706   4.311   1.975
    1C        H  834   3.379   4.413   1.963
    1C        H  835   3.138   4.405   1.950
    1C        H  836   2.508   3.001   1.992
    1C        H  837   2.439   3.218   1.978
    1C        H  838   2.490   3.675   1.967
    2V3OU   H29  839   2.807   3.548   3.699
    2V3OU   C27  840   2.791   3.495   3.796
    2V3OU   H27  841   2.729   3.562   3.860
    2V3OU   H28  842   2.735   3.399   3.780
    2V3OU   O11  843   2.914   3.466   3.863
    2V3OU   C15  844   2.928   3.398   3.983
    2V3OU   C13  845   3.054   3.372   4.040
    2V3OU   C14  846   3.080   3.265   4.127
    2V3OU   C16  847   2.978   3.185   4.176
    2V3OU    H6  848   2.991   3.097   4.241
    2V3OU   C12  849   3.216   3.220   4.164
    2V3OU    O2  850   3.239   3.119   4.233
    2V3OU   C10  851   3.327   3.308   4.126
    2V3OU    C8  852   3.458   3.270   4.152
    2V3OU   O10  853   3.486   3.146   4.198
    2V3OU   H26  854   3.401   3.106   4.222
    2V3OU    C6  855   3.564   3.349   4.098
    2V3OU    C5  856   3.536   3.462   4.022
    2V3OU    C4  857   3.701   3.291   4.086
    2V3OU    H4  858   3.726   3.223   4.173
    2V3OU    H5  859   3.706   3.230   3.991
    2V3OU    C2  860   3.811   3.397   4.093
    2V3OU    O6  861   3.799   3.469   4.216
    2V3OU   H21  862   3.758   3.552   4.189
    2V3OU    C3  863   3.781   3.497   3.981
    2V3OU    H2  864   3.865   3.572   3.980
    2V3OU    H3  865   3.781   3.447   3.881
    2V3OU   C25  866   3.945   3.325   4.081
    2V3OU    O7  867   3.994   3.287   3.975
    2V3OU   C26  868   4.025   3.286   4.205
    2V3OU   H22  869   4.059   3.382   4.251
    2V3OU   H23  870   4.117   3.230   4.175
    2V3OU    O8  871   3.963   3.202   4.300
    2V3OU   H24  872   3.919   3.261   4.363
    2V3OU    C1  873   3.645   3.562   4.002
    2V3OU    H1  874   3.621   3.617   3.906
    2V3OU    O3  875   3.655   3.649   4.115
    2V3OU   C19  876   3.615   3.785   4.092
    2V3OU    H9  877   3.519   3.792   4.034
    2V3OU    O4  878   3.707   3.841   4.001
    2V3OU   C20  879   3.840   3.870   4.043
    2V3OU   H10  880   3.900   3.776   4.059
    2V3OU   C24  881   3.606   3.851   4.230
    2V3OU   H16  882   3.540   3.792   4.299
    2V3OU   H17  883   3.564   3.953   4.211
    2V3OU   C23  884   3.749   3.874   4.278
    2V3OU   H15  885   3.786   3.769   4.302
    2V3OU    N1  886   3.740   3.955   4.398
    2V3OU   H19  887   3.804   3.928   4.470
    2V3OU   H20  888   3.645   3.948   4.428
    2V3OU   C21  889   3.848   3.942   4.178
    2V3OU   H11  890   3.956   3.925   4.206
    2V3OU    O5  891   3.825   4.081   4.166
    2V3OU   H18  892   3.795   4.103   4.256
    2V3OU   C22  893   3.912   3.948   3.934
    2V3OU   H12  894   3.857   4.044   3.915
    2V3OU   H13  895   3.906   3.894   3.836
    2V3OU   H14  896   4.021   3.953   3.958
    2V3OU   C11  897   3.161   3.473   4.029
    2V3OU    O1  898   3.131   3.592   4.006
    2V3OU    C9  899   3.299   3.423   4.048
    2V3OU    C7  900   3.401   3.502   3.996
    2V3OU    O9  901   3.377   3.619   3.927
    2V3OU   H25  902   3.281   3.626   3.942
    2V3OU   C17  903   2.828   3.314   4.036
    2V3OU    H7  904   2.731   3.351   4.004
    2V3OU   C18  905   2.850   3.214   4.130
    2V3OU    H8  906   2.789   3.172   4.211
    3SOL     OW  907   3.303   4.471   5.613
    3SOL    HW1  908   3.309   4.518   5.701
    3SOL    HW2  909   3.231   4.513   5.558
    4SOL     OW  910   0.085   6.789   0.016
    4SOL    HW1  911   0.101   6.784   0.114
    4SOL    HW2  912   7.011   6.758   7.012
    5SOL     OW  913   5.265   1.294   2.728
    5SOL    HW1  914   5.325   1.268   2.803
    5SOL    HW2  915   5.316   1.294   2.643
    6SOL     OW  916   5.354   2.101   2.901
    6SOL    HW1  917   5.454   2.104   2.906
    6SOL    HW2  918   5.324   2.005   2.894
    7SOL     OW  919   1.124   3.996   4.933
    7SOL    HW1  920   1.174   3.912   4.911
    7SOL    HW2  921   1.146   4.024   5.026
    8SOL     OW  922   2.520   2.181   5.048
    8SOL    HW1  923   2.460   2.260   5.047
    8SOL    HW2  924   2.518   2.136   4.959
    9SOL     OW  925   6.425   1.749   6.008
    9SOL    HW1  926   6.493   1.809   6.051
    9SOL    HW2  927   6.449   1.654   6.027
   10SOL     OW  928   3.537   4.889   4.193
   10SOL    HW1  929   3.514   4.838   4.276
   10SOL    HW2  930   3.453   4.909   4.142
   11SOL     OW  931   1.499   1.088   0.216
   11SOL    HW1  932   1.486   1.010   0.277
   11SOL    HW2  933   1.578   1.141   0.246
   12SOL     OW  934   2.702   4.696   3.942
   12SOL    HW1  935   2.633   4.636   3.983
   12SOL    HW2  936   2.717   4.775   4.001
   13SOL     OW  937   3.064   5.993   2.903
   13SOL    HW1  938   3.095   6.078   2.860
   13SOL    HW2  939   2.964   5.990   2.905
   14SOL     OW  940   4.272   4.791   6.147
   14SOL    HW1  941   4.285   4.742   6.233
   14SOL    HW2  942   4.194   4.753   6.098
   15SOL     OW  943   0.423   6.581   6.391
   15SOL    HW1  944   0.440   6.630   6.476
   15SOL    HW2  945   0.392   6.488   6.412
   16SOL     OW  946   5.270   2.461   6.190
   16SOL    HW1  947   5.286   2.560   6.182
   16SOL    HW2  948   5.356   2.415   6.212
   17SOL     OW  949   5.596   0.815   6.411
   17SOL    HW1  950   5.545   0.732   6.435
   17SOL    HW2  951   5.693   0.802   6.433
   18SOL     OW  952   3.626   1.138   5.284
   18SOL    HW1  953   3.695   1.200   5.247
   18SOL    HW2  954   3.590   1.175   5.369
   19SOL     OW  955   0.145   2.018   2.609
   19SOL    HW1  956   0.080   2.087   2.641
   19SOL    HW2  957   0.219   2.064   2.559
   20SOL     OW  958   5.828   1.782   5.469
   20SOL    HW1  959   5.898   1.852   5.455
   20SOL    HW2  960   5.853   1.700   5.418
   21SOL     OW  961   3.200   0.046   2.875
   21SOL    HW1  962   3.154   7.009   2.805
   21SOL    HW2  963   3.175   0.142   2.865
   22SOL     OW  964   0.650   5.990   6.136
   22SOL    HW1  965   0.660   5.952   6.227
   22SOL    HW2  966   0.741   6.003   6.095
   23SOL     OW  967   4.608   5.454   2.153
   23SOL    HW1  968   4.602   5.551   2.132
   23SOL    HW2  969   4.529   5.406   2.116
   24SOL     OW  970   3.901   6.872   2.268
   24SOL    HW1  971   3.824   6.855   2.207
   24SOL    HW2  972   3.959   6.944   2.230
   25SOL     OW  973   2.933   6.993   4.261
   25SOL    HW1  974   2.935   0.050   4.194
   25SOL    HW2  975   2.905   6.908   4.215
   26SOL     OW  976   0.959   2.143   6.661
   26SOL    HW1  977   1.052   2.178   6.674
   26SOL    HW2  978   0.961   2.066   6.598
   27SOL     OW  979   1.240   1.001   2.384
   27SOL    HW1  980   1.251   0.902   2.381
   27SOL    HW2  981   1.316   1.045   2.337
   28SOL     OW  982   1.072   0.729   4.362
   28SOL    HW1  983   1.142   0.759   4.427
   28SOL    HW2  984   1.098   0.757   4.270
   29SOL     OW  985   6.106   0.871   1.111
   29SOL    HW1  986   6.205   0.866   1.116
   29SOL    HW2  987   6.067   0.851   1.201
   30SOL     OW  988   3.741   0.395   4.775
   30SOL    HW1  989   3.729   0.370   4.679
   30SOL    HW2  990   3.836   0.420   4.792
   31SOL     OW  991   0.159   2.126   5.201
   31SOL    HW1  992   0.220   2.083   5.134
   31SOL    HW2  993   0.192   2.218   5.222
   32SOL     OW  994   1.481   1.425   2.269
   32SOL    HW1  995   1.560   1.450   2.325
   32SOL    HW2  996   1.457   1.501   2.209
   33SOL     OW  997   0.058   3.825   5.102
   33SOL    HW1  998   0.042   3.896   5.170
   33SOL    HW2  999   7.017   3.840   5.023
   34SOL     OW 1000   2.928   5.272   5.219
   34SOL    HW1 1001   2.900   5.367   5.209
   34SOL    HW2 1002   2.980   5.244   5.138
   35SOL     OW 1003   4.400   1.780   5.444
   35SOL    HW1 1004   4.374   1.773   5.347
   35SOL    HW2 1005   4.319   1.794   5.499
   36SOL     OW 1006   4.950   0.976   4.071
   36SOL    HW1 1007   5.015   0.906   4.041
   36SOL    HW2 1008   4.999   1.062   4.087
   37SOL     OW 1009   2.087   1.372   4.135
   37SOL    HW1 1010   2.024   1.422   4.195
   37SOL    HW2 1011   2.036   1.309   4.077
   38SOL     OW 1012   2.168   4.410   1.566
   38SOL    HW1 1013   2.172   4.311   1.556
   38SOL    HW2 1014   2.094   4.435   1.628
   39SOL     OW 1015   6.570   4.142   6.546
   39SOL    HW1 1016   6.503   4.183   6.607
   39SOL    HW2 1017   6.631   4.082   6.598
   40SOL     OW 1018   3.328   0.595   6.124
   40SOL    HW1 1019   3.413   0.579   6.174
   40SOL    HW2 1020   3.256   0.620   6.189
   41SOL     OW 1021   6.365   4.306   2.650
   41SOL    HW1 1022   6.266   4.292   2.638
   41SOL    HW2 1023   6.386   4.316   2.747
   42SOL     OW 1024   3.059   6.464   4.197
   42SOL    HW1 1025   3.115   6.490   4.118
   42SOL    HW2 1026   2.972   6.428   4.165
   43SOL     OW 1027   3.846   6.620   5.203
   43SOL    HW1 1028   3.768   6.618   5.141
   43SOL    HW2 1029   3.922   6.669   5.160
   44SOL     OW 1030   5.932   3.202   4.942
   44SOL    HW1 1031   5.863   3.263   4.903
   44SOL    HW2 1032   5.980   3.154   4.869
   45SOL     OW 1033   4.301   5.714   2.128
   45SOL    HW1 1034   4.302   5.811   2.106
   45SOL    HW2 1035   4.237   5.666   2.068
   46SOL     OW 1036   0.168   2.925   4.039
   46SOL    HW1 1037   0.226   3.005   4.054
   46SOL    HW2 1038   0.074   2.947   4.066
   47SOL     OW 1039   5.034   3.979   1.618
   47SOL    HW1 1040   5.113   3.919   1.604
   47SOL    HW2 1041   5.023   3.998   1.715
   48SOL     OW 1042   0.327   1.888   6.494
   48SOL    HW1 1043   0.275   1.939   6.426
   48SOL    HW2 1044   0.267   1.859   6.568
   49SOL     OW 1045   5.560   2.656   1.405
   49SOL    HW1 1046   5.615   2.629   1.484
   49SOL    HW2 1047   5.489   2.587   1.389
   50SOL     OW 1048   5.971   1.888   6.174
   50SOL    HW1 1049   5.933   1.850   6.258
   50SOL    HW2 1050   5.927   1.976   6.155
   51SOL     OW 1051   1.746   5.667   2.542
   51SOL    HW1 1052   1.811   5.595   2.567
   51SOL    HW2 1053   1.655   5.642   2.574
   52SOL     OW 1054   5.496   2.434   1.850
   52SOL    HW1 1055   5.594   2.433   1.827
   52SOL    HW2 1056   5.470   2.347   1.890
   53SOL     OW 1057   4.897   0.214   3.396
   53SOL    HW1 1058   4.899   0.125   3.350
   53SOL    HW2 1059   4.968   0.273   3.358
   54SOL     OW 1060   5.644   6.314   0.381
   54SOL    HW1 1061   5.567   6.363   0.341
   54SOL    HW2 1062   5.717   6.378   0.403
   55SOL     OW 1063   1.973   2.269   5.916
   55SOL    HW1 1064   2.013   2.179   5.898
   55SOL    HW2 1065   1.980   2.290   6.014
   56SOL     OW 1066   1.218   1.551   1.426
   56SOL    HW1 1067   1.278   1.500   1.364
   56SOL    HW2 1068   1.141   1.588   1.374
   57SOL     OW 1069   3.854   1.147   6.878
   57SOL    HW1 1070   3.869   1.143   6.977
   57SOL    HW2 1071   3.937   1.181   6.833
   58SOL     OW 1072   0.213   0.717   6.602
   58SOL    HW1 1073   0.118   0.739   6.579
   58SOL    HW2 1074   0.271   0.797   6.588
   59SOL     OW 1075   6.679   3.445   6.062
   59SOL    HW1 1076   6.696   3.507   6.138
   59SOL    HW2 1077   6.762   3.436   6.007
   60SOL     OW 1078   5.448   1.389   3.509
   60SOL    HW1 1079   5.402   1.473   3.537
   60SOL    HW2 1080   5.447   1.381   3.409
   61SOL     OW 1081   0.273   0.784   4.397
   61SOL    HW1 1082   0.284   0.685   4.401
   61SOL    HW2 1083   0.177   0.806   4.379
   62SOL     OW 1084   1.097   1.155   1.589
   62SOL    HW1 1085   1.020   1.109   1.632
   62SOL    HW2 1086   1.180   1.099   1.600
   63SOL     OW 1087   3.922   0.094   4.356
   63SOL    HW1 1088   3.867   0.021   4.395
   63SOL    HW2 1089   4.011   0.058   4.328
   64SOL     OW 1090   0.919   3.545   6.274
   64SOL    HW1 1091   0.930   3.644   6.258
   64SOL    HW2 1092   0.882   3.503   6.191
   65SOL     OW 1093   0.487   6.664   5.803
   65SOL    HW1 1094   0.417   6.592   5.792
   65SOL    HW2 1095   0.536   6.675   5.717
   66SOL     OW 1096   3.764   0.176   2.644
   66SOL    HW1 1097   3.779   0.198   2.548
   66SOL    HW2 1098   3.803   0.086   2.665
   67SOL     OW 1099   6.991   2.116   6.484
   67SOL    HW1 1100   6.997   2.206   6.527
   67SOL    HW2 1101   0.043   2.108   6.413
   68SOL     OW 1102   6.973   1.335   5.662
   68SOL    HW1 1103   6.985   1.431   5.637
   68SOL    HW2 1104   6.884   1.302   5.630
   69SOL     OW 1105   1.558   4.258   6.061
   69SOL    HW1 1106   1.623   4.228   6.131
   69SOL    HW2 1107   1.603   4.257   5.971
   70SOL     OW 1108   5.282   4.456   5.010
   70SOL    HW1 1109   5.231   4.401   5.076
   70SOL    HW2 1110   5.376   4.471   5.043
   71SOL     OW 1111   4.649   1.776   3.928
   71SOL    HW1 1112   4.615   1.860   3.971
   71SOL    HW2 1113   4.691   1.717   3.997
   72SOL     OW 1114   0.256   1.131   3.162
   72SOL    HW1 1115   0.240   1.153   3.258
   72SOL    HW2 1116   0.213   1.201   3.104
   73SOL     OW 1117   3.441   0.240   0.357
   73SOL    HW1 1118   3.440   0.339   0.343
   73SOL    HW2 1119   3.366   0.214   0.418
   74SOL     OW 1120   2.441   1.765   6.426
   74SOL    HW1 1121   2.355   1.720   6.402
   74SOL    HW2 1122   2.438   1.861   6.398
   75SOL     OW 1123   3.941   1.243   1.455
   75SOL    HW1 1124   4.029   1.243   1.409
   75SOL    HW2 1125   3.952   1.213   1.550
   76SOL     OW 1126   2.392   4.414   5.774
   76SOL    HW1 1127   2.417   4.348   5.704
   76SOL    HW2 1128   2.463   4.484   5.781
   77SOL     OW 1129   2.171   5.545   4.069
   77SOL    HW1 1130   2.163   5.449   4.097
   77SOL    HW2 1131   2.212   5.598   4.143
   78SOL     OW 1132   4.214   1.471   1.493
   78SOL    HW1 1133   4.129   1.506   1.532
   78SOL    HW2 1134   4.195   1.386   1.443
   79SOL     OW 1135   2.820   5.621   2.169
   79SOL    HW1 1136   2.865   5.709   2.183
   79SOL    HW2 1137   2.823   5.568   2.254
   80SOL     OW 1138   4.708   1.910   5.327
   80SOL    HW1 1139   4.695   1.827   5.381
   80SOL    HW2 1140   4.619   1.954   5.313
   81SOL     OW 1141   1.939   0.066   0.149
   81SOL    HW1 1142   1.939   6.984   0.140
   81SOL    HW2 1143   1.851   0.096   0.187
   82SOL     OW 1144   0.652   6.183   1.965
   82SOL    HW1 1145   0.566   6.175   2.016
   82SOL    HW2 1146   0.641   6.140   1.875
   83SOL     OW 1147   6.937   1.583   5.564
   83SOL    HW1 1148   6.842   1.614   5.567
   83SOL    HW2 1149   6.973   1.596   5.472
   84SOL     OW 1150   6.234   3.857   3.200
   84SOL    HW1 1151   6.223   3.900   3.290
   84SOL    HW2 1152   6.152   3.875   3.145
   85SOL     OW 1153   2.160   0.418   3.690
   85SOL    HW1 1154   2.202   0.490   3.635
   85SOL    HW2 1155   2.223   0.341   3.699
   86SOL     OW 1156   6.326   1.169   6.838
   86SOL    HW1 1157   6.380   1.201   6.761
   86SOL    HW2 1158   6.242   1.223   6.844
   87SOL     OW 1159   4.763   4.359   0.324
   87SOL    HW1 1160   4.772   4.294   0.248
   87SOL    HW2 1161   4.668   4.387   0.333
   88SOL     OW 1162   2.725   2.143   5.691
   88SOL    HW1 1163   2.756   2.052   5.718
   88SOL    HW2 1164   2.700   2.196   5.772
   89SOL     OW 1165   2.804   3.382   1.606
   89SOL    HW1 1166   2.797   3.305   1.542
   89SOL    HW2 1167   2.824   3.346   1.697
   90SOL     OW 1168   5.241   4.227   1.902
   90SOL    HW1 1169   5.152   4.271   1.914
   90SOL    HW2 1170   5.273   4.243   1.809
   91SOL     OW 1171   5.902   6.237   6.313
   91SOL    HW1 1172   5.821   6.280   6.352
   91SOL    HW2 1173   5.892   6.138   6.317
   92SOL     OW 1174   5.006   3.645   0.859
   92SOL    HW1 1175   5.024   3.636   0.957
   92SOL    HW2 1176   4.908   3.634   0.842
   93SOL     OW 1177   2.962   3.041   0.405
   93SOL    HW1 1178   2.980   2.965   0.468
   93SOL    HW2 1179   3.011   3.026   0.319
   94SOL     OW 1180   2.383   6.756   0.518
   94SOL    HW1 1181   2.364   6.658   0.529
   94SOL    HW2 1182   2.474   6.767   0.477
   95SOL     OW 1183   1.019   0.622   3.908
   95SOL    HW1 1184   1.050   0.584   3.821
   95SOL    HW2 1185   1.035   0.556   3.981
   96SOL     OW 1186   4.823   5.069   6.954
   96SOL    HW1 1187   4.814   5.090   0.034
   96SOL    HW2 1188   4.808   4.972   6.939
   97SOL     OW 1189   2.097   4.769   5.536
   97SOL    HW1 1190   2.194   4.756   5.515
   97SOL    HW2 1191   2.083   4.862   5.570
   98SOL     OW 1192   0.639   2.382   1.067
   98SOL    HW1 1193   0.644   2.345   0.974
   98SOL    HW2 1194   0.625   2.307   1.132
   99SOL     OW 1195   3.825   3.877   3.062
   99SOL    HW1 1196   3.741   3.930   3.052
   99SOL    HW2 1197   3.862   3.890   3.154
  100SOL     OW 1198   6.973   0.506   4.136
  100SOL    HW1 1199   7.004   0.576   4.072
  100SOL    HW2 1200   6.937   0.549   4.219
  101SOL     OW 1201   0.584   5.233   2.346
  101SOL    HW1 1202   0.630   5.249   2.259
  101SOL    HW2 1203   0.591   5.315   2.403
  102SOL     OW 1204   2.849   6.190   2.335
  102SOL    HW1 1205   2.903   6.257   2.283
  102SOL    HW2 1206   2.824   6.114   2.276
  103SOL     OW 1207   1.642   0.980   2.136
  103SOL    HW1 1208   1.701   0.984   2.217
  103SOL    HW2 1209   1.697   0.996   2.054
  104SOL     OW 1210   1.523   5.035   2.495
  104SOL    HW1 1211   1.550   4.949   2.452
  104SOL    HW2 1212   1.424   5.045   2.490
  105SOL     OW 1213   4.838   1.230   6.379
  105SOL    HW1 1214   4.909   1.290   6.413
  105SOL    HW2 1215   4.821   1.157   6.445
  106SOL     OW 1216   5.009   4.952   1.482
  106SOL    HW1 1217   4.924   4.899   1.475
  106SOL    HW2 1218   5.015   4.992   1.573
  107SOL     OW 1219   6.706   0.687   0.135
  107SOL    HW1 1220   6.806   0.691   0.134
  107SOL    HW2 1221   6.672   0.722   0.222
  108SOL     OW 1222   2.940   6.645   4.848
  108SOL    HW1 1223   2.857   6.696   4.869
  108SOL    HW2 1224   2.918   6.563   4.795
  109SOL     OW 1225   3.472   0.665   2.957
  109SOL    HW1 1226   3.557   0.615   2.973
  109SOL    HW2 1227   3.414   0.612   2.894
  110SOL     OW 1228   1.937   5.092   4.990
  110SOL    HW1 1229   1.849   5.046   4.972
  110SOL    HW2 1230   1.961   5.079   5.086
  111SOL     OW 1231   6.755   1.756   2.538
  111SOL    HW1 1232   6.819   1.771   2.613
  111SOL    HW2 1233   6.791   1.686   2.477
  112SOL     OW 1234   4.759   6.545   6.532
  112SOL    HW1 1235   4.796   6.629   6.572
  112SOL    HW2 1236   4.680   6.567   6.476
  113SOL     OW 1237   6.631   5.274   3.089
  113SOL    HW1 1238   6.722   5.262   3.130
  113SOL    HW2 1239   6.641   5.314   2.998
  114SOL     OW 1240   0.882   5.179   2.737
  114SOL    HW1 1241   0.809   5.158   2.671
  114SOL    HW2 1242   0.850   5.158   2.829
  115SOL     OW 1243   6.086   1.066   3.609
  115SOL    HW1 1244   6.119   1.052   3.702
  115SOL    HW2 1245   6.102   1.161   3.582
  116SOL     OW 1246   0.056   5.809   1.217
  116SOL    HW1 1247   0.013   5.850   1.136
  116SOL    HW2 1248   0.096   5.881   1.273
  117SOL     OW 1249   2.723   1.302   0.041
  117SOL    HW1 1250   2.768   1.385   0.008
  117SOL    HW2 1251   2.685   1.318   0.132
  118SOL     OW 1252   1.526   1.402   3.630
  118SOL    HW1 1253   1.455   1.378   3.696
  118SOL    HW2 1254   1.502   1.487   3.584
  119SOL     OW 1255   0.738   6.664   6.934
  119SOL    HW1 1256   0.812   6.604   6.963
  119SOL    HW2 1257   0.660   6.654   6.995
  120SOL     OW 1258   5.071   6.829   4.908
  120SOL    HW1 1259   5.000   6.894   4.881
  120SOL    HW2 1260   5.095   6.844   5.004
  121SOL     OW 1261   1.418   4.013   6.860
  121SOL    HW1 1262   1.355   4.039   6.933
  121SOL    HW2 1263   1.392   3.924   6.824
  122SOL     OW 1264   1.378   3.537   0.426
  122SOL    HW1 1265   1.312   3.612   0.419
  122SOL    HW2 1266   1.447   3.547   0.354
  123SOL     OW 1267   1.313   0.724   1.357
  123SOL    HW1 1268   1.253   0.645   1.344
  123SOL    HW2 1269   1.262   0.799   1.399
  124SOL     OW 1270   3.374   2.256   0.745
  124SOL    HW1 1271   3.295   2.220   0.795
  124SOL    HW2 1272   3.354   2.350   0.716
  125SOL     OW 1273   3.633   2.674   0.086
  125SOL    HW1 1274   3.612   2.664   0.183
  125SOL    HW2 1275   3.571   2.741   0.045
  126SOL     OW 1276   2.926   3.336   3.441
  126SOL    HW1 1277   2.897   3.240   3.432
  126SOL    HW2 1278   2.986   3.359   3.365
  127SOL     OW 1279   6.493   6.225   5.520
  127SOL    HW1 1280   6.503   6.322   5.500
  127SOL    HW2 1281   6.576   6.192   5.566
  128SOL     OW 1282   5.233   3.786   2.296
  128SOL    HW1 1283   5.240   3.886   2.295
  128SOL    HW2 1284   5.143   3.759   2.332
  129SOL     OW 1285   2.431   4.797   0.875
  129SOL    HW1 1286   2.465   4.861   0.944
  129SOL    HW2 1287   2.346   4.832   0.836
  130SOL     OW 1288   5.890   1.106   4.381
  130SOL    HW1 1289   5.866   1.116   4.284
  130SOL    HW2 1290   5.930   1.192   4.414
  131SOL     OW 1291   5.744   0.527   4.094
  131SOL    HW1 1292   5.690   0.496   4.016
  131SOL    HW2 1293   5.841   0.514   4.074
  132SOL     OW 1294   3.283   3.719   1.543
  132SOL    HW1 1295   3.264   3.745   1.448
  132SOL    HW2 1296   3.373   3.675   1.548
  133SOL     OW 1297   5.131   1.225   3.604
  133SOL    HW1 1298   5.080   1.239   3.688
  133SOL    HW2 1299   5.137   1.311   3.553
  134SOL     OW 1300   0.203   0.666   2.448
  134SOL    HW1 1301   0.284   0.697   2.498
  134SOL    HW2 1302   0.133   0.738   2.450
  135SOL     OW 1303   4.878   3.590   4.300
  135SOL    HW1 1304   4.876   3.569   4.202
  135SOL    HW2 1305   4.871   3.505   4.352
  136SOL     OW 1306   2.615   5.910   4.676
  136SOL    HW1 1307   2.573   5.937   4.589
  136SOL    HW2 1308   2.552   5.931   4.751
  137SOL     OW 1309   4.329   1.311   4.342
  137SOL    HW1 1310   4.373   1.381   4.398
  137SOL    HW2 1311   4.239   1.289   4.382
  138SOL     OW 1312   0.788   5.393   3.709
  138SOL    HW1 1313   0.754   5.471   3.761
  138SOL    HW2 1314   0.728   5.375   3.631
  139SOL     OW 1315   2.244   5.526   6.791
  139SOL    HW1 1316   2.219   5.431   6.776
  139SOL    HW2 1317   2.308   5.556   6.721
  140SOL     OW 1318   1.924   6.521   2.813
  140SOL    HW1 1319   1.891   6.532   2.719
  140SOL    HW2 1320   1.930   6.423   2.834
  141SOL     OW 1321   6.715   3.347   6.938
  141SOL    HW1 1322   6.749   3.419   6.999
  141SOL    HW2 1323   6.767   3.263   6.954
  142SOL     OW 1324   2.050   3.589   1.376
  142SOL    HW1 1325   2.107   3.619   1.453
  142SOL    HW2 1326   1.985   3.520   1.408
  143SOL     OW 1327   5.933   6.187   1.237
  143SOL    HW1 1328   5.934   6.115   1.306
  143SOL    HW2 1329   5.852   6.245   1.250
  144SOL     OW 1330   3.160   4.885   3.869
  144SOL    HW1 1331   3.141   4.906   3.773
  144SOL    HW2 1332   3.237   4.942   3.901
  145SOL     OW 1333   0.843   4.832   2.281
  145SOL    HW1 1334   0.842   4.822   2.380
  145SOL    HW2 1335   0.766   4.781   2.241
  146SOL     OW 1336   5.595   1.097   5.447
  146SOL    HW1 1337   5.554   1.183   5.477
  146SOL    HW2 1338   5.668   1.115   5.382
  147SOL     OW 1339   4.911   1.363   5.040
  147SOL    HW1 1340   4.948   1.446   5.000
  147SOL    HW2 1341   4.971   1.286   5.019
  148SOL     OW 1342   1.392   5.052   1.555
  148SOL    HW1 1343   1.357   4.962   1.584
  148SOL    HW2 1344   1.474   5.039   1.499
  149SOL     OW 1345   2.722   2.349   5.050
  149SOL    HW1 1346   2.739   2.402   4.967
  149SOL    HW2 1347   2.648   2.283   5.033
  150SOL     OW 1348   4.272   1.179   5.711
  150SOL    HW1 1349   4.293   1.276   5.721
  150SOL    HW2 1350   4.249   1.140   5.801
  151SOL     OW 1351   4.216   1.195   1.832
  151SOL    HW1 1352   4.284   1.199   1.759
  151SOL    HW2 1353   4.222   1.278   1.887
  152SOL     OW 1354   6.685   1.191   6.798
  152SOL    HW1 1355   6.731   1.277   6.775
  152SOL    HW2 1356   6.601   1.183   6.745
  153SOL     OW 1357   3.212   0.673   3.421
  153SOL    HW1 1358   3.266   0.724   3.354
  153SOL    HW2 1359   3.260   0.589   3.446
  154SOL     OW 1360   6.878   2.627   0.666
  154SOL    HW1 1361   6.976   2.634   0.644
  154SOL    HW2 1362   6.832   2.711   0.639
  155SOL     OW 1363   0.507   6.891   1.173
  155SOL    HW1 1364   0.490   6.911   1.270
  155SOL    HW2 1365   0.569   6.813   1.166
  156SOL     OW 1366   6.414   1.273   0.281
  156SOL    HW1 1367   6.411   1.185   0.234
  156SOL    HW2 1368   6.488   1.329   0.242
  157SOL     OW 1369   6.120   2.843   0.104
  157SOL    HW1 1370   6.142   2.933   0.141
  157SOL    HW2 1371   6.069   2.790   0.172
  158SOL     OW 1372   1.432   2.334   1.847
  158SOL    HW1 1373   1.439   2.398   1.923
  158SOL    HW2 1374   1.336   2.310   1.832
  159SOL     OW 1375   4.506   4.483   1.226
  159SOL    HW1 1376   4.421   4.532   1.205
  159SOL    HW2 1377   4.489   4.415   1.296
  160SOL     OW 1378   6.485   0.346   0.765
  160SOL    HW1 1379   6.460   0.353   0.862
  160SOL    HW2 1380   6.421   0.398   0.710
  161SOL     OW 1381   1.176   6.532   0.871
  161SOL    HW1 1382   1.150   6.439   0.898
  161SOL    HW2 1383   1.098   6.593   0.886
  162SOL     OW 1384   2.504   6.258   0.448
  162SOL    HW1 1385   2.568   6.187   0.479
  162SOL    HW2 1386   2.554   6.344   0.435
  163SOL     OW 1387   6.890   5.330   3.150
  163SOL    HW1 1388   6.917   5.249   3.098
  163SOL    HW2 1389   6.968   5.390   3.162
  164SOL     OW 1390   1.283   1.844   2.651
  164SOL    HW1 1391   1.225   1.898   2.712
  164SOL    HW2 1392   1.327   1.771   2.704
  165SOL     OW 1393   6.329   5.381   2.161
  165SOL    HW1 1394   6.275   5.465   2.160
  165SOL    HW2 1395   6.270   5.303   2.184
  166SOL     OW 1396   6.340   4.009   1.426
  166SOL    HW1 1397   6.364   3.951   1.503
  166SOL    HW2 1398   6.369   3.965   1.341
  167SOL     OW 1399   5.406   1.622   6.393
  167SOL    HW1 1400   5.366   1.578   6.312
  167SOL    HW2 1401   5.347   1.605   6.472
  168SOL     OW 1402   3.955   2.437   1.698
  168SOL    HW1 1403   3.923   2.356   1.649
  168SOL    HW2 1404   3.884   2.508   1.696
  169SOL     OW 1405   6.377   2.470   0.337
  169SOL    HW1 1406   6.430   2.386   0.326
  169SOL    HW2 1407   6.366   2.491   0.434
  170SOL     OW 1408   0.527   6.040   3.685
  170SOL    HW1 1409   0.584   6.013   3.763
  170SOL    HW2 1410   0.431   6.027   3.709
  171SOL     OW 1411   1.656   3.786   6.567
  171SOL    HW1 1412   1.693   3.693   6.576
  171SOL    HW2 1413   1.609   3.812   6.651
  172SOL     OW 1414   5.867   2.689   2.766
  172SOL    HW1 1415   5.888   2.740   2.850
  172SOL    HW2 1416   5.926   2.608   2.761
  173SOL     OW 1417   5.336   0.914   4.366
  173SOL    HW1 1418   5.267   0.854   4.327
  173SOL    HW2 1419   5.384   0.867   4.440
  174SOL     OW 1420   5.065   5.404   5.187
  174SOL    HW1 1421   5.137   5.463   5.150
  174SOL    HW2 1422   5.033   5.442   5.274
  175SOL     OW 1423   2.691   0.636   0.852
  175SOL    HW1 1424   2.631   0.706   0.890
  175SOL    HW2 1425   2.786   0.661   0.870
  176SOL     OW 1426   5.061   4.981   3.018
  176SOL    HW1 1427   5.122   5.059   3.035
  176SOL    HW2 1428   4.966   5.010   3.029
  177SOL     OW 1429   5.158   1.961   5.366
  177SOL    HW1 1430   5.230   1.912   5.415
  177SOL    HW2 1431   5.199   2.011   5.289
  178SOL     OW 1432   2.707   5.151   4.308
  178SOL    HW1 1433   2.613   5.127   4.333
  178SOL    HW2 1434   2.711   5.248   4.284
  179SOL     OW 1435   4.166   6.154   0.564
  179SOL    HW1 1436   4.098   6.091   0.601
  179SOL    HW2 1437   4.166   6.149   0.464
  180SOL     OW 1438   2.632   6.448   0.098
  180SOL    HW1 1439   2.543   6.408   0.075
  180SOL    HW2 1440   2.705   6.385   0.069
  181SOL     OW 1441   2.938   2.312   5.303
  181SOL    HW1 1442   2.887   2.328   5.219
  181SOL    HW2 1443   3.036   2.310   5.283
  182SOL     OW 1444   4.960   3.569   0.160
  182SOL    HW1 1445   4.948   3.587   0.062
  182SOL    HW2 1446   4.905   3.633   0.213
  183SOL     OW 1447   3.951   2.112   4.036
  183SOL    HW1 1448   3.864   2.110   4.085
  183SOL    HW2 1449   3.936   2.139   3.941
  184SOL     OW 1450   1.032   6.821   3.219
  184SOL    HW1 1451   1.025   6.880   3.139
  184SOL    HW2 1452   0.946   6.770   3.230
  185SOL     OW 1453   0.847   1.997   4.207
  185SOL    HW1 1454   0.903   2.009   4.125
  185SOL    HW2 1455   0.761   2.047   4.197
  186SOL     OW 1456   5.868   5.840   4.051
  186SOL    HW1 1457   5.780   5.794   4.061
  186SOL    HW2 1458   5.941   5.777   4.076
  187SOL     OW 1459   4.453   5.474   2.717
  187SOL    HW1 1460   4.409   5.562   2.695
  187SOL    HW2 1461   4.489   5.433   2.633
  188SOL     OW 1462   1.497   1.932   3.283
  188SOL    HW1 1463   1.558   1.957   3.357
  188SOL    HW2 1464   1.548   1.928   3.197
  189SOL     OW 1465   6.780   4.849   6.503
  189SOL    HW1 1466   6.786   4.925   6.568
  189SOL    HW2 1467   6.707   4.786   6.532
  190SOL     OW 1468   6.465   4.762   6.774
  190SOL    HW1 1469   6.488   4.720   6.687
  190SOL    HW2 1470   6.397   4.834   6.760
  191SOL     OW 1471   6.439   1.818   5.677
  191SOL    HW1 1472   6.430   1.798   5.775
  191SOL    HW2 1473   6.519   1.771   5.640
  192SOL     OW 1474   0.289   4.281   1.538
  192SOL    HW1 1475   0.358   4.275   1.610
  192SOL    HW2 1476   0.322   4.236   1.455
  193SOL     OW 1477   3.929   4.739   5.808
  193SOL    HW1 1478   3.971   4.704   5.724
  193SOL    HW2 1479   3.864   4.671   5.843
  194SOL     OW 1480   4.008   6.815   1.833
  194SOL    HW1 1481   3.965   6.899   1.867
  194SOL    HW2 1482   4.053   6.767   1.908
  195SOL     OW 1483   3.065   0.557   3.198
  195SOL    HW1 1484   3.125   0.594   3.269
  195SOL    HW2 1485   3.071   0.614   3.117
  196SOL     OW 1486   3.147   0.454   6.462
  196SOL    HW1 1487   3.055   0.457   6.423
  196SOL    HW2 1488   3.149   0.393   6.540
  197SOL     OW 1489   2.656   5.801   6.593
  197SOL    HW1 1490   2.559   5.813   6.615
  197SOL    HW2 1491   2.686   5.875   6.533
  198SOL     OW 1492   4.142   5.875   1.073
  198SOL    HW1 1493   4.198   5.863   0.991
  198SOL    HW2 1494   4.066   5.810   1.071
  199SOL     OW 1495   6.459   1.259   1.985
  199SOL    HW1 1496   6.467   1.163   1.959
  199SOL    HW2 1497   6.468   1.268   2.084
  200SOL     OW 1498   1.195   3.469   2.344
  200SOL    HW1 1499   1.287   3.431   2.335
  200SOL    HW2 1500   1.201   3.568   2.361
  201SOL     OW 1501   2.732   6.664   6.493
  201SOL    HW1 1502   2.711   6.745   6.437
  201SOL    HW2 1503   2.646   6.617   6.516
  202SOL     OW 1504   5.146   0.154   5.027
  202SOL    HW1 1505   5.123   0.061   5.054
  202SOL    HW2 1506   5.111   0.172   4.935
  203SOL     OW 1507   4.574   2.793   5.622
  203SOL    HW1 1508   4.626   2.816   5.539
  203SOL    HW2 1509   4.638   2.762   5.693
  204SOL     OW 1510   1.642   0.088   6.895
  204SOL    HW1 1511   1.635   0.176   6.848
  204SOL    HW2 1512   1.716   0.034   6.855
  205SOL     OW 1513   0.883   1.817   1.487
  205SOL    HW1 1514   0.785   1.820   1.502
  205SOL    HW2 1515   0.931   1.825   1.575
  206SOL     OW 1516   0.318   4.645   1.910
  206SOL    HW1 1517   0.275   4.614   1.825
  206SOL    HW2 1518   0.351   4.739   1.898
  207SOL     OW 1519   4.347   0.536   5.206
  207SOL    HW1 1520   4.334   0.546   5.305
  207SOL    HW2 1521   4.270   0.578   5.158
  208SOL     OW 1522   5.260   4.277   5.639
  208SOL    HW1 1523   5.355   4.297   5.615
  208SOL    HW2 1524   5.240   4.181   5.621
  209SOL     OW 1525   0.527   5.806   5.508
  209SOL    HW1 1526   0.559   5.808   5.603
  209SOL    HW2 1527   0.597   5.763   5.451
  210SOL     OW 1528   4.207   2.255   2.175
  210SOL    HW1 1529   4.118   2.280   2.212
  210SOL    HW2 1530   4.240   2.329   2.115
  211SOL     OW 1531   1.133   0.383   3.216
  211SOL    HW1 1532   1.120   0.480   3.195
  211SOL    HW2 1533   1.225   0.356   3.190
  212SOL     OW 1534   1.985   5.075   2.533
  212SOL    HW1 1535   1.905   5.131   2.512
  212SOL    HW2 1536   1.994   5.065   2.632
  213SOL     OW 1537   4.429   1.065   6.442
  213SOL    HW1 1538   4.354   1.013   6.401
  213SOL    HW2 1539   4.490   1.098   6.369
  214SOL     OW 1540   2.044   6.042   2.667
  214SOL    HW1 1541   2.137   6.011   2.645
  214SOL    HW2 1542   1.987   5.963   2.688
  215SOL     OW 1543   3.548   3.913   1.674
  215SOL    HW1 1544   3.475   3.898   1.741
  215SOL    HW2 1545   3.555   3.832   1.615
  216SOL     OW 1546   1.850   0.302   5.007
  216SOL    HW1 1547   1.849   0.369   5.081
  216SOL    HW2 1548   1.892   0.342   4.926
  217SOL     OW 1549   1.375   2.904   4.162
  217SOL    HW1 1550   1.291   2.925   4.212
  217SOL    HW2 1551   1.394   2.976   4.095
  218SOL     OW 1552   1.310   2.852   4.878
  218SOL    HW1 1553   1.253   2.908   4.939
  218SOL    HW2 1554   1.402   2.891   4.873
  219SOL     OW 1555   3.535   4.788   6.387
  219SOL    HW1 1556   3.452   4.842   6.376
  219SOL    HW2 1557   3.542   4.758   6.482
  220SOL     OW 1558   3.112   5.319   0.211
  220SOL    HW1 1559   3.180   5.374   0.162
  220SOL    HW2 1560   3.118   5.224   0.181
  221SOL     OW 1561   5.471   4.110   3.186
  221SOL    HW1 1562   5.516   4.069   3.106
  221SOL    HW2 1563   5.525   4.091   3.268
  222SOL     OW 1564   1.647   5.114   5.477
  222SOL    HW1 1565   1.726   5.165   5.512
  222SOL    HW2 1566   1.651   5.110   5.377
  223SOL     OW 1567   0.445   3.174   0.934
  223SOL    HW1 1568   0.427   3.233   1.012
  223SOL    HW2 1569   0.447   3.078   0.964
  224SOL     OW 1570   2.532   2.543   3.751
  224SOL    HW1 1571   2.579   2.456   3.769
  224SOL    HW2 1572   2.486   2.574   3.834
  225SOL     OW 1573   5.406   1.029   6.663
  225SOL    HW1 1574   5.415   0.941   6.616
  225SOL    HW2 1575   5.455   1.026   6.750
  226SOL     OW 1576   1.124   6.817   0.101
  226SOL    HW1 1577   1.172   6.751   0.159
  226SOL    HW2 1578   1.184   6.894   0.082
  227SOL     OW 1579   0.732   4.321   3.650
  227SOL    HW1 1580   0.739   4.402   3.592
  227SOL    HW2 1581   0.761   4.344   3.743
  228SOL     OW 1582   3.379   0.687   4.354
  228SOL    HW1 1583   3.470   0.645   4.344
  228SOL    HW2 1584   3.342   0.664   4.444
  229SOL     OW 1585   6.603   5.420   1.102
  229SOL    HW1 1586   6.659   5.494   1.140
  229SOL    HW2 1587   6.585   5.439   1.005
  230SOL     OW 1588   2.383   4.930   3.458
  230SOL    HW1 1589   2.478   4.915   3.431
  230SOL    HW2 1590   2.335   4.843   3.462
  231SOL     OW 1591   5.952   2.829   6.144
  231SOL    HW1 1592   5.990   2.851   6.054
  231SOL    HW2 1593   5.853   2.816   6.135
  232SOL     OW 1594   0.730   4.354   5.758
  232SOL    HW1 1595   0.827   4.331   5.771
  232SOL    HW2 1596   0.720   4.408   5.674
  233SOL     OW 1597   2.041   0.745   4.643
  233SOL    HW1 1598   2.125   0.772   4.690
  233SOL    HW2 1599   1.967   0.809   4.667
  234SOL     OW 1600   2.814   5.251   5.760
  234SOL    HW1 1601   2.840   5.282   5.668
  234SOL    HW2 1602   2.887   5.192   5.796
  235SOL     OW 1603   3.712   3.043   2.735
  235SOL    HW1 1604   3.687   2.988   2.815
  235SOL    HW2 1605   3.720   2.985   2.655
  236SOL     OW 1606   6.414   2.950   6.784
  236SOL    HW1 1607   6.447   2.867   6.830
  236SOL    HW2 1608   6.369   3.009   6.851
  237SOL     OW 1609   0.939   6.574   0.676
  237SOL    HW1 1610   0.974   6.639   0.609
  237SOL    HW2 1611   0.997   6.493   0.677
  238SOL     OW 1612   6.373   3.127   1.155
  238SOL    HW1 1613   6.385   3.171   1.066
  238SOL    HW2 1614   6.401   3.190   1.227
  239SOL     OW 1615   6.719   4.718   6.949
  239SOL    HW1 1616   6.636   4.708   6.894
  239SOL    HW2 1617   6.702   4.782   0.006
  240SOL     OW 1618   0.596   3.217   6.062
  240SOL    HW1 1619   0.581   3.125   6.025
  240SOL    HW2 1620   0.636   3.275   5.991
  241SOL     OW 1621   0.921   0.716   3.526
  241SOL    HW1 1622   0.923   0.774   3.607
  241SOL    HW2 1623   0.835   0.666   3.523
  242SOL     OW 1624   1.399   2.688   5.394
  242SOL    HW1 1625   1.409   2.749   5.316
  242SOL    HW2 1626   1.315   2.711   5.444
  243SOL     OW 1627   4.525   0.348   6.133
  243SOL    HW1 1628   4.451   0.404   6.171
  243SOL    HW2 1629   4.529   0.361   6.034
  244SOL     OW 1630   4.796   2.788   4.302
  244SOL    HW1 1631   4.841   2.854   4.362
  244SOL    HW2 1632   4.773   2.833   4.215
  245SOL     OW 1633   6.602   2.552   4.397
  245SOL    HW1 1634   6.620   2.626   4.462
  245SOL    HW2 1635   6.515   2.508   4.418
  246SOL     OW 1636   4.990   4.136   3.779
  246SOL    HW1 1637   4.901   4.130   3.825
  246SOL    HW2 1638   5.060   4.166   3.843
  247SOL     OW 1639   2.630   1.719   3.093
  247SOL    HW1 1640   2.590   1.791   3.149
  247SOL    HW2 1641   2.688   1.661   3.150
  248SOL     OW 1642   4.813   2.055   4.287
  248SOL    HW1 1643   4.870   2.067   4.206
  248SOL    HW2 1644   4.829   1.964   4.326
  249SOL     OW 1645   3.057   6.519   5.131
  249SOL    HW1 1646   2.983   6.460   5.161
  249SOL    HW2 1647   3.025   6.578   5.057
  250SOL     OW 1648   5.240   1.621   5.803
  250SOL    HW1 1649   5.176   1.688   5.841
  250SOL    HW2 1650   5.253   1.546   5.868
  251SOL     OW 1651   4.359   3.278   6.130
  251SOL    HW1 1652   4.413   3.310   6.207
  251SOL    HW2 1653   4.411   3.210   6.078
  252SOL     OW 1654   0.149   0.935   5.405
  252SOL    HW1 1655   0.072   0.965   5.461
  252SOL    HW2 1656   0.176   1.009   5.342
  253SOL     OW 1657   2.030   4.024   0.554
  253SOL    HW1 1658   2.027   4.068   0.643
  253SOL    HW2 1659   2.029   3.924   0.566
  254SOL     OW 1660   6.271   2.627   4.337
  254SOL    HW1 1661   6.211   2.580   4.272
  254SOL    HW2 1662   6.226   2.711   4.368
  255SOL     OW 1663   3.163   1.404   4.398
  255SOL    HW1 1664   3.083   1.356   4.434
  255SOL    HW2 1665   3.238   1.399   4.463
  256SOL     OW 1666   6.734   5.224   0.012
  256SOL    HW1 1667   6.797   5.302   0.006
  256SOL    HW2 1668   6.645   5.251   6.994
  257SOL     OW 1669   3.266   5.784   5.309
  257SOL    HW1 1670   3.253   5.767   5.211
  257SOL    HW2 1671   3.179   5.775   5.356
  258SOL     OW 1672   5.115   3.875   5.207
  258SOL    HW1 1673   5.026   3.860   5.165
  258SOL    HW2 1674   5.109   3.948   5.275
  259SOL     OW 1675   1.051   3.162   3.020
  259SOL    HW1 1676   1.143   3.125   3.026
  259SOL    HW2 1677   1.014   3.175   3.113
  260SOL     OW 1678   5.115   0.201   0.023
  260SOL    HW1 1679   5.024   0.183   0.061
  260SOL    HW2 1680   5.109   0.271   6.969
  261SOL     OW 1681   0.536   3.386   1.191
  261SOL    HW1 1682   0.585   3.421   1.271
  261SOL    HW2 1683   0.441   3.367   1.216
  262SOL     OW 1684   0.853   3.846   2.483
  262SOL    HW1 1685   0.756   3.863   2.495
  262SOL    HW2 1686   0.873   3.827   2.387
  263SOL     OW 1687   6.828   2.080   4.383
  263SOL    HW1 1688   6.837   2.160   4.324
  263SOL    HW2 1689   6.742   2.033   4.362
  264SOL     OW 1690   0.202   3.374   5.535
  264SOL    HW1 1691   0.196   3.474   5.546
  264SOL    HW2 1692   0.129   3.330   5.587
  265SOL     OW 1693   4.975   4.333   3.576
  265SOL    HW1 1694   4.977   4.255   3.638
  265SOL    HW2 1695   5.066   4.344   3.535
  266SOL     OW 1696   3.617   2.024   0.028
  266SOL    HW1 1697   3.708   2.059   0.006
  266SOL    HW2 1698   3.618   1.924   0.028
  267SOL     OW 1699   1.736   2.606   0.441
  267SOL    HW1 1700   1.671   2.532   0.457
  267SOL    HW2 1701   1.809   2.574   0.381
  268SOL     OW 1702   4.769   5.095   4.853
  268SOL    HW1 1703   4.671   5.077   4.848
  268SOL    HW2 1704   4.791   5.132   4.943
  269SOL     OW 1705   1.815   1.545   6.857
  269SOL    HW1 1706   1.784   1.601   6.780
  269SOL    HW2 1707   1.736   1.502   6.901
  270SOL     OW 1708   5.146   1.262   2.297
  270SOL    HW1 1709   5.141   1.235   2.393
  270SOL    HW2 1710   5.236   1.240   2.261
  271SOL     OW 1711   2.135   1.353   1.151
  271SOL    HW1 1712   2.180   1.317   1.233
  271SOL    HW2 1713   2.201   1.405   1.097
  272SOL     OW 1714   3.897   5.660   4.355
  272SOL    HW1 1715   3.860   5.724   4.423
  272SOL    HW2 1716   3.989   5.689   4.329
  273SOL     OW 1717   0.916   5.676   5.205
  273SOL    HW1 1718   1.007   5.653   5.170
  273SOL    HW2 1719   0.847   5.637   5.144
  274SOL     OW 1720   4.984   3.300   3.403
  274SOL    HW1 1721   4.949   3.348   3.323
  274SOL    HW2 1722   5.075   3.264   3.384
  275SOL     OW 1723   0.743   5.511   6.101
  275SOL    HW1 1724   0.702   5.496   6.012
  275SOL    HW2 1725   0.682   5.566   6.158
  276SOL     OW 1726   6.716   5.679   4.213
  276SOL    HW1 1727   6.810   5.713   4.217
  276SOL    HW2 1728   6.715   5.589   4.168
  277SOL     OW 1729   2.808   0.740   6.011
  277SOL    HW1 1730   2.840   0.815   5.954
  277SOL    HW2 1731   2.783   0.774   6.102
  278SOL     OW 1732   4.989   4.384   2.728
  278SOL    HW1 1733   4.993   4.416   2.823
  278SOL    HW2 1734   5.023   4.290   2.724
  279SOL     OW 1735   6.500   3.286   4.032
  279SOL    HW1 1736   6.486   3.194   3.997
  279SOL    HW2 1737   6.572   3.331   3.980
  280SOL     OW 1738   4.778   6.362   4.121
  280SOL    HW1 1739   4.787   6.280   4.064
  280SOL    HW2 1740   4.821   6.440   4.076
  281SOL     OW 1741   3.700   5.249   3.857
  281SOL    HW1 1742   3.798   5.249   3.872
  281SOL    HW2 1743   3.655   5.194   3.928
  282SOL     OW 1744   3.951   1.779   5.698
  282SOL    HW1 1745   3.881   1.731   5.645
  282SOL    HW2 1746   3.916   1.868   5.727
  283SOL     OW 1747   6.001   0.180   5.110
  283SOL    HW1 1748   6.093   0.184   5.148
  283SOL    HW2 1749   6.001   0.221   5.019
  284SOL     OW 1750   0.807   4.536   4.270
  284SOL    HW1 1751   0.844   4.443   4.272
  284SOL    HW2 1752   0.787   4.565   4.363
  285SOL     OW 1753   5.718   6.837   0.395
  285SOL    HW1 1754   5.767   6.897   0.458
  285SOL    HW2 1755   5.647   6.787   0.445
  286SOL     OW 1756   3.553   4.872   5.139
  286SOL    HW1 1757   3.575   4.924   5.222
  286SOL    HW2 1758   3.475   4.812   5.157
  287SOL     OW 1759   1.642   5.777   6.062
  287SOL    HW1 1760   1.579   5.752   6.136
  287SOL    HW2 1761   1.696   5.696   6.037
  288SOL     OW 1762   4.099   0.605   1.220
  288SOL    HW1 1763   4.012   0.556   1.214
  288SOL    HW2 1764   4.112   0.642   1.312
  289SOL     OW 1765   1.298   5.250   5.989
  289SOL    HW1 1766   1.213   5.202   5.968
  289SOL    HW2 1767   1.293   5.344   5.955
  290SOL     OW 1768   4.661   0.500   2.910
  290SOL    HW1 1769   4.755   0.533   2.910
  290SOL    HW2 1770   4.598   0.577   2.919
  291SOL     OW 1771   3.892   0.934   4.349
  291SOL    HW1 1772   3.953   1.003   4.388
  291SOL    HW2 1773   3.889   0.944   4.249
  292SOL     OW 1774   3.982   0.465   3.608
  292SOL    HW1 1775   3.979   0.365   3.601
  292SOL    HW2 1776   3.903   0.497   3.659
  293SOL     OW 1777   4.445   6.358   2.105
  293SOL    HW1 1778   4.467   6.262   2.124
  293SOL    HW2 1779   4.449   6.410   2.190
  294SOL     OW 1780   5.725   6.300   5.822
  294SOL    HW1 1781   5.803   6.292   5.885
  294SOL    HW2 1782   5.640   6.280   5.872
  295SOL     OW 1783   1.146   2.876   5.326
  295SOL    HW1 1784   1.108   2.962   5.292
  295SOL    HW2 1785   1.223   2.896   5.387
  296SOL     OW 1786   6.396   1.660   0.964
  296SOL    HW1 1787   6.463   1.606   1.016
  296SOL    HW2 1788   6.415   1.653   0.867
  297SOL     OW 1789   4.939   5.114   3.528
  297SOL    HW1 1790   4.895   5.149   3.445
  297SOL    HW2 1791   4.868   5.082   3.591
  298SOL     OW 1792   4.427   0.811   0.859
  298SOL    HW1 1793   4.352   0.876   0.845
  298SOL    HW2 1794   4.477   0.798   0.773
  299SOL     OW 1795   3.541   1.596   0.477
  299SOL    HW1 1796   3.474   1.591   0.402
  299SOL    HW2 1797   3.512   1.537   0.552
  300SOL     OW 1798   3.077   0.996   2.595
  300SOL    HW1 1799   3.031   0.920   2.641
  300SOL    HW2 1800   3.018   1.032   2.522
  301SOL     OW 1801   4.997   0.068   1.876
  301SOL    HW1 1802   4.935   0.138   1.839
  301SOL    HW2 1803   5.046   0.024   1.801
  302SOL     OW 1804   0.690   6.870   1.653
  302SOL    HW1 1805   0.731   6.789   1.697
  302SOL    HW2 1806   0.592   6.873   1.675
  303SOL     OW 1807   5.693   6.216   2.181
  303SOL    HW1 1808   5.737   6.211   2.091
  303SOL    HW2 1809   5.750   6.271   2.242
  304SOL     OW 1810   1.634   6.493   5.867
  304SOL    HW1 1811   1.585   6.414   5.831
  304SOL    HW2 1812   1.723   6.463   5.903
  305SOL     OW 1813   1.713   3.249   1.171
  305SOL    HW1 1814   1.638   3.245   1.237
  305SOL    HW2 1815   1.676   3.247   1.078
  306SOL     OW 1816   0.514   1.058   2.461
  306SOL    HW1 1817   0.613   1.062   2.475
  306SOL    HW2 1818   0.494   1.064   2.363
  307SOL     OW 1819   3.089   3.903   0.679
  307SOL    HW1 1820   3.020   3.894   0.607
  307SOL    HW2 1821   3.122   3.812   0.705
  308SOL     OW 1822   5.500   2.876   4.952
  308SOL    HW1 1823   5.523   2.973   4.950
  308SOL    HW2 1824   5.404   2.864   4.928
  309SOL     OW 1825   1.175   6.457   0.047
  309SOL    HW1 1826   1.174   6.491   6.971
  309SOL    HW2 1827   1.217   6.525   0.107
  310SOL     OW 1828   5.953   6.234   4.363
  310SOL    HW1 1829   6.046   6.266   4.380
  310SOL    HW2 1830   5.950   6.187   4.275
  311SOL     OW 1831   2.413   4.814   2.308
  311SOL    HW1 1832   2.358   4.879   2.360
  311SOL    HW2 1833   2.421   4.844   2.213
  312SOL     OW 1834   4.367   2.374   3.842
  312SOL    HW1 1835   4.356   2.464   3.884
  312SOL    HW2 1836   4.417   2.384   3.756
  313SOL     OW 1837   3.009   3.806   2.640
  313SOL    HW1 1838   3.108   3.814   2.623
  313SOL    HW2 1839   2.969   3.744   2.573
  314SOL     OW 1840   1.853   5.829   5.434
  314SOL    HW1 1841   1.809   5.855   5.348
  314SOL    HW2 1842   1.815   5.741   5.465
  315SOL     OW 1843   0.427   1.810   3.555
  315SOL    HW1 1844   0.346   1.756   3.578
  315SOL    HW2 1845   0.434   1.888   3.618
  316SOL     OW 1846   4.364   1.643   4.253
  316SOL    HW1 1847   4.360   1.604   4.161
  316SOL    HW2 1848   4.314   1.729   4.255
  317SOL     OW 1849   1.699   1.248   1.969
  317SOL    HW1 1850   1.730   1.260   1.874
  317SOL    HW2 1851   1.600   1.261   1.974
  318SOL     OW 1852   6.307   0.420   6.367
  318SOL    HW1 1853   6.224   0.365   6.380
  318SOL    HW2 1854   6.388   0.363   6.385
  319SOL     OW 1855   6.841   2.009   3.101
  319SOL    HW1 1856   6.839   2.090   3.159
  319SOL    HW2 1857   6.890   1.935   3.147
  320SOL     OW 1858   6.162   2.484   6.991
  320SOL    HW1 1859   6.126   2.497   6.899
  320SOL    HW2 1860   6.226   2.557   7.013
  321SOL     OW 1861   3.834   2.485   0.460
  321SOL    HW1 1862   3.852   2.390   0.486
  321SOL    HW2 1863   3.891   2.509   0.382
  322SOL     OW 1864   3.733   2.886   4.654
  322SOL    HW1 1865   3.778   2.896   4.564
  322SOL    HW2 1866   3.650   2.832   4.644
  323SOL     OW 1867   1.221   2.445   4.422
  323SOL    HW1 1868   1.147   2.480   4.363
  323SOL    HW2 1869   1.190   2.444   4.517
  324SOL     OW 1870   1.861   6.691   3.384
  324SOL    HW1 1871   1.779   6.718   3.332
  324SOL    HW2 1872   1.845   6.602   3.426
  325SOL     OW 1873   1.356   3.713   2.447
  325SOL    HW1 1874   1.385   3.699   2.353
  325SOL    HW2 1875   1.416   3.662   2.508
  326SOL     OW 1876   1.361   4.285   5.759
  326SOL    HW1 1877   1.273   4.333   5.763
  326SOL    HW2 1878   1.435   4.350   5.771
  327SOL     OW 1879   2.685   4.604   2.531
  327SOL    HW1 1880   2.749   4.670   2.493
  327SOL    HW2 1881   2.604   4.598   2.472
  328SOL     OW 1882   2.065   4.746   1.467
  328SOL    HW1 1883   2.158   4.730   1.434
  328SOL    HW2 1884   2.031   4.832   1.431
  329SOL     OW 1885   3.025   4.321   6.126
  329SOL    HW1 1886   2.939   4.369   6.113
  329SOL    HW2 1887   3.036   4.299   6.224
  330SOL     OW 1888   4.049   5.714   0.432
  330SOL    HW1 1889   3.968   5.706   0.490
  330SOL    HW2 1890   4.022   5.724   0.337
  331SOL     OW 1891   5.524   4.770   1.046
  331SOL    HW1 1892   5.521   4.709   0.967
  331SOL    HW2 1893   5.611   4.757   1.094
  332SOL     OW 1894   5.599   1.959   3.871
  332SOL    HW1 1895   5.650   1.948   3.957
  332SOL    HW2 1896   5.661   1.992   3.800
  333SOL     OW 1897   4.799   0.536   5.067
  333SOL    HW1 1898   4.713   0.554   5.020
  333SOL    HW2 1899   4.780   0.496   5.157
  334SOL     OW 1900   4.095   2.642   1.359
  334SOL    HW1 1901   4.020   2.582   1.331
  334SOL    HW2 1902   4.135   2.608   1.445
  335SOL     OW 1903   4.646   0.345   6.616
  335SOL    HW1 1904   4.741   0.340   6.585
  335SOL    HW2 1905   4.633   0.427   6.670
  336SOL     OW 1906   2.851   2.100   3.279
  336SOL    HW1 1907   2.856   2.001   3.295
  336SOL    HW2 1908   2.892   2.122   3.191
  337SOL     OW 1909   1.017   2.777   5.980
  337SOL    HW1 1910   1.105   2.824   5.971
  337SOL    HW2 1911   0.943   2.838   5.951
  338SOL     OW 1912   3.424   3.311   0.730
  338SOL    HW1 1913   3.328   3.324   0.704
  338SOL    HW2 1914   3.428   3.268   0.820
  339SOL     OW 1915   4.115   4.862   4.378
  339SOL    HW1 1916   4.034   4.826   4.424
  339SOL    HW2 1917   4.091   4.943   4.324
  340SOL     OW 1918   4.980   3.424   5.130
  340SOL    HW1 1919   4.923   3.349   5.163
  340SOL    HW2 1920   4.925   3.488   5.076
  341SOL     OW 1921   5.910   6.152   4.117
  341SOL    HW1 1922   5.853   6.070   4.106
  341SOL    HW2 1923   5.989   6.145   4.057
  342SOL     OW 1924   4.678   3.016   0.799
  342SOL    HW1 1925   4.673   2.931   0.747
  342SOL    HW2 1926   4.764   3.018   0.850
  343SOL     OW 1927   0.232   6.672   2.124
  343SOL    HW1 1928   0.145   6.690   2.077
  343SOL    HW2 1929   0.215   6.661   2.222
  344SOL     OW 1930   1.159   2.246   1.909
  344SOL    HW1 1931   1.064   2.273   1.893
  344SOL    HW2 1932   1.183   2.262   2.005
  345SOL     OW 1933   6.159   2.197   4.137
  345SOL    HW1 1934   6.153   2.185   4.038
  345SOL    HW2 1935   6.107   2.125   4.183
  346SOL     OW 1936   1.449   0.363   2.448
  346SOL    HW1 1937   1.531   0.358   2.506
  346SOL    HW2 1938   1.419   0.271   2.424
  347SOL     OW 1939   3.029   5.889   6.672
  347SOL    HW1 1940   3.006   5.976   6.628
  347SOL    HW2 1941   3.076   5.907   6.758
  348SOL     OW 1942   4.752   5.047   3.063
  348SOL    HW1 1943   4.754   5.100   2.978
  348SOL    HW2 1944   4.665   5.062   3.110
  349SOL     OW 1945   0.005   4.577   2.506
  349SOL    HW1 1946   6.952   4.573   2.435
  349SOL    HW2 1947   6.995   4.521   2.584
  350SOL     OW 1948   2.806   2.831   0.528
  350SOL    HW1 1949   2.769   2.887   0.454
  350SOL    HW2 1950   2.773   2.865   0.616
  351SOL     OW 1951   2.817   3.204   0.594
  351SOL    HW1 1952   2.866   3.175   0.512
  351SOL    HW2 1953   2.761   3.129   0.627
  352SOL     OW 1954   3.678   6.322   3.582
  352SOL    HW1 1955   3.657   6.224   3.580
  352SOL    HW2 1956   3.770   6.337   3.544
  353SOL     OW 1957   3.100   0.731   6.301
  353SOL    HW1 1958   3.130   0.736   6.396
  353SOL    HW2 1959   3.151   0.797   6.246
  354SOL     OW 1960   4.661   2.416   1.060
  354SOL    HW1 1961   4.603   2.403   0.980
  354SOL    HW2 1962   4.690   2.511   1.066
  355SOL     OW 1963   1.778   3.774   2.138
  355SOL    HW1 1964   1.731   3.812   2.218
  355SOL    HW2 1965   1.754   3.677   2.129
  356SOL     OW 1966   2.250   1.090   4.743
  356SOL    HW1 1967   2.248   0.991   4.726
  356SOL    HW2 1968   2.317   1.110   4.814
  357SOL     OW 1969   0.033   6.075   4.205
  357SOL    HW1 1970   6.987   6.140   4.164
  357SOL    HW2 1971   7.009   6.034   4.286
  358SOL     OW 1972   4.723   6.522   0.768
  358SOL    HW1 1973   4.728   6.586   0.845
  358SOL    HW2 1974   4.696   6.571   0.686
  359SOL     OW 1975   2.857   0.947   2.143
  359SOL    HW1 1976   2.906   1.029   2.114
  359SOL    HW2 1977   2.866   0.876   2.073
  360SOL     OW 1978   1.412   3.882   4.209
  360SOL    HW1 1979   1.413   3.917   4.302
  360SOL    HW2 1980   1.474   3.936   4.152
  361SOL     OW 1981   6.737   5.864   2.936
  361SOL    HW1 1982   6.724   5.962   2.922
  361SOL    HW2 1983   6.708   5.814   2.855
  362SOL     OW 1984   3.313   2.960   1.198
  362SOL    HW1 1985   3.299   2.861   1.209
  362SOL    HW2 1986   3.335   3.000   1.287
  363SOL     OW 1987   5.767   5.037   3.050
  363SOL    HW1 1988   5.676   5.071   3.026
  363SOL    HW2 1989   5.770   4.938   3.036
  364SOL     OW 1990   6.824   5.049   6.839
  364SOL    HW1 1991   6.846   5.093   6.926
  364SOL    HW2 1992   6.908   5.038   6.786
  365SOL     OW 1993   4.304   0.781   1.166
  365SOL    HW1 1994   4.342   0.784   1.073
  365SOL    HW2 1995   4.219   0.728   1.165
  366SOL     OW 1996   5.709   2.440   0.019
  366SOL    HW1 1997   5.686   2.526   0.063
  366SOL    HW2 1998   5.641   2.418   6.967
  367SOL     OW 1999   5.960   2.506   6.480
  367SOL    HW1 2000   5.920   2.418   6.452
  367SOL    HW2 2001   6.017   2.542   6.407
  368SOL     OW 2002   6.909   2.626   5.462
  368SOL    HW1 2003   6.920   2.634   5.561
  368SOL    HW2 2004   6.917   2.716   5.420
  369SOL     OW 2005   5.829   4.424   2.963
  369SOL    HW1 2006   5.796   4.484   2.890
  369SOL    HW2 2007   5.892   4.474   3.022
  370SOL     OW 2008   0.681   2.444   4.079
  370SOL    HW1 2009   0.649   2.501   4.155
  370SOL    HW2 2010   0.619   2.367   4.068
  371SOL     OW 2011   1.674   4.293   0.241
  371SOL    HW1 2012   1.576   4.308   0.241
  371SOL    HW2 2013   1.709   4.299   0.335
  372SOL     OW 2014   2.005   6.851   5.313
  372SOL    HW1 2015   1.960   6.939   5.329
  372SOL    HW2 2016   2.014   6.802   5.399
  373SOL     OW 2017   5.486   5.942   5.335
  373SOL    HW1 2018   5.525   6.006   5.268
  373SOL    HW2 2019   5.425   5.992   5.396
  374SOL     OW 2020   2.200   2.706   3.429
  374SOL    HW1 2021   2.208   2.756   3.343
  374SOL    HW2 2022   2.291   2.676   3.459
  375SOL     OW 2023   1.296   4.707   4.179
  375SOL    HW1 2024   1.322   4.757   4.261
  375SOL    HW2 2025   1.376   4.661   4.141
  376SOL     OW 2026   1.450   1.758   5.070
  376SOL    HW1 2027   1.522   1.821   5.098
  376SOL    HW2 2028   1.362   1.806   5.067
  377SOL     OW 2029   1.854   2.446   0.036
  377SOL    HW1 2030   1.871   2.362   7.003
  377SOL    HW2 2031   1.819   2.516   6.992
  378SOL     OW 2032   4.019   1.587   0.342
  378SOL    HW1 2033   3.987   1.609   0.250
  378SOL    HW2 2034   4.017   1.488   0.355
  379SOL     OW 2035   5.182   2.502   6.807
  379SOL    HW1 2036   5.223   2.417   6.841
  379SOL    HW2 2037   5.138   2.551   6.882
  380SOL     OW 2038   3.279   0.937   1.175
  380SOL    HW1 2039   3.299   1.028   1.141
  380SOL    HW2 2040   3.359   0.902   1.225
  381SOL     OW 2041   1.154   3.660   3.397
  381SOL    HW1 2042   1.225   3.605   3.440
  381SOL    HW2 2043   1.191   3.705   3.316
  382SOL     OW 2044   5.895   0.578   0.011
  382SOL    HW1 2045   5.849   0.590   0.099
  382SOL    HW2 2046   5.994   0.574   0.026
  383SOL     OW 2047   3.965   3.662   0.315
  383SOL    HW1 2048   3.964   3.618   0.225
  383SOL    HW2 2049   3.937   3.596   0.384
  384SOL     OW 2050   6.977   5.348   5.039
  384SOL    HW1 2051   6.977   5.250   5.060
  384SOL    HW2 2052   6.885   5.375   5.010
  385SOL     OW 2053   3.631   6.091   5.611
  385SOL    HW1 2054   3.557   6.098   5.544
  385SOL    HW2 2055   3.629   6.170   5.672
  386SOL     OW 2056   3.385   6.993   4.413
  386SOL    HW1 2057   3.342   0.063   4.392
  386SOL    HW2 2058   3.317   6.920   4.409
  387SOL     OW 2059   0.758   5.714   2.459
  387SOL    HW1 2060   0.664   5.748   2.450
  387SOL    HW2 2061   0.820   5.772   2.406
  388SOL     OW 2062   1.883   2.356   6.644
  388SOL    HW1 2063   1.791   2.393   6.633
  388SOL    HW2 2064   1.883   2.259   6.620
  389SOL     OW 2065   3.311   3.823   2.621
  389SOL    HW1 2066   3.328   3.922   2.625
  389SOL    HW2 2067   3.395   3.776   2.593
  390SOL     OW 2068   3.076   0.963   3.774
  390SOL    HW1 2069   3.096   0.904   3.852
  390SOL    HW2 2070   3.050   0.906   3.695
  391SOL     OW 2071   2.461   2.724   6.014
  391SOL    HW1 2072   2.531   2.695   6.079
  391SOL    HW2 2073   2.383   2.662   6.018
  392SOL     OW 2074   1.413   4.272   0.265
  392SOL    HW1 2075   1.353   4.335   0.314
  392SOL    HW2 2076   1.405   4.180   0.304
  393SOL     OW 2077   0.212   4.924   6.475
  393SOL    HW1 2078   0.133   4.870   6.445
  393SOL    HW2 2079   0.191   4.968   6.562
  394SOL     OW 2080   6.962   0.791   6.618
  394SOL    HW1 2081   6.904   0.869   6.642
  394SOL    HW2 2082   6.948   0.717   6.684
  395SOL     OW 2083   4.983   3.889   3.617
  395SOL    HW1 2084   4.983   3.941   3.702
  395SOL    HW2 2085   5.060   3.918   3.559
  396SOL     OW 2086   3.914   3.895   1.819
  396SOL    HW1 2087   3.954   3.926   1.733
  396SOL    HW2 2088   3.840   3.956   1.846
  397SOL     OW 2089   4.042   2.405   5.542
  397SOL    HW1 2090   4.019   2.367   5.631
  397SOL    HW2 2091   4.138   2.433   5.541
  398SOL     OW 2092   0.540   6.203   2.402
  398SOL    HW1 2093   0.531   6.240   2.495
  398SOL    HW2 2094   0.637   6.193   2.379
  399SOL     OW 2095   5.276   6.529   2.743
  399SOL    HW1 2096   5.209   6.456   2.751
  399SOL    HW2 2097   5.234   6.616   2.767
  400SOL     OW 2098   6.142   6.602   5.619
  400SOL    HW1 2099   6.224   6.592   5.676
  400SOL    HW2 2100   6.064   6.624   5.678
  401SOL     OW 2101   5.007   0.669   5.207
  401SOL    HW1 2102   5.069   0.608   5.257
  401SOL    HW2 2103   4.953   0.615   5.142
  402SOL     OW 2104   6.007   0.443   2.943
  402SOL    HW1 2105   6.061   0.506   2.887
  402SOL    HW2 2106   6.060   0.417   3.024
  403SOL     OW 2107   4.145   2.013   5.092
  403SOL    HW1 2108   4.211   2.088   5.080
  403SOL    HW2 2109   4.193   1.933   5.128
  404SOL     OW 2110   1.575   6.063   4.028
  404SOL    HW1 2111   1.531   6.091   3.943
  404SOL    HW2 2112   1.554   5.967   4.048
  405SOL     OW 2113   1.737   3.940   1.643
  405SOL    HW1 2114   1.808   4.005   1.670
  405SOL    HW2 2115   1.758   3.850   1.681
  406SOL     OW 2116   0.666   4.239   4.142
  406SOL    HW1 2117   0.738   4.258   4.209
  406SOL    HW2 2118   0.587   4.199   4.189
  407SOL     OW 2119   2.299   0.518   3.430
  407SOL    HW1 2120   2.335   0.445   3.371
  407SOL    HW2 2121   2.283   0.600   3.375
  408SOL     OW 2122   0.496   2.457   3.025
  408SOL    HW1 2123   0.444   2.491   2.947
  408SOL    HW2 2124   0.441   2.464   3.108
  409SOL     OW 2125   6.210   2.677   1.147
  409SOL    HW1 2126   6.169   2.714   1.063
  409SOL    HW2 2127   6.141   2.623   1.196
  410SOL     OW 2128   1.673   0.834   0.366
  410SOL    HW1 2129   1.639   0.740   0.373
  410SOL    HW2 2130   1.637   0.887   0.443
  411SOL     OW 2131   5.618   6.922   6.863
  411SOL    HW1 2132   5.640   6.848   6.799
  411SOL    HW2 2133   5.586   7.002   6.813
  412SOL     OW 2134   5.478   6.550   3.580
  412SOL    HW1 2135   5.496   6.601   3.664
  412SOL    HW2 2136   5.533   6.466   3.580
  413SOL     OW 2137   5.439   5.506   1.969
  413SOL    HW1 2138   5.531   5.540   1.954
  413SOL    HW2 2139   5.436   5.455   2.056
  414SOL     OW 2140   3.992   4.859   3.591
  414SOL    HW1 2141   4.064   4.814   3.645
  414SOL    HW2 2142   4.029   4.941   3.549
  415SOL     OW 2143   0.731   5.869   6.380
  415SOL    HW1 2144   0.819   5.910   6.404
  415SOL    HW2 2145   0.661   5.900   6.444
  416SOL     OW 2146   5.298   5.496   4.311
  416SOL    HW1 2147   5.203   5.525   4.305
  416SOL    HW2 2148   5.358   5.573   4.292
  417SOL     OW 2149   2.416   5.180   0.617
  417SOL    HW1 2150   2.398   5.277   0.631
  417SOL    HW2 2151   2.486   5.169   0.546
  418SOL     OW 2152   4.075   6.022   1.526
  418SOL    HW1 2153   4.149   5.955   1.525
  418SOL    HW2 2154   3.993   5.980   1.565
  419SOL     OW 2155   1.828   0.000   0.950
  419SOL    HW1 2156   1.809   0.088   0.906
  419SOL    HW2 2157   1.742   6.966   0.959
  420SOL     OW 2158   5.977   1.815   0.407
  420SOL    HW1 2159   5.905   1.745   0.406
  420SOL    HW2 2160   5.936   1.905   0.415
  421SOL     OW 2161   0.100   5.119   6.255
  421SOL    HW1 2162   0.061   5.093   6.343
  421SOL    HW2 2163   0.030   5.111   6.184
  422SOL     OW 2164   5.212   4.592   0.632
  422SOL    HW1 2165   5.206   4.622   0.537
  422SOL    HW2 2166   5.151   4.648   0.688
  423SOL     OW 2167   0.658   2.347   0.417
  423SOL    HW1 2168   0.608   2.431   0.393
  423SOL    HW2 2169   0.756   2.365   0.417
  424SOL     OW 2170   2.608   3.655   1.158
  424SOL    HW1 2171   2.647   3.746   1.173
  424SOL    HW2 2172   2.679   3.593   1.126
  425SOL     OW 2173   5.683   1.280   2.014
  425SOL    HW1 2174   5.764   1.289   1.956
  425SOL    HW2 2175   5.601   1.292   1.958
  426SOL     OW 2176   4.499   2.204   4.006
  426SOL    HW1 2177   4.431   2.261   3.959
  426SOL    HW2 2178   4.555   2.261   4.066
  427SOL     OW 2179   5.149   5.250   2.585
  427SOL    HW1 2180   5.174   5.158   2.618
  427SOL    HW2 2181   5.074   5.286   2.640
  428SOL     OW 2182   4.355   0.190   4.518
  428SOL    HW1 2183   4.409   0.274   4.517
  428SOL    HW2 2184   4.397   0.121   4.459
  429SOL     OW 2185   2.404   3.531   0.998
  429SOL    HW1 2186   2.445   3.593   1.066
  429SOL    HW2 2187   2.308   3.556   0.984
  430SOL     OW 2188   6.600   0.279   4.276
  430SOL    HW1 2189   6.509   0.252   4.306
  430SOL    HW2 2190   6.666   0.209   4.303
  431SOL     OW 2191   3.712   6.668   0.397
  431SOL    HW1 2192   3.704   6.577   0.437
  431SOL    HW2 2193   3.800   6.708   0.421
  432SOL     OW 2194   6.551   1.784   1.531
  432SOL    HW1 2195   6.457   1.818   1.530
  432SOL    HW2 2196   6.560   1.708   1.467
  433SOL     OW 2197   3.273   6.065   4.686
  433SOL    HW1 2198   3.366   6.036   4.661
  433SOL    HW2 2199   3.257   6.157   4.653
  434SOL     OW 2200   3.509   5.952   1.905
  434SOL    HW1 2201   3.604   5.967   1.878
  434SOL    HW2 2202   3.490   5.854   1.908
  435SOL     OW 2203   5.348   2.412   5.564
  435SOL    HW1 2204   5.340   2.470   5.483
  435SOL    HW2 2205   5.263   2.412   5.615
  436SOL     OW 2206   3.463   6.148   0.831
  436SOL    HW1 2207   3.386   6.199   0.869
  436SOL    HW2 2208   3.465   6.057   0.871
  437SOL     OW 2209   1.136   0.143   6.453
  437SOL    HW1 2210   1.143   0.156   6.354
  437SOL    HW2 2211   1.132   0.231   6.499
  438SOL     OW 2212   2.074   3.615   2.238
  438SOL    HW1 2213   2.015   3.535   2.225
  438SOL    HW2 2214   2.155   3.588   2.290
  439SOL     OW 2215   5.742   4.194   3.620
  439SOL    HW1 2216   5.668   4.213   3.555
  439SOL    HW2 2217   5.718   4.115   3.676
  440SOL     OW 2218   1.870   1.239   5.064
  440SOL    HW1 2219   1.859   1.283   5.153
  440SOL    HW2 2220   1.968   1.234   5.042
  441SOL     OW 2221   1.095   2.697   3.699
  441SOL    HW1 2222   1.162   2.645   3.753
  441SOL    HW2 2223   1.105   2.794   3.719
  442SOL     OW 2224   2.983   5.049   6.150
  442SOL    HW1 2225   2.988   5.087   6.058
  442SOL    HW2 2226   3.076   5.035   6.185
  443SOL     OW 2227   6.207   4.372   4.370
  443SOL    HW1 2228   6.277   4.386   4.300
  443SOL    HW2 2229   6.159   4.458   4.387
  444SOL     OW 2230   5.054   1.780   5.903
  444SOL    HW1 2231   4.975   1.821   5.856
  444SOL    HW2 2232   5.032   1.766   5.999
  445SOL     OW 2233   0.477   5.368   2.817
  445SOL    HW1 2234   0.418   5.288   2.831
  445SOL    HW2 2235   0.561   5.356   2.870
  446SOL     OW 2236   4.288   4.589   3.327
  446SOL    HW1 2237   4.382   4.556   3.328
  446SOL    HW2 2238   4.232   4.533   3.388
  447SOL     OW 2239   0.929   2.586   6.421
  447SOL    HW1 2240   1.001   2.601   6.353
  447SOL    HW2 2241   0.871   2.667   6.426
  448SOL     OW 2242   3.042   0.580   4.207
  448SOL    HW1 2243   2.978   0.543   4.139
  448SOL    HW2 2244   2.996   0.652   4.260
  449SOL     OW 2245   4.274   0.864   4.489
  449SOL    HW1 2246   4.356   0.921   4.498
  449SOL    HW2 2247   4.194   0.914   4.521
  450SOL     OW 2248   1.546   6.000   3.713
  450SOL    HW1 2249   1.527   5.909   3.750
  450SOL    HW2 2250   1.460   6.046   3.690
  451SOL     OW 2251   1.812   1.633   3.757
  451SOL    HW1 2252   1.906   1.614   3.784
  451SOL    HW2 2253   1.750   1.575   3.809
  452SOL     OW 2254   6.393   6.115   1.238
  452SOL    HW1 2255   6.347   6.183   1.181
  452SOL    HW2 2256   6.474   6.155   1.281
  453SOL     OW 2257   4.073   1.190   5.196
  453SOL    HW1 2258   4.039   1.174   5.103
  453SOL    HW2 2259   4.058   1.108   5.251
  454SOL     OW 2260   7.010   4.776   6.397
  454SOL    HW1 2261   6.926   4.799   6.445
  454SOL    HW2 2262   6.989   4.760   6.300
  455SOL     OW 2263   6.069   2.646   3.127
  455SOL    HW1 2264   6.108   2.561   3.092
  455SOL    HW2 2265   6.111   2.724   3.081
  456SOL     OW 2266   5.908   6.403   3.993
  456SOL    HW1 2267   5.913   6.318   4.045
  456SOL    HW2 2268   5.854   6.388   3.910
  457SOL     OW 2269   1.893   3.259   4.107
  457SOL    HW1 2270   1.821   3.291   4.046
  457SOL    HW2 2271   1.859   3.184   4.163
  458SOL     OW 2272   4.590   5.388   3.305
  458SOL    HW1 2273   4.577   5.432   3.216
  458SOL    HW2 2274   4.566   5.291   3.298
  459SOL     OW 2275   1.816   0.050   5.334
  459SOL    HW1 2276   1.877   0.100   5.273
  459SOL    HW2 2277   1.725   0.044   5.294
  460SOL     OW 2278   1.470   0.243   3.495
  460SOL    HW1 2279   1.382   0.289   3.485
  460SOL    HW2 2280   1.457   0.144   3.487
  461SOL     OW 2281   5.814   0.448   5.890
  461SOL    HW1 2282   5.857   0.390   5.959
  461SOL    HW2 2283   5.724   0.412   5.867
  462SOL     OW 2284   3.231   3.258   6.100
  462SOL    HW1 2285   3.142   3.288   6.065
  462SOL    HW2 2286   3.304   3.296   6.043
  463SOL     OW 2287   6.410   5.799   3.043
  463SOL    HW1 2288   6.380   5.773   2.951
  463SOL    HW2 2289   6.398   5.722   3.105
  464SOL     OW 2290   2.374   1.894   4.993
  464SOL    HW1 2291   2.418   1.940   4.915
  464SOL    HW2 2292   2.407   1.935   5.078
  465SOL     OW 2293   0.609   2.480   5.421
  465SOL    HW1 2294   0.703   2.477   5.387
  465SOL    HW2 2295   0.546   2.496   5.345
  466SOL     OW 2296   0.738   5.740   2.995
  466SOL    HW1 2297   0.753   5.767   2.900
  466SOL    HW2 2298   0.726   5.641   3.000
  467SOL     OW 2299   1.451   1.639   0.805
  467SOL    HW1 2300   1.429   1.599   0.894
  467SOL    HW2 2301   1.367   1.672   0.762
  468SOL     OW 2302   3.680   6.916   6.747
  468SOL    HW1 2303   3.659   6.961   6.660
  468SOL    HW2 2304   3.611   6.940   6.815
  469SOL     OW 2305   2.558   3.787   6.940
  469SOL    HW1 2306   2.585   3.751   0.012
  469SOL    HW2 2307   2.561   3.713   6.873
  470SOL     OW 2308   4.220   7.012   2.235
  470SOL    HW1 2309   4.266   0.083   2.232
  470SOL    HW2 2310   4.270   6.946   2.179
  471SOL     OW 2311   2.295   2.290   3.984
  471SOL    HW1 2312   2.230   2.363   3.963
  471SOL    HW2 2313   2.331   2.253   3.898
  472SOL     OW 2314   5.320   3.599   6.846
  472SOL    HW1 2315   5.318   3.505   6.814
  472SOL    HW2 2316   5.334   3.600   6.946
  473SOL     OW 2317   1.069   2.814   3.206
  473SOL    HW1 2318   1.114   2.796   3.294
  473SOL    HW2 2319   1.019   2.732   3.178
  474SOL     OW 2320   5.489   5.689   4.243
  474SOL    HW1 2321   5.532   5.663   4.156
  474SOL    HW2 2322   5.560   5.699   4.313
  475SOL     OW 2323   5.719   1.176   6.836
  475SOL    HW1 2324   5.814   1.161   6.863
  475SOL    HW2 2325   5.664   1.097   6.863
  476SOL     OW 2326   6.559   3.997   3.518
  476SOL    HW1 2327   6.622   4.073   3.536
  476SOL    HW2 2328   6.608   3.926   3.468
  477SOL     OW 2329   2.235   4.955   3.764
  477SOL    HW1 2330   2.158   4.944   3.701
  477SOL    HW2 2331   2.314   4.904   3.729
  478SOL     OW 2332   3.345   6.824   1.775
  478SOL    HW1 2333   3.350   6.784   1.684
  478SOL    HW2 2334   3.252   6.815   1.811
  479SOL     OW 2335   4.005   1.970   6.226
  479SOL    HW1 2336   4.100   1.945   6.246
  479SOL    HW2 2337   3.956   1.985   6.312
  480SOL     OW 2338   2.275   1.180   6.822
  480SOL    HW1 2339   2.359   1.234   6.825
  480SOL    HW2 2340   2.200   1.233   6.862
  481SOL     OW 2341   1.962   6.842   0.390
  481SOL    HW1 2342   1.925   6.808   0.303
  481SOL    HW2 2343   1.923   6.932   0.409
  482SOL     OW 2344   4.639   4.748   2.786
  482SOL    HW1 2345   4.702   4.677   2.819
  482SOL    HW2 2346   4.640   4.749   2.686
  483SOL     OW 2347   6.510   1.154   1.709
  483SOL    HW1 2348   6.418   1.134   1.744
  483SOL    HW2 2349   6.578   1.117   1.772
  484SOL     OW 2350   1.909   3.599   5.104
  484SOL    HW1 2351   1.903   3.513   5.054
  484SOL    HW2 2352   1.849   3.595   5.184
  485SOL     OW 2353   3.715   5.186   2.468
  485SOL    HW1 2354   3.788   5.254   2.464
  485SOL    HW2 2355   3.675   5.185   2.560
  486SOL     OW 2356   6.927   1.590   0.349
  486SOL    HW1 2357   6.843   1.631   0.312
  486SOL    HW2 2358   6.909   1.555   0.441
  487SOL     OW 2359   1.360   0.541   1.050
  487SOL    HW1 2360   1.405   0.488   1.123
  487SOL    HW2 2361   1.428   0.567   0.982
  488SOL     OW 2362   1.012   1.381   2.372
  488SOL    HW1 2363   0.946   1.449   2.341
  488SOL    HW2 2364   0.989   1.352   2.465
  489SOL     OW 2365   3.379   5.961   6.099
  489SOL    HW1 2366   3.386   5.887   6.166
  489SOL    HW2 2367   3.403   6.048   6.143
  490SOL     OW 2368   6.364   5.631   3.254
  490SOL    HW1 2369   6.319   5.550   3.217
  490SOL    HW2 2370   6.361   5.628   3.354
  491SOL     OW 2371   0.456   3.146   2.785
  491SOL    HW1 2372   0.486   3.053   2.805
  491SOL    HW2 2373   0.461   3.162   2.687
  492SOL     OW 2374   2.028   0.664   5.598
  492SOL    HW1 2375   2.023   0.695   5.693
  492SOL    HW2 2376   1.936   0.661   5.559
  493SOL     OW 2377   5.175   5.660   5.109
  493SOL    HW1 2378   5.270   5.688   5.118
  493SOL    HW2 2379   5.144   5.673   5.015
  494SOL     OW 2380   0.453   0.054   6.952
  494SOL    HW1 2381   0.363   0.014   6.934
  494SOL    HW2 2382   0.472   0.125   6.884
  495SOL     OW 2383   5.024   5.952   3.160
  495SOL    HW1 2384   5.073   6.033   3.193
  495SOL    HW2 2385   5.022   5.953   3.060
  496SOL     OW 2386   5.308   3.969   1.996
  496SOL    HW1 2387   5.256   4.030   1.937
  496SOL    HW2 2388   5.295   3.996   2.092
  497SOL     OW 2389   3.757   1.292   4.292
  497SOL    HW1 2390   3.743   1.352   4.214
  497SOL    HW2 2391   3.688   1.220   4.293
  498SOL     OW 2392   2.236   3.407   1.308
  498SOL    HW1 2393   2.168   3.476   1.330
  498SOL    HW2 2394   2.328   3.443   1.328
  499SOL     OW 2395   2.600   0.018   4.621
  499SOL    HW1 2396   2.657   6.954   4.608
  499SOL    HW2 2397   2.518   7.010   4.672
  500SOL     OW 2398   0.598   3.423   4.170
  500SOL    HW1 2399   0.615   3.381   4.259
  500SOL    HW2 2400   0.657   3.380   4.102
  501SOL     OW 2401   2.914   5.621   0.861
  501SOL    HW1 2402   2.973   5.641   0.784
  501SOL    HW2 2403   2.828   5.672   0.851
  502SOL     OW 2404   0.154   4.103   0.244
  502SOL    HW1 2405   0.219   4.155   0.188
  502SOL    HW2 2406   0.097   4.046   0.185
  503SOL     OW 2407   6.652   5.455   6.460
  503SOL    HW1 2408   6.739   5.415   6.431
  503SOL    HW2 2409   6.581   5.385   6.459
  504SOL     OW 2410   1.112   5.688   2.877
  504SOL    HW1 2411   1.077   5.596   2.860
  504SOL    HW2 2412   1.037   5.754   2.866
  505SOL     OW 2413   2.788   5.892   5.204
  505SOL    HW1 2414   2.718   5.909   5.135
  505SOL    HW2 2415   2.835   5.977   5.225
  506SOL     OW 2416   2.438   5.199   4.743
  506SOL    HW1 2417   2.506   5.135   4.709
  506SOL    HW2 2418   2.369   5.149   4.796
  507SOL     OW 2419   3.157   6.534   2.884
  507SOL    HW1 2420   3.118   6.447   2.915
  507SOL    HW2 2421   3.257   6.527   2.883
  508SOL     OW 2422   0.193   3.592   2.256
  508SOL    HW1 2423   0.286   3.591   2.293
  508SOL    HW2 2424   0.194   3.558   2.162
  509SOL     OW 2425   3.172   1.419   1.497
  509SOL    HW1 2426   3.239   1.346   1.512
  509SOL    HW2 2427   3.091   1.401   1.554
  510SOL     OW 2428   5.976   5.075   0.385
  510SOL    HW1 2429   6.067   5.058   0.348
  510SOL    HW2 2430   5.982   5.139   0.462
  511SOL     OW 2431   0.635   1.243   5.636
  511SOL    HW1 2432   0.639   1.215   5.540
  511SOL    HW2 2433   0.617   1.163   5.693
  512SOL     OW 2434   6.712   2.820   6.956
  512SOL    HW1 2435   6.810   2.800   6.952
  512SOL    HW2 2436   6.675   2.789   0.026
  513SOL     OW 2437   6.054   6.831   3.619
  513SOL    HW1 2438   5.999   6.765   3.568
  513SOL    HW2 2439   6.151   6.811   3.607
  514SOL     OW 2440   6.117   2.483   4.141
  514SOL    HW1 2441   6.140   2.385   4.137
  514SOL    HW2 2442   6.026   2.494   4.181
  515SOL     OW 2443   1.064   0.841   6.536
  515SOL    HW1 2444   1.017   0.753   6.546
  515SOL    HW2 2445   1.147   0.841   6.590
  516SOL     OW 2446   2.449   4.798   1.641
  516SOL    HW1 2447   2.370   4.746   1.608
  516SOL    HW2 2448   2.507   4.739   1.697
  517SOL     OW 2449   4.686   5.757   2.049
  517SOL    HW1 2450   4.645   5.824   1.988
  517SOL    HW2 2451   4.752   5.701   1.998
  518SOL     OW 2452   2.454   2.659   3.524
  518SOL    HW1 2453   2.482   2.578   3.473
  518SOL    HW2 2454   2.484   2.650   3.619
  519SOL     OW 2455   0.719   0.405   4.771
  519SOL    HW1 2456   0.773   0.440   4.694
  519SOL    HW2 2457   0.632   0.454   4.776
  520SOL     OW 2458   6.502   4.063   0.868
  520SOL    HW1 2459   6.528   4.106   0.782
  520SOL    HW2 2460   6.415   4.014   0.857
  521SOL     OW 2461   6.373   4.485   4.686
  521SOL    HW1 2462   6.340   4.498   4.780
  521SOL    HW2 2463   6.329   4.405   4.646
  522SOL     OW 2464   3.484   3.233   4.627
  522SOL    HW1 2465   3.557   3.237   4.696
  522SOL    HW2 2466   3.445   3.141   4.625
  523SOL     OW 2467   0.266   5.128   1.934
  523SOL    HW1 2468   0.301   5.172   2.017
  523SOL    HW2 2469   0.283   5.187   1.855
  524SOL     OW 2470   0.181   1.272   1.076
  524SOL    HW1 2471   0.251   1.236   1.139
  524SOL    HW2 2472   0.216   1.354   1.032
  525SOL     OW 2473   2.239   3.447   5.851
  525SOL    HW1 2474   2.303   3.412   5.919
  525SOL    HW2 2475   2.267   3.417   5.760
  526SOL     OW 2476   4.066   6.383   4.511
  526SOL    HW1 2477   4.100   6.473   4.537
  526SOL    HW2 2478   4.142   6.323   4.486
  527SOL     OW 2479   6.696   2.522   0.015
  527SOL    HW1 2480   6.618   2.463   0.037
  527SOL    HW2 2481   6.699   2.538   6.934
  528SOL     OW 2482   0.725   2.065   3.298
  528SOL    HW1 2483   0.656   2.085   3.228
  528SOL    HW2 2484   0.700   1.981   3.347
  529SOL     OW 2485   2.000   0.107   3.715
  529SOL    HW1 2486   1.926   0.125   3.651
  529SOL    HW2 2487   1.974   0.138   3.807
  530SOL     OW 2488   3.220   3.019   4.521
  530SOL    HW1 2489   3.295   3.033   4.455
  530SOL    HW2 2490   3.133   3.013   4.471
  531SOL     OW 2491   0.667   1.332   3.056
  531SOL    HW1 2492   0.627   1.282   3.133
  531SOL    HW2 2493   0.599   1.338   2.983
  532SOL     OW 2494   1.066   2.677   6.904
  532SOL    HW1 2495   1.005   2.751   6.876
  532SOL    HW2 2496   1.017   2.590   6.900
  533SOL     OW 2497   4.717   6.752   3.876
  533SOL    HW1 2498   4.683   6.787   3.963
  533SOL    HW2 2499   4.808   6.712   3.888
  534SOL     OW 2500   5.058   6.619   2.425
  534SOL    HW1 2501   4.996   6.647   2.351
  534SOL    HW2 2502   5.095   6.529   2.404
  535SOL     OW 2503   0.898   3.818   4.421
  535SOL    HW1 2504   0.951   3.874   4.358
  535SOL    HW2 2505   0.854   3.876   4.489
  536SOL     OW 2506   6.471   5.270   1.621
  536SOL    HW1 2507   6.564   5.295   1.593
  536SOL    HW2 2508   6.468   5.258   1.720
  537SOL     OW 2509   2.756   6.392   4.336
  537SOL    HW1 2510   2.807   6.324   4.388
  537SOL    HW2 2511   2.788   6.392   4.241
  538SOL     OW 2512   1.443   4.193   3.044
  538SOL    HW1 2513   1.430   4.232   3.135
  538SOL    HW2 2514   1.354   4.184   2.999
  539SOL     OW 2515   1.347   6.629   1.046
  539SOL    HW1 2516   1.313   6.712   1.089
  539SOL    HW2 2517   1.278   6.592   0.983
  540SOL     OW 2518   0.886   0.345   3.073
  540SOL    HW1 2519   0.898   0.375   2.978
  540SOL    HW2 2520   0.974   0.345   3.119
  541SOL     OW 2521   3.928   6.353   4.283
  541SOL    HW1 2522   3.987   6.381   4.359
  541SOL    HW2 2523   3.959   6.264   4.249
  542SOL     OW 2524   6.692   0.451   0.000
  542SOL    HW1 2525   6.789   0.434   0.017
  542SOL    HW2 2526   6.665   0.537   0.043
  543SOL     OW 2527   1.406   3.921   5.465
  543SOL    HW1 2528   1.490   3.869   5.452
  543SOL    HW2 2529   1.398   3.947   5.561
  544SOL     OW 2530   2.670   3.626   0.170
  544SOL    HW1 2531   2.580   3.589   0.191
  544SOL    HW2 2532   2.723   3.634   0.255
  545SOL     OW 2533   2.959   0.794   2.695
  545SOL    HW1 2534   2.868   0.829   2.673
  545SOL    HW2 2535   2.982   0.720   2.632
  546SOL     OW 2536   1.680   3.166   0.719
  546SOL    HW1 2537   1.649   3.255   0.687
  546SOL    HW2 2538   1.735   3.178   0.802
  547SOL     OW 2539   3.305   1.304   0.047
  547SOL    HW1 2540   3.392   1.273   0.010
  547SOL    HW2 2541   3.320   1.356   0.131
  548SOL     OW 2542   3.694   2.917   2.974
  548SOL    HW1 2543   3.775   2.942   3.027
  548SOL    HW2 2544   3.658   2.830   3.007
  549SOL     OW 2545   4.670   3.361   1.020
  549SOL    HW1 2546   4.619   3.353   1.105
  549SOL    HW2 2547   4.619   3.318   0.945
  550SOL     OW 2548   6.281   4.589   3.484
  550SOL    HW1 2549   6.193   4.624   3.515
  550SOL    HW2 2550   6.355   4.628   3.539
  551SOL     OW 2551   0.937   0.339   1.891
  551SOL    HW1 2552   1.034   0.363   1.884
  551SOL    HW2 2553   0.896   0.388   1.969
  552SOL     OW 2554   5.006   4.394   0.075
  552SOL    HW1 2555   4.937   4.323   0.060
  552SOL    HW2 2556   4.994   4.466   0.007
  553SOL     OW 2557   1.786   6.492   2.062
  553SOL    HW1 2558   1.736   6.557   2.118
  553SOL    HW2 2559   1.739   6.404   2.062
  554SOL     OW 2560   5.369   6.789   6.214
  554SOL    HW1 2561   5.428   6.727   6.267
  554SOL    HW2 2562   5.286   6.741   6.188
  555SOL     OW 2563   1.937   5.473   2.912
  555SOL    HW1 2564   1.844   5.439   2.899
  555SOL    HW2 2565   2.001   5.414   2.864
  556SOL     OW 2566   4.854   1.932   3.665
  556SOL    HW1 2567   4.796   1.984   3.728
  556SOL    HW2 2568   4.847   1.834   3.686
  557SOL     OW 2569   0.542   4.594   0.003
  557SOL    HW1 2570   0.529   4.693   0.003
  557SOL    HW2 2571   0.551   4.562   6.926
  558SOL     OW 2572   2.888   3.524   4.437
  558SOL    HW1 2573   2.925   3.552   4.348
  558SOL    HW2 2574   2.799   3.480   4.424
  559SOL     OW 2575   6.940   5.401   6.753
  559SOL    HW1 2576   6.854   5.447   6.775
  559SOL    HW2 2577   6.970   5.348   6.832
  560SOL     OW 2578   4.363   4.763   0.243
  560SOL    HW1 2579   4.439   4.703   0.265
  560SOL    HW2 2580   4.360   4.839   0.307
  561SOL     OW 2581   6.144   1.301   0.315
  561SOL    HW1 2582   6.101   1.210   0.322
  561SOL    HW2 2583   6.230   1.293   0.266
  562SOL     OW 2584   5.448   0.397   5.610
  562SOL    HW1 2585   5.412   0.463   5.675
  562SOL    HW2 2586   5.436   0.432   5.517
  563SOL     OW 2587   2.277   0.419   3.105
  563SOL    HW1 2588   2.321   0.445   3.019
  563SOL    HW2 2589   2.343   0.372   3.163
  564SOL     OW 2590   2.686   1.946   6.911
  564SOL    HW1 2591   2.619   1.944   6.986
  564SOL    HW2 2592   2.697   2.041   6.880
  565SOL     OW 2593   3.537   2.818   5.778
  565SOL    HW1 2594   3.520   2.765   5.861
  565SOL    HW2 2595   3.535   2.757   5.698
  566SOL     OW 2596   6.020   4.580   4.462
  566SOL    HW1 2597   5.952   4.565   4.534
  566SOL    HW2 2598   5.975   4.614   4.380
  567SOL     OW 2599   3.985   3.873   2.594
  567SOL    HW1 2600   4.055   3.943   2.577
  567SOL    HW2 2601   3.894   3.914   2.587
  568SOL     OW 2602   3.865   2.167   0.003
  568SOL    HW1 2603   3.896   2.208   6.935
  568SOL    HW2 2604   3.929   2.096   0.031
  569SOL     OW 2605   1.125   4.065   6.673
  569SOL    HW1 2606   1.073   4.019   6.601
  569SOL    HW2 2607   1.201   4.115   6.632
  570SOL     OW 2608   2.809   6.285   6.994
  570SOL    HW1 2609   2.768   6.205   0.022
  570SOL    HW2 2610   2.770   6.294   6.902
  571SOL     OW 2611   2.976   0.578   2.560
  571SOL    HW1 2612   2.983   0.491   2.609
  571SOL    HW2 2613   2.970   0.560   2.462
  572SOL     OW 2614   2.737   4.506   5.828
  572SOL    HW1 2615   2.785   4.592   5.846
  572SOL    HW2 2616   2.766   4.469   5.740
  573SOL     OW 2617   5.257   0.885   5.650
  573SOL    HW1 2618   5.190   0.919   5.584
  573SOL    HW2 2619   5.348   0.886   5.610
  574SOL     OW 2620   3.016   2.164   4.278
  574SOL    HW1 2621   2.953   2.166   4.355
  574SOL    HW2 2622   3.080   2.087   4.289
  575SOL     OW 2623   6.186   3.098   0.211
  575SOL    HW1 2624   6.201   3.119   0.307
  575SOL    HW2 2625   6.149   3.178   0.164
  576SOL     OW 2626   0.831   2.157   2.988
  576SOL    HW1 2627   0.889   2.084   3.026
  576SOL    HW2 2628   0.782   2.202   3.062
  577SOL     OW 2629   2.276   1.323   3.007
  577SOL    HW1 2630   2.244   1.233   2.978
  577SOL    HW2 2631   2.203   1.390   2.997
  578SOL     OW 2632   6.468   4.998   3.607
  578SOL    HW1 2633   6.460   5.069   3.537
  578SOL    HW2 2634   6.556   5.007   3.654
  579SOL     OW 2635   1.724   3.496   1.834
  579SOL    HW1 2636   1.662   3.462   1.905
  579SOL    HW2 2637   1.814   3.454   1.845
  580SOL     OW 2638   6.725   4.404   6.634
  580SOL    HW1 2639   6.717   4.340   6.710
  580SOL    HW2 2640   6.738   4.353   6.549
  581SOL     OW 2641   3.100   3.874   2.364
  581SOL    HW1 2642   3.069   3.891   2.458
  581SOL    HW2 2643   3.163   3.946   2.336
  582SOL     OW 2644   5.712   5.307   2.529
  582SOL    HW1 2645   5.632   5.341   2.578
  582SOL    HW2 2646   5.702   5.209   2.512
  583SOL     OW 2647   2.623   5.168   6.257
  583SOL    HW1 2648   2.649   5.249   6.310
  583SOL    HW2 2649   2.600   5.196   6.164
  584SOL     OW 2650   1.782   4.036   6.730
  584SOL    HW1 2651   1.855   4.060   6.666
  584SOL    HW2 2652   1.699   4.086   6.706
  585SOL     OW 2653   5.605   3.030   6.526
  585SOL    HW1 2654   5.668   3.088   6.474
  585SOL    HW2 2655   5.648   3.000   6.610
  586SOL     OW 2656   3.541   1.510   6.177
  586SOL    HW1 2657   3.469   1.452   6.138
  586SOL    HW2 2658   3.506   1.555   6.259
  587SOL     OW 2659   2.487   2.052   4.772
  587SOL    HW1 2660   2.479   2.122   4.702
  587SOL    HW2 2661   2.581   2.016   4.773
  588SOL     OW 2662   2.289   4.504   0.830
  588SOL    HW1 2663   2.363   4.459   0.781
  588SOL    HW2 2664   2.217   4.437   0.850
  589SOL     OW 2665   3.274   5.263   1.339
  589SOL    HW1 2666   3.307   5.340   1.394
  589SOL    HW2 2667   3.310   5.178   1.377
  590SOL     OW 2668   5.646   2.985   2.113
  590SOL    HW1 2669   5.605   3.011   2.025
  590SOL    HW2 2670   5.652   2.886   2.119
  591SOL     OW 2671   3.824   6.193   3.896
  591SOL    HW1 2672   3.736   6.188   3.943
  591SOL    HW2 2673   3.848   6.289   3.881
  592SOL     OW 2674   3.159   0.365   1.210
  592SOL    HW1 2675   3.177   0.410   1.297
  592SOL    HW2 2676   3.191   0.424   1.135
  593SOL     OW 2677   4.910   2.534   3.857
  593SOL    HW1 2678   4.958   2.446   3.849
  593SOL    HW2 2679   4.910   2.579   3.768
  594SOL     OW 2680   5.030   2.322   6.251
  594SOL    HW1 2681   5.030   2.276   6.340
  594SOL    HW2 2682   5.117   2.369   6.238
  595SOL     OW 2683   5.574   0.298   3.785
  595SOL    HW1 2684   5.515   0.293   3.705
  595SOL    HW2 2685   5.663   0.258   3.763
  596SOL     OW 2686   1.445   4.149   2.448
  596SOL    HW1 2687   1.362   4.103   2.416
  596SOL    HW2 2688   1.452   4.139   2.548
  597SOL     OW 2689   4.217   6.931   6.281
  597SOL    HW1 2690   4.181   6.892   6.196
  597SOL    HW2 2691   4.261   0.001   6.262
  598SOL     OW 2692   3.318   4.594   6.666
  598SOL    HW1 2693   3.411   4.594   6.703
  598SOL    HW2 2694   3.306   4.674   6.608
  599SOL     OW 2695   2.211   6.345   2.752
  599SOL    HW1 2696   2.176   6.358   2.660
  599SOL    HW2 2697   2.138   6.313   2.812
  600SOL     OW 2698   1.092   0.559   0.961
  600SOL    HW1 2699   1.021   0.570   1.031
  600SOL    HW2 2700   1.180   0.543   1.006
  601SOL     OW 2701   3.449   6.718   3.892
  601SOL    HW1 2702   3.477   6.709   3.987
  601SOL    HW2 2703   3.432   6.627   3.853
  602SOL     OW 2704   1.607   3.043   6.752
  602SOL    HW1 2705   1.588   3.118   6.816
  602SOL    HW2 2706   1.601   2.956   6.801
  603SOL     OW 2707   4.111   1.621   3.355
  603SOL    HW1 2708   4.053   1.560   3.409
  603SOL    HW2 2709   4.060   1.654   3.276
  604SOL     OW 2710   0.609   3.848   1.100
  604SOL    HW1 2711   0.663   3.779   1.053
  604SOL    HW2 2712   0.648   3.865   1.191
  605SOL     OW 2713   6.132   5.770   2.871
  605SOL    HW1 2714   6.134   5.671   2.859
  605SOL    HW2 2715   6.172   5.794   2.959
  606SOL     OW 2716   5.213   0.647   6.548
  606SOL    HW1 2717   5.149   0.692   6.610
  606SOL    HW2 2718   5.163   0.595   6.479
  607SOL     OW 2719   5.096   0.429   5.440
  607SOL    HW1 2720   5.059   0.515   5.474
  607SOL    HW2 2721   5.121   0.371   5.518
  608SOL     OW 2722   4.090   6.219   6.827
  608SOL    HW1 2723   4.022   6.146   6.828
  608SOL    HW2 2724   4.085   6.269   6.740
  609SOL     OW 2725   3.938   3.048   3.834
  609SOL    HW1 2726   4.004   2.980   3.865
  609SOL    HW2 2727   3.957   3.135   3.878
  610SOL     OW 2728   5.210   2.271   2.464
  610SOL    HW1 2729   5.258   2.221   2.392
  610SOL    HW2 2730   5.182   2.361   2.430
  611SOL     OW 2731   1.801   0.208   6.455
  611SOL    HW1 2732   1.845   0.280   6.509
  611SOL    HW2 2733   1.754   0.250   6.377
  612SOL     OW 2734   4.223   6.570   6.250
  612SOL    HW1 2735   4.212   6.476   6.282
  612SOL    HW2 2736   4.259   6.627   6.324
  613SOL     OW 2737   4.174   6.812   6.006
  613SOL    HW1 2738   4.109   6.855   5.943
  613SOL    HW2 2739   4.180   6.714   5.984
  614SOL     OW 2740   5.848   3.468   0.992
  614SOL    HW1 2741   5.768   3.418   1.026
  614SOL    HW2 2742   5.835   3.491   0.896
  615SOL     OW 2743   0.432   1.996   1.010
  615SOL    HW1 2744   0.367   1.960   1.077
  615SOL    HW2 2745   0.403   1.968   0.918
  616SOL     OW 2746   6.596   1.749   3.048
  616SOL    HW1 2747   6.681   1.735   3.099
  616SOL    HW2 2748   6.609   1.717   2.954
  617SOL     OW 2749   6.887   3.524   6.772
  617SOL    HW1 2750   6.828   3.455   6.814
  617SOL    HW2 2751   6.983   3.496   6.783
  618SOL     OW 2752   0.267   3.448   0.171
  618SOL    HW1 2753   0.252   3.530   0.116
  618SOL    HW2 2754   0.180   3.403   0.189
  619SOL     OW 2755   4.622   6.821   6.850
  619SOL    HW1 2756   4.695   6.766   6.811
  619SOL    HW2 2757   4.605   6.791   6.944
  620SOL     OW 2758   5.255   2.441   1.730
  620SOL    HW1 2759   5.338   2.402   1.770
  620SOL    HW2 2760   5.175   2.396   1.769
  621SOL     OW 2761   1.814   6.911   5.605
  621SOL    HW1 2762   1.757   6.979   5.560
  621SOL    HW2 2763   1.792   6.820   5.569
  622SOL     OW 2764   0.665   1.603   5.306
  622SOL    HW1 2765   0.738   1.546   5.270
  622SOL    HW2 2766   0.644   1.676   5.240
  623SOL     OW 2767   0.632   6.553   5.510
  623SOL    HW1 2768   0.718   6.601   5.489
  623SOL    HW2 2769   0.653   6.462   5.546
  624SOL     OW 2770   6.787   1.095   0.321
  624SOL    HW1 2771   6.820   1.011   0.364
  624SOL    HW2 2772   6.804   1.092   0.223
  625SOL     OW 2773   1.870   2.024   1.156
  625SOL    HW1 2774   1.816   2.067   1.228
  625SOL    HW2 2775   1.829   1.936   1.131
  626SOL     OW 2776   0.191   6.177   3.070
  626SOL    HW1 2777   0.094   6.178   3.094
  626SOL    HW2 2778   0.210   6.249   3.004
  627SOL     OW 2779   6.589   6.223   0.734
  627SOL    HW1 2780   6.558   6.261   0.822
  627SOL    HW2 2781   6.576   6.124   0.736
  628SOL     OW 2782   5.739   4.718   5.229
  628SOL    HW1 2783   5.658   4.702   5.174
  628SOL    HW2 2784   5.741   4.654   5.306
  629SOL     OW 2785   0.697   0.852   6.580
  629SOL    HW1 2786   0.780   0.906   6.597
  629SOL    HW2 2787   0.664   0.813   6.666
  630SOL     OW 2788   0.293   2.228   0.929
  630SOL    HW1 2789   0.371   2.174   0.958
  630SOL    HW2 2790   0.290   2.314   0.981
  631SOL     OW 2791   4.011   1.099   4.928
  631SOL    HW1 2792   4.069   1.160   4.875
  631SOL    HW2 2793   3.957   1.042   4.866
  632SOL     OW 2794   5.330   2.292   1.073
  632SOL    HW1 2795   5.330   2.255   0.980
  632SOL    HW2 2796   5.275   2.232   1.132
  633SOL     OW 2797   3.409   4.316   6.851
  633SOL    HW1 2798   3.364   4.310   6.940
  633SOL    HW2 2799   3.449   4.227   6.827
  634SOL     OW 2800   3.317   3.715   2.903
  634SOL    HW1 2801   3.292   3.718   2.806
  634SOL    HW2 2802   3.403   3.667   2.914
  635SOL     OW 2803   4.868   6.259   0.757
  635SOL    HW1 2804   4.836   6.329   0.821
  635SOL    HW2 2805   4.811   6.260   0.675
  636SOL     OW 2806   2.490   6.743   6.138
  636SOL    HW1 2807   2.568   6.712   6.084
  636SOL    HW2 2808   2.441   6.814   6.087
  637SOL     OW 2809   0.098   3.005   2.716
  637SOL    HW1 2810   0.116   2.994   2.814
  637SOL    HW2 2811   0.020   3.066   2.703
  638SOL     OW 2812   6.174   3.176   3.662
  638SOL    HW1 2813   6.119   3.100   3.629
  638SOL    HW2 2814   6.118   3.236   3.720
  639SOL     OW 2815   4.890   3.819   2.752
  639SOL    HW1 2816   4.867   3.727   2.783
  639SOL    HW2 2817   4.989   3.832   2.754
  640SOL     OW 2818   0.069   5.138   3.626
  640SOL    HW1 2819   0.016   5.216   3.594
  640SOL    HW2 2820   0.141   5.170   3.688
  641SOL     OW 2821   0.830   4.752   4.880
  641SOL    HW1 2822   0.823   4.763   4.980
  641SOL    HW2 2823   0.770   4.817   4.835
  642SOL     OW 2824   0.786   3.185   4.053
  642SOL    HW1 2825   0.839   3.106   4.019
  642SOL    HW2 2826   0.805   3.264   3.995
  643SOL     OW 2827   6.542   0.653   6.381
  643SOL    HW1 2828   6.524   0.576   6.443
  643SOL    HW2 2829   6.485   0.643   6.299
  644SOL     OW 2830   1.347   0.095   4.547
  644SOL    HW1 2831   1.366   0.171   4.609
  644SOL    HW2 2832   1.415   0.024   4.560
  645SOL     OW 2833   3.561   6.498   4.882
  645SOL    HW1 2834   3.611   6.415   4.906
  645SOL    HW2 2835   3.463   6.477   4.876
  646SOL     OW 2836   3.426   0.646   4.740
  646SOL    HW1 2837   3.421   0.741   4.770
  646SOL    HW2 2838   3.366   0.590   4.796
  647SOL     OW 2839   5.234   2.027   5.092
  647SOL    HW1 2840   5.327   1.988   5.087
  647SOL    HW2 2841   5.167   1.953   5.080
  648SOL     OW 2842   0.194   4.739   4.140
  648SOL    HW1 2843   0.195   4.784   4.230
  648SOL    HW2 2844   0.129   4.663   4.141
  649SOL     OW 2845   2.243   3.906   0.379
  649SOL    HW1 2846   2.179   3.966   0.426
  649SOL    HW2 2847   2.212   3.811   0.386
  650SOL     OW 2848   6.585   4.444   0.947
  650SOL    HW1 2849   6.582   4.412   1.042
  650SOL    HW2 2850   6.680   4.450   0.917
  651SOL     OW 2851   1.523   0.337   5.766
  651SOL    HW1 2852   1.572   0.256   5.734
  651SOL    HW2 2853   1.453   0.309   5.831
  652SOL     OW 2854   4.632   0.060   3.051
  652SOL    HW1 2855   4.579   7.008   3.003
  652SOL    HW2 2856   4.705   0.017   3.105
  653SOL     OW 2857   0.591   6.361   0.354
  653SOL    HW1 2858   0.549   6.374   0.264
  653SOL    HW2 2859   0.547   6.284   0.400
  654SOL     OW 2860   0.619   6.255   6.428
  654SOL    HW1 2861   0.689   6.321   6.401
  654SOL    HW2 2862   0.650   6.204   6.508
  655SOL     OW 2863   6.780   5.338   1.577
  655SOL    HW1 2864   6.773   5.323   1.478
  655SOL    HW2 2865   6.862   5.292   1.611
  656SOL     OW 2866   2.306   6.134   0.311
  656SOL    HW1 2867   2.225   6.131   0.369
  656SOL    HW2 2868   2.387   6.152   0.366
  657SOL     OW 2869   2.875   3.820   0.892
  657SOL    HW1 2870   2.779   3.798   0.874
  657SOL    HW2 2871   2.883   3.876   0.974
  658SOL     OW 2872   1.257   3.725   5.343
  658SOL    HW1 2873   1.177   3.762   5.388
  658SOL    HW2 2874   1.336   3.783   5.362
  659SOL     OW 2875   2.688   5.920   4.285
  659SOL    HW1 2876   2.738   5.841   4.319
  659SOL    HW2 2877   2.715   5.938   4.190
  660SOL     OW 2878   4.785   4.059   2.678
  660SOL    HW1 2879   4.709   4.114   2.712
  660SOL    HW2 2880   4.799   3.980   2.739
  661SOL     OW 2881   5.108   3.911   4.469
  661SOL    HW1 2882   5.046   3.926   4.392
  661SOL    HW2 2883   5.086   3.824   4.513
  662SOL     OW 2884   4.252   0.609   5.469
  662SOL    HW1 2885   4.189   0.532   5.480
  662SOL    HW2 2886   4.228   0.681   5.534
  663SOL     OW 2887   1.251   3.750   0.359
  663SOL    HW1 2888   1.264   3.817   0.432
  663SOL    HW2 2889   1.154   3.740   0.339
  664SOL     OW 2890   1.426   5.785   6.334
  664SOL    HW1 2891   1.343   5.771   6.388
  664SOL    HW2 2892   1.470   5.697   6.317
  665SOL     OW 2893   4.692   5.601   1.122
  665SOL    HW1 2894   4.690   5.670   1.194
  665SOL    HW2 2895   4.715   5.512   1.163
  666SOL     OW 2896   4.467   2.296   1.573
  666SOL    HW1 2897   4.408   2.372   1.545
  666SOL    HW2 2898   4.411   2.216   1.594
  667SOL     OW 2899   6.764   4.225   4.281
  667SOL    HW1 2900   6.784   4.323   4.290
  667SOL    HW2 2901   6.768   4.199   4.184
  668SOL     OW 2902   5.031   5.412   0.054
  668SOL    HW1 2903   5.024   5.373   6.980
  668SOL    HW2 2904   5.054   5.339   0.119
  669SOL     OW 2905   3.293   5.852   2.812
  669SOL    HW1 2906   3.215   5.902   2.851
  669SOL    HW2 2907   3.306   5.767   2.863
  670SOL     OW 2908   3.143   2.952   2.129
  670SOL    HW1 2909   3.088   2.989   2.203
  670SOL    HW2 2910   3.102   2.976   2.041
  671SOL     OW 2911   2.451   6.158   6.680
  671SOL    HW1 2912   2.429   6.162   6.583
  671SOL    HW2 2913   2.369   6.180   6.733
  672SOL     OW 2914   0.744   4.309   2.123
  672SOL    HW1 2915   0.822   4.269   2.172
  672SOL    HW2 2916   0.716   4.248   2.049
  673SOL     OW 2917   5.495   0.373   1.262
  673SOL    HW1 2918   5.436   0.292   1.256
  673SOL    HW2 2919   5.580   0.356   1.214
  674SOL     OW 2920   6.434   3.730   4.793
  674SOL    HW1 2921   6.392   3.724   4.703
  674SOL    HW2 2922   6.481   3.644   4.814
  675SOL     OW 2923   6.974   1.109   5.034
  675SOL    HW1 2924   7.005   1.166   4.957
  675SOL    HW2 2925   6.941   1.021   5.000
  676SOL     OW 2926   3.479   4.999   3.043
  676SOL    HW1 2927   3.405   5.051   3.002
  676SOL    HW2 2928   3.553   4.987   2.976
  677SOL     OW 2929   5.908   1.460   6.192
  677SOL    HW1 2930   5.837   1.442   6.261
  677SOL    HW2 2931   5.865   1.485   6.106
  678SOL     OW 2932   1.601   1.262   5.236
  678SOL    HW1 2933   1.568   1.204   5.162
  678SOL    HW2 2934   1.524   1.310   5.278
  679SOL     OW 2935   4.580   0.694   3.964
  679SOL    HW1 2936   4.582   0.674   3.866
  679SOL    HW2 2937   4.523   0.774   3.980
  680SOL     OW 2938   5.294   5.326   5.843
  680SOL    HW1 2939   5.328   5.362   5.929
  680SOL    HW2 2940   5.368   5.323   5.776
  681SOL     OW 2941   6.064   0.057   0.803
  681SOL    HW1 2942   6.137   0.073   0.737
  681SOL    HW2 2943   5.976   0.057   0.757
  682SOL     OW 2944   1.586   6.695   6.656
  682SOL    HW1 2945   1.669   6.685   6.601
  682SOL    HW2 2946   1.544   6.605   6.670
  683SOL     OW 2947   3.516   1.286   6.457
  683SOL    HW1 2948   3.496   1.313   6.551
  683SOL    HW2 2949   3.589   1.345   6.421
  684SOL     OW 2950   5.864   1.539   6.605
  684SOL    HW1 2951   5.803   1.503   6.535
  684SOL    HW2 2952   5.945   1.480   6.613
  685SOL     OW 2953   4.932   0.068   5.378
  685SOL    HW1 2954   4.937   0.121   5.293
  685SOL    HW2 2955   4.963   0.123   5.455
  686SOL     OW 2956   6.024   2.930   3.598
  686SOL    HW1 2957   5.962   2.899   3.526
  686SOL    HW2 2958   5.972   2.954   3.680
  687SOL     OW 2959   6.675   2.358   5.140
  687SOL    HW1 2960   6.631   2.378   5.227
  687SOL    HW2 2961   6.624   2.402   5.066
  688SOL     OW 2962   1.553   3.382   0.583
  688SOL    HW1 2963   1.639   3.410   0.540
  688SOL    HW2 2964   1.477   3.434   0.545
  689SOL     OW 2965   0.500   4.198   5.523
  689SOL    HW1 2966   0.510   4.133   5.598
  689SOL    HW2 2967   0.481   4.148   5.438
  690SOL     OW 2968   0.697   3.708   3.683
  690SOL    HW1 2969   0.708   3.682   3.587
  690SOL    HW2 2970   0.647   3.795   3.689
  691SOL     OW 2971   2.620   1.638   6.263
  691SOL    HW1 2972   2.720   1.648   6.259
  691SOL    HW2 2973   2.582   1.706   6.325
  692SOL     OW 2974   3.584   6.176   3.269
  692SOL    HW1 2975   3.594   6.166   3.170
  692SOL    HW2 2976   3.523   6.253   3.289
  693SOL     OW 2977   6.406   1.844   2.812
  693SOL    HW1 2978   6.346   1.898   2.753
  693SOL    HW2 2979   6.428   1.757   2.767
  694SOL     OW 2980   3.493   6.424   2.193
  694SOL    HW1 2981   3.486   6.348   2.257
  694SOL    HW2 2982   3.588   6.454   2.186
  695SOL     OW 2983   4.353   5.046   6.061
  695SOL    HW1 2984   4.339   4.957   6.104
  695SOL    HW2 2985   4.267   5.096   6.058
  696SOL     OW 2986   2.951   5.388   1.977
  696SOL    HW1 2987   2.879   5.408   2.043
  696SOL    HW2 2988   3.019   5.327   2.018
  697SOL     OW 2989   0.906   2.789   4.425
  697SOL    HW1 2990   1.005   2.779   4.437
  697SOL    HW2 2991   0.888   2.869   4.368
  698SOL     OW 2992   5.667   6.702   6.685
  698SOL    HW1 2993   5.743   6.653   6.728
  698SOL    HW2 2994   5.686   6.713   6.587
  699SOL     OW 2995   0.603   3.874   6.862
  699SOL    HW1 2996   0.621   3.923   6.948
  699SOL    HW2 2997   0.544   3.795   6.880
  700SOL     OW 2998   2.929   1.263   4.470
  700SOL    HW1 2999   2.982   1.190   4.514
  700SOL    HW2 3000   2.881   1.316   4.540
  701SOL     OW 3001   7.012   4.209   5.332
  701SOL    HW1 3002   7.000   4.260   5.417
  701SOL    HW2 3003   6.923   4.186   5.294
  702SOL     OW 3004   5.676   5.861   6.267
  702SOL    HW1 3005   5.598   5.908   6.308
  702SOL    HW2 3006   5.647   5.813   6.185
  703SOL     OW 3007   4.167   4.193   6.513
  703SOL    HW1 3008   4.069   4.193   6.492
  703SOL    HW2 3009   4.214   4.258   6.454
  704SOL     OW 3010   1.807   1.568   6.028
  704SOL    HW1 3011   1.721   1.522   6.046
  704SOL    HW2 3012   1.882   1.516   6.069
  705SOL     OW 3013   4.964   6.793   3.653
  705SOL    HW1 3014   5.003   6.740   3.578
  705SOL    HW2 3015   4.942   6.733   3.730
  706SOL     OW 3016   4.233   1.964   3.285
  706SOL    HW1 3017   4.272   1.988   3.196
  706SOL    HW2 3018   4.177   2.040   3.319
  707SOL     OW 3019   4.347   0.294   2.247
  707SOL    HW1 3020   4.349   0.236   2.329
  707SOL    HW2 3021   4.390   0.382   2.267
  708SOL     OW 3022   4.073   0.331   1.606
  708SOL    HW1 3023   4.000   0.296   1.665
  708SOL    HW2 3024   4.032   0.387   1.533
  709SOL     OW 3025   0.994   5.036   0.068
  709SOL    HW1 3026   0.929   5.104   0.035
  709SOL    HW2 3027   1.086   5.075   0.068
  710SOL     OW 3028   3.559   3.288   2.220
  710SOL    HW1 3029   3.529   3.195   2.200
  710SOL    HW2 3030   3.479   3.346   2.234
  711SOL     OW 3031   0.614   2.164   5.852
  711SOL    HW1 3032   0.590   2.112   5.934
  711SOL    HW2 3033   0.685   2.230   5.874
  712SOL     OW 3034   2.744   3.641   0.474
  712SOL    HW1 3035   2.804   3.617   0.550
  712SOL    HW2 3036   2.726   3.739   0.476
  713SOL     OW 3037   3.281   3.350   0.194
  713SOL    HW1 3038   3.334   3.345   0.110
  713SOL    HW2 3039   3.341   3.332   0.272
  714SOL     OW 3040   6.727   5.429   4.976
  714SOL    HW1 3041   6.680   5.376   5.047
  714SOL    HW2 3042   6.661   5.461   4.909
  715SOL     OW 3043   5.504   6.534   0.671
  715SOL    HW1 3044   5.587   6.503   0.625
  715SOL    HW2 3045   5.528   6.576   0.759
  716SOL     OW 3046   1.551   6.617   0.552
  716SOL    HW1 3047   1.637   6.610   0.603
  716SOL    HW2 3048   1.474   6.621   0.617
  717SOL     OW 3049   5.988   4.861   6.528
  717SOL    HW1 3050   5.910   4.923   6.518
  717SOL    HW2 3051   5.955   4.767   6.537
  718SOL     OW 3052   4.347   2.220   5.670
  718SOL    HW1 3053   4.323   2.315   5.688
  718SOL    HW2 3054   4.383   2.178   5.753
  719SOL     OW 3055   6.662   2.818   0.965
  719SOL    HW1 3056   6.568   2.826   1.000
  719SOL    HW2 3057   6.686   2.722   0.954
  720SOL     OW 3058   3.606   1.119   5.904
  720SOL    HW1 3059   3.614   1.056   5.981
  720SOL    HW2 3060   3.697   1.151   5.877
  721SOL     OW 3061   2.027   0.167   4.464
  721SOL    HW1 3062   2.015   0.264   4.440
  721SOL    HW2 3063   2.103   0.129   4.412
  722SOL     OW 3064   2.668   6.856   4.966
  722SOL    HW1 3065   2.635   6.792   4.896
  722SOL    HW2 3066   2.743   6.910   4.929
  723SOL     OW 3067   1.968   3.747   3.112
  723SOL    HW1 3068   1.901   3.761   3.184
  723SOL    HW2 3069   1.925   3.700   3.035
  724SOL     OW 3070   1.330   2.137   4.479
  724SOL    HW1 3071   1.281   2.196   4.414
  724SOL    HW2 3072   1.342   2.187   4.565
  725SOL     OW 3073   2.937   5.695   1.282
  725SOL    HW1 3074   2.900   5.669   1.371
  725SOL    HW2 3075   2.963   5.612   1.231
  726SOL     OW 3076   3.944   4.896   0.922
  726SOL    HW1 3077   3.895   4.918   0.838
  726SOL    HW2 3078   3.879   4.876   0.995
  727SOL     OW 3079   4.852   5.296   5.612
  727SOL    HW1 3080   4.944   5.315   5.644
  727SOL    HW2 3081   4.791   5.371   5.638
  728SOL     OW 3082   6.906   3.646   4.718
  728SOL    HW1 3083   6.883   3.726   4.774
  728SOL    HW2 3084   7.005   3.639   4.707
  729SOL     OW 3085   2.302   1.640   0.002
  729SOL    HW1 3086   2.318   1.729   0.047
  729SOL    HW2 3087   2.209   1.637   6.985
  730SOL     OW 3088   5.630   1.039   3.592
  730SOL    HW1 3089   5.720   1.006   3.561
  730SOL    HW2 3090   5.632   1.051   3.691
  731SOL     OW 3091   5.822   3.941   5.851
  731SOL    HW1 3092   5.881   3.955   5.930
  731SOL    HW2 3093   5.802   3.844   5.840
  732SOL     OW 3094   0.906   2.990   1.190
  732SOL    HW1 3095   0.999   2.991   1.226
  732SOL    HW2 3096   0.880   3.082   1.160
  733SOL     OW 3097   5.875   5.043   5.264
  733SOL    HW1 3098   5.959   5.004   5.301
  733SOL    HW2 3099   5.865   5.137   5.295
  734SOL     OW 3100   6.766   4.608   2.796
  734SOL    HW1 3101   6.834   4.540   2.769
  734SOL    HW2 3102   6.742   4.595   2.892
  735SOL     OW 3103   3.995   2.977   0.553
  735SOL    HW1 3104   4.086   3.018   0.554
  735SOL    HW2 3105   3.928   3.044   0.523
  736SOL     OW 3106   0.027   0.047   2.486
  736SOL    HW1 3107   0.067   0.136   2.508
  736SOL    HW2 3108   0.031   0.032   2.387
  737SOL     OW 3109   4.114   2.329   6.502
  737SOL    HW1 3110   4.097   2.425   6.523
  737SOL    HW2 3111   4.028   2.278   6.507
  738SOL     OW 3112   2.193   3.983   2.088
  738SOL    HW1 3113   2.238   4.045   2.152
  738SOL    HW2 3114   2.253   3.969   2.008
  739SOL     OW 3115   4.043   6.773   4.492
  739SOL    HW1 3116   4.036   6.792   4.394
  739SOL    HW2 3117   3.956   6.734   4.525
  740SOL     OW 3118   4.585   6.588   0.539
  740SOL    HW1 3119   4.494   6.624   0.516
  740SOL    HW2 3120   4.621   6.537   0.461
  741SOL     OW 3121   2.419   5.976   2.866
  741SOL    HW1 3122   2.424   6.043   2.792
  741SOL    HW2 3123   2.406   6.023   2.953
  742SOL     OW 3124   1.985   6.631   1.634
  742SOL    HW1 3125   2.013   6.720   1.670
  742SOL    HW2 3126   1.905   6.598   1.685
  743SOL     OW 3127   1.552   4.311   5.216
  743SOL    HW1 3128   1.551   4.338   5.119
  743SOL    HW2 3129   1.509   4.221   5.225
  744SOL     OW 3130   5.158   7.010   6.295
  744SOL    HW1 3131   5.226   6.958   6.345
  744SOL    HW2 3132   5.124   6.956   6.218
  745SOL     OW 3133   1.197   5.133   4.008
  745SOL    HW1 3134   1.208   5.215   4.064
  745SOL    HW2 3135   1.106   5.133   3.965
  746SOL     OW 3136   0.677   5.208   5.925
  746SOL    HW1 3137   0.590   5.186   5.880
  746SOL    HW2 3138   0.705   5.132   5.983
  747SOL     OW 3139   4.646   6.099   4.614
  747SOL    HW1 3140   4.734   6.143   4.632
  747SOL    HW2 3141   4.590   6.101   4.696
  748SOL     OW 3142   3.262   5.036   2.633
  748SOL    HW1 3143   3.183   5.090   2.604
  748SOL    HW2 3144   3.331   5.097   2.672
  749SOL     OW 3145   6.507   4.268   4.988
  749SOL    HW1 3146   6.442   4.344   4.991
  749SOL    HW2 3147   6.460   4.186   4.954
  750SOL     OW 3148   1.967   2.583   0.623
  750SOL    HW1 3149   2.023   2.531   0.559
  750SOL    HW2 3150   1.874   2.593   0.585
  751SOL     OW 3151   4.021   2.689   6.084
  751SOL    HW1 3152   3.972   2.604   6.104
  751SOL    HW2 3153   4.068   2.680   5.996
  752SOL     OW 3154   3.905   2.096   1.897
  752SOL    HW1 3155   3.974   2.167   1.881
  752SOL    HW2 3156   3.815   2.139   1.905
  753SOL     OW 3157   1.436   3.150   4.028
  753SOL    HW1 3158   1.516   3.156   3.969
  753SOL    HW2 3159   1.447   3.211   4.106
  754SOL     OW 3160   5.305   2.739   6.207
  754SOL    HW1 3161   5.208   2.759   6.224
  754SOL    HW2 3162   5.361   2.816   6.238
  755SOL     OW 3163   1.557   5.443   6.080
  755SOL    HW1 3164   1.627   5.376   6.055
  755SOL    HW2 3165   1.492   5.454   6.005
  756SOL     OW 3166   3.515   0.497   1.213
  756SOL    HW1 3167   3.447   0.527   1.146
  756SOL    HW2 3168   3.534   0.399   1.201
  757SOL     OW 3169   0.590   6.587   3.227
  757SOL    HW1 3170   0.565   6.495   3.258
  757SOL    HW2 3171   0.514   6.650   3.244
  758SOL     OW 3172   4.164   0.675   2.252
  758SOL    HW1 3173   4.173   0.693   2.350
  758SOL    HW2 3174   4.154   0.577   2.237
  759SOL     OW 3175   0.362   0.907   0.588
  759SOL    HW1 3176   0.431   0.980   0.591
  759SOL    HW2 3177   0.352   0.867   0.680
  760SOL     OW 3178   4.697   0.163   5.782
  760SOL    HW1 3179   4.682   0.090   5.715
  760SOL    HW2 3180   4.755   0.128   5.856
  761SOL     OW 3181   5.187   3.970   5.591
  761SOL    HW1 3182   5.257   3.905   5.561
  761SOL    HW2 3183   5.101   3.949   5.545
  762SOL     OW 3184   1.737   0.067   4.954
  762SOL    HW1 3185   1.780   0.150   4.990
  762SOL    HW2 3186   1.719   0.077   4.856
  763SOL     OW 3187   4.648   5.129   6.748
  763SOL    HW1 3188   4.714   5.103   6.818
  763SOL    HW2 3189   4.661   5.071   6.667
  764SOL     OW 3190   4.055   0.697   4.172
  764SOL    HW1 3191   3.992   0.774   4.157
  764SOL    HW2 3192   4.149   0.731   4.172
  765SOL     OW 3193   1.406   5.835   1.173
  765SOL    HW1 3194   1.420   5.795   1.264
  765SOL    HW2 3195   1.346   5.776   1.120
  766SOL     OW 3196   1.365   3.038   0.413
  766SOL    HW1 3197   1.465   3.041   0.419
  766SOL    HW2 3198   1.327   3.011   0.501
  767SOL     OW 3199   6.122   5.749   2.563
  767SOL    HW1 3200   6.120   5.756   2.662
  767SOL    HW2 3201   6.081   5.832   2.523
  768SOL     OW 3202   2.199   6.622   1.858
  768SOL    HW1 3203   2.134   6.567   1.911
  768SOL    HW2 3204   2.151   6.700   1.818
  769SOL     OW 3205   3.365   0.360   4.733
  769SOL    HW1 3206   3.337   0.307   4.813
  769SOL    HW2 3207   3.460   0.390   4.744
  770SOL     OW 3208   1.979   4.217   3.285
  770SOL    HW1 3209   1.939   4.283   3.222
  770SOL    HW2 3210   2.013   4.138   3.233
  771SOL     OW 3211   2.625   5.549   2.351
  771SOL    HW1 3212   2.606   5.621   2.284
  771SOL    HW2 3213   2.539   5.513   2.386
  772SOL     OW 3214   6.658   5.083   0.844
  772SOL    HW1 3215   6.718   5.162   0.853
  772SOL    HW2 3216   6.633   5.048   0.934
  773SOL     OW 3217   6.977   3.824   4.241
  773SOL    HW1 3218   0.006   3.813   4.153
  773SOL    HW2 3219   6.956   3.735   4.280
  774SOL     OW 3220   1.166   1.620   2.097
  774SOL    HW1 3221   1.192   1.667   2.181
  774SOL    HW2 3222   1.076   1.652   2.067
  775SOL     OW 3223   0.563   2.206   3.107
  775SOL    HW1 3224   0.502   2.144   3.057
  775SOL    HW2 3225   0.556   2.298   3.067
  776SOL     OW 3226   0.462   0.585   5.504
  776SOL    HW1 3227   0.473   0.606   5.601
  776SOL    HW2 3228   0.375   0.540   5.489
  777SOL     OW 3229   3.175   5.323   1.094
  777SOL    HW1 3230   3.101   5.387   1.112
  777SOL    HW2 3231   3.223   5.303   1.180
  778SOL     OW 3232   3.281   1.598   3.117
  778SOL    HW1 3233   3.254   1.617   3.212
  778SOL    HW2 3234   3.233   1.661   3.056
  779SOL     OW 3235   0.233   1.863   2.815
  779SOL    HW1 3236   0.231   1.764   2.802
  779SOL    HW2 3237   0.177   1.907   2.745
  780SOL     OW 3238   6.197   3.983   3.448
  780SOL    HW1 3239   6.205   4.082   3.459
  780SOL    HW2 3240   6.207   3.939   3.537
  781SOL     OW 3241   5.392   1.416   6.786
  781SOL    HW1 3242   5.334   1.433   6.866
  781SOL    HW2 3243   5.487   1.405   6.816
  782SOL     OW 3244   1.314   3.841   6.678
  782SOL    HW1 3245   1.237   3.905   6.679
  782SOL    HW2 3246   1.324   3.802   6.587
  783SOL     OW 3247   4.392   4.905   1.359
  783SOL    HW1 3248   4.309   4.944   1.318
  783SOL    HW2 3249   4.384   4.908   1.459
  784SOL     OW 3250   5.225   6.444   0.052
  784SOL    HW1 3251   5.277   6.417   0.133
  784SOL    HW2 3252   5.263   6.399   6.989
  785SOL     OW 3253   6.994   3.219   3.030
  785SOL    HW1 3254   0.054   3.167   2.994
  785SOL    HW2 3255   6.911   3.163   3.026
  786SOL     OW 3256   1.577   0.878   0.637
  786SOL    HW1 3257   1.665   0.840   0.665
  786SOL    HW2 3258   1.508   0.805   0.636
  787SOL     OW 3259   2.770   0.528   6.560
  787SOL    HW1 3260   2.730   0.515   6.470
  787SOL    HW2 3261   2.708   0.582   6.617
  788SOL     OW 3262   3.087   2.077   5.218
  788SOL    HW1 3263   3.013   2.109   5.277
  788SOL    HW2 3264   3.115   2.151   5.157
  789SOL     OW 3265   5.287   3.801   0.839
  789SOL    HW1 3266   5.344   3.756   0.771
  789SOL    HW2 3267   5.190   3.785   0.818
  790SOL     OW 3268   2.440   0.690   4.343
  790SOL    HW1 3269   2.521   0.632   4.342
  790SOL    HW2 3270   2.449   0.761   4.273
  791SOL     OW 3271   3.329   5.880   3.360
  791SOL    HW1 3272   3.322   5.940   3.439
  791SOL    HW2 3273   3.262   5.908   3.291
  792SOL     OW 3274   0.454   0.716   1.837
  792SOL    HW1 3275   0.507   0.650   1.784
  792SOL    HW2 3276   0.490   0.720   1.931
  793SOL     OW 3277   5.154   6.049   2.614
  793SOL    HW1 3278   5.149   6.051   2.514
  793SOL    HW2 3279   5.140   6.142   2.650
  794SOL     OW 3280   3.107   3.518   5.120
  794SOL    HW1 3281   3.205   3.498   5.107
  794SOL    HW2 3282   3.096   3.614   5.144
  795SOL     OW 3283   4.260   6.269   5.096
  795SOL    HW1 3284   4.292   6.205   5.166
  795SOL    HW2 3285   4.190   6.329   5.135
  796SOL     OW 3286   1.267   1.813   6.236
  796SOL    HW1 3287   1.268   1.873   6.316
  796SOL    HW2 3288   1.350   1.829   6.182
  797SOL     OW 3289   5.026   2.621   2.228
  797SOL    HW1 3290   5.003   2.710   2.269
  797SOL    HW2 3291   4.956   2.554   2.254
  798SOL     OW 3292   5.101   0.150   1.504
  798SOL    HW1 3293   5.038   0.079   1.535
  798SOL    HW2 3294   5.195   0.121   1.521
  799SOL     OW 3295   6.140   1.105   4.783
  799SOL    HW1 3296   6.208   1.159   4.734
  799SOL    HW2 3297   6.050   1.121   4.742
  800SOL     OW 3298   5.364   1.337   2.482
  800SOL    HW1 3299   5.458   1.354   2.513
  800SOL    HW2 3300   5.367   1.282   2.398
  801SOL     OW 3301   2.112   3.644   4.362
  801SOL    HW1 3302   2.112   3.729   4.309
  801SOL    HW2 3303   2.095   3.567   4.300
  802SOL     OW 3304   4.599   0.484   0.726
  802SOL    HW1 3305   4.505   0.488   0.758
  802SOL    HW2 3306   4.602   0.439   0.637
  803SOL     OW 3307   0.000   6.450   4.773
  803SOL    HW1 3308   0.047   6.519   4.718
  803SOL    HW2 3309   0.067   6.387   4.812
  804SOL     OW 3310   5.828   6.195   0.218
  804SOL    HW1 3311   5.825   6.246   0.133
  804SOL    HW2 3312   5.746   6.214   0.272
  805SOL     OW 3313   3.792   1.349   5.565
  805SOL    HW1 3314   3.878   1.317   5.604
  805SOL    HW2 3315   3.810   1.429   5.508
  806SOL     OW 3316   5.139   1.400   3.878
  806SOL    HW1 3317   5.081   1.441   3.948
  806SOL    HW2 3318   5.166   1.470   3.811
  807SOL     OW 3319   0.730   1.610   4.916
  807SOL    HW1 3320   0.745   1.549   4.837
  807SOL    HW2 3321   0.634   1.637   4.920
  808SOL     OW 3322   4.484   3.372   6.342
  808SOL    HW1 3323   4.539   3.456   6.339
  808SOL    HW2 3324   4.455   3.354   6.436
  809SOL     OW 3325   0.388   4.349   1.939
  809SOL    HW1 3326   0.382   4.361   2.039
  809SOL    HW2 3327   0.405   4.438   1.897
  810SOL     OW 3328   3.630   2.670   0.886
  810SOL    HW1 3329   3.721   2.710   0.872
  810SOL    HW2 3330   3.560   2.738   0.861
  811SOL     OW 3331   3.640   5.566   4.439
  811SOL    HW1 3332   3.639   5.660   4.471
  811SOL    HW2 3333   3.734   5.539   4.417
  812SOL     OW 3334   0.457   1.759   1.496
  812SOL    HW1 3335   0.524   1.734   1.426
  812SOL    HW2 3336   0.496   1.745   1.587
  813SOL     OW 3337   3.940   5.370   4.367
  813SOL    HW1 3338   3.875   5.331   4.301
  813SOL    HW2 3339   3.953   5.467   4.347
  814SOL     OW 3340   5.734   5.961   2.501
  814SOL    HW1 3341   5.696   6.043   2.544
  814SOL    HW2 3342   5.674   5.883   2.519
  815SOL     OW 3343   0.199   3.451   3.267
  815SOL    HW1 3344   0.249   3.503   3.198
  815SOL    HW2 3345   0.125   3.507   3.304
  816SOL     OW 3346   6.905   6.575   0.274
  816SOL    HW1 3347   6.973   6.648   0.264
  816SOL    HW2 3348   6.824   6.611   0.320
  817SOL     OW 3349   2.210   3.692   1.574
  817SOL    HW1 3350   2.306   3.718   1.587
  817SOL    HW2 3351   2.153   3.773   1.583
  818SOL     OW 3352   6.689   2.776   1.629
  818SOL    HW1 3353   6.632   2.707   1.674
  818SOL    HW2 3354   6.774   2.733   1.599
  819SOL     OW 3355   5.350   2.875   3.323
  819SOL    HW1 3356   5.392   2.818   3.252
  819SOL    HW2 3357   5.416   2.892   3.396
  820SOL     OW 3358   2.338   2.639   5.770
  820SOL    HW1 3359   2.348   2.658   5.673
  820SOL    HW2 3360   2.411   2.686   5.821
  821SOL     OW 3361   1.885   4.077   0.326
  821SOL    HW1 3362   1.945   4.068   0.405
  821SOL    HW2 3363   1.910   4.158   0.274
  822SOL     OW 3364   1.468   4.788   4.378
  822SOL    HW1 3365   1.474   4.866   4.439
  822SOL    HW2 3366   1.523   4.804   4.296
  823SOL     OW 3367   4.742   3.974   6.069
  823SOL    HW1 3368   4.789   3.997   6.154
  823SOL    HW2 3369   4.715   3.878   6.070
  824SOL     OW 3370   5.182   0.938   5.244
  824SOL    HW1 3371   5.169   0.975   5.336
  824SOL    HW2 3372   5.095   0.939   5.195
  825SOL     OW 3373   1.270   4.005   1.086
  825SOL    HW1 3374   1.287   4.060   1.168
  825SOL    HW2 3375   1.316   3.917   1.094
  826SOL     OW 3376   5.400   3.402   6.375
  826SOL    HW1 3377   5.367   3.389   6.282
  826SOL    HW2 3378   5.396   3.314   6.424
  827SOL     OW 3379   3.582   5.531   6.625
  827SOL    HW1 3380   3.592   5.521   6.526
  827SOL    HW2 3381   3.671   5.523   6.669
  828SOL     OW 3382   5.243   6.240   6.119
  828SOL    HW1 3383   5.181   6.261   6.043
  828SOL    HW2 3384   5.265   6.143   6.118
  829SOL     OW 3385   3.004   3.723   3.719
  829SOL    HW1 3386   3.082   3.752   3.775
  829SOL    HW2 3387   2.945   3.664   3.774
  830SOL     OW 3388   4.986   4.586   6.890
  830SOL    HW1 3389   4.927   4.666   6.902
  830SOL    HW2 3390   5.060   4.608   6.827
  831SOL     OW 3391   5.840   0.924   5.620
  831SOL    HW1 3392   5.855   0.926   5.522
  831SOL    HW2 3393   5.747   0.890   5.639
  832SOL     OW 3394   2.346   1.005   1.327
  832SOL    HW1 3395   2.269   0.960   1.282
  832SOL    HW2 3396   2.369   0.956   1.411
  833SOL     OW 3397   0.125   4.526   6.413
  833SOL    HW1 3398   0.092   4.619   6.394
  833SOL    HW2 3399   0.206   4.531   6.472
  834SOL     OW 3400   2.970   3.170   1.013
  834SOL    HW1 3401   2.870   3.169   1.011
  834SOL    HW2 3402   3.001   3.204   1.101
  835SOL     OW 3403   3.221   0.534   4.563
  835SOL    HW1 3404   3.171   0.466   4.509
  835SOL    HW2 3405   3.268   0.489   4.638
  836SOL     OW 3406   3.566   6.218   0.094
  836SOL    HW1 3407   3.648   6.215   0.150
  836SOL    HW2 3408   3.510   6.297   0.119
  837SOL     OW 3409   5.447   6.160   0.139
  837SOL    HW1 3410   5.413   6.131   0.228
  837SOL    HW2 3411   5.499   6.245   0.149
  838SOL     OW 3412   1.466   0.126   4.863
  838SOL    HW1 3413   1.535   0.112   4.792
  838SOL    HW2 3414   1.492   0.075   4.945
  839SOL     OW 3415   2.811   2.159   2.266
  839SOL    HW1 3416   2.865   2.203   2.194
  839SOL    HW2 3417   2.812   2.217   2.348
  840SOL     OW 3418   5.615   0.010   6.505
  840SOL    HW1 3419   5.696   0.017   6.564
  840SOL    HW2 3420   5.642   7.002   6.413
  841SOL     OW 3421   4.576   5.038   0.745
  841SOL    HW1 3422   4.662   4.992   0.767
  841SOL    HW2 3423   4.550   5.098   0.820
  842SOL     OW 3424   4.302   5.270   4.254
  842SOL    HW1 3425   4.216   5.225   4.278
  842SOL    HW2 3426   4.358   5.208   4.200
  843SOL     OW 3427   2.940   1.821   6.892
  843SOL    HW1 3428   2.845   1.846   6.871
  843SOL    HW2 3429   2.965   1.739   6.841
  844SOL     OW 3430   5.630   7.013   1.094
  844SOL    HW1 3431   5.595   6.999   1.187
  844SOL    HW2 3432   5.554   7.010   1.029
  845SOL     OW 3433   5.575   3.435   5.362
  845SOL    HW1 3434   5.603   3.531   5.363
  845SOL    HW2 3435   5.500   3.423   5.298
  846SOL     OW 3436   3.359   1.516   0.271
  846SOL    HW1 3437   3.347   1.582   0.197
  846SOL    HW2 3438   3.279   1.519   0.332
  847SOL     OW 3439   0.648   3.881   0.329
  847SOL    HW1 3440   0.730   3.898   0.275
  847SOL    HW2 3441   0.642   3.949   0.402
  848SOL     OW 3442   6.168   0.881   6.346
  848SOL    HW1 3443   6.267   0.867   6.336
  848SOL    HW2 3444   6.120   0.801   6.311
  849SOL     OW 3445   0.817   4.559   5.224
  849SOL    HW1 3446   0.766   4.645   5.223
  849SOL    HW2 3447   0.769   4.491   5.168
  850SOL     OW 3448   5.110   1.197   4.056
  850SOL    HW1 3449   5.201   1.163   4.078
  850SOL    HW2 3450   5.111   1.242   3.967
  851SOL     OW 3451   0.041   1.110   1.267
  851SOL    HW1 3452   0.076   1.170   1.195
  851SOL    HW2 3453   6.965   1.083   1.246
  852SOL     OW 3454   1.422   2.005   0.213
  852SOL    HW1 3455   1.334   2.046   0.186
  852SOL    HW2 3456   1.410   1.953   0.297
  853SOL     OW 3457   1.651   4.354   2.576
  853SOL    HW1 3458   1.685   4.263   2.555
  853SOL    HW2 3459   1.605   4.353   2.665
  854SOL     OW 3460   4.589   5.964   1.897
  854SOL    HW1 3461   4.632   6.052   1.916
  854SOL    HW2 3462   4.515   5.977   1.830
  855SOL     OW 3463   6.793   0.445   1.100
  855SOL    HW1 3464   6.749   0.400   1.178
  855SOL    HW2 3465   6.889   0.417   1.095
  856SOL     OW 3466   1.672   1.952   5.079
  856SOL    HW1 3467   1.619   2.035   5.060
  856SOL    HW2 3468   1.694   1.948   5.176
  857SOL     OW 3469   6.112   4.343   2.091
  857SOL    HW1 3470   6.019   4.377   2.107
  857SOL    HW2 3471   6.122   4.318   1.994
  858SOL     OW 3472   2.519   4.291   1.392
  858SOL    HW1 3473   2.462   4.286   1.310
  858SOL    HW2 3474   2.546   4.386   1.408
  859SOL     OW 3475   4.636   5.551   6.719
  859SOL    HW1 3476   4.723   5.588   6.684
  859SOL    HW2 3477   4.560   5.598   6.674
  860SOL     OW 3478   3.867   4.603   0.762
  860SOL    HW1 3479   3.956   4.583   0.721
  860SOL    HW2 3480   3.862   4.560   0.852
  861SOL     OW 3481   2.351   0.398   4.680
  861SOL    HW1 3482   2.341   0.309   4.637
  861SOL    HW2 3483   2.331   0.391   4.777
  862SOL     OW 3484   6.963   4.732   6.136
  862SOL    HW1 3485   6.941   4.637   6.115
  862SOL    HW2 3486   6.908   4.793   6.079
  863SOL     OW 3487   1.084   0.674   0.469
  863SOL    HW1 3488   1.086   0.685   0.568
  863SOL    HW2 3489   1.143   0.598   0.442
  864SOL     OW 3490   4.996   4.579   4.035
  864SOL    HW1 3491   5.083   4.625   4.048
  864SOL    HW2 3492   4.990   4.502   4.099
  865SOL     OW 3493   2.311   6.161   5.160
  865SOL    HW1 3494   2.372   6.082   5.151
  865SOL    HW2 3495   2.249   6.163   5.082
  866SOL     OW 3496   1.894   2.421   2.214
  866SOL    HW1 3497   1.976   2.374   2.246
  866SOL    HW2 3498   1.903   2.519   2.232
  867SOL     OW 3499   4.254   2.848   1.262
  867SOL    HW1 3500   4.207   2.766   1.294
  867SOL    HW2 3501   4.346   2.823   1.231
  868SOL     OW 3502   5.732   6.578   1.526
  868SOL    HW1 3503   5.680   6.533   1.599
  868SOL    HW2 3504   5.795   6.645   1.566
  869SOL     OW 3505   6.753   5.247   3.416
  869SOL    HW1 3506   6.723   5.318   3.479
  869SOL    HW2 3507   6.816   5.288   3.349
  870SOL     OW 3508   5.697   3.442   0.354
  870SOL    HW1 3509   5.744   3.509   0.296
  870SOL    HW2 3510   5.751   3.357   0.355
  871SOL     OW 3511   5.603   3.533   1.924
  871SOL    HW1 3512   5.624   3.473   2.002
  871SOL    HW2 3513   5.641   3.624   1.942
  872SOL     OW 3514   5.908   4.163   4.076
  872SOL    HW1 3515   5.846   4.090   4.104
  872SOL    HW2 3516   5.872   4.209   3.995
  873SOL     OW 3517   5.384   0.300   3.572
  873SOL    HW1 3518   5.355   0.214   3.531
  873SOL    HW2 3519   5.400   0.367   3.500
  874SOL     OW 3520   1.628   4.810   5.151
  874SOL    HW1 3521   1.603   4.896   5.197
  874SOL    HW2 3522   1.570   4.736   5.186
  875SOL     OW 3523   4.483   3.211   0.568
  875SOL    HW1 3524   4.493   3.230   0.666
  875SOL    HW2 3525   4.455   3.294   0.521
  876SOL     OW 3526   0.578   6.293   3.587
  876SOL    HW1 3527   0.544   6.204   3.618
  876SOL    HW2 3528   0.599   6.350   3.666
  877SOL     OW 3529   3.363   4.850   0.413
  877SOL    HW1 3530   3.352   4.752   0.431
  877SOL    HW2 3531   3.358   4.866   0.314
  878SOL     OW 3532   4.449   6.063   5.995
  878SOL    HW1 3533   4.370   6.002   5.992
  878SOL    HW2 3534   4.516   6.027   6.061
  879SOL     OW 3535   3.197   2.001   2.133
  879SOL    HW1 3536   3.169   1.909   2.162
  879SOL    HW2 3537   3.147   2.026   2.051
  880SOL     OW 3538   2.861   5.022   0.184
  880SOL    HW1 3539   2.804   4.989   0.110
  880SOL    HW2 3540   2.950   5.050   0.148
  881SOL     OW 3541   4.182   4.575   5.358
  881SOL    HW1 3542   4.201   4.522   5.275
  881SOL    HW2 3543   4.114   4.528   5.413
  882SOL     OW 3544   1.305   1.289   4.123
  882SOL    HW1 3545   1.310   1.293   4.024
  882SOL    HW2 3546   1.350   1.206   4.156
  883SOL     OW 3547   4.793   5.516   5.153
  883SOL    HW1 3548   4.838   5.426   5.158
  883SOL    HW2 3549   4.791   5.547   5.058
  884SOL     OW 3550   0.277   3.304   1.216
  884SOL    HW1 3551   0.266   3.252   1.301
  884SOL    HW2 3552   0.192   3.353   1.196
  885SOL     OW 3553   5.471   5.451   6.631
  885SOL    HW1 3554   5.401   5.455   6.703
  885SOL    HW2 3555   5.431   5.410   6.549
  886SOL     OW 3556   3.881   6.751   0.802
  886SOL    HW1 3557   3.859   6.805   0.883
  886SOL    HW2 3558   3.980   6.737   0.798
  887SOL     OW 3559   4.614   6.973   4.942
  887SOL    HW1 3560   4.543   6.931   4.885
  887SOL    HW2 3561   4.587   0.048   4.967
  888SOL     OW 3562   5.899   6.402   3.415
  888SOL    HW1 3563   5.970   6.342   3.377
  888SOL    HW2 3564   5.829   6.419   3.346
  889SOL     OW 3565   0.911   6.729   5.790
  889SOL    HW1 3566   1.004   6.750   5.820
  889SOL    HW2 3567   0.892   6.632   5.805
  890SOL     OW 3568   2.889   4.925   1.921
  890SOL    HW1 3569   2.825   4.943   1.996
  890SOL    HW2 3570   2.952   4.852   1.949
  891SOL     OW 3571   5.997   3.856   1.965
  891SOL    HW1 3572   6.084   3.906   1.966
  891SOL    HW2 3573   5.993   3.798   1.884
  892SOL     OW 3574   3.878   3.862   0.605
  892SOL    HW1 3575   3.943   3.912   0.548
  892SOL    HW2 3576   3.785   3.876   0.571
  893SOL     OW 3577   2.203   0.597   2.032
  893SOL    HW1 3578   2.122   0.545   2.008
  893SOL    HW2 3579   2.179   0.670   2.095
  894SOL     OW 3580   1.830   3.511   4.367
  894SOL    HW1 3581   1.849   3.423   4.409
  894SOL    HW2 3582   1.902   3.534   4.302
  895SOL     OW 3583   2.169   6.159   4.896
  895SOL    HW1 3584   2.119   6.074   4.916
  895SOL    HW2 3585   2.104   6.233   4.880
  896SOL     OW 3586   5.512   6.548   2.420
  896SOL    HW1 3587   5.526   6.587   2.329
  896SOL    HW2 3588   5.439   6.480   2.416
  897SOL     OW 3589   5.735   0.615   0.235
  897SOL    HW1 3590   5.647   0.601   0.189
  897SOL    HW2 3591   5.730   0.579   0.328
  898SOL     OW 3592   3.860   5.630   3.186
  898SOL    HW1 3593   3.774   5.621   3.237
  898SOL    HW2 3594   3.902   5.540   3.175
  899SOL     OW 3595   0.258   4.984   0.257
  899SOL    HW1 3596   0.346   4.977   0.209
  899SOL    HW2 3597   0.266   5.051   0.331
  900SOL     OW 3598   5.232   6.464   1.327
  900SOL    HW1 3599   5.272   6.446   1.417
  900SOL    HW2 3600   5.144   6.417   1.320
  901SOL     OW 3601   0.566   1.328   4.982
  901SOL    HW1 3602   0.651   1.345   5.033
  901SOL    HW2 3603   0.577   1.359   4.888
  902SOL     OW 3604   0.249   1.822   5.893
  902SOL    HW1 3605   0.207   1.757   5.957
  902SOL    HW2 3606   0.188   1.835   5.815
  903SOL     OW 3607   6.693   3.846   6.107
  903SOL    HW1 3608   6.641   3.903   6.172
  903SOL    HW2 3609   6.712   3.757   6.149
  904SOL     OW 3610   1.346   1.854   4.255
  904SOL    HW1 3611   1.355   1.757   4.235
  904SOL    HW2 3612   1.314   1.866   4.349
  905SOL     OW 3613   4.449   2.861   6.126
  905SOL    HW1 3614   4.361   2.816   6.142
  905SOL    HW2 3615   4.450   2.900   6.034
  906SOL     OW 3616   0.232   3.601   6.459
  906SOL    HW1 3617   0.199   3.695   6.452
  906SOL    HW2 3618   0.249   3.565   6.368
  907SOL     OW 3619   5.235   2.483   4.014
  907SOL    HW1 3620   5.139   2.478   4.043
  907SOL    HW2 3621   5.241   2.468   3.916
  908SOL     OW 3622   1.632   7.000   3.723
  908SOL    HW1 3623   1.686   0.014   3.644
  908SOL    HW2 3624   1.664   6.910   3.751
  909SOL     OW 3625   2.233   0.198   0.999
  909SOL    HW1 3626   2.232   0.161   0.907
  909SOL    HW2 3627   2.175   0.279   1.004
  910SOL     OW 3628   2.907   0.298   0.676
  910SOL    HW1 3629   2.817   0.328   0.708
  910SOL    HW2 3630   2.895   0.235   0.599
  911SOL     OW 3631   6.710   5.856   1.282
  911SOL    HW1 3632   6.751   5.905   1.359
  911SOL    HW2 3633   6.660   5.777   1.315
  912SOL     OW 3634   6.189   0.874   4.924
  912SOL    HW1 3635   6.226   0.898   5.013
  912SOL    HW2 3636   6.159   0.956   4.876
  913SOL     OW 3637   2.485   0.412   3.736
  913SOL    HW1 3638   2.584   0.397   3.740
  913SOL    HW2 3639   2.467   0.506   3.708
  914SOL     OW 3640   3.021   5.567   5.717
  914SOL    HW1 3641   3.119   5.575   5.739
  914SOL    HW2 3642   3.009   5.501   5.643
  915SOL     OW 3643   0.996   3.260   0.847
  915SOL    HW1 3644   0.959   3.238   0.938
  915SOL    HW2 3645   0.928   3.237   0.778
  916SOL     OW 3646   1.126   2.251   2.925
  916SOL    HW1 3647   1.178   2.309   2.987
  916SOL    HW2 3648   1.030   2.248   2.953
  917SOL     OW 3649   4.795   0.802   1.599
  917SOL    HW1 3650   4.797   0.863   1.520
  917SOL    HW2 3651   4.884   0.803   1.645
  918SOL     OW 3652   2.567   5.893   6.939
  918SOL    HW1 3653   2.660   5.884   6.904
  918SOL    HW2 3654   2.502   5.859   6.871
  919SOL     OW 3655   0.232   5.624   2.578
  919SOL    HW1 3656   0.189   5.534   2.580
  919SOL    HW2 3657   0.330   5.615   2.596
  920SOL     OW 3658   1.690   0.083   2.808
  920SOL    HW1 3659   1.723   7.012   2.841
  920SOL    HW2 3660   1.645   0.131   2.883
  921SOL     OW 3661   5.381   4.567   4.346
  921SOL    HW1 3662   5.323   4.647   4.333
  921SOL    HW2 3663   5.471   4.585   4.306
  922SOL     OW 3664   3.539   2.773   6.497
  922SOL    HW1 3665   3.470   2.728   6.440
  922SOL    HW2 3666   3.597   2.831   6.440
  923SOL     OW 3667   3.081   5.415   0.534
  923SOL    HW1 3668   3.030   5.330   0.545
  923SOL    HW2 3669   3.140   5.408   0.454
  924SOL     OW 3670   6.026   3.338   2.319
  924SOL    HW1 3671   5.990   3.342   2.226
  924SOL    HW2 3672   6.074   3.251   2.333
  925SOL     OW 3673   6.356   2.008   5.497
  925SOL    HW1 3674   6.384   1.939   5.564
  925SOL    HW2 3675   6.331   1.962   5.411
  926SOL     OW 3676   5.951   1.324   0.031
  926SOL    HW1 3677   5.910   1.233   0.033
  926SOL    HW2 3678   6.003   1.339   0.116
  927SOL     OW 3679   5.233   4.301   4.276
  927SOL    HW1 3680   5.263   4.380   4.329
  927SOL    HW2 3681   5.161   4.328   4.212
  928SOL     OW 3682   2.121   0.693   0.586
  928SOL    HW1 3683   2.082   0.654   0.502
  928SOL    HW2 3684   2.055   0.755   0.627
  929SOL     OW 3685   0.137   1.705   0.922
  929SOL    HW1 3686   0.179   1.625   0.965
  929SOL    HW2 3687   0.061   1.737   0.979
  930SOL     OW 3688   6.166   5.884   4.785
  930SOL    HW1 3689   6.137   5.938   4.707
  930SOL    HW2 3690   6.184   5.790   4.756
  931SOL     OW 3691   6.783   3.388   4.023
  931SOL    HW1 3692   6.768   3.455   3.950
  931SOL    HW2 3693   6.880   3.364   4.026
  932SOL     OW 3694   2.395   6.527   1.520
  932SOL    HW1 3695   2.438   6.582   1.591
  932SOL    HW2 3696   2.315   6.481   1.558
  933SOL     OW 3697   0.528   4.969   2.347
  933SOL    HW1 3698   0.542   5.068   2.337
  933SOL    HW2 3699   0.432   4.947   2.326
  934SOL     OW 3700   2.062   0.415   4.292
  934SOL    HW1 3701   2.037   0.395   4.197
  934SOL    HW2 3702   2.161   0.406   4.303
  935SOL     OW 3703   5.135   4.309   5.172
  935SOL    HW1 3704   5.091   4.377   5.231
  935SOL    HW2 3705   5.085   4.223   5.178
  936SOL     OW 3706   1.250   0.346   5.881
  936SOL    HW1 3707   1.198   0.341   5.796
  936SOL    HW2 3708   1.199   0.399   5.949
  937SOL     OW 3709   4.905   2.038   5.475
  937SOL    HW1 3710   4.830   2.007   5.417
  937SOL    HW2 3711   4.992   2.003   5.440
  938SOL     OW 3712   0.401   5.457   6.118
  938SOL    HW1 3713   0.413   5.518   6.196
  938SOL    HW2 3714   0.397   5.362   6.150
  939SOL     OW 3715   4.929   1.268   5.350
  939SOL    HW1 3716   4.915   1.298   5.256
  939SOL    HW2 3717   4.866   1.317   5.410
  940SOL     OW 3718   6.868   3.116   2.729
  940SOL    HW1 3719   6.890   3.210   2.702
  940SOL    HW2 3720   6.800   3.118   2.803
  941SOL     OW 3721   6.321   0.646   3.830
  941SOL    HW1 3722   6.285   0.605   3.914
  941SOL    HW2 3723   6.260   0.625   3.754
  942SOL     OW 3724   4.880   0.682   4.115
  942SOL    HW1 3725   4.937   0.669   4.034
  942SOL    HW2 3726   4.790   0.716   4.087
  943SOL     OW 3727   0.956   3.239   3.574
  943SOL    HW1 3728   0.992   3.156   3.531
  943SOL    HW2 3729   1.029   3.284   3.625
  944SOL     OW 3730   6.104   3.215   6.167
  944SOL    HW1 3731   6.032   3.240   6.102
  944SOL    HW2 3732   6.188   3.263   6.144
  945SOL     OW 3733   6.600   4.301   6.014
  945SOL    HW1 3734   6.680   4.242   6.024
  945SOL    HW2 3735   6.535   4.259   5.950
  946SOL     OW 3736   4.923   2.946   6.043
  946SOL    HW1 3737   4.980   2.961   5.962
  946SOL    HW2 3738   4.957   2.867   6.094
  947SOL     OW 3739   3.010   3.340   4.677
  947SOL    HW1 3740   2.975   3.339   4.770
  947SOL    HW2 3741   2.960   3.407   4.623
  948SOL     OW 3742   4.691   0.912   1.082
  948SOL    HW1 3743   4.777   0.930   1.035
  948SOL    HW2 3744   4.628   0.864   1.020
  949SOL     OW 3745   0.104   6.523   6.593
  949SOL    HW1 3746   0.149   6.606   6.626
  949SOL    HW2 3747   0.045   6.545   6.516
  950SOL     OW 3748   4.404   5.048   2.213
  950SOL    HW1 3749   4.390   4.987   2.134
  950SOL    HW2 3750   4.492   5.027   2.255
  951SOL     OW 3751   1.974   0.445   1.974
  951SOL    HW1 3752   2.011   0.359   1.938
  951SOL    HW2 3753   1.892   0.470   1.921
  952SOL     OW 3754   5.214   1.457   1.833
  952SOL    HW1 3755   5.116   1.447   1.817
  952SOL    HW2 3756   5.229   1.486   1.927
  953SOL     OW 3757   5.098   5.795   5.366
  953SOL    HW1 3758   5.085   5.747   5.279
  953SOL    HW2 3759   5.019   5.779   5.425
  954SOL     OW 3760   5.340   6.309   0.681
  954SOL    HW1 3761   5.432   6.348   0.690
  954SOL    HW2 3762   5.300   6.338   0.594
  955SOL     OW 3763   0.251   4.637   3.052
  955SOL    HW1 3764   0.240   4.554   2.998
  955SOL    HW2 3765   0.283   4.613   3.144
  956SOL     OW 3766   1.156   1.781   2.375
  956SOL    HW1 3767   1.068   1.734   2.369
  956SOL    HW2 3768   1.187   1.781   2.470
  957SOL     OW 3769   1.579   5.149   4.122
  957SOL    HW1 3770   1.662   5.152   4.177
  957SOL    HW2 3771   1.582   5.070   4.060
  958SOL     OW 3772   4.769   2.252   1.271
  958SOL    HW1 3773   4.731   2.306   1.196
  958SOL    HW2 3774   4.741   2.157   1.261
  959SOL     OW 3775   2.568   5.304   3.075
  959SOL    HW1 3776   2.576   5.382   3.013
  959SOL    HW2 3777   2.575   5.335   3.170
  960SOL     OW 3778   0.056   6.331   3.671
  960SOL    HW1 3779   6.988   6.371   3.704
  960SOL    HW2 3780   0.094   6.270   3.741
  961SOL     OW 3781   4.778   6.762   2.812
  961SOL    HW1 3782   4.686   6.769   2.853
  961SOL    HW2 3783   4.831   6.842   2.837
  962SOL     OW 3784   1.372   1.597   4.175
  962SOL    HW1 3785   1.384   1.539   4.255
  962SOL    HW2 3786   1.278   1.588   4.140
  963SOL     OW 3787   6.026   1.128   6.395
  963SOL    HW1 3788   6.065   1.037   6.402
  963SOL    HW2 3789   5.935   1.123   6.353
  964SOL     OW 3790   6.341   3.440   0.351
  964SOL    HW1 3791   6.398   3.445   0.268
  964SOL    HW2 3792   6.302   3.530   0.369
  965SOL     OW 3793   5.786   1.717   1.029
  965SOL    HW1 3794   5.760   1.730   0.933
  965SOL    HW2 3795   5.875   1.759   1.045
  966SOL     OW 3796   5.971   1.537   2.260
  966SOL    HW1 3797   5.895   1.597   2.285
  966SOL    HW2 3798   5.990   1.475   2.336
  967SOL     OW 3799   1.886   5.067   0.849
  967SOL    HW1 3800   1.982   5.068   0.875
  967SOL    HW2 3801   1.843   5.153   0.873
  968SOL     OW 3802   4.557   2.569   2.158
  968SOL    HW1 3803   4.617   2.640   2.119
  968SOL    HW2 3804   4.524   2.599   2.248
  969SOL     OW 3805   4.482   5.757   6.223
  969SOL    HW1 3806   4.570   5.714   6.244
  969SOL    HW2 3807   4.485   5.853   6.249
  970SOL     OW 3808   4.665   1.010   5.128
  970SOL    HW1 3809   4.602   0.933   5.115
  970SOL    HW2 3810   4.632   1.089   5.075
  971SOL     OW 3811   0.262   1.724   3.223
  971SOL    HW1 3812   0.315   1.707   3.306
  971SOL    HW2 3813   0.323   1.745   3.147
  972SOL     OW 3814   5.483   3.584   0.770
  972SOL    HW1 3815   5.542   3.605   0.692
  972SOL    HW2 3816   5.540   3.563   0.850
  973SOL     OW 3817   0.173   4.244   6.747
  973SOL    HW1 3818   0.244   4.176   6.728
  973SOL    HW2 3819   0.216   4.333   6.763
  974SOL     OW 3820   4.452   0.508   2.373
  974SOL    HW1 3821   4.376   0.544   2.427
  974SOL    HW2 3822   4.522   0.578   2.362
  975SOL     OW 3823   1.843   5.586   6.320
  975SOL    HW1 3824   1.884   5.501   6.351
  975SOL    HW2 3825   1.914   5.655   6.307
  976SOL     OW 3826   6.034   3.242   2.913
  976SOL    HW1 3827   5.982   3.318   2.873
  976SOL    HW2 3828   6.093   3.202   2.842
  977SOL     OW 3829   2.609   1.265   3.652
  977SOL    HW1 3830   2.547   1.319   3.708
  977SOL    HW2 3831   2.645   1.321   3.577
  978SOL     OW 3832   4.777   4.268   5.645
  978SOL    HW1 3833   4.842   4.312   5.584
  978SOL    HW2 3834   4.812   4.268   5.738
  979SOL     OW 3835   6.962   1.773   1.794
  979SOL    HW1 3836   6.900   1.721   1.735
  979SOL    HW2 3837   0.035   1.731   1.794
  980SOL     OW 3838   4.516   1.922   3.705
  980SOL    HW1 3839   4.550   1.836   3.744
  980SOL    HW2 3840   4.421   1.935   3.733
  981SOL     OW 3841   1.686   1.391   4.899
  981SOL    HW1 3842   1.628   1.440   4.964
  981SOL    HW2 3843   1.756   1.339   4.949
  982SOL     OW 3844   2.229   1.923   3.824
  982SOL    HW1 3845   2.246   2.020   3.808
  982SOL    HW2 3846   2.207   1.878   3.737
  983SOL     OW 3847   5.751   2.204   3.298
  983SOL    HW1 3848   5.820   2.271   3.273
  983SOL    HW2 3849   5.728   2.215   3.395
  984SOL     OW 3850   3.484   0.960   3.929
  984SOL    HW1 3851   3.422   0.883   3.942
  984SOL    HW2 3852   3.574   0.926   3.901
  985SOL     OW 3853   5.231   4.688   6.603
  985SOL    HW1 3854   5.240   4.616   6.535
  985SOL    HW2 3855   5.316   4.696   6.655
  986SOL     OW 3856   5.271   4.721   0.346
  986SOL    HW1 3857   5.211   4.774   0.286
  986SOL    HW2 3858   5.283   4.629   0.308
  987SOL     OW 3859   4.419   6.478   1.511
  987SOL    HW1 3860   4.325   6.514   1.513
  987SOL    HW2 3861   4.477   6.539   1.457
  988SOL     OW 3862   3.696   3.555   1.123
  988SOL    HW1 3863   3.667   3.509   1.039
  988SOL    HW2 3864   3.796   3.560   1.125
  989SOL     OW 3865   6.575   0.951   5.323
  989SOL    HW1 3866   6.646   0.906   5.268
  989SOL    HW2 3867   6.594   1.049   5.328
  990SOL     OW 3868   4.253   0.665   2.502
  990SOL    HW1 3869   4.216   0.630   2.588
  990SOL    HW2 3870   4.256   0.765   2.506
  991SOL     OW 3871   1.942   2.836   5.313
  991SOL    HW1 3872   2.042   2.842   5.325
  991SOL    HW2 3873   1.911   2.912   5.256
  992SOL     OW 3874   0.909   3.767   1.007
  992SOL    HW1 3875   0.883   3.785   0.912
  992SOL    HW2 3876   0.905   3.853   1.060
  993SOL     OW 3877   1.041   5.293   2.528
  993SOL    HW1 3878   0.981   5.313   2.605
  993SOL    HW2 3879   0.991   5.308   2.442
  994SOL     OW 3880   3.398   3.401   2.644
  994SOL    HW1 3881   3.452   3.367   2.566
  994SOL    HW2 3882   3.304   3.418   2.614
  995SOL     OW 3883   2.667   2.333   6.105
  995SOL    HW1 3884   2.729   2.371   6.174
  995SOL    HW2 3885   2.696   2.240   6.083
  996SOL     OW 3886   1.694   4.552   4.232
  996SOL    HW1 3887   1.629   4.476   4.245
  996SOL    HW2 3888   1.692   4.581   4.137
  997SOL     OW 3889   6.771   0.432   1.924
  997SOL    HW1 3890   6.835   0.493   1.879
  997SOL    HW2 3891   6.679   0.472   1.922
  998SOL     OW 3892   5.034   6.333   3.622
  998SOL    HW1 3893   5.098   6.390   3.571
  998SOL    HW2 3894   5.057   6.335   3.719
  999SOL     OW 3895   5.608   4.884   1.560
  999SOL    HW1 3896   5.525   4.835   1.589
  999SOL    HW2 3897   5.653   4.924   1.640
 1000SOL     OW 3898   1.539   1.013   2.475
 1000SOL    HW1 3899   1.524   1.075   2.399
 1000SOL    HW2 3900   1.558   1.066   2.558
 1001SOL     OW 3901   6.178   6.462   0.255
 1001SOL    HW1 3902   6.099   6.410   0.288
 1001SOL    HW2 3903   6.155   6.508   0.169
 1002SOL     OW 3904   6.105   2.111   6.741
 1002SOL    HW1 3905   6.005   2.115   6.750
 1002SOL    HW2 3906   6.138   2.199   6.706
 1003SOL     OW 3907   2.161   6.422   1.607
 1003SOL    HW1 3908   2.098   6.495   1.630
 1003SOL    HW2 3909   2.110   6.345   1.569
 1004SOL     OW 3910   0.252   0.591   1.241
 1004SOL    HW1 3911   0.154   0.573   1.241
 1004SOL    HW2 3912   0.273   0.664   1.307
 1005SOL     OW 3913   0.299   1.453   2.892
 1005SOL    HW1 3914   0.313   1.472   2.989
 1005SOL    HW2 3915   0.374   1.395   2.859
 1006SOL     OW 3916   1.230   5.712   1.558
 1006SOL    HW1 3917   1.307   5.775   1.569
 1006SOL    HW2 3918   1.169   5.747   1.487
 1007SOL     OW 3919   5.719   6.835   4.304
 1007SOL    HW1 3920   5.680   6.750   4.269
 1007SOL    HW2 3921   5.677   6.913   4.258
 1008SOL     OW 3922   2.186   3.179   5.002
 1008SOL    HW1 3923   2.265   3.123   5.028
 1008SOL    HW2 3924   2.209   3.236   4.924
 1009SOL     OW 3925   0.440   6.347   4.333
 1009SOL    HW1 3926   0.475   6.435   4.303
 1009SOL    HW2 3927   0.509   6.300   4.387
 1010SOL     OW 3928   3.463   2.171   6.386
 1010SOL    HW1 3929   3.519   2.183   6.304
 1010SOL    HW2 3930   3.415   2.257   6.406
 1011SOL     OW 3931   2.472   5.142   2.402
 1011SOL    HW1 3932   2.469   5.205   2.481
 1011SOL    HW2 3933   2.433   5.187   2.322
 1012SOL     OW 3934   0.055   6.776   0.322
 1012SOL    HW1 3935   0.153   6.763   0.309
 1012SOL    HW2 3936   0.037   6.799   0.418
 1013SOL     OW 3937   0.364   1.513   6.376
 1013SOL    HW1 3938   0.402   1.605   6.368
 1013SOL    HW2 3939   0.300   1.510   6.453
 1014SOL     OW 3940   5.269   5.272   6.834
 1014SOL    HW1 3941   5.173   5.255   6.859
 1014SOL    HW2 3942   5.296   5.210   6.760
 1015SOL     OW 3943   2.338   6.733   5.519
 1015SOL    HW1 3944   2.251   6.693   5.490
 1015SOL    HW2 3945   2.351   6.716   5.617
 1016SOL     OW 3946   2.917   3.303   0.246
 1016SOL    HW1 3947   2.874   3.218   0.214
 1016SOL    HW2 3948   2.976   3.283   0.324
 1017SOL     OW 3949   4.522   2.402   0.811
 1017SOL    HW1 3950   4.426   2.426   0.829
 1017SOL    HW2 3951   4.532   2.376   0.715
 1018SOL     OW 3952   1.426   3.493   3.873
 1018SOL    HW1 3953   1.469   3.583   3.870
 1018SOL    HW2 3954   1.355   3.491   3.943
 1019SOL     OW 3955   1.273   0.342   0.143
 1019SOL    HW1 3956   1.193   0.353   0.084
 1019SOL    HW2 3957   1.348   0.399   0.109
 1020SOL     OW 3958   1.037   6.604   1.354
 1020SOL    HW1 3959   1.068   6.679   1.296
 1020SOL    HW2 3960   1.112   6.577   1.416
 1021SOL     OW 3961   5.700   0.897   1.293
 1021SOL    HW1 3962   5.733   0.847   1.213
 1021SOL    HW2 3963   5.772   0.899   1.363
 1022SOL     OW 3964   4.305   4.655   6.377
 1022SOL    HW1 3965   4.371   4.582   6.362
 1022SOL    HW2 3966   4.238   4.626   6.446
 1023SOL     OW 3967   6.874   0.250   1.655
 1023SOL    HW1 3968   6.895   0.270   1.750
 1023SOL    HW2 3969   6.801   0.183   1.650
 1024SOL     OW 3970   5.679   3.435   4.095
 1024SOL    HW1 3971   5.720   3.356   4.140
 1024SOL    HW2 3972   5.580   3.435   4.111
 1025SOL     OW 3973   3.403   4.028   0.538
 1025SOL    HW1 3974   3.356   3.970   0.470
 1025SOL    HW2 3975   3.337   4.091   0.579
 1026SOL     OW 3976   2.022   1.972   1.986
 1026SOL    HW1 3977   2.106   1.953   2.037
 1026SOL    HW2 3978   2.040   2.043   1.918
 1027SOL     OW 3979   2.518   5.851   1.212
 1027SOL    HW1 3980   2.535   5.763   1.166
 1027SOL    HW2 3981   2.606   5.893   1.234
 1028SOL     OW 3982   4.251   5.907   0.377
 1028SOL    HW1 3983   4.209   5.927   0.288
 1028SOL    HW2 3984   4.196   5.839   0.425
 1029SOL     OW 3985   1.958   0.618   0.385
 1029SOL    HW1 3986   1.898   0.540   0.402
 1029SOL    HW2 3987   1.920   0.674   0.311
 1030SOL     OW 3988   3.536   3.582   1.606
 1030SOL    HW1 3989   3.601   3.627   1.545
 1030SOL    HW2 3990   3.579   3.568   1.695
 1031SOL     OW 3991   5.488   5.556   0.706
 1031SOL    HW1 3992   5.530   5.597   0.625
 1031SOL    HW2 3993   5.542   5.478   0.736
 1032SOL     OW 3994   1.691   1.594   4.458
 1032SOL    HW1 3995   1.706   1.594   4.557
 1032SOL    HW2 3996   1.748   1.664   4.416
 1033SOL     OW 3997   1.580   6.211   1.148
 1033SOL    HW1 3998   1.602   6.308   1.159
 1033SOL    HW2 3999   1.568   6.189   1.052
 1034SOL     OW 4000   1.136   6.005   5.442
 1034SOL    HW1 4001   1.175   5.969   5.357
 1034SOL    HW2 4002   1.178   6.093   5.463
 1035SOL     OW 4003   2.323   1.216   3.660
 1035SOL    HW1 4004   2.421   1.198   3.651
 1035SOL    HW2 4005   2.299   1.219   3.757
 1036SOL     OW 4006   3.135   0.755   1.391
 1036SOL    HW1 4007   3.188   0.801   1.463
 1036SOL    HW2 4008   3.094   0.824   1.331
 1037SOL     OW 4009   2.283   0.496   1.274
 1037SOL    HW1 4010   2.287   0.478   1.372
 1037SOL    HW2 4011   2.360   0.451   1.229
 1038SOL     OW 4012   1.272   0.986   5.935
 1038SOL    HW1 4013   1.195   0.996   5.871
 1038SOL    HW2 4014   1.357   0.980   5.883
 1039SOL     OW 4015   3.514   3.105   5.872
 1039SOL    HW1 4016   3.431   3.155   5.846
 1039SOL    HW2 4017   3.493   3.008   5.879
 1040SOL     OW 4018   5.157   2.994   2.559
 1040SOL    HW1 4019   5.201   3.054   2.626
 1040SOL    HW2 4020   5.171   3.031   2.467
 1041SOL     OW 4021   6.508   6.903   4.247
 1041SOL    HW1 4022   6.537   6.914   4.152
 1041SOL    HW2 4023   6.460   6.816   4.258
 1042SOL     OW 4024   3.510   4.949   2.178
 1042SOL    HW1 4025   3.505   4.882   2.104
 1042SOL    HW2 4026   3.427   4.942   2.234
 1043SOL     OW 4027   4.670   1.431   5.175
 1043SOL    HW1 4028   4.747   1.437   5.112
 1043SOL    HW2 4029   4.704   1.409   5.267
 1044SOL     OW 4030   4.729   4.076   1.890
 1044SOL    HW1 4031   4.666   4.054   1.816
 1044SOL    HW2 4032   4.717   4.172   1.917
 1045SOL     OW 4033   2.736   6.475   2.891
 1045SOL    HW1 4034   2.665   6.426   2.941
 1045SOL    HW2 4035   2.762   6.557   2.942
 1046SOL     OW 4036   1.989   6.610   7.003
 1046SOL    HW1 4037   1.963   6.694   0.035
 1046SOL    HW2 4038   1.981   6.627   6.904
 1047SOL     OW 4039   0.823   6.176   2.430
 1047SOL    HW1 4040   0.883   6.247   2.467
 1047SOL    HW2 4041   0.872   6.125   2.359
 1048SOL     OW 4042   4.894   5.827   5.523
 1048SOL    HW1 4043   4.887   5.872   5.612
 1048SOL    HW2 4044   4.803   5.821   5.482
 1049SOL     OW 4045   6.805   5.160   4.702
 1049SOL    HW1 4046   6.824   5.111   4.617
 1049SOL    HW2 4047   6.708   5.182   4.707
 1050SOL     OW 4048   2.897   5.361   0.912
 1050SOL    HW1 4049   2.983   5.314   0.893
 1050SOL    HW2 4050   2.909   5.459   0.896
 1051SOL     OW 4051   2.721   4.746   0.425
 1051SOL    HW1 4052   2.686   4.704   0.342
 1051SOL    HW2 4053   2.804   4.798   0.403
 1052SOL     OW 4054   4.430   6.978   4.377
 1052SOL    HW1 4055   4.515   6.993   4.326
 1052SOL    HW2 4056   4.447   6.916   4.454
 1053SOL     OW 4057   5.210   5.434   3.229
 1053SOL    HW1 4058   5.146   5.439   3.153
 1053SOL    HW2 4059   5.248   5.525   3.247
 1054SOL     OW 4060   3.112   4.737   6.329
 1054SOL    HW1 4061   3.082   4.731   6.234
 1054SOL    HW2 4062   3.114   4.645   6.369
 1055SOL     OW 4063   6.120   6.787   4.607
 1055SOL    HW1 4064   6.166   6.845   4.540
 1055SOL    HW2 4065   6.025   6.772   4.578
 1056SOL     OW 4066   1.467   5.758   5.599
 1056SOL    HW1 4067   1.367   5.765   5.602
 1056SOL    HW2 4068   1.493   5.694   5.527
 1057SOL     OW 4069   3.511   3.509   2.859
 1057SOL    HW1 4070   3.492   3.445   2.784
 1057SOL    HW2 4071   3.610   3.511   2.876
 1058SOL     OW 4072   4.979   1.290   1.855
 1058SOL    HW1 4073   5.024   1.235   1.925
 1058SOL    HW2 4074   4.967   1.235   1.772
 1059SOL     OW 4075   2.228   0.620   0.834
 1059SOL    HW1 4076   2.262   0.526   0.843
 1059SOL    HW2 4077   2.200   0.637   0.740
 1060SOL     OW 4078   0.166   3.629   4.653
 1060SOL    HW1 4079   0.169   3.576   4.568
 1060SOL    HW2 4080   0.239   3.598   4.714
 1061SOL     OW 4081   5.137   3.537   1.470
 1061SOL    HW1 4082   5.114   3.462   1.408
 1061SOL    HW2 4083   5.216   3.511   1.526
 1062SOL     OW 4084   6.629   5.001   5.156
 1062SOL    HW1 4085   6.599   4.917   5.201
 1062SOL    HW2 4086   6.720   4.986   5.115
 1063SOL     OW 4087   1.192   4.288   1.825
 1063SOL    HW1 4088   1.272   4.229   1.835
 1063SOL    HW2 4089   1.160   4.285   1.730
 1064SOL     OW 4090   1.420   4.145   1.784
 1064SOL    HW1 4091   1.502   4.164   1.838
 1064SOL    HW2 4092   1.416   4.047   1.763
 1065SOL     OW 4093   4.253   0.291   4.185
 1065SOL    HW1 4094   4.232   0.374   4.238
 1065SOL    HW2 4095   4.352   0.284   4.173
 1066SOL     OW 4096   5.161   0.644   4.343
 1066SOL    HW1 4097   5.255   0.618   4.322
 1066SOL    HW2 4098   5.099   0.572   4.312
 1067SOL     OW 4099   1.566   2.851   0.126
 1067SOL    HW1 4100   1.491   2.797   0.165
 1067SOL    HW2 4101   1.537   2.946   0.117
 1068SOL     OW 4102   5.288   4.493   2.065
 1068SOL    HW1 4103   5.253   4.421   2.125
 1068SOL    HW2 4104   5.246   4.580   2.090
 1069SOL     OW 4105   4.812   4.653   1.385
 1069SOL    HW1 4106   4.779   4.725   1.324
 1069SOL    HW2 4107   4.875   4.593   1.336
 1070SOL     OW 4108   1.578   0.746   1.263
 1070SOL    HW1 4109   1.629   0.810   1.321
 1070SOL    HW2 4110   1.493   0.720   1.309
 1071SOL     OW 4111   3.870   6.853   3.454
 1071SOL    HW1 4112   3.912   6.852   3.544
 1071SOL    HW2 4113   3.933   6.891   3.387
 1072SOL     OW 4114   1.774   6.039   0.989
 1072SOL    HW1 4115   1.713   6.111   0.957
 1072SOL    HW2 4116   1.869   6.072   0.985
 1073SOL     OW 4117   3.421   6.407   2.871
 1073SOL    HW1 4118   3.507   6.458   2.882
 1073SOL    HW2 4119   3.402   6.396   2.773
 1074SOL     OW 4120   2.112   5.364   0.762
 1074SOL    HW1 4121   2.134   5.365   0.859
 1074SOL    HW2 4122   2.187   5.404   0.710
 1075SOL     OW 4123   4.515   6.222   3.639
 1075SOL    HW1 4124   4.522   6.317   3.669
 1075SOL    HW2 4125   4.590   6.169   3.676
 1076SOL     OW 4126   0.473   4.717   5.042
 1076SOL    HW1 4127   0.554   4.725   5.099
 1076SOL    HW2 4128   0.440   4.623   5.043
 1077SOL     OW 4129   6.344   0.121   0.149
 1077SOL    HW1 4130   6.378   0.158   0.235
 1077SOL    HW2 4131   6.340   0.195   0.081
 1078SOL     OW 4132   2.253   1.139   2.538
 1078SOL    HW1 4133   2.231   1.084   2.457
 1078SOL    HW2 4134   2.297   1.081   2.606
 1079SOL     OW 4135   1.666   5.698   2.294
 1079SOL    HW1 4136   1.624   5.616   2.255
 1079SOL    HW2 4137   1.692   5.681   2.389
 1080SOL     OW 4138   2.152   4.408   3.431
 1080SOL    HW1 4139   2.228   4.372   3.486
 1080SOL    HW2 4140   2.101   4.332   3.390
 1081SOL     OW 4141   0.095   7.000   5.981
 1081SOL    HW1 4142   0.086   6.999   6.080
 1081SOL    HW2 4143   0.168   6.937   5.953
 1082SOL     OW 4144   2.796   0.892   5.288
 1082SOL    HW1 4145   2.840   0.823   5.345
 1082SOL    HW2 4146   2.866   0.943   5.238
 1083SOL     OW 4147   3.841   4.327   0.900
 1083SOL    HW1 4148   3.814   4.278   0.983
 1083SOL    HW2 4149   3.873   4.261   0.832
 1084SOL     OW 4150   6.557   6.322   1.002
 1084SOL    HW1 4151   6.502   6.374   1.067
 1084SOL    HW2 4152   6.564   6.227   1.033
 1085SOL     OW 4153   1.885   4.337   3.057
 1085SOL    HW1 4154   1.980   4.368   3.059
 1085SOL    HW2 4155   1.856   4.325   2.962
 1086SOL     OW 4156   6.641   5.746   2.714
 1086SOL    HW1 4157   6.711   5.736   2.642
 1086SOL    HW2 4158   6.584   5.826   2.694
 1087SOL     OW 4159   5.787   2.636   5.890
 1087SOL    HW1 4160   5.882   2.625   5.862
 1087SOL    HW2 4161   5.748   2.716   5.844
 1088SOL     OW 4162   5.830   4.661   3.430
 1088SOL    HW1 4163   5.796   4.755   3.423
 1088SOL    HW2 4164   5.757   4.601   3.464
 1089SOL     OW 4165   1.211   0.081   4.311
 1089SOL    HW1 4166   1.265   0.089   4.227
 1089SOL    HW2 4167   1.272   0.065   4.389
 1090SOL     OW 4168   2.487   1.524   3.609
 1090SOL    HW1 4169   2.561   1.553   3.669
 1090SOL    HW2 4170   2.441   1.605   3.572
 1091SOL     OW 4171   1.794   3.081   4.828
 1091SOL    HW1 4172   1.788   3.013   4.756
 1091SOL    HW2 4173   1.788   3.172   4.789
 1092SOL     OW 4174   2.943   3.357   0.772
 1092SOL    HW1 4175   2.979   3.307   0.851
 1092SOL    HW2 4176   2.878   3.299   0.723
 1093SOL     OW 4177   1.478   2.298   2.950
 1093SOL    HW1 4178   1.449   2.265   3.040
 1093SOL    HW2 4179   1.539   2.377   2.961
 1094SOL     OW 4180   1.267   6.699   2.756
 1094SOL    HW1 4181   1.317   6.626   2.710
 1094SOL    HW2 4182   1.187   6.661   2.802
 1095SOL     OW 4183   6.858   2.134   5.624
 1095SOL    HW1 4184   6.855   2.125   5.524
 1095SOL    HW2 4185   6.806   2.060   5.665
 1096SOL     OW 4186   3.780   4.566   1.627
 1096SOL    HW1 4187   3.710   4.566   1.698
 1096SOL    HW2 4188   3.768   4.646   1.568
 1097SOL     OW 4189   1.286   4.342   3.891
 1097SOL    HW1 4190   1.267   4.351   3.793
 1097SOL    HW2 4191   1.200   4.348   3.942
 1098SOL     OW 4192   5.202   2.961   0.521
 1098SOL    HW1 4193   5.168   3.042   0.472
 1098SOL    HW2 4194   5.297   2.945   0.497
 1099SOL     OW 4195   3.749   1.207   4.642
 1099SOL    HW1 4196   3.677   1.169   4.584
 1099SOL    HW2 4197   3.794   1.283   4.595
 1100SOL     OW 4198   2.658   2.382   6.650
 1100SOL    HW1 4199   2.737   2.373   6.589
 1100SOL    HW2 4200   2.650   2.476   6.681
 1101SOL     OW 4201   5.516   2.698   0.969
 1101SOL    HW1 4202   5.444   2.697   1.038
 1101SOL    HW2 4203   5.560   2.608   0.965
 1102SOL     OW 4204   0.935   5.309   3.132
 1102SOL    HW1 4205   1.007   5.367   3.169
 1102SOL    HW2 4206   0.947   5.215   3.165
 1103SOL     OW 4207   2.930   1.294   1.215
 1103SOL    HW1 4208   2.857   1.360   1.231
 1103SOL    HW2 4209   2.972   1.312   1.126
 1104SOL     OW 4210   1.937   3.774   6.241
 1104SOL    HW1 4211   1.940   3.814   6.332
 1104SOL    HW2 4212   1.842   3.771   6.209
 1105SOL     OW 4213   5.221   3.517   5.045
 1105SOL    HW1 4214   5.234   3.565   4.959
 1105SOL    HW2 4215   5.124   3.494   5.056
 1106SOL     OW 4216   0.959   1.617   0.703
 1106SOL    HW1 4217   0.873   1.652   0.740
 1106SOL    HW2 4218   0.963   1.637   0.605
 1107SOL     OW 4219   0.964   0.587   6.561
 1107SOL    HW1 4220   1.000   0.513   6.504
 1107SOL    HW2 4221   0.878   0.558   6.604
 1108SOL     OW 4222   2.431   0.320   5.978
 1108SOL    HW1 4223   2.345   0.279   5.950
 1108SOL    HW2 4224   2.472   0.369   5.901
 1109SOL     OW 4225   4.489   5.757   4.751
 1109SOL    HW1 4226   4.509   5.806   4.665
 1109SOL    HW2 4227   4.405   5.704   4.740
 1110SOL     OW 4228   2.659   1.464   2.622
 1110SOL    HW1 4229   2.581   1.411   2.655
 1110SOL    HW2 4230   2.639   1.562   2.632
 1111SOL     OW 4231   5.552   5.618   0.217
 1111SOL    HW1 4232   5.505   5.652   0.135
 1111SOL    HW2 4233   5.647   5.652   0.217
 1112SOL     OW 4234   6.318   1.194   2.775
 1112SOL    HW1 4235   6.277   1.220   2.863
 1112SOL    HW2 4236   6.279   1.108   2.744
 1113SOL     OW 4237   6.205   3.489   2.516
 1113SOL    HW1 4238   6.147   3.464   2.439
 1113SOL    HW2 4239   6.149   3.524   2.591
 1114SOL     OW 4240   4.178   0.977   6.360
 1114SOL    HW1 4241   4.114   0.962   6.435
 1114SOL    HW2 4242   4.168   1.071   6.326
 1115SOL     OW 4243   3.929   3.180   0.125
 1115SOL    HW1 4244   3.987   3.131   0.060
 1115SOL    HW2 4245   3.835   3.182   0.091
 1116SOL     OW 4246   5.663   5.434   4.684
 1116SOL    HW1 4247   5.619   5.432   4.594
 1116SOL    HW2 4248   5.678   5.341   4.716
 1117SOL     OW 4249   1.992   2.842   1.714
 1117SOL    HW1 4250   1.940   2.757   1.716
 1117SOL    HW2 4251   2.084   2.824   1.679
 1118SOL     OW 4252   1.651   4.633   1.578
 1118SOL    HW1 4253   1.709   4.583   1.513
 1118SOL    HW2 4254   1.555   4.611   1.560
 1119SOL     OW 4255   4.156   4.148   1.546
 1119SOL    HW1 4256   4.176   4.182   1.455
 1119SOL    HW2 4257   4.225   4.179   1.611
 1120SOL     OW 4258   5.024   6.328   5.188
 1120SOL    HW1 4259   5.037   6.410   5.243
 1120SOL    HW2 4260   5.044   6.348   5.092
 1121SOL     OW 4261   5.197   4.143   2.436
 1121SOL    HW1 4262   5.149   4.169   2.520
 1121SOL    HW2 4263   5.139   4.085   2.381
 1122SOL     OW 4264   4.877   3.397   5.499
 1122SOL    HW1 4265   4.839   3.393   5.591
 1122SOL    HW2 4266   4.953   3.462   5.497
 1123SOL     OW 4267   5.582   1.879   2.269
 1123SOL    HW1 4268   5.492   1.851   2.237
 1123SOL    HW2 4269   5.613   1.960   2.219
 1124SOL     OW 4270   6.178   4.330   5.287
 1124SOL    HW1 4271   6.166   4.250   5.346
 1124SOL    HW2 4272   6.118   4.404   5.318
 1125SOL     OW 4273   2.030   1.859   4.513
 1125SOL    HW1 4274   1.953   1.848   4.451
 1125SOL    HW2 4275   2.113   1.877   4.460
 1126SOL     OW 4276   6.021   6.840   0.929
 1126SOL    HW1 4277   6.057   6.918   0.877
 1126SOL    HW2 4278   5.975   6.873   1.011
 1127SOL     OW 4279   5.198   5.501   4.725
 1127SOL    HW1 4280   5.127   5.456   4.778
 1127SOL    HW2 4281   5.196   5.599   4.743
 1128SOL     OW 4282   4.798   2.283   5.758
 1128SOL    HW1 4283   4.743   2.341   5.697
 1128SOL    HW2 4284   4.868   2.236   5.704
 1129SOL     OW 4285   3.903   0.251   0.337
 1129SOL    HW1 4286   3.821   0.198   0.316
 1129SOL    HW2 4287   3.946   0.215   0.420
 1130SOL     OW 4288   1.758   3.881   1.017
 1130SOL    HW1 4289   1.795   3.972   1.037
 1130SOL    HW2 4290   1.720   3.841   1.100
 1131SOL     OW 4291   0.761   6.198   5.641
 1131SOL    HW1 4292   0.789   6.103   5.653
 1131SOL    HW2 4293   0.661   6.204   5.641
 1132SOL     OW 4294   4.864   0.003   6.830
 1132SOL    HW1 4295   4.777   6.988   6.867
 1132SOL    HW2 4296   4.935   7.011   6.899
 1133SOL     OW 4297   0.456   1.319   0.860
 1133SOL    HW1 4298   0.530   1.299   0.925
 1133SOL    HW2 4299   0.391   1.242   0.859
 1134SOL     OW 4300   5.218   2.028   0.460
 1134SOL    HW1 4301   5.291   2.091   0.433
 1134SOL    HW2 4302   5.257   1.941   0.487
 1135SOL     OW 4303   3.048   1.400   2.600
 1135SOL    HW1 4304   2.952   1.417   2.625
 1135SOL    HW2 4305   3.105   1.403   2.682
 1136SOL     OW 4306   3.444   5.129   5.377
 1136SOL    HW1 4307   3.511   5.094   5.442
 1136SOL    HW2 4308   3.421   5.224   5.401
 1137SOL     OW 4309   1.283   2.415   0.137
 1137SOL    HW1 4310   1.348   2.428   0.063
 1137SOL    HW2 4311   1.210   2.354   0.106
 1138SOL     OW 4312   0.902   1.296   6.579
 1138SOL    HW1 4313   0.933   1.349   6.658
 1138SOL    HW2 4314   0.966   1.309   6.503
 1139SOL     OW 4315   2.317   5.957   1.576
 1139SOL    HW1 4316   2.404   5.909   1.588
 1139SOL    HW2 4317   2.323   6.017   1.496
 1140SOL     OW 4318   3.444   1.075   2.297
 1140SOL    HW1 4319   3.407   1.149   2.241
 1140SOL    HW2 4320   3.370   1.029   2.345
 1141SOL     OW 4321   6.619   6.048   6.220
 1141SOL    HW1 4322   6.623   6.103   6.303
 1141SOL    HW2 4323   6.545   6.082   6.162
 1142SOL     OW 4324   3.796   0.369   4.487
 1142SOL    HW1 4325   3.866   0.317   4.438
 1142SOL    HW2 4326   3.808   0.466   4.469
 1143SOL     OW 4327   2.914   2.276   2.709
 1143SOL    HW1 4328   3.005   2.241   2.690
 1143SOL    HW2 4329   2.856   2.265   2.628
 1144SOL     OW 4330   6.869   4.927   5.019
 1144SOL    HW1 4331   6.882   4.829   5.032
 1144SOL    HW2 4332   6.901   4.952   4.927
 1145SOL     OW 4333   0.042   4.159   2.679
 1145SOL    HW1 4334   0.056   4.062   2.702
 1145SOL    HW2 4335   0.057   4.172   2.581
 1146SOL     OW 4336   5.094   0.718   1.054
 1146SOL    HW1 4337   5.039   0.652   1.004
 1146SOL    HW2 4338   5.063   0.723   1.149
 1147SOL     OW 4339   0.922   4.346   0.519
 1147SOL    HW1 4340   0.991   4.413   0.547
 1147SOL    HW2 4341   0.900   4.286   0.597
 1148SOL     OW 4342   3.598   6.883   0.250
 1148SOL    HW1 4343   3.598   6.854   0.155
 1148SOL    HW2 4344   3.632   6.808   0.307
 1149SOL     OW 4345   5.893   3.701   3.183
 1149SOL    HW1 4346   5.925   3.698   3.278
 1149SOL    HW2 4347   5.853   3.791   3.164
 1150SOL     OW 4348   1.111   4.246   0.765
 1150SOL    HW1 4349   1.173   4.262   0.688
 1150SOL    HW2 4350   1.089   4.149   0.770
 1151SOL     OW 4351   4.715   5.676   6.970
 1151SOL    HW1 4352   4.679   5.763   7.002
 1151SOL    HW2 4353   4.712   5.674   6.870
 1152SOL     OW 4354   0.760   5.947   5.754
 1152SOL    HW1 4355   0.681   5.887   5.766
 1152SOL    HW2 4356   0.788   5.984   5.843
 1153SOL     OW 4357   2.321   0.111   1.739
 1153SOL    HW1 4358   2.356   0.139   1.828
 1153SOL    HW2 4359   2.371   0.157   1.666
 1154SOL     OW 4360   0.725   3.770   1.956
 1154SOL    HW1 4361   0.708   3.818   2.041
 1154SOL    HW2 4362   0.651   3.789   1.891
 1155SOL     OW 4363   3.119   5.085   0.084
 1155SOL    HW1 4364   3.187   5.133   0.030
 1155SOL    HW2 4365   3.128   4.987   0.069
 1156SOL     OW 4366   1.799   0.591   4.359
 1156SOL    HW1 4367   1.746   0.510   4.386
 1156SOL    HW2 4368   1.746   0.645   4.295
 1157SOL     OW 4369   6.239   1.276   4.500
 1157SOL    HW1 4370   6.191   1.309   4.418
 1157SOL    HW2 4371   6.227   1.342   4.574
 1158SOL     OW 4372   0.086   5.010   5.828
 1158SOL    HW1 4373   0.159   5.012   5.897
 1158SOL    HW2 4374   0.126   4.993   5.738
 1159SOL     OW 4375   5.294   0.132   3.081
 1159SOL    HW1 4376   5.329   0.217   3.119
 1159SOL    HW2 4377   5.261   0.148   2.988
 1160SOL     OW 4378   4.155   3.875   1.540
 1160SOL    HW1 4379   4.066   3.831   1.528
 1160SOL    HW2 4380   4.153   3.967   1.502
 1161SOL     OW 4381   5.187   0.610   6.173
 1161SOL    HW1 4382   5.260   0.677   6.157
 1161SOL    HW2 4383   5.135   0.596   6.089
 1162SOL     OW 4384   4.108   2.783   0.401
 1162SOL    HW1 4385   4.053   2.849   0.451
 1162SOL    HW2 4386   4.156   2.723   0.465
 1163SOL     OW 4387   5.573   3.002   1.835
 1163SOL    HW1 4388   5.544   3.085   1.789
 1163SOL    HW2 4389   5.606   2.936   1.767
 1164SOL     OW 4390   4.986   2.721   4.055
 1164SOL    HW1 4391   4.997   2.673   3.967
 1164SOL    HW2 4392   4.911   2.787   4.047
 1165SOL     OW 4393   1.949   4.734   4.058
 1165SOL    HW1 4394   1.856   4.711   4.032
 1165SOL    HW2 4395   1.947   4.803   4.131
 1166SOL     OW 4396   3.706   0.873   0.067
 1166SOL    HW1 4397   3.728   0.896   0.162
 1166SOL    HW2 4398   3.779   0.817   0.029
 1167SOL     OW 4399   3.366   0.252   6.375
 1167SOL    HW1 4400   3.404   0.169   6.334
 1167SOL    HW2 4401   3.267   0.254   6.359
 1168SOL     OW 4402   0.033   0.455   2.398
 1168SOL    HW1 4403   6.993   0.465   2.317
 1168SOL    HW2 4404   0.104   0.525   2.398
 1169SOL     OW 4405   6.457   3.297   7.004
 1169SOL    HW1 4406   6.543   3.330   6.966
 1169SOL    HW2 4407   6.475   3.249   0.072
 1170SOL     OW 4408   4.651   0.731   2.292
 1170SOL    HW1 4409   4.685   0.767   2.379
 1170SOL    HW2 4410   4.655   0.803   2.223
 1171SOL     OW 4411   2.297   6.455   6.726
 1171SOL    HW1 4412   2.265   6.362   6.743
 1171SOL    HW2 4413   2.294   6.508   6.810
 1172SOL     OW 4414   3.516   4.000   2.803
 1172SOL    HW1 4415   3.456   3.939   2.854
 1172SOL    HW2 4416   3.560   4.065   2.866
 1173SOL     OW 4417   3.271   6.971   5.884
 1173SOL    HW1 4418   3.255   6.911   5.962
 1173SOL    HW2 4419   3.335   6.927   5.820
 1174SOL     OW 4420   2.915   4.519   0.547
 1174SOL    HW1 4421   2.871   4.431   0.527
 1174SOL    HW2 4422   2.847   4.592   0.546
 1175SOL     OW 4423   5.137   3.470   6.381
 1175SOL    HW1 4424   5.216   3.490   6.440
 1175SOL    HW2 4425   5.169   3.426   6.297
 1176SOL     OW 4426   5.902   4.230   0.580
 1176SOL    HW1 4427   5.971   4.293   0.546
 1176SOL    HW2 4428   5.938   4.181   0.660
 1177SOL     OW 4429   6.866   1.355   5.245
 1177SOL    HW1 4430   6.909   1.306   5.169
 1177SOL    HW2 4431   6.930   1.423   5.281
 1178SOL     OW 4432   3.853   3.158   1.218
 1178SOL    HW1 4433   3.799   3.236   1.251
 1178SOL    HW2 4434   3.804   3.112   1.144
 1179SOL     OW 4435   3.084   5.080   0.818
 1179SOL    HW1 4436   2.995   5.034   0.818
 1179SOL    HW2 4437   3.117   5.089   0.723
 1180SOL     OW 4438   3.074   6.889   3.528
 1180SOL    HW1 4439   3.084   6.859   3.623
 1180SOL    HW2 4440   3.076   6.989   3.525
 1181SOL     OW 4441   0.076   2.796   5.144
 1181SOL    HW1 4442   0.045   2.730   5.076
 1181SOL    HW2 4443   0.167   2.829   5.119
 1182SOL     OW 4444   1.699   5.586   3.293
 1182SOL    HW1 4445   1.728   5.490   3.294
 1182SOL    HW2 4446   1.764   5.641   3.346
 1183SOL     OW 4447   3.515   5.338   2.248
 1183SOL    HW1 4448   3.508   5.312   2.152
 1183SOL    HW2 4449   3.598   5.298   2.288
 1184SOL     OW 4450   4.197   1.440   5.242
 1184SOL    HW1 4451   4.155   1.475   5.325
 1184SOL    HW2 4452   4.154   1.353   5.216
 1185SOL     OW 4453   2.117   0.266   0.225
 1185SOL    HW1 4454   2.058   0.201   0.177
 1185SOL    HW2 4455   2.210   0.228   0.232
 1186SOL     OW 4456   5.992   6.476   6.233
 1186SOL    HW1 4457   6.011   6.490   6.136
 1186SOL    HW2 4458   5.942   6.391   6.246
 1187SOL     OW 4459   5.425   5.770   5.112
 1187SOL    HW1 4460   5.491   5.695   5.114
 1187SOL    HW2 4461   5.443   5.831   5.189
 1188SOL     OW 4462   3.346   6.564   6.709
 1188SOL    HW1 4463   3.435   6.589   6.672
 1188SOL    HW2 4464   3.307   6.644   6.756
 1189SOL     OW 4465   5.511   0.406   1.966
 1189SOL    HW1 4466   5.551   0.393   1.875
 1189SOL    HW2 4467   5.441   0.337   1.982
 1190SOL     OW 4468   4.210   4.814   4.708
 1190SOL    HW1 4469   4.115   4.840   4.691
 1190SOL    HW2 4470   4.257   4.800   4.621
 1191SOL     OW 4471   4.337   5.813   5.178
 1191SOL    HW1 4472   4.277   5.891   5.164
 1191SOL    HW2 4473   4.333   5.783   5.273
 1192SOL     OW 4474   5.425   5.317   2.590
 1192SOL    HW1 4475   5.420   5.333   2.689
 1192SOL    HW2 4476   5.334   5.295   2.555
 1193SOL     OW 4477   6.656   0.488   4.485
 1193SOL    HW1 4478   6.705   0.457   4.566
 1193SOL    HW2 4479   6.638   0.410   4.424
 1194SOL     OW 4480   0.292   1.521   1.050
 1194SOL    HW1 4481   0.385   1.493   1.072
 1194SOL    HW2 4482   0.244   1.547   1.135
 1195SOL     OW 4483   5.969   2.613   1.299
 1195SOL    HW1 4484   5.947   2.661   1.384
 1195SOL    HW2 4485   5.961   2.514   1.313
 1196SOL     OW 4486   0.212   4.185   1.795
 1196SOL    HW1 4487   0.200   4.226   1.704
 1196SOL    HW2 4488   0.280   4.237   1.846
 1197SOL     OW 4489   4.185   6.130   4.829
 1197SOL    HW1 4490   4.191   6.139   4.928
 1197SOL    HW2 4491   4.275   6.146   4.789
 1198SOL     OW 4492   2.075   3.100   2.553
 1198SOL    HW1 4493   2.093   3.058   2.465
 1198SOL    HW2 4494   2.065   3.199   2.542
 1199SOL     OW 4495   3.404   2.903   3.489
 1199SOL    HW1 4496   3.456   2.935   3.568
 1199SOL    HW2 4497   3.344   2.976   3.457
 1200SOL     OW 4498   3.458   4.182   4.647
 1200SOL    HW1 4499   3.403   4.262   4.671
 1200SOL    HW2 4500   3.553   4.199   4.671
 1201SOL     OW 4501   6.931   1.435   4.630
 1201SOL    HW1 4502   6.973   1.470   4.546
 1201SOL    HW2 4503   6.922   1.509   4.696
 1202SOL     OW 4504   6.008   0.920   5.851
 1202SOL    HW1 4505   5.934   0.877   5.904
 1202SOL    HW2 4506   5.972   0.950   5.763
 1203SOL     OW 4507   6.146   6.532   1.685
 1203SOL    HW1 4508   6.055   6.548   1.723
 1203SOL    HW2 4509   6.138   6.475   1.602
 1204SOL     OW 4510   4.613   1.584   0.625
 1204SOL    HW1 4511   4.602   1.519   0.551
 1204SOL    HW2 4512   4.524   1.599   0.669
 1205SOL     OW 4513   4.112   3.600   6.186
 1205SOL    HW1 4514   4.134   3.523   6.246
 1205SOL    HW2 4515   4.195   3.655   6.171
 1206SOL     OW 4516   0.906   1.838   4.874
 1206SOL    HW1 4517   0.919   1.834   4.973
 1206SOL    HW2 4518   0.828   1.780   4.849
 1207SOL     OW 4519   0.909   6.729   0.307
 1207SOL    HW1 4520   0.901   6.825   0.278
 1207SOL    HW2 4521   0.950   6.725   0.398
 1208SOL     OW 4522   3.352   4.097   2.611
 1208SOL    HW1 4523   3.416   4.076   2.685
 1208SOL    HW2 4524   3.402   4.121   2.528
 1209SOL     OW 4525   5.733   6.380   4.895
 1209SOL    HW1 4526   5.663   6.347   4.832
 1209SOL    HW2 4527   5.756   6.308   4.960
 1210SOL     OW 4528   4.551   6.323   3.311
 1210SOL    HW1 4529   4.583   6.246   3.366
 1210SOL    HW2 4530   4.521   6.397   3.371
 1211SOL     OW 4531   1.572   3.129   2.994
 1211SOL    HW1 4532   1.567   3.225   3.022
 1211SOL    HW2 4533   1.480   3.096   2.975
 1212SOL     OW 4534   0.155   1.595   4.935
 1212SOL    HW1 4535   0.099   1.625   4.857
 1212SOL    HW2 4536   0.181   1.500   4.922
 1213SOL     OW 4537   5.636   3.126   4.582
 1213SOL    HW1 4538   5.689   3.207   4.607
 1213SOL    HW2 4539   5.680   3.044   4.619
 1214SOL     OW 4540   1.146   3.017   4.996
 1214SOL    HW1 4541   1.200   3.090   4.955
 1214SOL    HW2 4542   1.086   3.055   5.066
 1215SOL     OW 4543   1.594   5.275   2.549
 1215SOL    HW1 4544   1.571   5.178   2.543
 1215SOL    HW2 4545   1.692   5.285   2.564
 1216SOL     OW 4546   0.066   0.318   0.927
 1216SOL    HW1 4547   0.043   0.291   1.021
 1216SOL    HW2 4548   0.053   0.240   0.866
 1217SOL     OW 4549   2.598   5.600   1.121
 1217SOL    HW1 4550   2.640   5.532   1.181
 1217SOL    HW2 4551   2.545   5.555   1.050
 1218SOL     OW 4552   0.585   3.540   4.682
 1218SOL    HW1 4553   0.658   3.472   4.676
 1218SOL    HW2 4554   0.599   3.610   4.612
 1219SOL     OW 4555   4.802   5.186   1.603
 1219SOL    HW1 4556   4.827   5.198   1.699
 1219SOL    HW2 4557   4.766   5.094   1.589
 1220SOL     OW 4558   5.577   3.994   2.937
 1220SOL    HW1 4559   5.565   4.086   2.898
 1220SOL    HW2 4560   5.652   3.948   2.890
 1221SOL     OW 4561   5.879   3.709   6.202
 1221SOL    HW1 4562   5.831   3.768   6.267
 1221SOL    HW2 4563   5.952   3.660   6.250
 1222SOL     OW 4564   6.785   0.141   0.186
 1222SOL    HW1 4565   6.829   0.162   0.098
 1222SOL    HW2 4566   6.708   0.203   0.200
 1223SOL     OW 4567   4.917   1.007   0.706
 1223SOL    HW1 4568   4.904   1.106   0.700
 1223SOL    HW2 4569   4.918   0.979   0.802
 1224SOL     OW 4570   3.061   5.859   0.393
 1224SOL    HW1 4571   3.035   5.800   0.469
 1224SOL    HW2 4572   3.066   5.806   0.308
 1225SOL     OW 4573   3.965   2.422   0.806
 1225SOL    HW1 4574   3.875   2.441   0.767
 1225SOL    HW2 4575   3.975   2.324   0.819
 1226SOL     OW 4576   5.019   6.028   0.717
 1226SOL    HW1 4577   4.975   6.116   0.736
 1226SOL    HW2 4578   5.118   6.040   0.721
 1227SOL     OW 4579   6.311   5.353   6.635
 1227SOL    HW1 4580   6.230   5.296   6.640
 1227SOL    HW2 4581   6.372   5.319   6.564
 1228SOL     OW 4582   4.023   3.303   0.669
 1228SOL    HW1 4583   3.983   3.289   0.578
 1228SOL    HW2 4584   3.954   3.284   0.739
 1229SOL     OW 4585   1.864   5.898   1.330
 1229SOL    HW1 4586   1.877   5.844   1.413
 1229SOL    HW2 4587   1.953   5.934   1.300
 1230SOL     OW 4588   5.403   5.610   2.599
 1230SOL    HW1 4589   5.408   5.510   2.600
 1230SOL    HW2 4590   5.310   5.638   2.580
 1231SOL     OW 4591   1.201   2.158   6.094
 1231SOL    HW1 4592   1.288   2.151   6.045
 1231SOL    HW2 4593   1.166   2.065   6.113
 1232SOL     OW 4594   4.756   0.973   5.403
 1232SOL    HW1 4595   4.742   0.876   5.383
 1232SOL    HW2 4596   4.752   1.025   5.318
 1233SOL     OW 4597   0.763   5.689   3.520
 1233SOL    HW1 4598   0.689   5.743   3.479
 1233SOL    HW2 4599   0.809   5.636   3.449
 1234SOL     OW 4600   6.726   2.644   5.897
 1234SOL    HW1 4601   6.775   2.569   5.854
 1234SOL    HW2 4602   6.709   2.623   5.993
 1235SOL     OW 4603   6.407   4.514   0.760
 1235SOL    HW1 4604   6.475   4.508   0.833
 1235SOL    HW2 4605   6.321   4.475   0.792
 1236SOL     OW 4606   3.937   1.450   1.805
 1236SOL    HW1 4607   3.893   1.499   1.880
 1236SOL    HW2 4608   4.035   1.468   1.807
 1237SOL     OW 4609   1.329   5.582   4.786
 1237SOL    HW1 4610   1.243   5.618   4.750
 1237SOL    HW2 4611   1.372   5.650   4.845
 1238SOL     OW 4612   0.485   0.124   4.317
 1238SOL    HW1 4613   0.452   0.156   4.228
 1238SOL    HW2 4614   0.556   0.185   4.351
 1239SOL     OW 4615   6.382   6.504   5.743
 1239SOL    HW1 4616   6.390   6.591   5.790
 1239SOL    HW2 4617   6.438   6.506   5.660
 1240SOL     OW 4618   6.053   4.872   2.575
 1240SOL    HW1 4619   6.026   4.866   2.478
 1240SOL    HW2 4620   6.085   4.782   2.605
 1241SOL     OW 4621   6.507   4.794   4.959
 1241SOL    HW1 4622   6.431   4.858   4.946
 1241SOL    HW2 4623   6.518   4.773   5.056
 1242SOL     OW 4624   2.160   3.225   0.548
 1242SOL    HW1 4625   2.182   3.313   0.506
 1242SOL    HW2 4626   2.071   3.231   0.593
 1243SOL     OW 4627   0.533   0.851   4.396
 1243SOL    HW1 4628   0.438   0.824   4.412
 1243SOL    HW2 4629   0.542   0.886   4.303
 1244SOL     OW 4630   5.182   6.630   5.374
 1244SOL    HW1 4631   5.122   6.655   5.298
 1244SOL    HW2 4632   5.263   6.584   5.339
 1245SOL     OW 4633   5.846   5.581   0.486
 1245SOL    HW1 4634   5.795   5.532   0.556
 1245SOL    HW2 4635   5.823   5.678   0.490
 1246SOL     OW 4636   3.443   1.336   2.512
 1246SOL    HW1 4637   3.376   1.275   2.469
 1246SOL    HW2 4638   3.466   1.410   2.449
 1247SOL     OW 4639   5.617   6.741   5.135
 1247SOL    HW1 4640   5.649   6.722   5.042
 1247SOL    HW2 4641   5.608   6.840   5.147
 1248SOL     OW 4642   1.702   6.687   3.758
 1248SOL    HW1 4643   1.746   6.599   3.774
 1248SOL    HW2 4644   1.604   6.680   3.776
 1249SOL     OW 4645   0.076   3.655   1.803
 1249SOL    HW1 4646   0.124   3.740   1.822
 1249SOL    HW2 4647   6.996   3.673   1.787
 1250SOL     OW 4648   6.005   3.659   4.182
 1250SOL    HW1 4649   5.997   3.583   4.117
 1250SOL    HW2 4650   6.048   3.737   4.137
 1251SOL     OW 4651   2.384   0.977   2.715
 1251SOL    HW1 4652   2.479   0.981   2.747
 1251SOL    HW2 4653   2.349   0.884   2.725
 1252SOL     OW 4654   3.565   5.345   6.978
 1252SOL    HW1 4655   3.515   5.268   6.937
 1252SOL    HW2 4656   3.663   5.329   6.969
 1253SOL     OW 4657   2.753   6.885   1.404
 1253SOL    HW1 4658   2.708   6.974   1.395
 1253SOL    HW2 4659   2.751   6.857   1.499
 1254SOL     OW 4660   6.758   3.092   3.004
 1254SOL    HW1 4661   6.709   3.069   3.089
 1254SOL    HW2 4662   6.704   3.156   2.950
 1255SOL     OW 4663   5.704   2.684   6.143
 1255SOL    HW1 4664   5.619   2.731   6.123
 1255SOL    HW2 4665   5.735   2.633   6.062
 1256SOL     OW 4666   0.723   6.371   3.815
 1256SOL    HW1 4667   0.665   6.345   3.893
 1256SOL    HW2 4668   0.759   6.463   3.830
 1257SOL     OW 4669   0.359   5.321   4.702
 1257SOL    HW1 4670   0.286   5.316   4.635
 1257SOL    HW2 4671   0.320   5.330   4.794
 1258SOL     OW 4672   1.871   5.823   2.710
 1258SOL    HW1 4673   1.806   5.778   2.648
 1258SOL    HW2 4674   1.837   5.819   2.803
 1259SOL     OW 4675   3.369   6.184   5.495
 1259SOL    HW1 4676   3.385   6.277   5.465
 1259SOL    HW2 4677   3.370   6.122   5.416
 1260SOL     OW 4678   3.071   1.141   1.393
 1260SOL    HW1 4679   3.022   1.205   1.333
 1260SOL    HW2 4680   3.079   1.052   1.348
 1261SOL     OW 4681   0.238   4.441   0.034
 1261SOL    HW1 4682   0.293   4.365   0.068
 1261SOL    HW2 4683   0.252   4.521   0.092
 1262SOL     OW 4684   5.127   6.043   1.378
 1262SOL    HW1 4685   5.133   5.986   1.296
 1262SOL    HW2 4686   5.078   6.127   1.356
 1263SOL     OW 4687   6.585   1.554   0.558
 1263SOL    HW1 4688   6.519   1.480   0.547
 1263SOL    HW2 4689   6.606   1.594   0.469
 1264SOL     OW 4690   0.795   3.657   1.563
 1264SOL    HW1 4691   0.791   3.744   1.612
 1264SOL    HW2 4692   0.890   3.638   1.536
 1265SOL     OW 4693   6.749   5.081   3.715
 1265SOL    HW1 4694   6.743   4.982   3.726
 1265SOL    HW2 4695   6.822   5.103   3.651
 1266SOL     OW 4696   2.058   1.188   3.886
 1266SOL    HW1 4697   2.101   1.144   3.807
 1266SOL    HW2 4698   1.967   1.149   3.900
 1267SOL     OW 4699   5.530   6.216   0.977
 1267SOL    HW1 4700   5.445   6.238   1.024
 1267SOL    HW2 4701   5.524   6.126   0.936
 1268SOL     OW 4702   4.668   2.611   6.736
 1268SOL    HW1 4703   4.631   2.691   6.689
 1268SOL    HW2 4704   4.595   2.563   6.784
 1269SOL     OW 4705   5.952   6.348   5.392
 1269SOL    HW1 4706   5.891   6.365   5.469
 1269SOL    HW2 4707   6.041   6.391   5.408
 1270SOL     OW 4708   2.147   3.585   4.610
 1270SOL    HW1 4709   2.231   3.613   4.657
 1270SOL    HW2 4710   2.152   3.611   4.514
 1271SOL     OW 4711   3.452   2.072   3.541
 1271SOL    HW1 4712   3.447   2.010   3.619
 1271SOL    HW2 4713   3.364   2.120   3.531
 1272SOL     OW 4714   6.482   5.830   0.897
 1272SOL    HW1 4715   6.578   5.845   0.876
 1272SOL    HW2 4716   6.464   5.732   0.904
 1273SOL     OW 4717   1.762   4.489   0.070
 1273SOL    HW1 4718   1.747   4.582   0.104
 1273SOL    HW2 4719   1.734   4.423   0.140
 1274SOL     OW 4720   6.228   3.009   1.673
 1274SOL    HW1 4721   6.220   3.086   1.609
 1274SOL    HW2 4722   6.163   3.021   1.748
 1275SOL     OW 4723   3.856   0.221   3.555
 1275SOL    HW1 4724   3.801   0.233   3.472
 1275SOL    HW2 4725   3.815   0.150   3.613
 1276SOL     OW 4726   0.142   1.338   4.151
 1276SOL    HW1 4727   0.128   1.350   4.053
 1276SOL    HW2 4728   0.149   1.240   4.172
 1277SOL     OW 4729   0.289   0.113   5.272
 1277SOL    HW1 4730   0.239   0.123   5.358
 1277SOL    HW2 4731   0.337   0.025   5.271
 1278SOL     OW 4732   1.366   0.915   5.165
 1278SOL    HW1 4733   1.283   0.957   5.202
 1278SOL    HW2 4734   1.410   0.860   5.236
 1279SOL     OW 4735   3.104   5.818   6.936
 1279SOL    HW1 4736   3.190   5.868   6.948
 1279SOL    HW2 4737   3.094   5.750   7.007
 1280SOL     OW 4738   3.322   6.218   3.814
 1280SOL    HW1 4739   3.331   6.135   3.759
 1280SOL    HW2 4740   3.229   6.254   3.804
 1281SOL     OW 4741   0.947   5.805   3.156
 1281SOL    HW1 4742   0.851   5.814   3.127
 1281SOL    HW2 4743   0.951   5.750   3.239
 1282SOL     OW 4744   0.284   0.955   6.849
 1282SOL    HW1 4745   0.194   1.000   6.847
 1282SOL    HW2 4746   0.329   0.967   6.761
 1283SOL     OW 4747   5.182   2.880   5.191
 1283SOL    HW1 4748   5.169   2.791   5.236
 1283SOL    HW2 4749   5.128   2.950   5.239
 1284SOL     OW 4750   4.332   3.216   1.433
 1284SOL    HW1 4751   4.248   3.168   1.408
 1284SOL    HW2 4752   4.366   3.179   1.520
 1285SOL     OW 4753   5.136   3.363   5.748
 1285SOL    HW1 4754   5.191   3.444   5.769
 1285SOL    HW2 4755   5.066   3.351   5.819
 1286SOL     OW 4756   4.889   4.372   2.994
 1286SOL    HW1 4757   4.917   4.432   3.069
 1286SOL    HW2 4758   4.803   4.405   2.956
 1287SOL     OW 4759   4.605   4.059   5.655
 1287SOL    HW1 4760   4.631   4.037   5.749
 1287SOL    HW2 4761   4.645   4.146   5.629
 1288SOL     OW 4762   6.143   3.790   0.922
 1288SOL    HW1 4763   6.069   3.762   0.983
 1288SOL    HW2 4764   6.230   3.785   0.970
 1289SOL     OW 4765   0.265   6.106   1.850
 1289SOL    HW1 4766   0.264   6.200   1.884
 1289SOL    HW2 4767   0.178   6.087   1.804
 1290SOL     OW 4768   1.218   0.038   0.413
 1290SOL    HW1 4769   1.208   0.058   0.315
 1290SOL    HW2 4770   1.251   6.962   0.424
 1291SOL     OW 4771   0.415   2.971   5.758
 1291SOL    HW1 4772   0.399   3.003   5.665
 1291SOL    HW2 4773   0.505   3.003   5.790
 1292SOL     OW 4774   5.822   5.847   2.906
 1292SOL    HW1 4775   5.805   5.862   2.808
 1292SOL    HW2 4776   5.919   5.829   2.920
 1293SOL     OW 4777   1.735   1.153   6.532
 1293SOL    HW1 4778   1.706   1.181   6.624
 1293SOL    HW2 4779   1.654   1.133   6.476
 1294SOL     OW 4780   1.227   3.273   0.384
 1294SOL    HW1 4781   1.290   3.350   0.389
 1294SOL    HW2 4782   1.279   3.187   0.379
 1295SOL     OW 4783   6.680   3.800   2.902
 1295SOL    HW1 4784   6.669   3.727   2.835
 1295SOL    HW2 4785   6.591   3.824   2.941
 1296SOL     OW 4786   3.925   0.470   5.360
 1296SOL    HW1 4787   3.910   0.437   5.267
 1296SOL    HW2 4788   3.838   0.497   5.401
 1297SOL     OW 4789   5.872   0.712   6.478
 1297SOL    HW1 4790   5.935   0.710   6.556
 1297SOL    HW2 4791   5.920   0.747   6.397
 1298SOL     OW 4792   6.175   4.264   3.506
 1298SOL    HW1 4793   6.188   4.346   3.450
 1298SOL    HW2 4794   6.078   4.251   3.525
 1299SOL     OW 4795   0.327   3.793   2.941
 1299SOL    HW1 4796   0.286   3.876   2.978
 1299SOL    HW2 4797   0.361   3.811   2.848
 1300SOL     OW 4798   3.190   3.975   1.584
 1300SOL    HW1 4799   3.157   4.004   1.675
 1300SOL    HW2 4800   3.272   3.919   1.595
 1301SOL     OW 4801   0.423   5.844   2.150
 1301SOL    HW1 4802   0.360   5.767   2.160
 1301SOL    HW2 4803   0.484   5.827   2.072
 1302SOL     OW 4804   2.995   0.152   5.411
 1302SOL    HW1 4805   3.002   0.171   5.509
 1302SOL    HW2 4806   3.031   0.230   5.360
 1303SOL     OW 4807   4.488   1.724   1.205
 1303SOL    HW1 4808   4.524   1.637   1.171
 1303SOL    HW2 4809   4.549   1.798   1.177
 1304SOL     OW 4810   1.415   1.239   6.646
 1304SOL    HW1 4811   1.427   1.319   6.587
 1304SOL    HW2 4812   1.382   1.161   6.592
 1305SOL     OW 4813   5.484   4.057   0.173
 1305SOL    HW1 4814   5.441   4.054   0.083
 1305SOL    HW2 4815   5.482   3.966   0.215
 1306SOL     OW 4816   1.182   4.261   5.539
 1306SOL    HW1 4817   1.146   4.346   5.502
 1306SOL    HW2 4818   1.281   4.269   5.551
 1307SOL     OW 4819   1.747   2.958   4.590
 1307SOL    HW1 4820   1.746   2.872   4.540
 1307SOL    HW2 4821   1.669   3.014   4.560
 1308SOL     OW 4822   4.493   5.298   4.451
 1308SOL    HW1 4823   4.459   5.351   4.529
 1308SOL    HW2 4824   4.429   5.306   4.375
 1309SOL     OW 4825   5.273   3.620   5.693
 1309SOL    HW1 4826   5.328   3.556   5.640
 1309SOL    HW2 4827   5.272   3.709   5.647
 1310SOL     OW 4828   0.273   4.134   4.818
 1310SOL    HW1 4829   0.241   4.052   4.769
 1310SOL    HW2 4830   0.314   4.197   4.752
 1311SOL     OW 4831   6.868   0.055   3.586
 1311SOL    HW1 4832   6.814   0.139   3.588
 1311SOL    HW2 4833   6.880   0.020   3.679
 1312SOL     OW 4834   1.164   0.353   6.617
 1312SOL    HW1 4835   1.195   0.430   6.672
 1312SOL    HW2 4836   1.132   0.280   6.677
 1313SOL     OW 4837   1.470   4.988   4.564
 1313SOL    HW1 4838   1.453   5.061   4.498
 1313SOL    HW2 4839   1.560   5.001   4.606
 1314SOL     OW 4840   2.929   1.914   6.068
 1314SOL    HW1 4841   2.993   1.882   6.138
 1314SOL    HW2 4842   2.971   1.991   6.018
 1315SOL     OW 4843   0.372   0.851   0.323
 1315SOL    HW1 4844   0.335   0.873   0.414
 1315SOL    HW2 4845   0.458   0.800   0.334
 1316SOL     OW 4846   2.530   6.510   4.168
 1316SOL    HW1 4847   2.610   6.486   4.223
 1316SOL    HW2 4848   2.449   6.513   4.227
 1317SOL     OW 4849   0.678   4.211   4.486
 1317SOL    HW1 4850   0.606   4.185   4.421
 1317SOL    HW2 4851   0.646   4.289   4.540
 1318SOL     OW 4852   0.033   0.596   0.662
 1318SOL    HW1 4853   0.039   0.508   0.615
 1318SOL    HW2 4854   6.965   0.600   0.714
 1319SOL     OW 4855   6.922   0.114   0.453
 1319SOL    HW1 4856   6.945   0.018   0.467
 1319SOL    HW2 4857   6.847   0.122   0.387
 1320SOL     OW 4858   5.850   3.658   0.294
 1320SOL    HW1 4859   5.884   3.713   0.371
 1320SOL    HW2 4860   5.815   3.719   0.223
 1321SOL     OW 4861   4.311   2.214   6.365
 1321SOL    HW1 4862   4.283   2.118   6.358
 1321SOL    HW2 4863   4.246   2.263   6.423
 1322SOL     OW 4864   4.908   0.639   3.610
 1322SOL    HW1 4865   5.003   0.655   3.583
 1322SOL    HW2 4866   4.847   0.670   3.537
 1323SOL     OW 4867   5.482   1.870   5.268
 1323SOL    HW1 4868   5.458   1.807   5.195
 1323SOL    HW2 4869   5.447   1.835   5.355
 1324SOL     OW 4870   0.941   2.498   1.112
 1324SOL    HW1 4871   0.989   2.563   1.053
 1324SOL    HW2 4872   0.853   2.474   1.071
 1325SOL     OW 4873   1.741   6.895   2.048
 1325SOL    HW1 4874   1.717   6.814   2.102
 1325SOL    HW2 4875   1.658   6.947   2.028
 1326SOL     OW 4876   5.102   2.675   4.770
 1326SOL    HW1 4877   5.119   2.610   4.696
 1326SOL    HW2 4878   5.155   2.758   4.754
 1327SOL     OW 4879   2.713   4.972   2.156
 1327SOL    HW1 4880   2.687   5.064   2.188
 1327SOL    HW2 4881   2.704   4.907   2.232
 1328SOL     OW 4882   1.543   2.557   0.956
 1328SOL    HW1 4883   1.531   2.459   0.940
 1328SOL    HW2 4884   1.593   2.598   0.881
 1329SOL     OW 4885   0.576   2.113   0.691
 1329SOL    HW1 4886   0.581   2.016   0.669
 1329SOL    HW2 4887   0.484   2.147   0.674
 1330SOL     OW 4888   6.780   1.249   1.239
 1330SOL    HW1 4889   6.719   1.265   1.316
 1330SOL    HW2 4890   6.812   1.336   1.203
 1331SOL     OW 4891   4.749   2.118   3.326
 1331SOL    HW1 4892   4.715   2.194   3.270
 1331SOL    HW2 4893   4.673   2.073   3.372
 1332SOL     OW 4894   3.664   0.173   0.039
 1332SOL    HW1 4895   3.629   0.088   0.080
 1332SOL    HW2 4896   3.764   0.173   0.042
 1333SOL     OW 4897   3.421   3.496   6.403
 1333SOL    HW1 4898   3.405   3.480   6.306
 1333SOL    HW2 4899   3.383   3.585   6.429
 1334SOL     OW 4900   0.059   2.598   4.950
 1334SOL    HW1 4901   0.131   2.561   4.891
 1334SOL    HW2 4902   0.032   2.528   5.016
 1335SOL     OW 4903   2.873   0.463   2.842
 1335SOL    HW1 4904   2.931   0.538   2.873
 1335SOL    HW2 4905   2.926   0.379   2.839
 1336SOL     OW 4906   1.950   1.238   6.361
 1336SOL    HW1 4907   1.878   1.180   6.399
 1336SOL    HW2 4908   2.031   1.183   6.344
 1337SOL     OW 4909   1.302   1.597   4.777
 1337SOL    HW1 4910   1.373   1.569   4.713
 1337SOL    HW2 4911   1.222   1.538   4.767
 1338SOL     OW 4912   4.540   2.579   6.228
 1338SOL    HW1 4913   4.506   2.671   6.211
 1338SOL    HW2 4914   4.609   2.555   6.160
 1339SOL     OW 4915   1.246   0.081   0.138
 1339SOL    HW1 4916   1.261   0.180   0.142
 1339SOL    HW2 4917   1.295   0.043   0.060
 1340SOL     OW 4918   0.852   1.390   1.640
 1340SOL    HW1 4919   0.786   1.369   1.568
 1340SOL    HW2 4920   0.934   1.334   1.627
 1341SOL     OW 4921   4.515   0.784   5.195
 1341SOL    HW1 4922   4.445   0.830   5.250
 1341SOL    HW2 4923   4.485   0.690   5.174
 1342SOL     OW 4924   1.722   4.936   6.289
 1342SOL    HW1 4925   1.697   4.839   6.287
 1342SOL    HW2 4926   1.773   4.959   6.206
 1343SOL     OW 4927   4.266   5.667   2.669
 1343SOL    HW1 4928   4.166   5.662   2.676
 1343SOL    HW2 4929   4.301   5.725   2.743
 1344SOL     OW 4930   6.648   4.482   3.791
 1344SOL    HW1 4931   6.678   4.564   3.838
 1344SOL    HW2 4932   6.728   4.425   3.769
 1345SOL     OW 4933   1.764   1.739   3.492
 1345SOL    HW1 4934   1.863   1.738   3.501
 1345SOL    HW2 4935   1.723   1.714   3.580
 1346SOL     OW 4936   1.394   0.235   3.178
 1346SOL    HW1 4937   1.425   0.250   3.084
 1346SOL    HW2 4938   1.465   0.188   3.230
 1347SOL     OW 4939   6.056   6.532   4.165
 1347SOL    HW1 4940   6.007   6.504   4.082
 1347SOL    HW2 4941   6.120   6.461   4.192
 1348SOL     OW 4942   5.586   5.390   3.159
 1348SOL    HW1 4943   5.552   5.460   3.221
 1348SOL    HW2 4944   5.670   5.421   3.115
 1349SOL     OW 4945   4.949   2.437   6.011
 1349SOL    HW1 4946   4.967   2.382   6.092
 1349SOL    HW2 4947   4.897   2.384   5.945
 1350SOL     OW 4948   4.381   4.572   6.757
 1350SOL    HW1 4949   4.455   4.522   6.712
 1350SOL    HW2 4950   4.400   4.670   6.753
 1351SOL     OW 4951   6.719   2.304   3.225
 1351SOL    HW1 4952   6.661   2.270   3.299
 1351SOL    HW2 4953   6.662   2.349   3.156
 1352SOL     OW 4954   0.411   0.700   3.209
 1352SOL    HW1 4955   0.407   0.628   3.140
 1352SOL    HW2 4956   0.428   0.660   3.299
 1353SOL     OW 4957   5.940   3.990   5.589
 1353SOL    HW1 4958   5.912   3.976   5.684
 1353SOL    HW2 4959   5.898   3.921   5.531
 1354SOL     OW 4960   0.464   1.721   0.187
 1354SOL    HW1 4961   0.420   1.739   0.275
 1354SOL    HW2 4962   0.395   1.695   0.120
 1355SOL     OW 4963   6.050   2.316   5.841
 1355SOL    HW1 4964   6.128   2.291   5.898
 1355SOL    HW2 4965   6.049   2.415   5.827
 1356SOL     OW 4966   3.125   3.276   3.622
 1356SOL    HW1 4967   3.175   3.361   3.639
 1356SOL    HW2 4968   3.049   3.294   3.559
 1357SOL     OW 4969   1.255   4.718   5.893
 1357SOL    HW1 4970   1.260   4.777   5.974
 1357SOL    HW2 4971   1.277   4.771   5.811
 1358SOL     OW 4972   3.533   1.525   5.725
 1358SOL    HW1 4973   3.501   1.520   5.819
 1358SOL    HW2 4974   3.633   1.518   5.723
 1359SOL     OW 4975   0.068   4.483   1.221
 1359SOL    HW1 4976   0.072   4.386   1.246
 1359SOL    HW2 4977   0.151   4.507   1.170
 1360SOL     OW 4978   3.995   3.654   2.176
 1360SOL    HW1 4979   4.022   3.649   2.272
 1360SOL    HW2 4980   4.034   3.736   2.134
 1361SOL     OW 4981   6.891   6.170   5.435
 1361SOL    HW1 4982   6.932   6.080   5.419
 1361SOL    HW2 4983   6.803   6.159   5.481
 1362SOL     OW 4984   3.150   3.904   3.872
 1362SOL    HW1 4985   3.221   3.855   3.923
 1362SOL    HW2 4986   3.064   3.899   3.922
 1363SOL     OW 4987   6.280   6.257   3.229
 1363SOL    HW1 4988   6.361   6.200   3.222
 1363SOL    HW2 4989   6.211   6.211   3.286
 1364SOL     OW 4990   0.544   2.153   0.265
 1364SOL    HW1 4991   0.480   2.082   0.291
 1364SOL    HW2 4992   0.581   2.197   0.347
 1365SOL     OW 4993   0.639   3.333   5.779
 1365SOL    HW1 4994   0.658   3.237   5.800
 1365SOL    HW2 4995   0.601   3.340   5.687
 1366SOL     OW 4996   0.545   4.106   0.582
 1366SOL    HW1 4997   0.474   4.038   0.598
 1366SOL    HW2 4998   0.625   4.084   0.638
 1367SOL     OW 4999   1.474   5.906   2.854
 1367SOL    HW1 5000   1.428   5.860   2.930
 1367SOL    HW2 5001   1.450   5.862   2.768
 1368SOL     OW 5002   6.722   0.270   3.708
 1368SOL    HW1 5003   6.693   0.358   3.670
 1368SOL    HW2 5004   6.790   0.285   3.781
 1369SOL     OW 5005   2.081   6.878   2.602
 1369SOL    HW1 5006   2.156   6.938   2.629
 1369SOL    HW2 5007   2.102   6.784   2.630
 1370SOL     OW 5008   5.234   1.671   4.165
 1370SOL    HW1 5009   5.299   1.596   4.180
 1370SOL    HW2 5010   5.250   1.743   4.232
 1371SOL     OW 5011   5.253   1.055   4.624
 1371SOL    HW1 5012   5.277   1.011   4.538
 1371SOL    HW2 5013   5.277   0.995   4.701
 1372SOL     OW 5014   1.131   1.969   0.930
 1372SOL    HW1 5015   1.191   1.989   1.008
 1372SOL    HW2 5016   1.105   2.055   0.886
 1373SOL     OW 5017   4.654   2.238   6.981
 1373SOL    HW1 5018   4.694   2.146   6.977
 1373SOL    HW2 5019   4.728   2.306   6.974
 1374SOL     OW 5020   4.337   3.084   0.334
 1374SOL    HW1 5021   4.352   3.182   0.350
 1374SOL    HW2 5022   4.310   3.040   0.420
 1375SOL     OW 5023   0.568   6.865   6.239
 1375SOL    HW1 5024   0.592   6.820   6.153
 1375SOL    HW2 5025   0.650   6.904   6.281
 1376SOL     OW 5026   3.923   4.889   5.175
 1376SOL    HW1 5027   4.000   4.844   5.130
 1376SOL    HW2 5028   3.903   4.843   5.262
 1377SOL     OW 5029   0.849   3.943   3.350
 1377SOL    HW1 5030   0.797   3.874   3.402
 1377SOL    HW2 5031   0.894   3.899   3.272
 1378SOL     OW 5032   5.684   2.574   5.547
 1378SOL    HW1 5033   5.709   2.500   5.610
 1378SOL    HW2 5034   5.592   2.557   5.512
 1379SOL     OW 5035   4.020   6.275   3.164
 1379SOL    HW1 5036   3.943   6.211   3.157
 1379SOL    HW2 5037   4.105   6.224   3.152
 1380SOL     OW 5038   0.453   6.355   3.327
 1380SOL    HW1 5039   0.522   6.324   3.393
 1380SOL    HW2 5040   0.387   6.281   3.311
 1381SOL     OW 5041   5.607   1.749   0.092
 1381SOL    HW1 5042   5.596   1.835   0.143
 1381SOL    HW2 5043   5.558   1.676   0.140
 1382SOL     OW 5044   5.310   2.987   1.556
 1382SOL    HW1 5045   5.296   2.894   1.591
 1382SOL    HW2 5046   5.226   3.018   1.511
 1383SOL     OW 5047   1.336   0.266   1.516
 1383SOL    HW1 5048   1.427   0.307   1.512
 1383SOL    HW2 5049   1.345   0.166   1.520
 1384SOL     OW 5050   4.821   0.643   1.980
 1384SOL    HW1 5051   4.781   0.552   1.985
 1384SOL    HW2 5052   4.753   0.711   2.009
 1385SOL     OW 5053   2.885   4.872   3.782
 1385SOL    HW1 5054   2.976   4.884   3.821
 1385SOL    HW2 5055   2.840   4.795   3.826
 1386SOL     OW 5056   3.005   1.370   3.874
 1386SOL    HW1 5057   3.050   1.317   3.946
 1386SOL    HW2 5058   3.021   1.326   3.786
 1387SOL     OW 5059   3.993   5.372   2.653
 1387SOL    HW1 5060   3.968   5.456   2.604
 1387SOL    HW2 5061   4.071   5.329   2.608
 1388SOL     OW 5062   6.809   0.127   2.858
 1388SOL    HW1 5063   6.837   0.222   2.844
 1388SOL    HW2 5064   6.802   0.081   2.770
 1389SOL     OW 5065   6.487   1.073   3.875
 1389SOL    HW1 5066   6.395   1.114   3.877
 1389SOL    HW2 5067   6.490   1.003   3.805
 1390SOL     OW 5068   0.093   3.385   6.805
 1390SOL    HW1 5069   0.100   3.373   6.706
 1390SOL    HW2 5070   0.056   3.301   6.846
 1391SOL     OW 5071   6.309   6.229   4.755
 1391SOL    HW1 5072   6.362   6.189   4.829
 1391SOL    HW2 5073   6.213   6.236   4.783
 1392SOL     OW 5074   5.118   6.265   5.879
 1392SOL    HW1 5075   5.105   6.203   5.802
 1392SOL    HW2 5076   5.190   6.330   5.858
 1393SOL     OW 5077   6.386   4.467   5.831
 1393SOL    HW1 5078   6.341   4.556   5.835
 1393SOL    HW2 5079   6.379   4.422   5.920
 1394SOL     OW 5080   3.450   5.448   5.535
 1394SOL    HW1 5081   3.483   5.535   5.499
 1394SOL    HW2 5082   3.515   5.411   5.602
 1395SOL     OW 5083   2.401   4.861   5.177
 1395SOL    HW1 5084   2.457   4.806   5.115
 1395SOL    HW2 5085   2.461   4.920   5.232
 1396SOL     OW 5086   0.914   1.414   5.421
 1396SOL    HW1 5087   0.859   1.366   5.352
 1396SOL    HW2 5088   0.957   1.347   5.482
 1397SOL     OW 5089   0.512   6.989   3.924
 1397SOL    HW1 5090   0.427   0.025   3.925
 1397SOL    HW2 5091   0.587   0.029   3.956
 1398SOL     OW 5092   3.254   0.651   6.616
 1398SOL    HW1 5093   3.247   0.615   6.709
 1398SOL    HW2 5094   3.211   0.587   6.552
 1399SOL     OW 5095   3.707   5.622   0.834
 1399SOL    HW1 5096   3.633   5.627   0.901
 1399SOL    HW2 5097   3.714   5.529   0.798
 1400SOL     OW 5098   7.012   1.849   4.077
 1400SOL    HW1 5099   0.073   1.788   4.089
 1400SOL    HW2 5100   6.948   1.837   4.153
 1401SOL     OW 5101   6.126   0.759   4.622
 1401SOL    HW1 5102   6.133   0.858   4.613
 1401SOL    HW2 5103   6.213   0.717   4.598
 1402SOL     OW 5104   6.127   3.610   6.317
 1402SOL    HW1 5105   6.085   3.620   6.407
 1402SOL    HW2 5106   6.199   3.541   6.321
 1403SOL     OW 5107   2.554   2.195   1.855
 1403SOL    HW1 5108   2.645   2.153   1.845
 1403SOL    HW2 5109   2.492   2.158   1.786
 1404SOL     OW 5110   6.482   6.547   0.538
 1404SOL    HW1 5111   6.565   6.576   0.489
 1404SOL    HW2 5112   6.488   6.450   0.558
 1405SOL     OW 5113   2.379   3.385   0.760
 1405SOL    HW1 5114   2.450   3.322   0.726
 1405SOL    HW2 5115   2.395   3.401   0.858
 1406SOL     OW 5116   0.577   4.944   0.513
 1406SOL    HW1 5117   0.526   5.014   0.563
 1406SOL    HW2 5118   0.666   4.980   0.486
 1407SOL     OW 5119   0.424   3.329   2.459
 1407SOL    HW1 5120   0.408   3.353   2.364
 1407SOL    HW2 5121   0.371   3.389   2.519
 1408SOL     OW 5122   5.509   0.863   5.551
 1408SOL    HW1 5123   5.542   0.775   5.516
 1408SOL    HW2 5124   5.545   0.937   5.493
 1409SOL     OW 5125   6.690   0.363   4.732
 1409SOL    HW1 5126   6.718   0.268   4.719
 1409SOL    HW2 5127   6.700   0.388   4.828
 1410SOL     OW 5128   1.533   3.986   6.052
 1410SOL    HW1 5129   1.512   4.081   6.028
 1410SOL    HW2 5130   1.451   3.941   6.087
 1411SOL     OW 5131   3.902   6.917   1.029
 1411SOL    HW1 5132   3.986   6.908   1.082
 1411SOL    HW2 5133   3.920   6.971   0.946
 1412SOL     OW 5134   1.365   2.092   0.613
 1412SOL    HW1 5135   1.402   2.029   0.545
 1412SOL    HW2 5136   1.389   2.060   0.705
 1413SOL     OW 5137   1.616   2.190   5.421
 1413SOL    HW1 5138   1.585   2.285   5.432
 1413SOL    HW2 5139   1.613   2.143   5.509
 1414SOL     OW 5140   2.703   0.902   1.842
 1414SOL    HW1 5141   2.774   0.861   1.784
 1414SOL    HW2 5142   2.710   1.001   1.836
 1415SOL     OW 5143   2.039   0.996   4.268
 1415SOL    HW1 5144   2.127   1.038   4.289
 1415SOL    HW2 5145   1.967   1.039   4.323
 1416SOL     OW 5146   5.016   5.138   4.197
 1416SOL    HW1 5147   5.011   5.043   4.164
 1416SOL    HW2 5148   5.027   5.138   4.297
 1417SOL     OW 5149   2.976   2.528   0.416
 1417SOL    HW1 5150   2.938   2.448   0.371
 1417SOL    HW2 5151   2.913   2.560   0.487
 1418SOL     OW 5152   3.181   4.040   2.866
 1418SOL    HW1 5153   3.202   4.078   2.776
 1418SOL    HW2 5154   3.081   4.036   2.878
 1419SOL     OW 5155   2.788   5.484   3.813
 1419SOL    HW1 5156   2.811   5.578   3.835
 1419SOL    HW2 5157   2.856   5.422   3.853
 1420SOL     OW 5158   2.460   6.659   1.812
 1420SOL    HW1 5159   2.435   6.731   1.746
 1420SOL    HW2 5160   2.377   6.614   1.845
 1421SOL     OW 5161   2.224   5.106   3.292
 1421SOL    HW1 5162   2.307   5.070   3.335
 1421SOL    HW2 5163   2.250   5.174   3.223
 1422SOL     OW 5164   1.218   3.869   0.101
 1422SOL    HW1 5165   1.204   3.827   0.190
 1422SOL    HW2 5166   1.135   3.918   0.074
 1423SOL     OW 5167   5.538   6.210   3.921
 1423SOL    HW1 5168   5.586   6.211   4.009
 1423SOL    HW2 5169   5.481   6.129   3.915
 1424SOL     OW 5170   6.492   4.926   6.036
 1424SOL    HW1 5171   6.483   4.991   5.960
 1424SOL    HW2 5172   6.554   4.964   6.104
 1425SOL     OW 5173   1.951   5.505   5.248
 1425SOL    HW1 5174   1.981   5.455   5.167
 1425SOL    HW2 5175   1.936   5.601   5.225
 1426SOL     OW 5176   2.163   3.847   6.630
 1426SOL    HW1 5177   2.088   3.913   6.629
 1426SOL    HW2 5178   2.251   3.895   6.623
 1427SOL     OW 5179   0.275   0.350   3.326
 1427SOL    HW1 5180   0.264   0.288   3.404
 1427SOL    HW2 5181   0.320   0.301   3.251
 1428SOL     OW 5182   0.408   2.573   6.654
 1428SOL    HW1 5183   0.393   2.543   6.748
 1428SOL    HW2 5184   0.448   2.664   6.654
 1429SOL     OW 5185   4.466   1.578   6.823
 1429SOL    HW1 5186   4.469   1.624   6.912
 1429SOL    HW2 5187   4.413   1.633   6.758
 1430SOL     OW 5188   1.550   4.822   3.594
 1430SOL    HW1 5189   1.489   4.835   3.671
 1430SOL    HW2 5190   1.540   4.898   3.530
 1431SOL     OW 5191   2.658   2.211   0.461
 1431SOL    HW1 5192   2.591   2.190   0.532
 1431SOL    HW2 5193   2.726   2.275   0.497
 1432SOL     OW 5194   2.844   1.446   1.640
 1432SOL    HW1 5195   2.884   1.533   1.611
 1432SOL    HW2 5196   2.752   1.463   1.677
 1433SOL     OW 5197   4.875   6.995   4.808
 1433SOL    HW1 5198   4.784   7.006   4.848
 1433SOL    HW2 5199   4.917   0.067   4.797
 1434SOL     OW 5200   0.788   0.199   5.776
 1434SOL    HW1 5201   0.788   0.100   5.790
 1434SOL    HW2 5202   0.801   0.246   5.863
 1435SOL     OW 5203   6.660   6.946   3.015
 1435SOL    HW1 5204   6.693   0.015   2.979
 1435SOL    HW2 5205   6.560   6.950   3.026
 1436SOL     OW 5206   5.205   4.003   6.682
 1436SOL    HW1 5207   5.255   3.918   6.664
 1436SOL    HW2 5208   5.169   4.002   6.775
 1437SOL     OW 5209   2.726   1.923   4.793
 1437SOL    HW1 5210   2.766   1.836   4.764
 1437SOL    HW2 5211   2.794   1.977   4.843
 1438SOL     OW 5212   2.645   6.480   1.771
 1438SOL    HW1 5213   2.602   6.392   1.793
 1438SOL    HW2 5214   2.578   6.553   1.782
 1439SOL     OW 5215   6.324   5.341   0.745
 1439SOL    HW1 5216   6.348   5.311   0.653
 1439SOL    HW2 5217   6.347   5.268   0.810
 1440SOL     OW 5218   3.071   3.292   6.998
 1440SOL    HW1 5219   3.143   3.307   0.049
 1440SOL    HW2 5220   2.981   3.307   0.023
 1441SOL     OW 5221   6.291   0.698   3.411
 1441SOL    HW1 5222   6.277   0.653   3.323
 1441SOL    HW2 5223   6.303   0.797   3.397
 1442SOL     OW 5224   0.315   6.143   0.108
 1442SOL    HW1 5225   0.299   6.079   0.183
 1442SOL    HW2 5226   0.373   6.100   0.039
 1443SOL     OW 5227   0.533   2.668   4.172
 1443SOL    HW1 5228   0.436   2.668   4.147
 1443SOL    HW2 5229   0.576   2.751   4.138
 1444SOL     OW 5230   5.119   5.622   0.688
 1444SOL    HW1 5231   5.058   5.650   0.762
 1444SOL    HW2 5232   5.145   5.701   0.634
 1445SOL     OW 5233   0.837   2.556   2.803
 1445SOL    HW1 5234   0.822   2.538   2.900
 1445SOL    HW2 5235   0.906   2.628   2.792
 1446SOL     OW 5236   5.846   2.105   0.313
 1446SOL    HW1 5237   5.791   2.117   0.396
 1446SOL    HW2 5238   5.935   2.149   0.325
 1447SOL     OW 5239   6.333   6.716   5.082
 1447SOL    HW1 5240   6.282   6.737   4.998
 1447SOL    HW2 5241   6.277   6.741   5.161
 1448SOL     OW 5242   6.877   2.171   5.354
 1448SOL    HW1 5243   6.790   2.186   5.307
 1448SOL    HW2 5244   6.921   2.259   5.372
 1449SOL     OW 5245   0.728   1.762   6.646
 1449SOL    HW1 5246   0.674   1.847   6.646
 1449SOL    HW2 5247   0.816   1.779   6.690
 1450SOL     OW 5248   0.936   2.608   1.365
 1450SOL    HW1 5249   0.879   2.683   1.399
 1450SOL    HW2 5250   0.931   2.603   1.266
 1451SOL     OW 5251   0.442   0.158   2.262
 1451SOL    HW1 5252   0.490   0.191   2.343
 1451SOL    HW2 5253   0.443   0.058   2.261
 1452SOL     OW 5254   4.488   1.735   4.921
 1452SOL    HW1 5255   4.459   1.661   4.981
 1452SOL    HW2 5256   4.408   1.777   4.879
 1453SOL     OW 5257   6.880   3.583   5.536
 1453SOL    HW1 5258   6.947   3.629   5.595
 1453SOL    HW2 5259   6.907   3.597   5.440
 1454SOL     OW 5260   0.590   2.912   2.526
 1454SOL    HW1 5261   0.624   2.830   2.572
 1454SOL    HW2 5262   0.523   2.885   2.456
 1455SOL     OW 5263   1.508   0.378   1.299
 1455SOL    HW1 5264   1.608   0.380   1.306
 1455SOL    HW2 5265   1.480   0.292   1.258
 1456SOL     OW 5266   0.061   5.869   5.505
 1456SOL    HW1 5267   0.051   5.863   5.406
 1456SOL    HW2 5268   0.013   5.792   5.548
 1457SOL     OW 5269   0.676   6.691   1.182
 1457SOL    HW1 5270   0.755   6.718   1.237
 1457SOL    HW2 5271   0.708   6.661   1.092
 1458SOL     OW 5272   5.609   5.708   3.992
 1458SOL    HW1 5273   5.622   5.609   3.992
 1458SOL    HW2 5274   5.594   5.739   3.898
 1459SOL     OW 5275   3.606   5.842   5.762
 1459SOL    HW1 5276   3.523   5.799   5.727
 1459SOL    HW2 5277   3.609   5.938   5.733
 1460SOL     OW 5278   0.250   6.625   5.220
 1460SOL    HW1 5279   0.188   6.626   5.299
 1460SOL    HW2 5280   0.338   6.587   5.248
 1461SOL     OW 5281   5.805   4.761   3.080
 1461SOL    HW1 5282   5.744   4.751   3.159
 1461SOL    HW2 5283   5.792   4.684   3.018
 1462SOL     OW 5284   1.496   0.529   0.094
 1462SOL    HW1 5285   1.529   0.532   0.188
 1462SOL    HW2 5286   1.433   0.604   0.078
 1463SOL     OW 5287   0.045   5.559   6.333
 1463SOL    HW1 5288   0.006   5.651   6.345
 1463SOL    HW2 5289   0.065   5.544   6.236
 1464SOL     OW 5290   0.433   6.557   1.969
 1464SOL    HW1 5291   0.366   6.603   2.027
 1464SOL    HW2 5292   0.507   6.521   2.026
 1465SOL     OW 5293   1.633   0.563   3.626
 1465SOL    HW1 5294   1.641   0.595   3.531
 1465SOL    HW2 5295   1.719   0.521   3.654
 1466SOL     OW 5296   2.559   2.432   2.389
 1466SOL    HW1 5297   2.600   2.397   2.305
 1466SOL    HW2 5298   2.518   2.521   2.371
 1467SOL     OW 5299   2.023   1.834   2.645
 1467SOL    HW1 5300   2.121   1.855   2.642
 1467SOL    HW2 5301   2.009   1.737   2.628
 1468SOL     OW 5302   3.505   6.176   2.336
 1468SOL    HW1 5303   3.489   6.101   2.272
 1468SOL    HW2 5304   3.581   6.153   2.397
 1469SOL     OW 5305   0.653   1.325   2.238
 1469SOL    HW1 5306   0.652   1.381   2.321
 1469SOL    HW2 5307   0.566   1.334   2.190
 1470SOL     OW 5308   1.238   1.975   2.216
 1470SOL    HW1 5309   1.295   2.037   2.270
 1470SOL    HW2 5310   1.202   1.903   2.275
 1471SOL     OW 5311   0.567   0.067   0.712
 1471SOL    HW1 5312   0.622   7.002   0.725
 1471SOL    HW2 5313   0.476   0.042   0.679
 1472SOL     OW 5314   3.394   5.518   5.244
 1472SOL    HW1 5315   3.390   5.612   5.276
 1472SOL    HW2 5316   3.410   5.457   5.322
 1473SOL     OW 5317   4.383   5.389   5.237
 1473SOL    HW1 5318   4.397   5.461   5.305
 1473SOL    HW2 5319   4.312   5.326   5.270
 1474SOL     OW 5320   5.804   5.276   2.213
 1474SOL    HW1 5321   5.810   5.375   2.211
 1474SOL    HW2 5322   5.764   5.246   2.300
 1475SOL     OW 5323   6.268   0.734   1.673
 1475SOL    HW1 5324   6.242   0.723   1.769
 1475SOL    HW2 5325   6.259   0.830   1.647
 1476SOL     OW 5326   3.487   0.826   0.718
 1476SOL    HW1 5327   3.520   0.732   0.707
 1476SOL    HW2 5328   3.539   0.871   0.791
 1477SOL     OW 5329   2.786   0.081   5.910
 1477SOL    HW1 5330   2.858   0.035   5.859
 1477SOL    HW2 5331   2.698   0.064   5.866
 1478SOL     OW 5332   5.895   5.096   5.908
 1478SOL    HW1 5333   5.860   5.094   6.002
 1478SOL    HW2 5334   5.946   5.181   5.893
 1479SOL     OW 5335   1.586   2.205   0.852
 1479SOL    HW1 5336   1.593   2.228   0.755
 1479SOL    HW2 5337   1.561   2.108   0.861
 1480SOL     OW 5338   3.315   0.695   5.023
 1480SOL    HW1 5339   3.412   0.712   5.010
 1480SOL    HW2 5340   3.263   0.779   5.006
 1481SOL     OW 5341   6.558   3.247   6.468
 1481SOL    HW1 5342   6.486   3.179   6.485
 1481SOL    HW2 5343   6.593   3.234   6.375
 1482SOL     OW 5344   4.213   1.457   1.941
 1482SOL    HW1 5345   4.217   1.526   1.869
 1482SOL    HW2 5346   4.265   1.489   2.021
 1483SOL     OW 5347   4.530   1.947   6.251
 1483SOL    HW1 5348   4.591   1.942   6.330
 1483SOL    HW2 5349   4.580   1.925   6.168
 1484SOL     OW 5350   5.553   4.435   4.747
 1484SOL    HW1 5351   5.568   4.355   4.805
 1484SOL    HW2 5352   5.480   4.415   4.681
 1485SOL     OW 5353   3.720   1.125   3.759
 1485SOL    HW1 5354   3.627   1.157   3.738
 1485SOL    HW2 5355   3.715   1.036   3.804
 1486SOL     OW 5356   5.616   1.075   2.680
 1486SOL    HW1 5357   5.703   1.113   2.652
 1486SOL    HW2 5358   5.557   1.148   2.714
 1487SOL     OW 5359   0.374   2.533   6.909
 1487SOL    HW1 5360   0.425   2.462   6.958
 1487SOL    HW2 5361   0.310   2.577   6.972
 1488SOL     OW 5362   5.129   0.763   3.515
 1488SOL    HW1 5363   5.076   0.845   3.495
 1488SOL    HW2 5364   5.223   0.788   3.540
 1489SOL     OW 5365   4.151   4.792   5.091
 1489SOL    HW1 5366   4.214   4.788   5.013
 1489SOL    HW2 5367   4.204   4.811   5.174
 1490SOL     OW 5368   1.137   3.205   1.500
 1490SOL    HW1 5369   1.229   3.184   1.534
 1490SOL    HW2 5370   1.093   3.120   1.469
 1491SOL     OW 5371   6.292   4.515   2.310
 1491SOL    HW1 5372   6.215   4.462   2.274
 1491SOL    HW2 5373   6.358   4.453   2.352
 1492SOL     OW 5374   6.480   0.964   2.517
 1492SOL    HW1 5375   6.455   0.927   2.607
 1492SOL    HW2 5376   6.547   1.038   2.530
 1493SOL     OW 5377   3.486   6.849   5.437
 1493SOL    HW1 5378   3.512   6.942   5.465
 1493SOL    HW2 5379   3.407   6.853   5.377
 1494SOL     OW 5380   4.841   1.553   6.444
 1494SOL    HW1 5381   4.914   1.488   6.461
 1494SOL    HW2 5382   4.854   1.635   6.500
 1495SOL     OW 5383   6.980   3.152   5.227
 1495SOL    HW1 5384   6.966   3.090   5.150
 1495SOL    HW2 5385   6.977   3.246   5.194
 1496SOL     OW 5386   0.208   1.596   1.633
 1496SOL    HW1 5387   0.197   1.594   1.732
 1496SOL    HW2 5388   0.231   1.689   1.604
 1497SOL     OW 5389   5.932   3.487   2.775
 1497SOL    HW1 5390   5.833   3.485   2.794
 1497SOL    HW2 5391   5.976   3.549   2.839
 1498SOL     OW 5392   2.483   5.105   6.905
 1498SOL    HW1 5393   2.401   5.093   6.849
 1498SOL    HW2 5394   2.540   5.176   6.864
 1499SOL     OW 5395   0.734   2.615   5.691
 1499SOL    HW1 5396   0.650   2.607   5.638
 1499SOL    HW2 5397   0.715   2.664   5.776
 1500SOL     OW 5398   0.217   6.957   6.870
 1500SOL    HW1 5399   0.151   6.902   6.922
 1500SOL    HW2 5400   0.176   6.982   6.782
 1501SOL     OW 5401   4.990   2.390   6.636
 1501SOL    HW1 5402   4.911   2.420   6.583
 1501SOL    HW2 5403   5.066   2.454   6.622
 1502SOL     OW 5404   4.097   6.990   0.173
 1502SOL    HW1 5405   4.188   7.005   0.135
 1502SOL    HW2 5406   4.106   6.956   0.267
 1503SOL     OW 5407   0.950   3.158   1.880
 1503SOL    HW1 5408   0.919   3.184   1.972
 1503SOL    HW2 5409   1.004   3.074   1.886
 1504SOL     OW 5410   0.342   0.038   4.537
 1504SOL    HW1 5411   0.278   0.103   4.579
 1504SOL    HW2 5412   0.374   0.076   4.450
 1505SOL     OW 5413   5.331   6.942   4.851
 1505SOL    HW1 5414   5.402   6.924   4.920
 1505SOL    HW2 5415   5.256   6.878   4.863
 1506SOL     OW 5416   0.452   6.114   0.425
 1506SOL    HW1 5417   0.474   6.028   0.381
 1506SOL    HW2 5418   0.365   6.106   0.474
 1507SOL     OW 5419   0.769   1.883   5.762
 1507SOL    HW1 5420   0.738   1.839   5.678
 1507SOL    HW2 5421   0.744   1.980   5.759
 1508SOL     OW 5422   6.527   1.440   1.808
 1508SOL    HW1 5423   6.502   1.363   1.867
 1508SOL    HW2 5424   6.503   1.419   1.713
 1509SOL     OW 5425   3.611   1.883   5.725
 1509SOL    HW1 5426   3.637   1.807   5.666
 1509SOL    HW2 5427   3.690   1.944   5.737
 1510SOL     OW 5428   5.086   1.557   4.977
 1510SOL    HW1 5429   5.140   1.543   5.060
 1510SOL    HW2 5430   5.093   1.653   4.949
 1511SOL     OW 5431   3.777   2.904   3.317
 1511SOL    HW1 5432   3.839   2.941   3.247
 1511SOL    HW2 5433   3.802   2.941   3.406
 1512SOL     OW 5434   0.330   4.959   0.961
 1512SOL    HW1 5435   0.356   5.045   1.004
 1512SOL    HW2 5436   0.232   4.959   0.941
 1513SOL     OW 5437   3.918   0.657   4.941
 1513SOL    HW1 5438   3.994   0.597   4.918
 1513SOL    HW2 5439   3.838   0.602   4.965
 1514SOL     OW 5440   3.858   2.169   5.503
 1514SOL    HW1 5441   3.781   2.231   5.487
 1514SOL    HW2 5442   3.943   2.220   5.496
 1515SOL     OW 5443   6.058   1.677   2.712
 1515SOL    HW1 5444   6.138   1.631   2.676
 1515SOL    HW2 5445   6.014   1.621   2.782
 1516SOL     OW 5446   0.038   6.243   6.645
 1516SOL    HW1 5447   0.052   6.335   6.609
 1516SOL    HW2 5448   0.104   6.225   6.718
 1517SOL     OW 5449   4.374   5.918   3.156
 1517SOL    HW1 5450   4.351   5.842   3.217
 1517SOL    HW2 5451   4.332   6.002   3.189
 1518SOL     OW 5452   0.918   2.394   0.414
 1518SOL    HW1 5453   0.963   2.319   0.462
 1518SOL    HW2 5454   0.986   2.445   0.361
 1519SOL     OW 5455   6.643   5.027   1.740
 1519SOL    HW1 5456   6.663   5.075   1.826
 1519SOL    HW2 5457   6.729   5.007   1.692
 1520SOL     OW 5458   0.132   3.904   1.885
 1520SOL    HW1 5459   0.108   3.882   1.980
 1520SOL    HW2 5460   0.208   3.969   1.883
 1521SOL     OW 5461   1.780   4.062   6.213
 1521SOL    HW1 5462   1.860   4.089   6.267
 1521SOL    HW2 5463   1.795   4.085   6.117
 1522SOL     OW 5464   5.501   6.179   5.056
 1522SOL    HW1 5465   5.457   6.096   5.020
 1522SOL    HW2 5466   5.592   6.155   5.090
 1523SOL     OW 5467   4.998   5.867   0.486
 1523SOL    HW1 5468   5.006   5.944   0.550
 1523SOL    HW2 5469   4.913   5.817   0.505
 1524SOL     OW 5470   2.613   1.945   2.234
 1524SOL    HW1 5471   2.682   2.016   2.221
 1524SOL    HW2 5472   2.522   1.983   2.218
 1525SOL     OW 5473   0.068   2.853   0.669
 1525SOL    HW1 5474   0.144   2.916   0.652
 1525SOL    HW2 5475   7.009   2.877   0.609
 1526SOL     OW 5476   0.290   0.433   6.906
 1526SOL    HW1 5477   0.278   0.522   6.863
 1526SOL    HW2 5478   0.359   0.439   6.978
 1527SOL     OW 5479   4.536   0.516   4.911
 1527SOL    HW1 5480   4.495   0.605   4.892
 1527SOL    HW2 5481   4.480   0.444   4.869
 1528SOL     OW 5482   4.542   5.009   2.727
 1528SOL    HW1 5483   4.482   4.999   2.647
 1528SOL    HW2 5484   4.566   4.919   2.762
 1529SOL     OW 5485   4.694   0.698   0.345
 1529SOL    HW1 5486   4.728   0.726   0.435
 1529SOL    HW2 5487   4.594   0.700   0.345
 1530SOL     OW 5488   3.470   2.006   2.014
 1530SOL    HW1 5489   3.542   2.075   2.020
 1530SOL    HW2 5490   3.402   2.023   2.085
 1531SOL     OW 5491   4.343   0.248   5.580
 1531SOL    HW1 5492   4.261   0.213   5.535
 1531SOL    HW2 5493   4.340   0.227   5.678
 1532SOL     OW 5494   3.049   3.216   6.737
 1532SOL    HW1 5495   3.009   3.282   6.674
 1532SOL    HW2 5496   3.067   3.261   6.825
 1533SOL     OW 5497   6.312   4.238   6.677
 1533SOL    HW1 5498   6.248   4.164   6.658
 1533SOL    HW2 5499   6.323   4.248   6.776
 1534SOL     OW 5500   2.402   4.810   0.174
 1534SOL    HW1 5501   2.338   4.811   0.251
 1534SOL    HW2 5502   2.446   4.900   0.167
 1535SOL     OW 5503   4.799   6.376   4.484
 1535SOL    HW1 5504   4.748   6.401   4.567
 1535SOL    HW2 5505   4.861   6.451   4.459
 1536SOL     OW 5506   3.372   4.897   5.919
 1536SOL    HW1 5507   3.373   4.934   5.826
 1536SOL    HW2 5508   3.466   4.890   5.953
 1537SOL     OW 5509   4.716   6.031   3.704
 1537SOL    HW1 5510   4.657   5.960   3.743
 1537SOL    HW2 5511   4.771   5.992   3.630
 1538SOL     OW 5512   3.590   6.041   6.886
 1538SOL    HW1 5513   3.588   6.112   6.957
 1538SOL    HW2 5514   3.685   6.011   6.872
 1539SOL     OW 5515   4.731   3.929   1.551
 1539SOL    HW1 5516   4.802   3.864   1.526
 1539SOL    HW2 5517   4.654   3.881   1.593
 1540SOL     OW 5518   1.105   6.109   6.112
 1540SOL    HW1 5519   1.155   6.056   6.181
 1540SOL    HW2 5520   1.155   6.109   6.026
 1541SOL     OW 5521   3.897   3.030   3.566
 1541SOL    HW1 5522   3.935   3.027   3.658
 1541SOL    HW2 5523   3.906   3.122   3.528
 1542SOL     OW 5524   5.696   6.877   2.769
 1542SOL    HW1 5525   5.631   6.801   2.762
 1542SOL    HW2 5526   5.686   6.922   2.857
 1543SOL     OW 5527   3.208   5.036   5.278
 1543SOL    HW1 5528   3.295   5.074   5.309
 1543SOL    HW2 5529   3.225   4.952   5.226
 1544SOL     OW 5530   2.906   3.602   2.518
 1544SOL    HW1 5531   2.860   3.550   2.590
 1544SOL    HW2 5532   2.980   3.547   2.479
 1545SOL     OW 5533   5.111   0.576   3.307
 1545SOL    HW1 5534   5.122   0.622   3.395
 1545SOL    HW2 5535   5.142   0.637   3.233
 1546SOL     OW 5536   3.928   6.499   5.902
 1546SOL    HW1 5537   4.019   6.542   5.899
 1546SOL    HW2 5538   3.924   6.435   5.978
 1547SOL     OW 5539   1.897   4.188   2.797
 1547SOL    HW1 5540   1.940   4.247   2.729
 1547SOL    HW2 5541   1.967   4.136   2.846
 1548SOL     OW 5542   5.193   3.958   5.972
 1548SOL    HW1 5543   5.287   3.990   5.984
 1548SOL    HW2 5544   5.181   3.873   6.022
 1549SOL     OW 5545   4.905   1.357   2.238
 1549SOL    HW1 5546   4.904   1.456   2.226
 1549SOL    HW2 5547   4.994   1.329   2.274
 1550SOL     OW 5548   3.210   3.694   6.991
 1550SOL    HW1 5549   3.131   3.664   0.027
 1550SOL    HW2 5550   3.218   3.794   6.998
 1551SOL     OW 5551   2.585   4.539   6.070
 1551SOL    HW1 5552   2.625   4.523   5.980
 1551SOL    HW2 5553   2.504   4.597   6.061
 1552SOL     OW 5554   0.538   5.880   0.180
 1552SOL    HW1 5555   0.508   5.831   0.098
 1552SOL    HW2 5556   0.624   5.927   0.162
 1553SOL     OW 5557   0.013   1.562   5.297
 1553SOL    HW1 5558   0.079   1.498   5.338
 1553SOL    HW2 5559   0.058   1.614   5.225
 1554SOL     OW 5560   4.385   2.073   3.058
 1554SOL    HW1 5561   4.371   1.993   3.000
 1554SOL    HW2 5562   4.420   2.149   3.003
 1555SOL     OW 5563   4.893   2.593   6.874
 1555SOL    HW1 5564   4.806   2.613   6.829
 1555SOL    HW2 5565   4.888   2.503   6.917
 1556SOL     OW 5566   3.787   1.357   0.440
 1556SOL    HW1 5567   3.738   1.321   0.520
 1556SOL    HW2 5568   3.723   1.366   0.363
 1557SOL     OW 5569   2.619   2.032   6.390
 1557SOL    HW1 5570   2.638   2.023   6.292
 1557SOL    HW2 5571   2.703   2.022   6.442
 1558SOL     OW 5572   5.370   0.701   4.572
 1558SOL    HW1 5573   5.432   0.622   4.579
 1558SOL    HW2 5574   5.276   0.671   4.591
 1559SOL     OW 5575   0.759   2.619   0.165
 1559SOL    HW1 5576   0.745   2.653   0.072
 1559SOL    HW2 5577   0.784   2.522   0.161
 1560SOL     OW 5578   0.997   0.966   5.783
 1560SOL    HW1 5579   1.021   0.869   5.790
 1560SOL    HW2 5580   0.964   0.998   5.872
 1561SOL     OW 5581   6.284   6.811   3.930
 1561SOL    HW1 5582   6.234   6.799   4.015
 1561SOL    HW2 5583   6.255   6.741   3.864
 1562SOL     OW 5584   3.713   5.828   2.981
 1562SOL    HW1 5585   3.705   5.733   2.951
 1562SOL    HW2 5586   3.797   5.840   3.033
 1563SOL     OW 5587   1.634   0.213   6.107
 1563SOL    HW1 5588   1.612   0.165   6.022
 1563SOL    HW2 5589   1.678   0.300   6.086
 1564SOL     OW 5590   1.150   2.681   3.431
 1564SOL    HW1 5591   1.183   2.588   3.415
 1564SOL    HW2 5592   1.109   2.687   3.522
 1565SOL     OW 5593   4.327   5.038   4.747
 1565SOL    HW1 5594   4.282   4.950   4.734
 1565SOL    HW2 5595   4.259   5.107   4.774
 1566SOL     OW 5596   5.485   5.123   3.450
 1566SOL    HW1 5597   5.513   5.218   3.437
 1566SOL    HW2 5598   5.399   5.120   3.500
 1567SOL     OW 5599   6.040   5.846   0.398
 1567SOL    HW1 5600   6.088   5.877   0.316
 1567SOL    HW2 5601   6.077   5.893   0.478
 1568SOL     OW 5602   1.595   6.201   0.878
 1568SOL    HW1 5603   1.621   6.127   0.816
 1568SOL    HW2 5604   1.564   6.280   0.825
 1569SOL     OW 5605   4.308   6.094   3.567
 1569SOL    HW1 5606   4.392   6.144   3.588
 1569SOL    HW2 5607   4.328   5.996   3.558
 1570SOL     OW 5608   1.886   0.073   0.473
 1570SOL    HW1 5609   1.822   0.081   0.550
 1570SOL    HW2 5610   1.968   0.126   0.492
 1571SOL     OW 5611   5.429   2.081   1.277
 1571SOL    HW1 5612   5.458   2.003   1.333
 1571SOL    HW2 5613   5.331   2.098   1.293
 1572SOL     OW 5614   0.725   6.879   0.774
 1572SOL    HW1 5615   0.662   6.812   0.813
 1572SOL    HW2 5616   0.812   6.877   0.823
 1573SOL     OW 5617   5.378   3.506   1.572
 1573SOL    HW1 5618   5.401   3.510   1.669
 1573SOL    HW2 5619   5.458   3.532   1.518
 1574SOL     OW 5620   6.885   0.937   1.887
 1574SOL    HW1 5621   6.975   0.936   1.843
 1574SOL    HW2 5622   6.877   0.858   1.948
 1575SOL     OW 5623   3.674   1.396   0.981
 1575SOL    HW1 5624   3.661   1.495   0.983
 1575SOL    HW2 5625   3.722   1.370   0.897
 1576SOL     OW 5626   1.632   7.007   3.257
 1576SOL    HW1 5627   1.627   6.910   3.231
 1576SOL    HW2 5628   1.675   7.015   3.347
 1577SOL     OW 5629   3.055   1.292   4.827
 1577SOL    HW1 5630   3.032   1.246   4.741
 1577SOL    HW2 5631   2.970   1.321   4.873
 1578SOL     OW 5632   6.206   2.912   5.619
 1578SOL    HW1 5633   6.205   2.816   5.588
 1578SOL    HW2 5634   6.279   2.961   5.572
 1579SOL     OW 5635   0.396   1.365   2.155
 1579SOL    HW1 5636   0.337   1.362   2.236
 1579SOL    HW2 5637   0.342   1.388   2.074
 1580SOL     OW 5638   3.034   3.881   4.846
 1580SOL    HW1 5639   3.103   3.928   4.792
 1580SOL    HW2 5640   2.965   3.841   4.785
 1581SOL     OW 5641   0.992   3.416   4.775
 1581SOL    HW1 5642   1.056   3.465   4.716
 1581SOL    HW2 5643   0.973   3.471   4.856
 1582SOL     OW 5644   1.352   0.003   3.815
 1582SOL    HW1 5645   1.442   0.046   3.827
 1582SOL    HW2 5646   1.365   6.925   3.791
 1583SOL     OW 5647   1.247   4.832   3.628
 1583SOL    HW1 5648   1.271   4.830   3.725
 1583SOL    HW2 5649   1.167   4.891   3.614
 1584SOL     OW 5650   1.151   6.816   5.288
 1584SOL    HW1 5651   1.248   6.797   5.269
 1584SOL    HW2 5652   1.098   6.807   5.204
 1585SOL     OW 5653   6.112   1.800   4.062
 1585SOL    HW1 5654   6.061   1.873   4.016
 1585SOL    HW2 5655   6.209   1.808   4.040
 1586SOL     OW 5656   3.739   4.918   1.894
 1586SOL    HW1 5657   3.665   4.857   1.921
 1586SOL    HW2 5658   3.740   4.928   1.794
 1587SOL     OW 5659   3.347   6.170   6.558
 1587SOL    HW1 5660   3.272   6.236   6.565
 1587SOL    HW2 5661   3.321   6.084   6.601
 1588SOL     OW 5662   4.629   1.421   3.248
 1588SOL    HW1 5663   4.542   1.372   3.246
 1588SOL    HW2 5664   4.626   1.497   3.182
 1589SOL     OW 5665   5.642   3.744   1.408
 1589SOL    HW1 5666   5.543   3.754   1.394
 1589SOL    HW2 5667   5.673   3.658   1.368
 1590SOL     OW 5668   3.473   6.146   6.314
 1590SOL    HW1 5669   3.533   6.076   6.353
 1590SOL    HW2 5670   3.413   6.182   6.386
 1591SOL     OW 5671   6.294   5.310   2.875
 1591SOL    HW1 5672   6.301   5.301   2.776
 1591SOL    HW2 5673   6.385   5.306   2.916
 1592SOL     OW 5674   2.125   4.280   0.118
 1592SOL    HW1 5675   2.073   4.270   0.033
 1592SOL    HW2 5676   2.119   4.374   0.150
 1593SOL     OW 5677   1.078   6.677   4.358
 1593SOL    HW1 5678   1.120   6.679   4.449
 1593SOL    HW2 5679   1.122   6.606   4.303
 1594SOL     OW 5680   0.414   6.128   2.175
 1594SOL    HW1 5681   0.434   6.033   2.149
 1594SOL    HW2 5682   0.468   6.152   2.256
 1595SOL     OW 5683   1.236   5.387   0.132
 1595SOL    HW1 5684   1.219   5.337   0.047
 1595SOL    HW2 5685   1.252   5.322   0.206
 1596SOL     OW 5686   0.273   2.685   4.068
 1596SOL    HW1 5687   0.307   2.678   3.974
 1596SOL    HW2 5688   0.230   2.774   4.081
 1597SOL     OW 5689   1.582   6.426   6.679
 1597SOL    HW1 5690   1.647   6.383   6.616
 1597SOL    HW2 5691   1.565   6.365   6.757
 1598SOL     OW 5692   0.916   3.838   6.230
 1598SOL    HW1 5693   0.950   3.860   6.139
 1598SOL    HW2 5694   0.825   3.879   6.242
 1599SOL     OW 5695   4.695   4.692   5.884
 1599SOL    HW1 5696   4.641   4.702   5.800
 1599SOL    HW2 5697   4.633   4.679   5.961
 1600SOL     OW 5698   5.220   1.589   4.587
 1600SOL    HW1 5699   5.316   1.611   4.571
 1600SOL    HW2 5700   5.162   1.659   4.545
 1601SOL     OW 5701   0.162   5.073   4.954
 1601SOL    HW1 5702   0.122   5.113   4.872
 1601SOL    HW2 5703   0.209   5.144   5.007
 1602SOL     OW 5704   2.470   5.562   3.891
 1602SOL    HW1 5705   2.549   5.502   3.908
 1602SOL    HW2 5706   2.385   5.510   3.905
 1603SOL     OW 5707   6.760   6.243   2.656
 1603SOL    HW1 5708   6.797   6.335   2.639
 1603SOL    HW2 5709   6.812   6.176   2.604
 1604SOL     OW 5710   6.024   4.532   1.059
 1604SOL    HW1 5711   6.001   4.569   1.149
 1604SOL    HW2 5712   6.106   4.576   1.024
 1605SOL     OW 5713   6.748   6.252   1.770
 1605SOL    HW1 5714   6.784   6.178   1.827
 1605SOL    HW2 5715   6.648   6.250   1.772
 1606SOL     OW 5716   3.564   0.765   5.000
 1606SOL    HW1 5717   3.609   0.678   4.980
 1606SOL    HW2 5718   3.629   0.840   4.987
 1607SOL     OW 5719   3.956   1.657   1.217
 1607SOL    HW1 5720   3.962   1.557   1.221
 1607SOL    HW2 5721   3.873   1.687   1.263
 1608SOL     OW 5722   1.023   0.235   3.968
 1608SOL    HW1 5723   1.097   0.238   3.900
 1608SOL    HW2 5724   0.935   0.243   3.921
 1609SOL     OW 5725   3.718   0.452   0.422
 1609SOL    HW1 5726   3.758   0.411   0.340
 1609SOL    HW2 5727   3.756   0.407   0.503
 1610SOL     OW 5728   5.740   4.409   6.761
 1610SOL    HW1 5729   5.679   4.337   6.793
 1610SOL    HW2 5730   5.776   4.460   6.838
 1611SOL     OW 5731   2.473   3.777   1.697
 1611SOL    HW1 5732   2.506   3.691   1.660
 1611SOL    HW2 5733   2.549   3.840   1.708
 1612SOL     OW 5734   2.644   0.754   5.026
 1612SOL    HW1 5735   2.710   0.797   5.088
 1612SOL    HW2 5736   2.635   0.809   4.943
 1613SOL     OW 5737   1.742   5.287   1.593
 1613SOL    HW1 5738   1.827   5.311   1.640
 1613SOL    HW2 5739   1.757   5.205   1.537
 1614SOL     OW 5740   6.275   3.487   0.018
 1614SOL    HW1 5741   6.205   3.429   0.059
 1614SOL    HW2 5742   6.355   3.431   7.013
 1615SOL     OW 5743   6.571   4.979   1.089
 1615SOL    HW1 5744   6.623   4.978   1.175
 1615SOL    HW2 5745   6.541   4.886   1.068
 1616SOL     OW 5746   3.260   1.740   5.092
 1616SOL    HW1 5747   3.288   1.649   5.064
 1616SOL    HW2 5748   3.318   1.770   5.169
 1617SOL     OW 5749   6.053   0.558   2.242
 1617SOL    HW1 5750   5.957   0.542   2.263
 1617SOL    HW2 5751   6.075   0.654   2.255
 1618SOL     OW 5752   1.744   4.302   1.908
 1618SOL    HW1 5753   1.777   4.272   1.997
 1618SOL    HW2 5754   1.817   4.349   1.859
 1619SOL     OW 5755   1.046   2.297   2.510
 1619SOL    HW1 5756   0.965   2.307   2.567
 1619SOL    HW2 5757   1.026   2.329   2.417
 1620SOL     OW 5758   2.806   5.269   1.456
 1620SOL    HW1 5759   2.810   5.254   1.555
 1620SOL    HW2 5760   2.875   5.212   1.411
 1621SOL     OW 5761   0.484   1.374   0.553
 1621SOL    HW1 5762   0.384   1.378   0.550
 1621SOL    HW2 5763   0.512   1.311   0.625
 1622SOL     OW 5764   0.511   2.799   4.684
 1622SOL    HW1 5765   0.506   2.701   4.701
 1622SOL    HW2 5766   0.587   2.839   4.736
 1623SOL     OW 5767   2.288   3.596   5.446
 1623SOL    HW1 5768   2.289   3.500   5.474
 1623SOL    HW2 5769   2.378   3.621   5.409
 1624SOL     OW 5770   2.705   1.123   5.063
 1624SOL    HW1 5771   2.718   1.132   5.162
 1624SOL    HW2 5772   2.766   1.052   5.028
 1625SOL     OW 5773   1.141   5.592   1.790
 1625SOL    HW1 5774   1.096   5.673   1.828
 1625SOL    HW2 5775   1.183   5.615   1.702
 1626SOL     OW 5776   3.270   2.522   6.139
 1626SOL    HW1 5777   3.184   2.491   6.097
 1626SOL    HW2 5778   3.344   2.516   6.072
 1627SOL     OW 5779   6.763   2.920   3.585
 1627SOL    HW1 5780   6.855   2.881   3.586
 1627SOL    HW2 5781   6.743   2.962   3.673
 1628SOL     OW 5782   4.512   4.698   0.526
 1628SOL    HW1 5783   4.524   4.622   0.591
 1628SOL    HW2 5784   4.587   4.763   0.538
 1629SOL     OW 5785   2.897   1.582   3.704
 1629SOL    HW1 5786   2.836   1.647   3.749
 1629SOL    HW2 5787   2.961   1.544   3.771
 1630SOL     OW 5788   1.216   6.101   5.859
 1630SOL    HW1 5789   1.289   6.047   5.900
 1630SOL    HW2 5790   1.213   6.084   5.761
 1631SOL     OW 5791   0.506   1.754   6.334
 1631SOL    HW1 5792   0.451   1.765   6.416
 1631SOL    HW2 5793   0.527   1.843   6.295
 1632SOL     OW 5794   0.023   1.624   6.313
 1632SOL    HW1 5795   7.001   1.703   6.359
 1632SOL    HW2 5796   0.073   1.568   6.378
 1633SOL     OW 5797   5.042   2.497   4.199
 1633SOL    HW1 5798   5.016   2.590   4.173
 1633SOL    HW2 5799   5.019   2.482   4.295
 1634SOL     OW 5800   4.309   5.011   6.957
 1634SOL    HW1 5801   4.309   5.094   7.012
 1634SOL    HW2 5802   4.254   4.941   7.001
 1635SOL     OW 5803   0.063   6.000   5.845
 1635SOL    HW1 5804   0.060   6.019   5.747
 1635SOL    HW2 5805   0.100   5.909   5.860
 1636SOL     OW 5806   2.739   4.011   1.677
 1636SOL    HW1 5807   2.788   4.092   1.710
 1636SOL    HW2 5808   2.796   3.930   1.692
 1637SOL     OW 5809   0.379   0.204   3.113
 1637SOL    HW1 5810   0.471   0.170   3.130
 1637SOL    HW2 5811   0.324   0.132   3.070
 1638SOL     OW 5812   0.495   4.578   3.765
 1638SOL    HW1 5813   0.593   4.588   3.749
 1638SOL    HW2 5814   0.469   4.634   3.844
 1639SOL     OW 5815   4.556   6.843   2.916
 1639SOL    HW1 5816   4.494   6.794   2.978
 1639SOL    HW2 5817   4.510   6.861   2.830
 1640SOL     OW 5818   5.845   1.496   0.635
 1640SOL    HW1 5819   5.773   1.470   0.699
 1640SOL    HW2 5820   5.895   1.574   0.671
 1641SOL     OW 5821   5.038   2.386   4.593
 1641SOL    HW1 5822   4.974   2.460   4.570
 1641SOL    HW2 5823   4.989   2.299   4.592
 1642SOL     OW 5824   6.310   3.803   6.263
 1642SOL    HW1 5825   6.357   3.760   6.186
 1642SOL    HW2 5826   6.224   3.756   6.280
 1643SOL     OW 5827   2.502   4.873   3.787
 1643SOL    HW1 5828   2.564   4.951   3.785
 1643SOL    HW2 5829   2.546   4.795   3.832
 1644SOL     OW 5830   0.433   2.958   1.309
 1644SOL    HW1 5831   0.497   2.981   1.382
 1644SOL    HW2 5832   0.347   2.925   1.349
 1645SOL     OW 5833   2.811   5.585   5.885
 1645SOL    HW1 5834   2.867   5.557   5.807
 1645SOL    HW2 5835   2.828   5.525   5.963
 1646SOL     OW 5836   2.701   5.420   0.730
 1646SOL    HW1 5837   2.731   5.447   0.638
 1646SOL    HW2 5838   2.781   5.390   0.782
 1647SOL     OW 5839   6.394   2.703   4.813
 1647SOL    HW1 5840   6.385   2.793   4.857
 1647SOL    HW2 5841   6.428   2.637   4.880
 1648SOL     OW 5842   6.228   5.940   0.841
 1648SOL    HW1 5843   6.322   5.917   0.863
 1648SOL    HW2 5844   6.179   5.966   0.925
 1649SOL     OW 5845   3.575   7.001   4.749
 1649SOL    HW1 5846   3.580   6.977   4.652
 1649SOL    HW2 5847   3.657   0.034   4.775
 1650SOL     OW 5848   1.958   6.518   5.676
 1650SOL    HW1 5849   1.865   6.556   5.667
 1650SOL    HW2 5850   1.986   6.522   5.772
 1651SOL     OW 5851   0.517   1.379   1.659
 1651SOL    HW1 5852   0.512   1.459   1.720
 1651SOL    HW2 5853   0.580   1.399   1.584
 1652SOL     OW 5854   1.481   3.379   1.956
 1652SOL    HW1 5855   1.474   3.297   1.900
 1652SOL    HW2 5856   1.390   3.411   1.981
 1653SOL     OW 5857   1.082   6.978   1.362
 1653SOL    HW1 5858   1.054   0.055   1.379
 1653SOL    HW2 5859   1.010   6.916   1.393
 1654SOL     OW 5860   6.638   3.093   2.274
 1654SOL    HW1 5861   6.705   3.141   2.331
 1654SOL    HW2 5862   6.687   3.030   2.213
 1655SOL     OW 5863   6.464   2.442   5.274
 1655SOL    HW1 5864   6.388   2.479   5.220
 1655SOL    HW2 5865   6.428   2.394   5.353
 1656SOL     OW 5866   2.473   4.561   2.363
 1656SOL    HW1 5867   2.464   4.655   2.329
 1656SOL    HW2 5868   2.391   4.509   2.338
 1657SOL     OW 5869   6.962   0.754   3.982
 1657SOL    HW1 5870   6.883   0.808   4.012
 1657SOL    HW2 5871   6.943   0.712   3.894
 1658SOL     OW 5872   0.744   0.110   1.595
 1658SOL    HW1 5873   0.752   0.037   1.662
 1658SOL    HW2 5874   0.697   0.076   1.513
 1659SOL     OW 5875   3.968   1.041   5.490
 1659SOL    HW1 5876   3.940   0.983   5.567
 1659SOL    HW2 5877   3.923   1.130   5.498
 1660SOL     OW 5878   1.056   5.473   3.777
 1660SOL    HW1 5879   0.964   5.441   3.753
 1660SOL    HW2 5880   1.050   5.563   3.820
 1661SOL     OW 5881   3.369   1.310   2.181
 1661SOL    HW1 5882   3.282   1.313   2.229
 1661SOL    HW2 5883   3.379   1.392   2.125
 1662SOL     OW 5884   6.828   0.633   3.747
 1662SOL    HW1 5885   6.736   0.628   3.785
 1662SOL    HW2 5886   6.823   0.657   3.651
 1663SOL     OW 5887   3.635   0.322   2.838
 1663SOL    HW1 5888   3.549   0.327   2.786
 1663SOL    HW2 5889   3.700   0.264   2.788
 1664SOL     OW 5890   2.680   6.635   3.953
 1664SOL    HW1 5891   2.616   6.582   4.008
 1664SOL    HW2 5892   2.634   6.669   3.871
 1665SOL     OW 5893   0.542   1.139   3.244
 1665SOL    HW1 5894   0.544   1.167   3.340
 1665SOL    HW2 5895   0.451   1.159   3.206
 1666SOL     OW 5896   5.472   3.113   0.563
 1666SOL    HW1 5897   5.558   3.072   0.531
 1666SOL    HW2 5898   5.435   3.059   0.638
 1667SOL     OW 5899   6.814   6.937   1.336
 1667SOL    HW1 5900   6.858   7.003   1.397
 1667SOL    HW2 5901   6.883   6.872   1.303
 1668SOL     OW 5902   5.221   6.000   5.484
 1668SOL    HW1 5903   5.173   5.929   5.434
 1668SOL    HW2 5904   5.160   6.041   5.553
 1669SOL     OW 5905   6.876   5.970   6.153
 1669SOL    HW1 5906   6.941   6.039   6.121
 1669SOL    HW2 5907   6.786   6.012   6.164
 1670SOL     OW 5908   6.888   4.391   6.390
 1670SOL    HW1 5909   6.967   4.445   6.422
 1670SOL    HW2 5910   6.856   4.427   6.302
 1671SOL     OW 5911   4.536   2.773   0.880
 1671SOL    HW1 5912   4.609   2.731   0.825
 1671SOL    HW2 5913   4.577   2.832   0.949
 1672SOL     OW 5914   1.863   3.358   1.390
 1672SOL    HW1 5915   1.858   3.319   1.298
 1672SOL    HW2 5916   1.941   3.317   1.439
 1673SOL     OW 5917   6.769   2.320   4.032
 1673SOL    HW1 5918   6.689   2.278   3.989
 1673SOL    HW2 5919   6.838   2.250   4.049
 1674SOL     OW 5920   1.043   3.970   2.639
 1674SOL    HW1 5921   0.973   3.930   2.580
 1674SOL    HW2 5922   1.026   3.943   2.734
 1675SOL     OW 5923   4.501   0.666   5.622
 1675SOL    HW1 5924   4.415   0.690   5.577
 1675SOL    HW2 5925   4.576   0.719   5.583
 1676SOL     OW 5926   2.019   1.041   2.070
 1676SOL    HW1 5927   1.953   1.005   2.004
 1676SOL    HW2 5928   1.972   1.102   2.134
 1677SOL     OW 5929   3.827   3.586   5.495
 1677SOL    HW1 5930   3.732   3.588   5.525
 1677SOL    HW2 5931   3.881   3.533   5.561
 1678SOL     OW 5932   4.683   4.926   5.220
 1678SOL    HW1 5933   4.604   4.936   5.160
 1678SOL    HW2 5934   4.728   5.015   5.230
 1679SOL     OW 5935   1.971   3.137   5.179
 1679SOL    HW1 5936   1.881   3.120   5.137
 1679SOL    HW2 5937   2.042   3.127   5.110
 1680SOL     OW 5938   0.474   2.937   4.459
 1680SOL    HW1 5939   0.497   2.870   4.529
 1680SOL    HW2 5940   0.387   2.914   4.417
 1681SOL     OW 5941   6.542   5.569   0.524
 1681SOL    HW1 5942   6.457   5.584   0.574
 1681SOL    HW2 5943   6.586   5.657   0.504
 1682SOL     OW 5944   0.387   2.053   4.978
 1682SOL    HW1 5945   0.302   2.049   4.927
 1682SOL    HW2 5946   0.462   2.078   4.917
 1683SOL     OW 5947   4.009   5.467   1.119
 1683SOL    HW1 5948   3.920   5.443   1.082
 1683SOL    HW2 5949   4.075   5.477   1.045
 1684SOL     OW 5950   1.213   6.371   3.046
 1684SOL    HW1 5951   1.154   6.379   3.127
 1684SOL    HW2 5952   1.280   6.445   3.046
 1685SOL     OW 5953   2.650   1.155   5.996
 1685SOL    HW1 5954   2.612   1.235   5.948
 1685SOL    HW2 5955   2.585   1.079   5.990
 1686SOL     OW 5956   2.568   5.079   5.256
 1686SOL    HW1 5957   2.536   5.051   5.346
 1686SOL    HW2 5958   2.557   5.178   5.246
 1687SOL     OW 5959   2.490   3.200   1.343
 1687SOL    HW1 5960   2.494   3.300   1.336
 1687SOL    HW2 5961   2.435   3.164   1.267
 1688SOL     OW 5962   1.514   2.698   3.902
 1688SOL    HW1 5963   1.580   2.744   3.843
 1688SOL    HW2 5964   1.563   2.642   3.969
 1689SOL     OW 5965   4.801   0.895   2.484
 1689SOL    HW1 5966   4.851   0.979   2.504
 1689SOL    HW2 5967   4.719   0.891   2.540
 1690SOL     OW 5968   1.755   3.178   3.483
 1690SOL    HW1 5969   1.748   3.108   3.412
 1690SOL    HW2 5970   1.802   3.140   3.563
 1691SOL     OW 5971   5.497   4.542   3.463
 1691SOL    HW1 5972   5.522   4.447   3.447
 1691SOL    HW2 5973   5.522   4.598   3.384
 1692SOL     OW 5974   5.486   0.537   1.482
 1692SOL    HW1 5975   5.504   0.476   1.405
 1692SOL    HW2 5976   5.387   0.550   1.492
 1693SOL     OW 5977   0.148   2.348   2.480
 1693SOL    HW1 5978   0.055   2.344   2.517
 1693SOL    HW2 5979   0.149   2.308   2.389
 1694SOL     OW 5980   5.282   0.633   3.813
 1694SOL    HW1 5981   5.240   0.547   3.785
 1694SOL    HW2 5982   5.341   0.667   3.740
 1695SOL     OW 5983   2.825   1.686   5.961
 1695SOL    HW1 5984   2.727   1.675   5.976
 1695SOL    HW2 5985   2.860   1.755   6.024
 1696SOL     OW 5986   5.009   4.812   0.707
 1696SOL    HW1 5987   4.931   4.840   0.652
 1696SOL    HW2 5988   4.981   4.801   0.802
 1697SOL     OW 5989   5.229   6.868   1.780
 1697SOL    HW1 5990   5.266   6.955   1.748
 1697SOL    HW2 5991   5.270   6.845   1.869
 1698SOL     OW 5992   5.443   1.071   0.287
 1698SOL    HW1 5993   5.485   1.161   0.274
 1698SOL    HW2 5994   5.407   1.064   0.380
 1699SOL     OW 5995   3.082   1.376   0.986
 1699SOL    HW1 5996   3.083   1.476   0.988
 1699SOL    HW2 5997   3.125   1.344   0.901
 1700SOL     OW 5998   5.779   2.694   3.208
 1700SOL    HW1 5999   5.762   2.608   3.159
 1700SOL    HW2 6000   5.869   2.690   3.251
 1701SOL     OW 6001   5.557   3.706   6.093
 1701SOL    HW1 6002   5.490   3.672   6.027
 1701SOL    HW2 6003   5.639   3.735   6.044
 1702SOL     OW 6004   6.562   3.033   0.470
 1702SOL    HW1 6005   6.504   2.985   0.404
 1702SOL    HW2 6006   6.549   2.994   0.561
 1703SOL     OW 6007   3.988   3.147   2.689
 1703SOL    HW1 6008   3.894   3.112   2.698
 1703SOL    HW2 6009   4.011   3.202   2.769
 1704SOL     OW 6010   0.845   1.349   2.037
 1704SOL    HW1 6011   0.768   1.350   2.100
 1704SOL    HW2 6012   0.931   1.352   2.088
 1705SOL     OW 6013   3.522   2.426   1.477
 1705SOL    HW1 6014   3.491   2.331   1.473
 1705SOL    HW2 6015   3.522   2.464   1.385
 1706SOL     OW 6016   4.761   0.252   1.304
 1706SOL    HW1 6017   4.759   0.159   1.341
 1706SOL    HW2 6018   4.678   0.268   1.250
 1707SOL     OW 6019   4.782   1.827   2.679
 1707SOL    HW1 6020   4.701   1.853   2.626
 1707SOL    HW2 6021   4.755   1.765   2.753
 1708SOL     OW 6022   4.957   4.836   2.101
 1708SOL    HW1 6023   5.012   4.836   2.185
 1708SOL    HW2 6024   5.009   4.879   2.027
 1709SOL     OW 6025   2.339   5.611   1.655
 1709SOL    HW1 6026   2.348   5.700   1.610
 1709SOL    HW2 6027   2.242   5.589   1.668
 1710SOL     OW 6028   5.830   4.769   3.909
 1710SOL    HW1 6029   5.763   4.697   3.926
 1710SOL    HW2 6030   5.830   4.792   3.812
 1711SOL     OW 6031   1.246   5.133   4.658
 1711SOL    HW1 6032   1.210   5.187   4.582
 1711SOL    HW2 6033   1.322   5.077   4.627
 1712SOL     OW 6034   0.432   3.024   6.292
 1712SOL    HW1 6035   0.520   3.015   6.245
 1712SOL    HW2 6036   0.388   2.934   6.296
 1713SOL     OW 6037   3.798   2.241   1.535
 1713SOL    HW1 6038   3.802   2.175   1.460
 1713SOL    HW2 6039   3.725   2.214   1.598
 1714SOL     OW 6040   4.277   1.785   5.868
 1714SOL    HW1 6041   4.241   1.706   5.917
 1714SOL    HW2 6042   4.226   1.799   5.784
 1715SOL     OW 6043   0.009   3.744   2.408
 1715SOL    HW1 6044   0.092   3.713   2.362
 1715SOL    HW2 6045   0.012   3.844   2.418
 1716SOL     OW 6046   4.662   0.240   2.824
 1716SOL    HW1 6047   4.652   0.185   2.908
 1716SOL    HW2 6048   4.659   0.337   2.848
 1717SOL     OW 6049   2.253   6.377   6.217
 1717SOL    HW1 6050   2.214   6.300   6.166
 1717SOL    HW2 6051   2.352   6.364   6.226
 1718SOL     OW 6052   2.171   2.299   2.262
 1718SOL    HW1 6053   2.240   2.274   2.194
 1718SOL    HW2 6054   2.205   2.374   2.318
 1719SOL     OW 6055   2.227   3.881   1.025
 1719SOL    HW1 6056   2.164   3.844   1.093
 1719SOL    HW2 6057   2.308   3.917   1.072
 1720SOL     OW 6058   0.821   1.991   0.381
 1720SOL    HW1 6059   0.744   1.949   0.430
 1720SOL    HW2 6060   0.817   1.965   0.285
 1721SOL     OW 6061   1.293   6.519   2.220
 1721SOL    HW1 6062   1.226   6.474   2.279
 1721SOL    HW2 6063   1.351   6.449   2.177
 1722SOL     OW 6064   4.525   2.056   4.393
 1722SOL    HW1 6065   4.471   2.088   4.471
 1722SOL    HW2 6066   4.613   2.104   4.391
 1723SOL     OW 6067   0.038   2.585   2.334
 1723SOL    HW1 6068   6.981   2.566   2.397
 1723SOL    HW2 6069   0.124   2.589   2.384
 1724SOL     OW 6070   6.011   1.840   1.142
 1724SOL    HW1 6071   6.040   1.913   1.080
 1724SOL    HW2 6072   6.089   1.783   1.166
 1725SOL     OW 6073   2.280   4.726   6.720
 1725SOL    HW1 6074   2.317   4.636   6.742
 1725SOL    HW2 6075   2.231   4.721   6.633
 1726SOL     OW 6076   5.497   4.903   5.721
 1726SOL    HW1 6077   5.448   4.818   5.701
 1726SOL    HW2 6078   5.569   4.916   5.653
 1727SOL     OW 6079   3.782   3.310   4.486
 1727SOL    HW1 6080   3.703   3.315   4.547
 1727SOL    HW2 6081   3.752   3.322   4.391
 1728SOL     OW 6082   5.076   4.991   5.367
 1728SOL    HW1 6083   5.091   5.001   5.269
 1728SOL    HW2 6084   5.145   5.044   5.417
 1729SOL     OW 6085   1.729   3.404   3.901
 1729SOL    HW1 6086   1.645   3.440   3.942
 1729SOL    HW2 6087   1.740   3.439   3.809
 1730SOL     OW 6088   6.834   0.301   5.647
 1730SOL    HW1 6089   6.764   0.300   5.576
 1730SOL    HW2 6090   6.802   0.355   5.725
 1731SOL     OW 6091   6.940   5.071   2.215
 1731SOL    HW1 6092   7.000   5.151   2.212
 1731SOL    HW2 6093   6.879   5.078   2.295
 1732SOL     OW 6094   2.492   4.497   5.452
 1732SOL    HW1 6095   2.410   4.458   5.410
 1732SOL    HW2 6096   2.538   4.426   5.507
 1733SOL     OW 6097   1.078   4.223   2.474
 1733SOL    HW1 6098   1.050   4.135   2.512
 1733SOL    HW2 6099   1.137   4.271   2.539
 1734SOL     OW 6100   4.699   3.055   1.621
 1734SOL    HW1 6101   4.771   2.987   1.611
 1734SOL    HW2 6102   4.667   3.056   1.716
 1735SOL     OW 6103   5.693   5.801   1.517
 1735SOL    HW1 6104   5.721   5.759   1.430
 1735SOL    HW2 6105   5.691   5.731   1.588
 1736SOL     OW 6106   4.372   2.604   1.030
 1736SOL    HW1 6107   4.311   2.531   0.998
 1736SOL    HW2 6108   4.403   2.658   0.952
 1737SOL     OW 6109   2.691   1.005   4.115
 1737SOL    HW1 6110   2.702   1.098   4.080
 1737SOL    HW2 6111   2.741   0.995   4.201
 1738SOL     OW 6112   1.850   1.722   4.078
 1738SOL    HW1 6113   1.947   1.745   4.069
 1738SOL    HW2 6114   1.807   1.724   3.987
 1739SOL     OW 6115   5.735   2.059   5.530
 1739SOL    HW1 6116   5.639   2.085   5.522
 1739SOL    HW2 6117   5.743   1.959   5.532
 1740SOL     OW 6118   0.504   1.569   6.085
 1740SOL    HW1 6119   0.466   1.485   6.046
 1740SOL    HW2 6120   0.453   1.593   6.167
 1741SOL     OW 6121   2.178   0.759   3.923
 1741SOL    HW1 6122   2.272   0.728   3.941
 1741SOL    HW2 6123   2.131   0.689   3.869
 1742SOL     OW 6124   5.029   6.875   6.088
 1742SOL    HW1 6125   5.038   6.879   5.989
 1742SOL    HW2 6126   4.935   6.851   6.112
 1743SOL     OW 6127   1.959   2.203   2.460
 1743SOL    HW1 6128   2.014   2.286   2.471
 1743SOL    HW2 6129   1.964   2.148   2.543
 1744SOL     OW 6130   0.541   0.327   1.874
 1744SOL    HW1 6131   0.593   0.306   1.957
 1744SOL    HW2 6132   0.596   0.384   1.813
 1745SOL     OW 6133   6.124   0.736   3.100
 1745SOL    HW1 6134   6.181   0.659   3.130
 1745SOL    HW2 6135   6.122   0.738   3.000
 1746SOL     OW 6136   2.351   4.762   5.425
 1746SOL    HW1 6137   2.413   4.684   5.436
 1746SOL    HW2 6138   2.352   4.791   5.329
 1747SOL     OW 6139   5.749   1.213   3.281
 1747SOL    HW1 6140   5.723   1.187   3.374
 1747SOL    HW2 6141   5.753   1.313   3.274
 1748SOL     OW 6142   0.587   0.884   4.096
 1748SOL    HW1 6143   0.576   0.865   3.998
 1748SOL    HW2 6144   0.621   0.802   4.142
 1749SOL     OW 6145   2.375   6.867   5.038
 1749SOL    HW1 6146   2.449   6.883   4.972
 1749SOL    HW2 6147   2.396   6.913   5.124
 1750SOL     OW 6148   6.668   6.854   3.320
 1750SOL    HW1 6149   6.673   6.902   3.232
 1750SOL    HW2 6150   6.733   6.778   3.320
 1751SOL     OW 6151   4.213   5.625   4.780
 1751SOL    HW1 6152   4.149   5.702   4.785
 1751SOL    HW2 6153   4.255   5.611   4.869
 1752SOL     OW 6154   0.318   2.220   2.042
 1752SOL    HW1 6155   0.372   2.191   1.963
 1752SOL    HW2 6156   0.297   2.317   2.035
 1753SOL     OW 6157   0.354   2.052   0.486
 1753SOL    HW1 6158   0.258   2.060   0.460
 1753SOL    HW2 6159   0.372   1.961   0.522
 1754SOL     OW 6160   2.955   3.616   0.703
 1754SOL    HW1 6161   2.911   3.684   0.763
 1754SOL    HW2 6162   2.970   3.532   0.755
 1755SOL     OW 6163   6.045   6.126   1.833
 1755SOL    HW1 6164   6.104   6.137   1.912
 1755SOL    HW2 6165   6.097   6.142   1.749
 1756SOL     OW 6166   4.016   4.373   6.097
 1756SOL    HW1 6167   3.930   4.326   6.077
 1756SOL    HW2 6168   4.090   4.329   6.048
 1757SOL     OW 6169   2.592   4.908   4.937
 1757SOL    HW1 6170   2.609   4.961   4.854
 1757SOL    HW2 6171   2.651   4.943   5.010
 1758SOL     OW 6172   2.806   0.529   4.076
 1758SOL    HW1 6173   2.745   0.451   4.060
 1758SOL    HW2 6174   2.809   0.586   3.994
 1759SOL     OW 6175   1.911   5.347   6.524
 1759SOL    HW1 6176   1.900   5.251   6.498
 1759SOL    HW2 6177   1.890   5.357   6.621
 1760SOL     OW 6178   5.449   2.380   2.239
 1760SOL    HW1 6179   5.500   2.465   2.251
 1760SOL    HW2 6180   5.412   2.376   2.146
 1761SOL     OW 6181   0.864   0.221   0.734
 1761SOL    HW1 6182   0.802   0.251   0.807
 1761SOL    HW2 6183   0.810   0.182   0.659
 1762SOL     OW 6184   6.945   1.912   4.817
 1762SOL    HW1 6185   0.017   1.954   4.804
 1762SOL    HW2 6186   6.880   1.952   4.752
 1763SOL     OW 6187   1.374   3.848   3.898
 1763SOL    HW1 6188   1.317   3.832   3.979
 1763SOL    HW2 6189   1.461   3.800   3.909
 1764SOL     OW 6190   2.120   3.713   1.934
 1764SOL    HW1 6191   2.187   3.782   1.908
 1764SOL    HW2 6192   2.156   3.622   1.912
 1765SOL     OW 6193   4.229   1.660   0.183
 1765SOL    HW1 6194   4.146   1.666   0.127
 1765SOL    HW2 6195   4.229   1.573   0.233
 1766SOL     OW 6196   4.858   3.595   2.888
 1766SOL    HW1 6197   4.894   3.515   2.840
 1766SOL    HW2 6198   4.879   3.587   2.986
 1767SOL     OW 6199   6.450   4.097   2.947
 1767SOL    HW1 6200   6.505   4.072   2.867
 1767SOL    HW2 6201   6.475   4.038   3.024
 1768SOL     OW 6202   3.823   1.324   5.161
 1768SOL    HW1 6203   3.917   1.291   5.170
 1768SOL    HW2 6204   3.786   1.294   5.074
 1769SOL     OW 6205   4.552   2.474   5.164
 1769SOL    HW1 6206   4.553   2.565   5.122
 1769SOL    HW2 6207   4.646   2.440   5.173
 1770SOL     OW 6208   0.122   5.367   4.462
 1770SOL    HW1 6209   0.146   5.445   4.404
 1770SOL    HW2 6210   0.073   5.299   4.407
 1771SOL     OW 6211   1.952   5.261   0.303
 1771SOL    HW1 6212   2.026   5.328   0.309
 1771SOL    HW2 6213   1.990   5.174   0.272
 1772SOL     OW 6214   3.343   6.455   3.206
 1772SOL    HW1 6215   3.392   6.482   3.289
 1772SOL    HW2 6216   3.408   6.448   3.130
 1773SOL     OW 6217   3.021   4.717   6.628
 1773SOL    HW1 6218   2.946   4.710   6.562
 1773SOL    HW2 6219   2.985   4.704   6.721
 1774SOL     OW 6220   4.614   6.636   2.031
 1774SOL    HW1 6221   4.657   6.641   2.121
 1774SOL    HW2 6222   4.587   6.541   2.012
 1775SOL     OW 6223   1.345   4.828   3.919
 1775SOL    HW1 6224   1.373   4.920   3.894
 1775SOL    HW2 6225   1.303   4.829   4.010
 1776SOL     OW 6226   3.327   0.854   5.402
 1776SOL    HW1 6227   3.422   0.858   5.373
 1776SOL    HW2 6228   3.307   0.932   5.461
 1777SOL     OW 6229   3.665   5.372   5.687
 1777SOL    HW1 6230   3.738   5.343   5.626
 1777SOL    HW2 6231   3.661   5.311   5.766
 1778SOL     OW 6232   4.933   2.397   5.076
 1778SOL    HW1 6233   4.872   2.319   5.088
 1778SOL    HW2 6234   5.021   2.366   5.040
 1779SOL     OW 6235   4.643   1.167   4.563
 1779SOL    HW1 6236   4.610   1.255   4.598
 1779SOL    HW2 6237   4.711   1.182   4.492
 1780SOL     OW 6238   2.712   4.005   6.140
 1780SOL    HW1 6239   2.695   3.975   6.046
 1780SOL    HW2 6240   2.648   3.959   6.201
 1781SOL     OW 6241   4.297   5.136   3.714
 1781SOL    HW1 6242   4.252   5.133   3.625
 1781SOL    HW2 6243   4.318   5.230   3.738
 1782SOL     OW 6244   2.547   2.124   3.483
 1782SOL    HW1 6245   2.614   2.057   3.518
 1782SOL    HW2 6246   2.596   2.202   3.444
 1783SOL     OW 6247   1.575   3.998   6.408
 1783SOL    HW1 6248   1.651   4.015   6.346
 1783SOL    HW2 6249   1.581   3.905   6.445
 1784SOL     OW 6250   3.185   0.907   4.922
 1784SOL    HW1 6251   3.146   0.872   4.837
 1784SOL    HW2 6252   3.180   1.006   4.923
 1785SOL     OW 6253   5.103   5.853   3.543
 1785SOL    HW1 6254   5.177   5.802   3.500
 1785SOL    HW2 6255   5.137   5.901   3.624
 1786SOL     OW 6256   1.287   2.810   1.479
 1786SOL    HW1 6257   1.372   2.796   1.428
 1786SOL    HW2 6258   1.259   2.723   1.521
 1787SOL     OW 6259   2.123   0.733   4.304
 1787SOL    HW1 6260   2.079   0.822   4.289
 1787SOL    HW2 6261   2.219   0.738   4.274
 1788SOL     OW 6262   3.296   2.987   0.415
 1788SOL    HW1 6263   3.274   3.018   0.507
 1788SOL    HW2 6264   3.392   3.006   0.396
 1789SOL     OW 6265   6.480   2.008   2.255
 1789SOL    HW1 6266   6.561   1.957   2.226
 1789SOL    HW2 6267   6.432   2.044   2.175
 1790SOL     OW 6268   3.772   6.537   4.128
 1790SOL    HW1 6269   3.810   6.465   4.187
 1790SOL    HW2 6270   3.738   6.496   4.043
 1791SOL     OW 6271   6.993   1.714   4.495
 1791SOL    HW1 6272   6.949   1.708   4.584
 1791SOL    HW2 6273   0.021   1.803   4.486
 1792SOL     OW 6274   0.054   2.641   4.215
 1792SOL    HW1 6275   0.123   2.627   4.144
 1792SOL    HW2 6276   6.994   2.580   4.199
 1793SOL     OW 6277   6.427   0.453   3.510
 1793SOL    HW1 6278   6.357   0.523   3.497
 1793SOL    HW2 6279   6.518   0.494   3.503
 1794SOL     OW 6280   5.371   5.643   6.410
 1794SOL    HW1 6281   5.457   5.640   6.460
 1794SOL    HW2 6282   5.296   5.617   6.470
 1795SOL     OW 6283   0.442   3.323   2.191
 1795SOL    HW1 6284   0.495   3.244   2.162
 1795SOL    HW2 6285   0.491   3.407   2.166
 1796SOL     OW 6286   1.915   0.879   4.056
 1796SOL    HW1 6287   1.965   0.908   4.138
 1796SOL    HW2 6288   1.883   0.959   4.006
 1797SOL     OW 6289   0.992   1.035   6.347
 1797SOL    HW1 6290   1.033   0.996   6.430
 1797SOL    HW2 6291   0.899   0.999   6.336
 1798SOL     OW 6292   5.171   2.260   4.952
 1798SOL    HW1 6293   5.237   2.334   4.937
 1798SOL    HW2 6294   5.215   2.185   5.002
 1799SOL     OW 6295   6.448   1.647   6.427
 1799SOL    HW1 6296   6.379   1.719   6.437
 1799SOL    HW2 6297   6.527   1.683   6.377
 1800SOL     OW 6298   4.661   5.418   2.900
 1800SOL    HW1 6299   4.595   5.446   2.830
 1800SOL    HW2 6300   4.655   5.480   2.978
 1801SOL     OW 6301   0.976   0.984   2.302
 1801SOL    HW1 6302   1.071   1.004   2.328
 1801SOL    HW2 6303   0.971   0.979   2.202
 1802SOL     OW 6304   5.354   5.048   1.786
 1802SOL    HW1 6305   5.407   4.977   1.741
 1802SOL    HW2 6306   5.404   5.083   1.865
 1803SOL     OW 6307   6.863   6.318   0.283
 1803SOL    HW1 6308   6.897   6.411   0.274
 1803SOL    HW2 6309   6.921   6.255   0.230
 1804SOL     OW 6310   2.131   4.063   5.898
 1804SOL    HW1 6311   2.147   3.985   5.958
 1804SOL    HW2 6312   2.129   4.032   5.803
 1805SOL     OW 6313   6.767   4.031   5.503
 1805SOL    HW1 6314   6.705   4.004   5.578
 1805SOL    HW2 6315   6.748   3.975   5.423
 1806SOL     OW 6316   1.103   1.044   0.760
 1806SOL    HW1 6317   1.125   0.956   0.803
 1806SOL    HW2 6318   1.187   1.097   0.748
 1807SOL     OW 6319   5.279   2.480   5.904
 1807SOL    HW1 6320   5.247   2.487   5.999
 1807SOL    HW2 6321   5.297   2.571   5.868
 1808SOL     OW 6322   6.688   3.367   5.594
 1808SOL    HW1 6323   6.755   3.434   5.562
 1808SOL    HW2 6324   6.731   3.277   5.600
 1809SOL     OW 6325   2.257   2.903   4.519
 1809SOL    HW1 6326   2.350   2.887   4.485
 1809SOL    HW2 6327   2.226   2.822   4.569
 1810SOL     OW 6328   2.914   0.592   5.256
 1810SOL    HW1 6329   2.949   0.646   5.333
 1810SOL    HW2 6330   2.920   0.647   5.173
 1811SOL     OW 6331   4.619   4.622   3.471
 1811SOL    HW1 6332   4.717   4.612   3.491
 1811SOL    HW2 6333   4.596   4.569   3.390
 1812SOL     OW 6334   4.365   6.805   6.450
 1812SOL    HW1 6335   4.291   6.854   6.404
 1812SOL    HW2 6336   4.445   6.865   6.456
 1813SOL     OW 6337   4.769   4.853   0.555
 1813SOL    HW1 6338   4.819   4.809   0.481
 1813SOL    HW2 6339   4.734   4.942   0.523
 1814SOL     OW 6340   0.008   0.354   0.498
 1814SOL    HW1 6341   7.000   0.257   0.494
 1814SOL    HW2 6342   6.949   0.409   0.464
 1815SOL     OW 6343   6.738   2.444   1.635
 1815SOL    HW1 6344   6.793   2.483   1.710
 1815SOL    HW2 6345   6.794   2.438   1.553
 1816SOL     OW 6346   2.049   3.810   1.214
 1816SOL    HW1 6347   2.058   3.747   1.291
 1816SOL    HW2 6348   1.952   3.828   1.197
 1817SOL     OW 6349   2.763   6.590   3.575
 1817SOL    HW1 6350   2.809   6.539   3.648
 1817SOL    HW2 6351   2.831   6.645   3.526
 1818SOL     OW 6352   1.888   6.412   2.501
 1818SOL    HW1 6353   1.841   6.466   2.431
 1818SOL    HW2 6354   1.888   6.316   2.474
 1819SOL     OW 6355   0.426   5.361   1.508
 1819SOL    HW1 6356   0.447   5.330   1.600
 1819SOL    HW2 6357   0.508   5.358   1.451
 1820SOL     OW 6358   3.797   0.761   2.804
 1820SOL    HW1 6359   3.857   0.818   2.747
 1820SOL    HW2 6360   3.707   0.755   2.761
 1821SOL     OW 6361   2.689   0.547   1.732
 1821SOL    HW1 6362   2.732   0.459   1.712
 1821SOL    HW2 6363   2.642   0.580   1.651
 1822SOL     OW 6364   2.200   2.748   1.183
 1822SOL    HW1 6365   2.137   2.678   1.217
 1822SOL    HW2 6366   2.166   2.785   1.097
 1823SOL     OW 6367   2.520   5.855   3.370
 1823SOL    HW1 6368   2.591   5.925   3.362
 1823SOL    HW2 6369   2.543   5.779   3.309
 1824SOL     OW 6370   3.675   3.705   1.392
 1824SOL    HW1 6371   3.692   3.613   1.356
 1824SOL    HW2 6372   3.599   3.747   1.341
 1825SOL     OW 6373   1.460   2.213   3.696
 1825SOL    HW1 6374   1.509   2.138   3.651
 1825SOL    HW2 6375   1.415   2.179   3.778
 1826SOL     OW 6376   3.072   0.591   0.639
 1826SOL    HW1 6377   3.030   0.623   0.724
 1826SOL    HW2 6378   3.103   0.497   0.651
 1827SOL     OW 6379   0.342   5.647   1.521
 1827SOL    HW1 6380   0.309   5.671   1.612
 1827SOL    HW2 6381   0.405   5.569   1.528
 1828SOL     OW 6382   1.154   2.418   0.761
 1828SOL    HW1 6383   1.101   2.333   0.756
 1828SOL    HW2 6384   1.165   2.456   0.669
 1829SOL     OW 6385   2.847   0.809   3.169
 1829SOL    HW1 6386   2.884   0.764   3.088
 1829SOL    HW2 6387   2.780   0.749   3.213
 1830SOL     OW 6388   6.314   6.403   3.974
 1830SOL    HW1 6389   6.288   6.464   3.899
 1830SOL    HW2 6390   6.388   6.445   4.027
 1831SOL     OW 6391   6.148   0.430   2.645
 1831SOL    HW1 6392   6.118   0.521   2.617
 1831SOL    HW2 6393   6.093   0.360   2.599
 1832SOL     OW 6394   4.575   1.107   1.725
 1832SOL    HW1 6395   4.647   1.051   1.767
 1832SOL    HW2 6396   4.555   1.073   1.634
 1833SOL     OW 6397   5.116   0.383   6.784
 1833SOL    HW1 6398   5.181   0.460   6.786
 1833SOL    HW2 6399   5.039   0.407   6.725
 1834SOL     OW 6400   3.073   3.843   0.259
 1834SOL    HW1 6401   3.103   3.750   0.236
 1834SOL    HW2 6402   2.974   3.848   0.257
 1835SOL     OW 6403   6.966   4.003   2.411
 1835SOL    HW1 6404   0.001   4.089   2.404
 1835SOL    HW2 6405   6.869   4.024   2.424
 1836SOL     OW 6406   5.129   2.431   1.308
 1836SOL    HW1 6407   5.068   2.484   1.248
 1836SOL    HW2 6408   5.131   2.336   1.279
 1837SOL     OW 6409   0.898   0.828   5.260
 1837SOL    HW1 6410   0.851   0.848   5.174
 1837SOL    HW2 6411   0.852   0.874   5.335
 1838SOL     OW 6412   6.888   1.642   4.803
 1838SOL    HW1 6413   6.810   1.586   4.831
 1838SOL    HW2 6414   6.876   1.735   4.838
 1839SOL     OW 6415   6.088   2.429   5.402
 1839SOL    HW1 6416   6.022   2.446   5.329
 1839SOL    HW2 6417   6.057   2.351   5.457
 1840SOL     OW 6418   3.272   6.681   1.535
 1840SOL    HW1 6419   3.185   6.653   1.575
 1840SOL    HW2 6420   3.257   6.751   1.466
 1841SOL     OW 6421   2.366   0.917   3.628
 1841SOL    HW1 6422   2.269   0.914   3.651
 1841SOL    HW2 6423   2.380   0.984   3.555
 1842SOL     OW 6424   1.429   5.623   0.354
 1842SOL    HW1 6425   1.407   5.563   0.432
 1842SOL    HW2 6426   1.527   5.643   0.354
 1843SOL     OW 6427   5.939   2.384   3.261
 1843SOL    HW1 6428   5.964   2.464   3.315
 1843SOL    HW2 6429   6.005   2.373   3.186
 1844SOL     OW 6430   3.010   6.999   5.773
 1844SOL    HW1 6431   3.022   0.076   5.741
 1844SOL    HW2 6432   3.097   6.965   5.809
 1845SOL     OW 6433   2.030   0.135   5.154
 1845SOL    HW1 6434   2.101   0.077   5.111
 1845SOL    HW2 6435   1.981   0.186   5.083
 1846SOL     OW 6436   3.950   2.143   1.243
 1846SOL    HW1 6437   4.033   2.105   1.202
 1846SOL    HW2 6438   3.891   2.068   1.275
 1847SOL     OW 6439   1.626   1.425   6.996
 1847SOL    HW1 6440   1.632   1.472   0.066
 1847SOL    HW2 6441   1.531   1.425   6.964
 1848SOL     OW 6442   1.191   6.173   3.345
 1848SOL    HW1 6443   1.162   6.263   3.312
 1848SOL    HW2 6444   1.128   6.104   3.310
 1849SOL     OW 6445   4.293   2.598   0.542
 1849SOL    HW1 6446   4.339   2.661   0.479
 1849SOL    HW2 6447   4.267   2.514   0.492
 1850SOL     OW 6448   0.870   2.728   2.038
 1850SOL    HW1 6449   0.919   2.694   2.119
 1850SOL    HW2 6450   0.859   2.827   2.045
 1851SOL     OW 6451   6.886   2.619   0.274
 1851SOL    HW1 6452   6.796   2.631   0.317
 1851SOL    HW2 6453   6.925   2.708   0.252
 1852SOL     OW 6454   6.388   4.744   2.192
 1852SOL    HW1 6455   6.338   4.740   2.105
 1852SOL    HW2 6456   6.352   4.674   2.254
 1853SOL     OW 6457   6.968   2.206   2.656
 1853SOL    HW1 6458   6.932   2.240   2.569
 1853SOL    HW2 6459   6.894   2.165   2.710
 1854SOL     OW 6460   2.674   5.905   2.870
 1854SOL    HW1 6461   2.694   5.866   2.780
 1854SOL    HW2 6462   2.575   5.915   2.881
 1855SOL     OW 6463   5.004   2.818   5.609
 1855SOL    HW1 6464   5.009   2.903   5.662
 1855SOL    HW2 6465   4.982   2.742   5.671
 1856SOL     OW 6466   6.405   3.814   5.972
 1856SOL    HW1 6467   6.499   3.847   5.974
 1856SOL    HW2 6468   6.350   3.874   5.914
 1857SOL     OW 6469   4.558   1.553   5.865
 1857SOL    HW1 6470   4.652   1.566   5.834
 1857SOL    HW2 6471   4.551   1.578   5.962
 1858SOL     OW 6472   5.962   3.857   3.909
 1858SOL    HW1 6473   5.931   3.878   4.002
 1858SOL    HW2 6474   6.034   3.920   3.883
 1859SOL     OW 6475   5.066   2.167   3.010
 1859SOL    HW1 6476   5.155   2.149   2.969
 1859SOL    HW2 6477   5.045   2.095   3.077
 1860SOL     OW 6478   6.281   0.433   4.846
 1860SOL    HW1 6479   6.340   0.363   4.887
 1860SOL    HW2 6480   6.326   0.522   4.852
 1861SOL     OW 6481   6.400   6.680   2.137
 1861SOL    HW1 6482   6.420   6.596   2.187
 1861SOL    HW2 6483   6.356   6.657   2.050
 1862SOL     OW 6484   2.143   0.408   6.303
 1862SOL    HW1 6485   2.218   0.434   6.363
 1862SOL    HW2 6486   2.170   0.327   6.249
 1863SOL     OW 6487   0.780   2.483   3.047
 1863SOL    HW1 6488   0.825   2.448   3.130
 1863SOL    HW2 6489   0.685   2.452   3.045
 1864SOL     OW 6490   1.597   0.319   5.363
 1864SOL    HW1 6491   1.680   0.350   5.316
 1864SOL    HW2 6492   1.538   0.398   5.382
 1865SOL     OW 6493   3.270   6.641   6.402
 1865SOL    HW1 6494   3.291   6.721   6.459
 1865SOL    HW2 6495   3.170   6.631   6.395
 1866SOL     OW 6496   4.603   4.799   3.132
 1866SOL    HW1 6497   4.530   4.808   3.065
 1866SOL    HW2 6498   4.681   4.855   3.105
 1867SOL     OW 6499   0.431   3.921   0.068
 1867SOL    HW1 6500   0.456   3.870   0.150
 1867SOL    HW2 6501   0.367   3.994   0.093
 1868SOL     OW 6502   4.893   3.442   6.554
 1868SOL    HW1 6503   4.846   3.523   6.589
 1868SOL    HW2 6504   4.988   3.465   6.533
 1869SOL     OW 6505   5.918   2.974   5.546
 1869SOL    HW1 6506   6.007   2.933   5.565
 1869SOL    HW2 6507   5.853   2.902   5.522
 1870SOL     OW 6508   0.867   3.352   5.578
 1870SOL    HW1 6509   0.817   3.388   5.656
 1870SOL    HW2 6510   0.948   3.303   5.609
 1871SOL     OW 6511   0.820   0.833   6.848
 1871SOL    HW1 6512   0.781   0.891   6.920
 1871SOL    HW2 6513   0.854   0.891   6.774
 1872SOL     OW 6514   3.959   1.667   6.525
 1872SOL    HW1 6515   3.975   1.589   6.585
 1872SOL    HW2 6516   3.976   1.640   6.430
 1873SOL     OW 6517   5.181   0.870   5.922
 1873SOL    HW1 6518   5.081   0.870   5.931
 1873SOL    HW2 6519   5.206   0.882   5.826
 1874SOL     OW 6520   3.136   1.576   0.455
 1874SOL    HW1 6521   3.089   1.587   0.367
 1874SOL    HW2 6522   3.174   1.664   0.484
 1875SOL     OW 6523   0.102   0.720   6.934
 1875SOL    HW1 6524   0.106   0.771   6.848
 1875SOL    HW2 6525   0.193   0.715   6.975
 1876SOL     OW 6526   3.077   6.359   5.890
 1876SOL    HW1 6527   3.076   6.337   5.792
 1876SOL    HW2 6528   3.083   6.275   5.943
 1877SOL     OW 6529   0.846   1.202   2.874
 1877SOL    HW1 6530   0.829   1.270   2.945
 1877SOL    HW2 6531   0.846   1.110   2.915
 1878SOL     OW 6532   6.813   2.789   3.956
 1878SOL    HW1 6533   6.849   2.775   3.864
 1878SOL    HW2 6534   6.808   2.701   4.003
 1879SOL     OW 6535   1.561   5.229   3.662
 1879SOL    HW1 6536   1.661   5.235   3.651
 1879SOL    HW2 6537   1.528   5.312   3.707
 1880SOL     OW 6538   6.766   0.698   4.236
 1880SOL    HW1 6539   6.766   0.792   4.202
 1880SOL    HW2 6540   6.739   0.697   4.332
 1881SOL     OW 6541   6.437   3.096   2.714
 1881SOL    HW1 6542   6.442   3.107   2.615
 1881SOL    HW2 6543   6.445   2.999   2.737
 1882SOL     OW 6544   0.953   3.369   6.529
 1882SOL    HW1 6545   1.050   3.348   6.520
 1882SOL    HW2 6546   0.900   3.284   6.532
 1883SOL     OW 6547   1.032   2.129   3.640
 1883SOL    HW1 6548   1.000   2.139   3.545
 1883SOL    HW2 6549   1.075   2.039   3.651
 1884SOL     OW 6550   6.405   2.874   0.301
 1884SOL    HW1 6551   6.449   2.823   0.227
 1884SOL    HW2 6552   6.376   2.811   0.373
 1885SOL     OW 6553   1.162   2.406   5.983
 1885SOL    HW1 6554   1.235   2.469   6.011
 1885SOL    HW2 6555   1.164   2.325   6.042
 1886SOL     OW 6556   2.665   0.259   1.274
 1886SOL    HW1 6557   2.706   0.190   1.215
 1886SOL    HW2 6558   2.671   0.349   1.231
 1887SOL     OW 6559   1.267   5.826   5.282
 1887SOL    HW1 6560   1.262   5.731   5.253
 1887SOL    HW2 6561   1.359   5.861   5.267
 1888SOL     OW 6562   2.904   2.569   6.686
 1888SOL    HW1 6563   2.856   2.601   6.767
 1888SOL    HW2 6564   2.995   2.536   6.711
 1889SOL     OW 6565   0.620   2.765   5.920
 1889SOL    HW1 6566   0.535   2.748   5.871
 1889SOL    HW2 6567   0.635   2.692   5.987
 1890SOL     OW 6568   1.532   6.910   4.511
 1890SOL    HW1 6569   1.547   6.828   4.566
 1890SOL    HW2 6570   1.545   6.889   4.414
 1891SOL     OW 6571   5.334   1.581   2.324
 1891SOL    HW1 6572   5.269   1.520   2.369
 1891SOL    HW2 6573   5.411   1.598   2.386
 1892SOL     OW 6574   2.398   1.313   1.830
 1892SOL    HW1 6575   2.365   1.248   1.762
 1892SOL    HW2 6576   2.322   1.346   1.885
 1893SOL     OW 6577   3.669   2.730   6.734
 1893SOL    HW1 6578   3.619   2.727   6.647
 1893SOL    HW2 6579   3.755   2.681   6.724
 1894SOL     OW 6580   4.046   3.691   3.602
 1894SOL    HW1 6581   3.954   3.719   3.628
 1894SOL    HW2 6582   4.065   3.599   3.638
 1895SOL     OW 6583   4.761   0.546   1.519
 1895SOL    HW1 6584   4.758   0.634   1.565
 1895SOL    HW2 6585   4.809   0.556   1.432
 1896SOL     OW 6586   5.848   0.277   1.360
 1896SOL    HW1 6587   5.799   0.307   1.277
 1896SOL    HW2 6588   5.864   0.356   1.419
 1897SOL     OW 6589   1.539   4.307   1.506
 1897SOL    HW1 6590   1.630   4.275   1.483
 1897SOL    HW2 6591   1.510   4.268   1.593
 1898SOL     OW 6592   2.372   5.720   2.839
 1898SOL    HW1 6593   2.387   5.819   2.831
 1898SOL    HW2 6594   2.277   5.699   2.816
 1899SOL     OW 6595   1.223   0.735   2.323
 1899SOL    HW1 6596   1.167   0.652   2.330
 1899SOL    HW2 6597   1.318   0.714   2.344
 1900SOL     OW 6598   1.111   0.469   6.094
 1900SOL    HW1 6599   1.151   0.471   6.186
 1900SOL    HW2 6600   1.074   0.560   6.073
 1901SOL     OW 6601   2.125   1.787   0.614
 1901SOL    HW1 6602   2.071   1.750   0.690
 1901SOL    HW2 6603   2.095   1.881   0.595
 1902SOL     OW 6604   2.164   2.238   4.516
 1902SOL    HW1 6605   2.134   2.167   4.452
 1902SOL    HW2 6606   2.156   2.205   4.610
 1903SOL     OW 6607   6.825   3.247   2.400
 1903SOL    HW1 6608   6.855   3.331   2.355
 1903SOL    HW2 6609   6.865   3.242   2.491
 1904SOL     OW 6610   5.653   6.038   3.541
 1904SOL    HW1 6611   5.637   6.125   3.588
 1904SOL    HW2 6612   5.570   6.011   3.492
 1905SOL     OW 6613   1.871   0.178   3.964
 1905SOL    HW1 6614   1.935   0.255   3.957
 1905SOL    HW2 6615   1.778   0.211   3.950
 1906SOL     OW 6616   2.340   0.389   5.350
 1906SOL    HW1 6617   2.416   0.357   5.407
 1906SOL    HW2 6618   2.374   0.457   5.285
 1907SOL     OW 6619   3.661   0.399   2.191
 1907SOL    HW1 6620   3.660   0.433   2.285
 1907SOL    HW2 6621   3.625   0.305   2.189
 1908SOL     OW 6622   3.906   6.783   5.655
 1908SOL    HW1 6623   3.882   6.862   5.598
 1908SOL    HW2 6624   3.884   6.803   5.750
 1909SOL     OW 6625   0.301   3.518   2.635
 1909SOL    HW1 6626   0.204   3.535   2.649
 1909SOL    HW2 6627   0.353   3.602   2.649
 1910SOL     OW 6628   0.497   3.343   6.668
 1910SOL    HW1 6629   0.457   3.287   6.596
 1910SOL    HW2 6630   0.434   3.351   6.745
 1911SOL     OW 6631   6.217   3.491   5.378
 1911SOL    HW1 6632   6.304   3.442   5.388
 1911SOL    HW2 6633   6.142   3.427   5.393
 1912SOL     OW 6634   3.906   5.803   0.817
 1912SOL    HW1 6635   3.825   5.746   0.827
 1912SOL    HW2 6636   3.881   5.899   0.835
 1913SOL     OW 6637   2.548   6.417   4.516
 1913SOL    HW1 6638   2.496   6.486   4.464
 1913SOL    HW2 6639   2.619   6.378   4.458
 1914SOL     OW 6640   3.794   2.876   6.054
 1914SOL    HW1 6641   3.880   2.825   6.065
 1914SOL    HW2 6642   3.735   2.827   5.990
 1915SOL     OW 6643   3.831   1.961   5.331
 1915SOL    HW1 6644   3.857   2.032   5.397
 1915SOL    HW2 6645   3.819   2.003   5.241
 1916SOL     OW 6646   3.954   5.661   1.471
 1916SOL    HW1 6647   4.054   5.665   1.481
 1916SOL    HW2 6648   3.922   5.569   1.494
 1917SOL     OW 6649   2.477   3.243   5.800
 1917SOL    HW1 6650   2.528   3.329   5.800
 1917SOL    HW2 6651   2.437   3.229   5.891
 1918SOL     OW 6652   1.295   1.293   5.470
 1918SOL    HW1 6653   1.292   1.386   5.433
 1918SOL    HW2 6654   1.386   1.275   5.507
 1919SOL     OW 6655   1.665   0.235   2.139
 1919SOL    HW1 6656   1.645   0.324   2.179
 1919SOL    HW2 6657   1.709   0.177   2.207
 1920SOL     OW 6658   0.641   3.897   3.028
 1920SOL    HW1 6659   0.657   3.799   3.031
 1920SOL    HW2 6660   0.570   3.918   2.960
 1921SOL     OW 6661   1.427   4.497   6.177
 1921SOL    HW1 6662   1.483   4.416   6.159
 1921SOL    HW2 6663   1.462   4.543   6.259
 1922SOL     OW 6664   2.155   3.633   0.900
 1922SOL    HW1 6665   2.198   3.722   0.914
 1922SOL    HW2 6666   2.171   3.602   0.806
 1923SOL     OW 6667   3.570   0.672   5.621
 1923SOL    HW1 6668   3.614   0.652   5.534
 1923SOL    HW2 6669   3.477   0.637   5.620
 1924SOL     OW 6670   4.956   5.798   0.826
 1924SOL    HW1 6671   4.859   5.801   0.850
 1924SOL    HW2 6672   4.984   5.888   0.790
 1925SOL     OW 6673   1.780   4.918   0.665
 1925SOL    HW1 6674   1.812   4.963   0.582
 1925SOL    HW2 6675   1.827   4.957   0.744
 1926SOL     OW 6676   2.417   6.811   3.150
 1926SOL    HW1 6677   2.511   6.784   3.171
 1926SOL    HW2 6678   2.398   6.793   3.053
 1927SOL     OW 6679   2.339   4.575   0.018
 1927SOL    HW1 6680   2.240   4.582   0.028
 1927SOL    HW2 6681   2.383   4.655   0.059
 1928SOL     OW 6682   6.874   4.265   5.577
 1928SOL    HW1 6683   6.864   4.269   5.677
 1928SOL    HW2 6684   6.818   4.191   5.541
 1929SOL     OW 6685   1.974   6.245   1.537
 1929SOL    HW1 6686   1.998   6.154   1.569
 1929SOL    HW2 6687   1.912   6.238   1.458
 1930SOL     OW 6688   3.732   4.109   6.477
 1930SOL    HW1 6689   3.763   4.196   6.438
 1930SOL    HW2 6690   3.804   4.071   6.535
 1931SOL     OW 6691   1.124   2.653   1.853
 1931SOL    HW1 6692   1.026   2.664   1.870
 1931SOL    HW2 6693   1.139   2.626   1.758
 1932SOL     OW 6694   4.588   2.607   3.223
 1932SOL    HW1 6695   4.673   2.564   3.193
 1932SOL    HW2 6696   4.564   2.681   3.161
 1933SOL     OW 6697   2.177   3.214   0.929
 1933SOL    HW1 6698   2.225   3.252   0.850
 1933SOL    HW2 6699   2.081   3.201   0.907
 1934SOL     OW 6700   0.058   6.630   5.422
 1934SOL    HW1 6701   0.033   6.535   5.443
 1934SOL    HW2 6702   7.005   6.670   5.363
 1935SOL     OW 6703   4.261   5.892   3.903
 1935SOL    HW1 6704   4.221   5.864   3.990
 1935SOL    HW2 6705   4.293   5.987   3.910
 1936SOL     OW 6706   5.722   3.962   3.772
 1936SOL    HW1 6707   5.807   3.933   3.817
 1936SOL    HW2 6708   5.702   3.899   3.696
 1937SOL     OW 6709   4.294   6.069   1.165
 1937SOL    HW1 6710   4.250   5.985   1.133
 1937SOL    HW2 6711   4.230   6.119   1.224
 1938SOL     OW 6712   1.795   1.501   1.671
 1938SOL    HW1 6713   1.762   1.586   1.712
 1938SOL    HW2 6714   1.869   1.464   1.727
 1939SOL     OW 6715   6.729   6.580   4.482
 1939SOL    HW1 6716   6.771   6.646   4.420
 1939SOL    HW2 6717   6.639   6.612   4.511
 1940SOL     OW 6718   5.772   5.426   0.724
 1940SOL    HW1 6719   5.812   5.454   0.812
 1940SOL    HW2 6720   5.705   5.354   0.739
 1941SOL     OW 6721   0.898   3.454   4.354
 1941SOL    HW1 6722   0.883   3.502   4.268
 1941SOL    HW2 6723   0.817   3.400   4.378
 1942SOL     OW 6724   5.369   2.995   1.228
 1942SOL    HW1 6725   5.320   2.908   1.221
 1942SOL    HW2 6726   5.467   2.978   1.231
 1943SOL     OW 6727   2.444   7.002   3.492
 1943SOL    HW1 6728   2.398   0.021   3.411
 1943SOL    HW2 6729   2.481   6.912   3.472
 1944SOL     OW 6730   6.540   3.148   0.196
 1944SOL    HW1 6731   6.582   3.174   0.283
 1944SOL    HW2 6732   6.470   3.078   0.212
 1945SOL     OW 6733   4.014   4.919   0.476
 1945SOL    HW1 6734   4.098   4.867   0.486
 1945SOL    HW2 6735   3.940   4.874   0.526
 1946SOL     OW 6736   6.104   6.321   0.798
 1946SOL    HW1 6737   6.137   6.293   0.888
 1946SOL    HW2 6738   6.118   6.420   0.787
 1947SOL     OW 6739   5.374   5.957   4.286
 1947SOL    HW1 6740   5.419   5.871   4.263
 1947SOL    HW2 6741   5.441   6.031   4.284
 1948SOL     OW 6742   6.202   5.344   3.489
 1948SOL    HW1 6743   6.160   5.272   3.543
 1948SOL    HW2 6744   6.249   5.304   3.410
 1949SOL     OW 6745   3.054   3.557   6.166
 1949SOL    HW1 6746   3.067   3.476   6.224
 1949SOL    HW2 6747   2.968   3.548   6.115
 1950SOL     OW 6748   3.701   3.003   1.029
 1950SOL    HW1 6749   3.719   2.953   0.945
 1950SOL    HW2 6750   3.693   2.939   1.106
 1951SOL     OW 6751   6.696   5.090   0.248
 1951SOL    HW1 6752   6.730   5.121   0.159
 1951SOL    HW2 6753   6.756   5.018   0.283
 1952SOL     OW 6754   4.777   3.757   1.265
 1952SOL    HW1 6755   4.704   3.690   1.280
 1952SOL    HW2 6756   4.823   3.776   1.352
 1953SOL     OW 6757   5.970   1.701   5.979
 1953SOL    HW1 6758   6.000   1.754   6.058
 1953SOL    HW2 6759   5.870   1.700   5.974
 1954SOL     OW 6760   6.978   0.576   1.542
 1954SOL    HW1 6761   6.901   0.513   1.533
 1954SOL    HW2 6762   7.016   0.595   1.451
 1955SOL     OW 6763   0.741   0.498   3.238
 1955SOL    HW1 6764   0.659   0.523   3.187
 1955SOL    HW2 6765   0.786   0.422   3.192
 1956SOL     OW 6766   4.744   6.759   1.824
 1956SOL    HW1 6767   4.679   6.719   1.890
 1956SOL    HW2 6768   4.732   6.858   1.820
 1957SOL     OW 6769   5.402   4.399   3.988
 1957SOL    HW1 6770   5.400   4.368   3.892
 1957SOL    HW2 6771   5.478   4.355   4.035
 1958SOL     OW 6772   4.568   2.076   2.107
 1958SOL    HW1 6773   4.607   2.161   2.143
 1958SOL    HW2 6774   4.491   2.097   2.047
 1959SOL     OW 6775   1.589   0.217   3.828
 1959SOL    HW1 6776   1.600   0.271   3.744
 1959SOL    HW2 6777   1.608   0.121   3.808
 1960SOL     OW 6778   0.381   4.340   2.543
 1960SOL    HW1 6779   0.456   4.367   2.482
 1960SOL    HW2 6780   0.338   4.422   2.581
 1961SOL     OW 6781   6.250   4.915   5.132
 1961SOL    HW1 6782   6.311   4.843   5.164
 1961SOL    HW2 6783   6.243   4.987   5.201
 1962SOL     OW 6784   1.367   6.095   2.531
 1962SOL    HW1 6785   1.441   6.065   2.591
 1962SOL    HW2 6786   1.317   6.015   2.497
 1963SOL     OW 6787   0.994   1.664   1.309
 1963SOL    HW1 6788   0.980   1.708   1.221
 1963SOL    HW2 6789   0.939   1.711   1.379
 1964SOL     OW 6790   4.416   4.521   2.073
 1964SOL    HW1 6791   4.448   4.429   2.051
 1964SOL    HW2 6792   4.328   4.538   2.030
 1965SOL     OW 6793   1.023   3.214   4.190
 1965SOL    HW1 6794   1.001   3.196   4.286
 1965SOL    HW2 6795   0.942   3.200   4.134
 1966SOL     OW 6796   0.814   6.188   0.649
 1966SOL    HW1 6797   0.863   6.103   0.662
 1966SOL    HW2 6798   0.733   6.172   0.592
 1967SOL     OW 6799   5.463   2.868   4.271
 1967SOL    HW1 6800   5.481   2.774   4.243
 1967SOL    HW2 6801   5.382   2.871   4.329
 1968SOL     OW 6802   1.648   0.139   5.581
 1968SOL    HW1 6803   1.739   0.158   5.619
 1968SOL    HW2 6804   1.628   0.204   5.508
 1969SOL     OW 6805   2.292   1.664   0.813
 1969SOL    HW1 6806   2.311   1.567   0.798
 1969SOL    HW2 6807   2.252   1.704   0.729
 1970SOL     OW 6808   2.398   6.835   5.827
 1970SOL    HW1 6809   2.424   6.738   5.821
 1970SOL    HW2 6810   2.307   6.843   5.866
 1971SOL     OW 6811   0.454   0.442   5.232
 1971SOL    HW1 6812   0.442   0.479   5.325
 1971SOL    HW2 6813   0.390   0.366   5.219
 1972SOL     OW 6814   5.147   2.138   1.243
 1972SOL    HW1 6815   5.129   2.071   1.316
 1972SOL    HW2 6816   5.080   2.126   1.170
 1973SOL     OW 6817   3.176   3.585   0.533
 1973SOL    HW1 6818   3.111   3.620   0.600
 1973SOL    HW2 6819   3.136   3.592   0.441
 1974SOL     OW 6820   5.237   0.331   4.656
 1974SOL    HW1 6821   5.189   0.419   4.663
 1974SOL    HW2 6822   5.265   0.316   4.561
 1975SOL     OW 6823   1.812   1.842   4.371
 1975SOL    HW1 6824   1.820   1.822   4.274
 1975SOL    HW2 6825   1.741   1.912   4.385
 1976SOL     OW 6826   6.722   6.672   0.461
 1976SOL    HW1 6827   6.713   6.759   0.412
 1976SOL    HW2 6828   6.776   6.686   0.544
 1977SOL     OW 6829   1.938   3.374   4.955
 1977SOL    HW1 6830   1.955   3.292   5.009
 1977SOL    HW2 6831   1.985   3.366   4.867
 1978SOL     OW 6832   1.891   5.736   3.464
 1978SOL    HW1 6833   1.970   5.795   3.479
 1978SOL    HW2 6834   1.861   5.697   3.552
 1979SOL     OW 6835   5.476   4.637   6.686
 1979SOL    HW1 6836   5.481   4.554   6.742
 1979SOL    HW2 6837   5.523   4.621   6.599
 1980SOL     OW 6838   3.486   0.454   4.184
 1980SOL    HW1 6839   3.388   0.437   4.176
 1980SOL    HW2 6840   3.533   0.369   4.208
 1981SOL     OW 6841   6.297   3.361   1.898
 1981SOL    HW1 6842   6.348   3.309   1.967
 1981SOL    HW2 6843   6.333   3.340   1.807
 1982SOL     OW 6844   0.164   4.314   4.456
 1982SOL    HW1 6845   0.180   4.317   4.357
 1982SOL    HW2 6846   0.131   4.223   4.481
 1983SOL     OW 6847   1.581   0.161   1.729
 1983SOL    HW1 6848   1.536   0.120   1.650
 1983SOL    HW2 6849   1.624   0.247   1.702
 1984SOL     OW 6850   4.822   2.714   4.862
 1984SOL    HW1 6851   4.748   2.703   4.796
 1984SOL    HW2 6852   4.904   2.669   4.828
 1985SOL     OW 6853   0.414   6.317   2.691
 1985SOL    HW1 6854   0.453   6.293   2.780
 1985SOL    HW2 6855   0.420   6.415   2.677
 1986SOL     OW 6856   2.729   0.945   6.739
 1986SOL    HW1 6857   2.792   0.922   6.664
 1986SOL    HW2 6858   2.777   0.998   6.809
 1987SOL     OW 6859   2.071   1.529   3.101
 1987SOL    HW1 6860   2.144   1.556   3.164
 1987SOL    HW2 6861   1.985   1.523   3.151
 1988SOL     OW 6862   6.631   3.292   0.437
 1988SOL    HW1 6863   6.589   3.364   0.491
 1988SOL    HW2 6864   6.603   3.203   0.473
 1989SOL     OW 6865   2.170   5.898   5.020
 1989SOL    HW1 6866   2.150   5.818   4.965
 1989SOL    HW2 6867   2.203   5.869   5.110
 1990SOL     OW 6868   4.246   5.859   0.818
 1990SOL    HW1 6869   4.312   5.932   0.802
 1990SOL    HW2 6870   4.279   5.774   0.776
 1991SOL     OW 6871   3.029   5.570   6.802
 1991SOL    HW1 6872   2.944   5.521   6.823
 1991SOL    HW2 6873   3.031   5.655   6.854
 1992SOL     OW 6874   6.987   0.422   0.084
 1992SOL    HW1 6875   0.038   0.400   0.014
 1992SOL    HW2 6876   7.013   0.380   0.171
 1993SOL     OW 6877   3.721   2.192   5.967
 1993SOL    HW1 6878   3.819   2.173   5.954
 1993SOL    HW2 6879   3.675   2.192   5.878
 1994SOL     OW 6880   6.996   1.887   0.436
 1994SOL    HW1 6881   0.019   1.973   0.407
 1994SOL    HW2 6882   0.027   1.810   0.394
 1995SOL     OW 6883   4.893   3.027   3.440
 1995SOL    HW1 6884   4.835   2.974   3.378
 1995SOL    HW2 6885   4.883   3.125   3.421
 1996SOL     OW 6886   2.166   2.292   0.941
 1996SOL    HW1 6887   2.250   2.324   0.985
 1996SOL    HW2 6888   2.128   2.215   0.992
 1997SOL     OW 6889   3.472   1.909   4.868
 1997SOL    HW1 6890   3.399   1.957   4.819
 1997SOL    HW2 6891   3.512   1.839   4.808
 1998SOL     OW 6892   1.810   3.612   0.693
 1998SOL    HW1 6893   1.754   3.674   0.639
 1998SOL    HW2 6894   1.775   3.609   0.787
 1999SOL     OW 6895   1.776   6.670   6.451
 1999SOL    HW1 6896   1.870   6.644   6.428
 1999SOL    HW2 6897   1.744   6.740   6.388
 2000SOL     OW 6898   3.884   2.643   5.801
 2000SOL    HW1 6899   3.803   2.585   5.798
 2000SOL    HW2 6900   3.871   2.721   5.740
 2001SOL     OW 6901   2.124   0.826   1.468
 2001SOL    HW1 6902   2.114   0.803   1.371
 2001SOL    HW2 6903   2.212   0.792   1.501
 2002SOL     OW 6904   0.466   4.297   0.776
 2002SOL    HW1 6905   0.457   4.229   0.703
 2002SOL    HW2 6906   0.433   4.385   0.743
 2003SOL     OW 6907   6.225   5.016   2.412
 2003SOL    HW1 6908   6.186   4.949   2.349
 2003SOL    HW2 6909   6.205   4.988   2.506
 2004SOL     OW 6910   5.569   0.841   4.050
 2004SOL    HW1 6911   5.483   0.887   4.070
 2004SOL    HW2 6912   5.589   0.775   4.123
 2005SOL     OW 6913   0.211   4.426   0.423
 2005SOL    HW1 6914   0.207   4.497   0.353
 2005SOL    HW2 6915   0.290   4.367   0.408
 2006SOL     OW 6916   5.448   0.384   3.125
 2006SOL    HW1 6917   5.424   0.401   3.221
 2006SOL    HW2 6918   5.547   0.383   3.115
 2007SOL     OW 6919   5.063   4.169   1.016
 2007SOL    HW1 6920   5.038   4.201   0.924
 2007SOL    HW2 6921   4.990   4.193   1.080
 2008SOL     OW 6922   2.147   3.970   3.705
 2008SOL    HW1 6923   2.175   3.998   3.797
 2008SOL    HW2 6924   2.110   3.878   3.707
 2009SOL     OW 6925   4.995   0.232   2.617
 2009SOL    HW1 6926   4.899   0.257   2.605
 2009SOL    HW2 6927   5.037   0.215   2.528
 2010SOL     OW 6928   3.256   2.004   1.560
 2010SOL    HW1 6929   3.198   1.940   1.509
 2010SOL    HW2 6930   3.305   1.954   1.632
 2011SOL     OW 6931   0.734   0.856   4.789
 2011SOL    HW1 6932   0.810   0.883   4.729
 2011SOL    HW2 6933   0.674   0.793   4.739
 2012SOL     OW 6934   1.252   3.972   2.412
 2012SOL    HW1 6935   1.172   3.991   2.469
 2012SOL    HW2 6936   1.302   3.895   2.451
 2013SOL     OW 6937   6.289   2.775   3.578
 2013SOL    HW1 6938   6.371   2.808   3.532
 2013SOL    HW2 6939   6.225   2.851   3.592
 2014SOL     OW 6940   2.660   6.694   3.245
 2014SOL    HW1 6941   2.722   6.690   3.323
 2014SOL    HW2 6942   2.595   6.617   3.250
 2015SOL     OW 6943   2.545   0.229   0.946
 2015SOL    HW1 6944   2.467   0.262   0.999
 2015SOL    HW2 6945   2.540   0.129   0.939
 2016SOL     OW 6946   1.945   5.860   6.033
 2016SOL    HW1 6947   1.870   5.816   6.083
 2016SOL    HW2 6948   1.908   5.927   5.969
 2017SOL     OW 6949   3.765   0.120   3.288
 2017SOL    HW1 6950   3.777   0.218   3.272
 2017SOL    HW2 6951   3.855   0.077   3.295
 2018SOL     OW 6952   5.693   2.707   4.040
 2018SOL    HW1 6953   5.663   2.698   4.135
 2018SOL    HW2 6954   5.793   2.710   4.038
 2019SOL     OW 6955   5.353   3.749   6.620
 2019SOL    HW1 6956   5.349   3.710   6.712
 2019SOL    HW2 6957   5.441   3.725   6.578
 2020SOL     OW 6958   2.093   0.081   6.136
 2020SOL    HW1 6959   2.057   7.007   6.117
 2020SOL    HW2 6960   2.071   0.106   6.231
 2021SOL     OW 6961   6.599   6.791   5.017
 2021SOL    HW1 6962   6.509   6.751   5.035
 2021SOL    HW2 6963   6.660   6.719   4.982
 2022SOL     OW 6964   1.793   4.492   3.514
 2022SOL    HW1 6965   1.850   4.411   3.520
 2022SOL    HW2 6966   1.832   4.556   3.448
 2023SOL     OW 6967   0.486   0.240   6.752
 2023SOL    HW1 6968   0.558   0.200   6.696
 2023SOL    HW2 6969   0.493   0.340   6.748
 2024SOL     OW 6970   0.024   6.136   3.474
 2024SOL    HW1 6971   0.050   6.196   3.549
 2024SOL    HW2 6972   6.953   6.093   3.494
 2025SOL     OW 6973   4.173   0.919   3.901
 2025SOL    HW1 6974   4.218   0.891   3.816
 2025SOL    HW2 6975   4.155   0.837   3.956
 2026SOL     OW 6976   6.435   2.867   6.054
 2026SOL    HW1 6977   6.497   2.924   5.999
 2026SOL    HW2 6978   6.344   2.869   6.014
 2027SOL     OW 6979   1.464   0.138   1.206
 2027SOL    HW1 6980   1.365   0.141   1.214
 2027SOL    HW2 6981   1.498   0.053   1.245
 2028SOL     OW 6982   3.425   5.555   4.819
 2028SOL    HW1 6983   3.478   5.622   4.872
 2028SOL    HW2 6984   3.385   5.488   4.881
 2029SOL     OW 6985   6.215   1.955   0.552
 2029SOL    HW1 6986   6.273   1.897   0.610
 2029SOL    HW2 6987   6.180   1.901   0.475
 2030SOL     OW 6988   3.031   0.803   3.566
 2030SOL    HW1 6989   3.094   0.748   3.512
 2030SOL    HW2 6990   2.997   0.879   3.512
 2031SOL     OW 6991   6.985   5.821   1.635
 2031SOL    HW1 6992   6.928   5.754   1.587
 2031SOL    HW2 6993   7.002   5.790   1.728
 2032SOL     OW 6994   4.059   1.007   1.996
 2032SOL    HW1 6995   4.124   1.062   1.943
 2032SOL    HW2 6996   4.092   1.000   2.091
 2033SOL     OW 6997   2.337   2.603   6.869
 2033SOL    HW1 6998   2.260   2.587   6.932
 2033SOL    HW2 6999   2.305   2.658   6.792
 2034SOL     OW 7000   2.881   4.360   5.597
 2034SOL    HW1 7001   2.949   4.378   5.668
 2034SOL    HW2 7002   2.867   4.261   5.588
 2035SOL     OW 7003   6.249   6.675   3.273
 2035SOL    HW1 7004   6.151   6.694   3.276
 2035SOL    HW2 7005   6.292   6.706   3.358
 2036SOL     OW 7006   1.157   3.205   2.753
 2036SOL    HW1 7007   1.144   3.193   2.852
 2036SOL    HW2 7008   1.072   3.239   2.713
 2037SOL     OW 7009   6.224   2.932   5.897
 2037SOL    HW1 7010   6.165   3.006   5.929
 2037SOL    HW2 7011   6.212   2.921   5.798
 2038SOL     OW 7012   1.970   1.257   0.133
 2038SOL    HW1 7013   1.914   1.177   0.156
 2038SOL    HW2 7014   2.063   1.244   0.168
 2039SOL     OW 7015   6.686   6.153   3.217
 2039SOL    HW1 7016   6.650   6.244   3.199
 2039SOL    HW2 7017   6.611   6.087   3.218
 2040SOL     OW 7018   1.579   2.811   6.873
 2040SOL    HW1 7019   1.481   2.789   6.875
 2040SOL    HW2 7020   1.609   2.833   6.966
 2041SOL     OW 7021   1.002   6.821   5.055
 2041SOL    HW1 7022   0.967   6.913   5.037
 2041SOL    HW2 7023   1.015   6.773   4.968
 2042SOL     OW 7024   4.916   6.187   6.763
 2042SOL    HW1 7025   4.945   6.201   6.858
 2042SOL    HW2 7026   4.929   6.091   6.738
 2043SOL     OW 7027   6.514   3.258   3.287
 2043SOL    HW1 7028   6.557   3.348   3.292
 2043SOL    HW2 7029   6.415   3.268   3.299
 2044SOL     OW 7030   6.644   0.551   1.492
 2044SOL    HW1 7031   6.658   0.573   1.588
 2044SOL    HW2 7032   6.680   0.625   1.435
 2045SOL     OW 7033   2.058   5.133   4.607
 2045SOL    HW1 7034   1.996   5.194   4.657
 2045SOL    HW2 7035   2.131   5.103   4.669
 2046SOL     OW 7036   6.366   1.710   4.610
 2046SOL    HW1 7037   6.368   1.752   4.700
 2046SOL    HW2 7038   6.456   1.671   4.589
 2047SOL     OW 7039   6.900   2.353   0.069
 2047SOL    HW1 7040   6.959   2.382   0.144
 2047SOL    HW2 7041   6.833   2.424   0.050
 2048SOL     OW 7042   0.421   6.813   5.516
 2048SOL    HW1 7043   0.338   6.812   5.572
 2048SOL    HW2 7044   0.396   6.824   5.420
 2049SOL     OW 7045   5.615   1.377   4.372
 2049SOL    HW1 7046   5.713   1.361   4.383
 2049SOL    HW2 7047   5.599   1.427   4.287
 2050SOL     OW 7048   6.165   2.745   4.015
 2050SOL    HW1 7049   6.115   2.658   4.017
 2050SOL    HW2 7050   6.192   2.771   4.107
 2051SOL     OW 7051   1.680   6.013   6.328
 2051SOL    HW1 7052   1.685   5.967   6.239
 2051SOL    HW2 7053   1.773   6.032   6.361
 2052SOL     OW 7054   1.692   2.653   1.154
 2052SOL    HW1 7055   1.625   2.620   1.088
 2052SOL    HW2 7056   1.725   2.744   1.127
 2053SOL     OW 7057   6.741   5.613   4.612
 2053SOL    HW1 7058   6.658   5.558   4.623
 2053SOL    HW2 7059   6.820   5.553   4.602
 2054SOL     OW 7060   3.628   4.106   3.044
 2054SOL    HW1 7061   3.635   4.088   3.142
 2054SOL    HW2 7062   3.663   4.198   3.024
 2055SOL     OW 7063   6.124   3.084   4.721
 2055SOL    HW1 7064   6.126   3.173   4.676
 2055SOL    HW2 7065   6.060   3.024   4.674
 2056SOL     OW 7066   4.462   5.306   1.251
 2056SOL    HW1 7067   4.379   5.253   1.267
 2056SOL    HW2 7068   4.520   5.302   1.332
 2057SOL     OW 7069   4.860   3.908   5.819
 2057SOL    HW1 7070   4.958   3.915   5.840
 2057SOL    HW2 7071   4.807   3.941   5.898
 2058SOL     OW 7072   0.162   6.375   2.464
 2058SOL    HW1 7073   0.236   6.329   2.514
 2058SOL    HW2 7074   0.075   6.360   2.512
 2059SOL     OW 7075   1.960   6.071   6.422
 2059SOL    HW1 7076   1.969   6.013   6.503
 2059SOL    HW2 7077   1.971   6.167   6.449
 2060SOL     OW 7078   0.221   3.528   1.994
 2060SOL    HW1 7079   0.230   3.429   1.983
 2060SOL    HW2 7080   0.166   3.564   1.918
 2061SOL     OW 7081   1.673   1.886   2.297
 2061SOL    HW1 7082   1.758   1.833   2.305
 2061SOL    HW2 7083   1.691   1.970   2.245
 2062SOL     OW 7084   6.989   5.851   5.231
 2062SOL    HW1 7085   6.924   5.784   5.195
 2062SOL    HW2 7086   0.041   5.871   5.163
 2063SOL     OW 7087   1.336   6.812   4.959
 2063SOL    HW1 7088   1.254   6.866   4.943
 2063SOL    HW2 7089   1.405   6.868   5.005
 2064SOL     OW 7090   7.010   2.395   5.105
 2064SOL    HW1 7091   0.006   2.390   5.204
 2064SOL    HW2 7092   6.912   2.403   5.086
 2065SOL     OW 7093   5.930   3.045   6.290
 2065SOL    HW1 7094   5.965   2.960   6.249
 2065SOL    HW2 7095   5.984   3.122   6.257
 2066SOL     OW 7096   6.811   3.877   5.228
 2066SOL    HW1 7097   6.839   3.961   5.180
 2066SOL    HW2 7098   6.721   3.850   5.196
 2067SOL     OW 7099   0.209   4.649   0.629
 2067SOL    HW1 7100   0.240   4.745   0.627
 2067SOL    HW2 7101   0.213   4.611   0.537
 2068SOL     OW 7102   3.566   0.585   3.935
 2068SOL    HW1 7103   3.492   0.612   3.874
 2068SOL    HW2 7104   3.528   0.552   4.021
 2069SOL     OW 7105   6.788   2.352   4.337
 2069SOL    HW1 7106   6.712   2.400   4.381
 2069SOL    HW2 7107   6.774   2.351   4.238
 2070SOL     OW 7108   1.166   1.508   0.905
 2070SOL    HW1 7109   1.178   1.410   0.924
 2070SOL    HW2 7110   1.118   1.520   0.819
 2071SOL     OW 7111   6.069   0.665   5.657
 2071SOL    HW1 7112   6.158   0.632   5.691
 2071SOL    HW2 7113   6.020   0.711   5.731
 2072SOL     OW 7114   4.686   5.475   4.679
 2072SOL    HW1 7115   4.591   5.447   4.666
 2072SOL    HW2 7116   4.692   5.538   4.757
 2073SOL     OW 7117   4.347   6.248   5.421
 2073SOL    HW1 7118   4.298   6.265   5.506
 2073SOL    HW2 7119   4.340   6.329   5.361
 2074SOL     OW 7120   1.855   2.583   6.380
 2074SOL    HW1 7121   1.855   2.595   6.479
 2074SOL    HW2 7122   1.784   2.642   6.340
 2075SOL     OW 7123   6.914   2.626   2.995
 2075SOL    HW1 7124   7.007   2.613   3.030
 2075SOL    HW2 7125   6.875   2.537   2.970
 2076SOL     OW 7126   5.414   6.288   6.517
 2076SOL    HW1 7127   5.389   6.295   6.613
 2076SOL    HW2 7128   5.338   6.321   6.461
 2077SOL     OW 7129   6.753   2.112   1.942
 2077SOL    HW1 7130   6.727   2.106   1.845
 2077SOL    HW2 7131   6.849   2.085   1.952
 2078SOL     OW 7132   2.295   4.929   6.270
 2078SOL    HW1 7133   2.351   4.957   6.348
 2078SOL    HW2 7134   2.211   4.984   6.269
 2079SOL     OW 7135   0.023   1.043   2.941
 2079SOL    HW1 7136   0.100   0.989   2.974
 2079SOL    HW2 7137   0.019   1.130   2.990
 2080SOL     OW 7138   2.604   0.963   4.827
 2080SOL    HW1 7139   2.564   0.944   4.737
 2080SOL    HW2 7140   2.536   1.005   4.886
 2081SOL     OW 7141   1.076   6.735   4.798
 2081SOL    HW1 7142   1.134   6.788   4.737
 2081SOL    HW2 7143   0.991   6.710   4.751
 2082SOL     OW 7144   0.856   6.337   3.519
 2082SOL    HW1 7145   0.771   6.313   3.564
 2082SOL    HW2 7146   0.870   6.277   3.439
 2083SOL     OW 7147   1.221   6.049   4.942
 2083SOL    HW1 7148   1.153   6.006   5.002
 2083SOL    HW2 7149   1.240   6.142   4.975
 2084SOL     OW 7150   0.926   2.877   2.319
 2084SOL    HW1 7151   0.917   2.964   2.367
 2084SOL    HW2 7152   1.013   2.876   2.269
 2085SOL     OW 7153   4.782   6.808   1.227
 2085SOL    HW1 7154   4.776   6.884   1.292
 2085SOL    HW2 7155   4.857   6.825   1.163
 2086SOL     OW 7156   3.943   5.723   0.170
 2086SOL    HW1 7157   3.883   5.802   0.167
 2086SOL    HW2 7158   3.952   5.684   0.078
 2087SOL     OW 7159   4.693   1.912   1.185
 2087SOL    HW1 7160   4.652   1.939   1.273
 2087SOL    HW2 7161   4.792   1.904   1.196
 2088SOL     OW 7162   1.167   5.800   6.424
 2088SOL    HW1 7163   1.094   5.732   6.420
 2088SOL    HW2 7164   1.127   5.892   6.427
 2089SOL     OW 7165   4.441   2.271   5.414
 2089SOL    HW1 7166   4.538   2.281   5.435
 2089SOL    HW2 7167   4.389   2.264   5.499
 2090SOL     OW 7168   4.795   3.071   5.769
 2090SOL    HW1 7169   4.759   2.978   5.766
 2090SOL    HW2 7170   4.745   3.123   5.838
 2091SOL     OW 7171   7.008   5.339   1.117
 2091SOL    HW1 7172   0.041   5.381   1.192
 2091SOL    HW2 7173   6.932   5.286   1.153
 2092SOL     OW 7174   5.758   3.244   0.729
 2092SOL    HW1 7175   5.844   3.221   0.774
 2092SOL    HW2 7176   5.772   3.324   0.671
 2093SOL     OW 7177   3.259   2.192   1.762
 2093SOL    HW1 7178   3.287   2.141   1.681
 2093SOL    HW2 7179   3.322   2.268   1.778
 2094SOL     OW 7180   5.386   1.679   1.251
 2094SOL    HW1 7181   5.447   1.715   1.181
 2094SOL    HW2 7182   5.439   1.620   1.313
 2095SOL     OW 7183   6.221   6.367   4.370
 2095SOL    HW1 7184   6.205   6.427   4.448
 2095SOL    HW2 7185   6.272   6.287   4.399
 2096SOL     OW 7186   4.938   6.081   3.522
 2096SOL    HW1 7187   4.977   6.150   3.584
 2096SOL    HW2 7188   4.983   5.993   3.539
 2097SOL     OW 7189   2.805   3.455   6.997
 2097SOL    HW1 7190   2.762   3.517   0.046
 2097SOL    HW2 7191   2.887   3.498   6.960
 2098SOL     OW 7192   4.248   6.502   2.976
 2098SOL    HW1 7193   4.225   6.405   2.975
 2098SOL    HW2 7194   4.265   6.531   3.071
 2099SOL     OW 7195   3.908   1.436   6.680
 2099SOL    HW1 7196   3.969   1.357   6.679
 2099SOL    HW2 7197   3.855   1.436   6.765
 2100SOL     OW 7198   5.229   1.233   0.910
 2100SOL    HW1 7199   5.241   1.134   0.909
 2100SOL    HW2 7200   5.319   1.278   0.907
 2101SOL     OW 7201   6.862   6.295   1.212
 2101SOL    HW1 7202   6.891   6.300   1.308
 2101SOL    HW2 7203   6.924   6.349   1.155
 2102SOL     OW 7204   4.899   3.636   1.894
 2102SOL    HW1 7205   4.804   3.613   1.916
 2102SOL    HW2 7206   4.942   3.557   1.849
 2103SOL     OW 7207   3.867   3.903   0.181
 2103SOL    HW1 7208   3.886   3.829   0.245
 2103SOL    HW2 7209   3.768   3.910   0.167
 2104SOL     OW 7210   1.498   4.411   1.880
 2104SOL    HW1 7211   1.427   4.357   1.926
 2104SOL    HW2 7212   1.588   4.379   1.910
 2105SOL     OW 7213   4.800   4.789   6.902
 2105SOL    HW1 7214   4.757   4.788   6.812
 2105SOL    HW2 7215   4.730   4.798   6.973
 2106SOL     OW 7216   4.556   3.620   1.309
 2106SOL    HW1 7217   4.471   3.651   1.267
 2106SOL    HW2 7218   4.578   3.528   1.277
 2107SOL     OW 7219   6.033   2.610   5.772
 2107SOL    HW1 7220   6.117   2.614   5.826
 2107SOL    HW2 7221   6.055   2.628   5.676
 2108SOL     OW 7222   6.278   6.056   4.983
 2108SOL    HW1 7223   6.218   6.001   4.925
 2108SOL    HW2 7224   6.372   6.022   4.977
 2109SOL     OW 7225   3.042   5.920   2.577
 2109SOL    HW1 7226   3.100   5.890   2.653
 2109SOL    HW2 7227   3.051   6.019   2.565
 2110SOL     OW 7228   3.587   0.719   6.255
 2110SOL    HW1 7229   3.671   0.746   6.302
 2110SOL    HW2 7230   3.566   0.624   6.279
 2111SOL     OW 7231   1.772   3.577   5.343
 2111SOL    HW1 7232   1.854   3.626   5.374
 2111SOL    HW2 7233   1.794   3.480   5.331
 2112SOL     OW 7234   5.091   2.247   0.169
 2112SOL    HW1 7235   5.043   2.278   0.250
 2112SOL    HW2 7236   5.098   2.147   0.170
 2113SOL     OW 7237   2.217   0.679   5.039
 2113SOL    HW1 7238   2.157   0.647   4.966
 2113SOL    HW2 7239   2.183   0.643   5.127
 2114SOL     OW 7240   2.591   2.644   6.705
 2114SOL    HW1 7241   2.569   2.650   6.607
 2114SOL    HW2 7242   2.509   2.663   6.759
 2115SOL     OW 7243   0.996   4.492   2.702
 2115SOL    HW1 7244   1.028   4.476   2.795
 2115SOL    HW2 7245   1.067   4.468   2.636
 2116SOL     OW 7246   1.539   3.154   1.783
 2116SOL    HW1 7247   1.590   3.216   1.724
 2116SOL    HW2 7248   1.466   3.110   1.730
 2117SOL     OW 7249   5.376   3.793   1.383
 2117SOL    HW1 7250   5.296   3.837   1.341
 2117SOL    HW2 7251   5.348   3.748   1.468
 2118SOL     OW 7252   6.628   3.246   2.802
 2118SOL    HW1 7253   6.616   3.337   2.761
 2118SOL    HW2 7254   6.552   3.188   2.776
 2119SOL     OW 7255   2.052   1.264   0.856
 2119SOL    HW1 7256   2.013   1.317   0.932
 2119SOL    HW2 7257   2.121   1.319   0.810
 2120SOL     OW 7258   0.272   3.248   1.986
 2120SOL    HW1 7259   0.232   3.156   1.985
 2120SOL    HW2 7260   0.323   3.262   2.071
 2121SOL     OW 7261   1.540   2.825   5.792
 2121SOL    HW1 7262   1.530   2.728   5.770
 2121SOL    HW2 7263   1.637   2.850   5.791
 2122SOL     OW 7264   5.319   5.961   6.148
 2122SOL    HW1 7265   5.370   5.946   6.233
 2122SOL    HW2 7266   5.380   5.952   6.070
 2123SOL     OW 7267   6.504   6.115   1.709
 2123SOL    HW1 7268   6.572   6.041   1.711
 2123SOL    HW2 7269   6.446   6.110   1.790
 2124SOL     OW 7270   3.001   1.557   0.221
 2124SOL    HW1 7271   2.947   1.474   0.240
 2124SOL    HW2 7272   3.053   1.543   0.137
 2125SOL     OW 7273   0.729   5.298   2.124
 2125SOL    HW1 7274   0.723   5.337   2.032
 2125SOL    HW2 7275   0.819   5.255   2.136
 2126SOL     OW 7276   3.196   2.991   6.297
 2126SOL    HW1 7277   3.193   2.993   6.197
 2126SOL    HW2 7278   3.224   3.080   6.331
 2127SOL     OW 7279   1.056   1.832   5.591
 2127SOL    HW1 7280   1.005   1.905   5.635
 2127SOL    HW2 7281   0.998   1.750   5.586
 2128SOL     OW 7282   5.702   2.704   2.112
 2128SOL    HW1 7283   5.791   2.700   2.067
 2128SOL    HW2 7284   5.635   2.653   2.057
 2129SOL     OW 7285   4.410   4.707   4.924
 2129SOL    HW1 7286   4.420   4.611   4.949
 2129SOL    HW2 7287   4.347   4.715   4.847
 2130SOL     OW 7288   2.653   0.658   1.989
 2130SOL    HW1 7289   2.647   0.583   1.923
 2130SOL    HW2 7290   2.673   0.743   1.942
 2131SOL     OW 7291   4.998   1.407   0.966
 2131SOL    HW1 7292   4.974   1.357   1.049
 2131SOL    HW2 7293   5.093   1.390   0.942
 2132SOL     OW 7294   3.183   1.574   0.023
 2132SOL    HW1 7295   3.169   1.603   6.946
 2132SOL    HW2 7296   3.222   1.482   0.024
 2133SOL     OW 7297   3.579   2.091   0.897
 2133SOL    HW1 7298   3.540   2.163   0.841
 2133SOL    HW2 7299   3.626   2.131   0.976
 2134SOL     OW 7300   1.152   0.994   4.860
 2134SOL    HW1 7301   1.140   0.895   4.862
 2134SOL    HW2 7302   1.158   1.029   4.954
 2135SOL     OW 7303   0.332   1.807   4.706
 2135SOL    HW1 7304   0.339   1.712   4.674
 2135SOL    HW2 7305   0.419   1.854   4.691
 2136SOL     OW 7306   1.371   3.594   4.304
 2136SOL    HW1 7307   1.319   3.672   4.268
 2136SOL    HW2 7308   1.411   3.618   4.392
 2137SOL     OW 7309   0.243   6.716   4.308
 2137SOL    HW1 7310   0.312   6.721   4.380
 2137SOL    HW2 7311   0.287   6.694   4.221
 2138SOL     OW 7312   5.955   2.674   2.015
 2138SOL    HW1 7313   5.976   2.579   2.036
 2138SOL    HW2 7314   6.032   2.716   1.968
 2139SOL     OW 7315   3.953   1.046   2.989
 2139SOL    HW1 7316   3.912   1.090   2.909
 2139SOL    HW2 7317   3.909   0.957   3.004
 2140SOL     OW 7318   3.117   6.252   3.208
 2140SOL    HW1 7319   3.081   6.291   3.123
 2140SOL    HW2 7320   3.185   6.314   3.247
 2141SOL     OW 7321   6.855   2.982   1.191
 2141SOL    HW1 7322   6.858   2.978   1.091
 2141SOL    HW2 7323   6.775   2.932   1.224
 2142SOL     OW 7324   1.451   2.209   3.207
 2142SOL    HW1 7325   1.370   2.267   3.213
 2142SOL    HW2 7326   1.433   2.121   3.251
 2143SOL     OW 7327   3.113   4.702   0.639
 2143SOL    HW1 7328   3.151   4.779   0.588
 2143SOL    HW2 7329   3.084   4.631   0.575
 2144SOL     OW 7330   1.619   0.364   2.644
 2144SOL    HW1 7331   1.706   0.319   2.626
 2144SOL    HW2 7332   1.580   0.329   2.729
 2145SOL     OW 7333   3.610   5.486   4.132
 2145SOL    HW1 7334   3.704   5.477   4.099
 2145SOL    HW2 7335   3.608   5.552   4.207
 2146SOL     OW 7336   3.087   3.881   2.014
 2146SOL    HW1 7337   3.023   3.840   1.950
 2146SOL    HW2 7338   3.050   3.876   2.107
 2147SOL     OW 7339   6.578   0.814   6.944
 2147SOL    HW1 7340   6.566   0.773   6.853
 2147SOL    HW2 7341   6.650   0.766   6.993
 2148SOL     OW 7342   4.825   2.917   4.603
 2148SOL    HW1 7343   4.842   2.927   4.701
 2148SOL    HW2 7344   4.874   2.989   4.553
 2149SOL     OW 7345   3.475   0.424   0.733
 2149SOL    HW1 7346   3.448   0.435   0.637
 2149SOL    HW2 7347   3.394   0.406   0.789
 2150SOL     OW 7348   3.117   2.135   2.597
 2150SOL    HW1 7349   3.113   2.154   2.498
 2150SOL    HW2 7350   3.205   2.093   2.619
 2151SOL     OW 7351   2.346   1.683   4.156
 2151SOL    HW1 7352   2.410   1.633   4.215
 2151SOL    HW2 7353   2.339   1.637   4.068
 2152SOL     OW 7354   3.984   6.109   1.877
 2152SOL    HW1 7355   3.949   6.189   1.925
 2152SOL    HW2 7356   4.051   6.137   1.809
 2153SOL     OW 7357   4.114   0.524   3.351
 2153SOL    HW1 7358   4.096   0.508   3.448
 2153SOL    HW2 7359   4.205   0.564   3.340
 2154SOL     OW 7360   3.734   6.358   5.033
 2154SOL    HW1 7361   3.751   6.327   5.127
 2154SOL    HW2 7362   3.811   6.412   5.001
 2155SOL     OW 7363   1.496   5.169   6.957
 2155SOL    HW1 7364   1.518   5.076   6.985
 2155SOL    HW2 7365   1.532   5.234   0.006
 2156SOL     OW 7366   2.900   0.304   2.062
 2156SOL    HW1 7367   2.883   0.227   2.000
 2156SOL    HW2 7368   2.893   0.273   2.156
 2157SOL     OW 7369   6.816   0.913   3.132
 2157SOL    HW1 7370   6.880   0.904   3.056
 2157SOL    HW2 7371   6.754   0.834   3.134
 2158SOL     OW 7372   4.135   6.359   0.739
 2158SOL    HW1 7373   4.078   6.316   0.809
 2158SOL    HW2 7374   4.188   6.288   0.692
 2159SOL     OW 7375   1.583   6.232   5.731
 2159SOL    HW1 7376   1.548   6.139   5.721
 2159SOL    HW2 7377   1.637   6.256   5.651
 2160SOL     OW 7378   4.294   3.472   1.557
 2160SOL    HW1 7379   4.338   3.394   1.514
 2160SOL    HW2 7380   4.363   3.539   1.583
 2161SOL     OW 7381   5.124   2.678   3.371
 2161SOL    HW1 7382   5.186   2.601   3.388
 2161SOL    HW2 7383   5.165   2.738   3.302
 2162SOL     OW 7384   2.679   0.763   0.331
 2162SOL    HW1 7385   2.661   0.858   0.303
 2162SOL    HW2 7386   2.737   0.763   0.412
 2163SOL     OW 7387   6.867   5.749   6.003
 2163SOL    HW1 7388   6.937   5.739   5.933
 2163SOL    HW2 7389   6.890   5.827   6.062
 2164SOL     OW 7390   1.911   1.879   0.048
 2164SOL    HW1 7391   1.833   1.826   0.082
 2164SOL    HW2 7392   1.956   1.926   0.124
 2165SOL     OW 7393   1.061   1.584   2.683
 2165SOL    HW1 7394   1.071   1.562   2.780
 2165SOL    HW2 7395   1.151   1.582   2.639
 2166SOL     OW 7396   2.135   2.360   5.466
 2166SOL    HW1 7397   2.093   2.423   5.400
 2166SOL    HW2 7398   2.235   2.364   5.457
 2167SOL     OW 7399   2.691   0.410   2.641
 2167SOL    HW1 7400   2.615   0.370   2.691
 2167SOL    HW2 7401   2.748   0.464   2.703
 2168SOL     OW 7402   6.534   2.245   3.940
 2168SOL    HW1 7403   6.476   2.262   3.860
 2168SOL    HW2 7404   6.477   2.240   4.022
 2169SOL     OW 7405   5.548   2.214   6.027
 2169SOL    HW1 7406   5.555   2.301   5.979
 2169SOL    HW2 7407   5.624   2.154   6.000
 2170SOL     OW 7408   5.721   4.937   5.481
 2170SOL    HW1 7409   5.766   4.970   5.398
 2170SOL    HW2 7410   5.712   5.013   5.546
 2171SOL     OW 7411   6.189   3.147   0.756
 2171SOL    HW1 7412   6.136   3.194   0.826
 2171SOL    HW2 7413   6.164   3.050   0.755
 2172SOL     OW 7414   2.875   1.662   0.705
 2172SOL    HW1 7415   2.867   1.642   0.608
 2172SOL    HW2 7416   2.785   1.657   0.748
 2173SOL     OW 7417   3.832   0.005   5.560
 2173SOL    HW1 7418   3.765   7.014   5.634
 2173SOL    HW2 7419   3.894   0.081   5.579
 2174SOL     OW 7420   6.209   5.226   6.172
 2174SOL    HW1 7421   6.188   5.310   6.122
 2174SOL    HW2 7422   6.279   5.174   6.123
 2175SOL     OW 7423   2.669   2.428   3.504
 2175SOL    HW1 7424   2.635   2.462   3.591
 2175SOL    HW2 7425   2.756   2.380   3.517
 2176SOL     OW 7426   0.988   2.235   1.124
 2176SOL    HW1 7427   0.993   2.195   1.216
 2176SOL    HW2 7428   0.979   2.334   1.131
 2177SOL     OW 7429   6.553   0.599   1.947
 2177SOL    HW1 7430   6.502   0.684   1.961
 2177SOL    HW2 7431   6.504   0.523   1.991
 2178SOL     OW 7432   1.075   4.084   0.413
 2178SOL    HW1 7433   1.167   4.047   0.417
 2178SOL    HW2 7434   1.077   4.181   0.439
 2179SOL     OW 7435   2.240   5.309   4.191
 2179SOL    HW1 7436   2.270   5.228   4.142
 2179SOL    HW2 7437   2.300   5.325   4.270
 2180SOL     OW 7438   3.295   3.078   1.710
 2180SOL    HW1 7439   3.271   3.058   1.805
 2180SOL    HW2 7440   3.385   3.122   1.707
 2181SOL     OW 7441   4.910   4.346   5.960
 2181SOL    HW1 7442   4.942   4.440   5.945
 2181SOL    HW2 7443   4.973   4.282   5.917
 2182SOL     OW 7444   6.415   3.265   5.687
 2182SOL    HW1 7445   6.451   3.358   5.693
 2182SOL    HW2 7446   6.315   3.267   5.687
 2183SOL     OW 7447   3.765   3.524   0.471
 2183SOL    HW1 7448   3.698   3.587   0.510
 2183SOL    HW2 7449   3.762   3.438   0.521
 2184SOL     OW 7450   3.458   1.205   5.073
 2184SOL    HW1 7451   3.497   1.160   5.154
 2184SOL    HW2 7452   3.524   1.201   4.998
 2185SOL     OW 7453   1.976   1.637   0.790
 2185SOL    HW1 7454   2.011   1.602   0.877
 2185SOL    HW2 7455   1.889   1.685   0.806
 2186SOL     OW 7456   0.165   4.474   2.252
 2186SOL    HW1 7457   0.177   4.564   2.209
 2186SOL    HW2 7458   0.186   4.481   2.350
 2187SOL     OW 7459   0.517   1.085   2.172
 2187SOL    HW1 7460   0.583   1.156   2.198
 2187SOL    HW2 7461   0.436   1.128   2.134
 2188SOL     OW 7462   4.728   5.657   3.820
 2188SOL    HW1 7463   4.801   5.606   3.776
 2188SOL    HW2 7464   4.764   5.707   3.898
 2189SOL     OW 7465   1.532   6.537   6.374
 2189SOL    HW1 7466   1.566   6.521   6.466
 2189SOL    HW2 7467   1.602   6.584   6.320
 2190SOL     OW 7468   6.552   2.244   1.591
 2190SOL    HW1 7469   6.628   2.305   1.570
 2190SOL    HW2 7470   6.585   2.149   1.592
 2191SOL     OW 7471   3.437   1.892   6.424
 2191SOL    HW1 7472   3.469   1.982   6.393
 2191SOL    HW2 7473   3.408   1.899   6.520
 2192SOL     OW 7474   4.101   6.977   4.660
 2192SOL    HW1 7475   4.150   0.041   4.628
 2192SOL    HW2 7476   4.093   6.912   4.586
 2193SOL     OW 7477   6.139   5.494   6.051
 2193SOL    HW1 7478   6.044   5.511   6.080
 2193SOL    HW2 7479   6.201   5.512   6.128
 2194SOL     OW 7480   2.675   4.916   6.983
 2194SOL    HW1 7481   2.635   4.825   6.976
 2194SOL    HW2 7482   2.608   4.984   6.952
 2195SOL     OW 7483   7.000   6.690   1.985
 2195SOL    HW1 7484   6.970   6.600   1.952
 2195SOL    HW2 7485   6.945   6.761   1.942
 2196SOL     OW 7486   2.276   0.125   5.341
 2196SOL    HW1 7487   2.302   0.220   5.327
 2196SOL    HW2 7488   2.201   0.101   5.279
 2197SOL     OW 7489   4.957   3.744   1.486
 2197SOL    HW1 7490   4.992   3.817   1.544
 2197SOL    HW2 7491   5.021   3.667   1.489
 2198SOL     OW 7492   6.600   2.489   6.769
 2198SOL    HW1 7493   6.597   2.395   6.736
 2198SOL    HW2 7494   6.622   2.550   6.694
 2199SOL     OW 7495   5.496   7.011   1.338
 2199SOL    HW1 7496   5.423   0.048   1.298
 2199SOL    HW2 7497   5.458   6.925   1.372
 2200SOL     OW 7498   4.117   0.335   4.570
 2200SOL    HW1 7499   4.206   0.288   4.569
 2200SOL    HW2 7500   4.115   0.405   4.500
 2201SOL     OW 7501   6.379   4.009   2.374
 2201SOL    HW1 7502   6.315   3.953   2.320
 2201SOL    HW2 7503   6.334   4.039   2.458
 2202SOL     OW 7504   3.606   5.092   4.680
 2202SOL    HW1 7505   3.519   5.053   4.709
 2202SOL    HW2 7506   3.667   5.018   4.651
 2203SOL     OW 7507   2.611   2.132   2.726
 2203SOL    HW1 7508   2.673   2.160   2.799
 2203SOL    HW2 7509   2.530   2.090   2.766
 2204SOL     OW 7510   3.395   1.295   6.713
 2204SOL    HW1 7511   3.399   1.202   6.748
 2204SOL    HW2 7512   3.301   1.319   6.689
 2205SOL     OW 7513   1.604   0.312   6.779
 2205SOL    HW1 7514   1.590   0.339   6.684
 2205SOL    HW2 7515   1.635   0.391   6.832
 2206SOL     OW 7516   3.333   3.942   5.547
 2206SOL    HW1 7517   3.285   4.006   5.608
 2206SOL    HW2 7518   3.268   3.900   5.485
 2207SOL     OW 7519   1.974   4.133   6.545
 2207SOL    HW1 7520   1.994   4.146   6.447
 2207SOL    HW2 7521   2.028   4.199   6.598
 2208SOL     OW 7522   1.709   4.546   2.122
 2208SOL    HW1 7523   1.674   4.637   2.101
 2208SOL    HW2 7524   1.634   4.488   2.153
 2209SOL     OW 7525   1.276   6.227   5.477
 2209SOL    HW1 7526   1.285   6.279   5.563
 2209SOL    HW2 7527   1.366   6.208   5.440
 2210SOL     OW 7528   0.300   4.878   3.380
 2210SOL    HW1 7529   0.261   4.809   3.440
 2210SOL    HW2 7530   0.229   4.944   3.355
 2211SOL     OW 7531   5.576   1.529   6.022
 2211SOL    HW1 7532   5.619   1.597   6.081
 2211SOL    HW2 7533   5.645   1.486   5.964
 2212SOL     OW 7534   0.803   6.357   6.885
 2212SOL    HW1 7535   0.813   6.395   6.976
 2212SOL    HW2 7536   0.887   6.308   6.860
 2213SOL     OW 7537   4.439   2.484   4.857
 2213SOL    HW1 7538   4.354   2.462   4.906
 2213SOL    HW2 7539   4.515   2.483   4.921
 2214SOL     OW 7540   4.700   0.475   5.613
 2214SOL    HW1 7541   4.673   0.571   5.601
 2214SOL    HW2 7542   4.629   0.416   5.575
 2215SOL     OW 7543   6.735   1.270   5.583
 2215SOL    HW1 7544   6.696   1.249   5.493
 2215SOL    HW2 7545   6.675   1.333   5.632
 2216SOL     OW 7546   1.826   0.601   6.628
 2216SOL    HW1 7547   1.765   0.587   6.705
 2216SOL    HW2 7548   1.892   0.672   6.651
 2217SOL     OW 7549   2.896   0.280   1.015
 2217SOL    HW1 7550   2.834   0.219   1.064
 2217SOL    HW2 7551   2.864   0.291   0.921
 2218SOL     OW 7552   1.242   6.649   0.249
 2218SOL    HW1 7553   1.302   6.712   0.298
 2218SOL    HW2 7554   1.176   6.609   0.312
 2219SOL     OW 7555   1.423   3.922   3.102
 2219SOL    HW1 7556   1.434   4.016   3.071
 2219SOL    HW2 7557   1.339   3.884   3.064
 2220SOL     OW 7558   0.653   1.542   4.472
 2220SOL    HW1 7559   0.656   1.641   4.457
 2220SOL    HW2 7560   0.625   1.497   4.387
 2221SOL     OW 7561   0.161   1.220   0.064
 2221SOL    HW1 7562   0.180   1.125   0.091
 2221SOL    HW2 7563   0.092   1.258   0.126
 2222SOL     OW 7564   3.897   1.395   0.776
 2222SOL    HW1 7565   3.906   1.489   0.810
 2222SOL    HW2 7566   3.968   1.378   0.708
 2223SOL     OW 7567   5.895   5.914   3.583
 2223SOL    HW1 7568   5.808   5.954   3.556
 2223SOL    HW2 7569   5.883   5.817   3.603
 2224SOL     OW 7570   1.810   4.239   1.493
 2224SOL    HW1 7571   1.875   4.197   1.556
 2224SOL    HW2 7572   1.839   4.332   1.472
 2225SOL     OW 7573   6.247   5.410   3.166
 2225SOL    HW1 7574   6.243   5.311   3.158
 2225SOL    HW2 7575   6.155   5.448   3.153
 2226SOL     OW 7576   3.686   3.298   0.622
 2226SOL    HW1 7577   3.587   3.310   0.631
 2226SOL    HW2 7578   3.706   3.217   0.568
 2227SOL     OW 7579   5.967   4.312   0.194
 2227SOL    HW1 7580   6.041   4.266   0.244
 2227SOL    HW2 7581   5.885   4.255   0.196
 2228SOL     OW 7582   3.266   5.729   0.959
 2228SOL    HW1 7583   3.201   5.769   1.024
 2228SOL    HW2 7584   3.222   5.716   0.871
 2229SOL     OW 7585   4.240   1.986   3.782
 2229SOL    HW1 7586   4.213   1.892   3.761
 2229SOL    HW2 7587   4.208   2.010   3.873
 2230SOL     OW 7588   0.997   6.490   4.062
 2230SOL    HW1 7589   0.917   6.439   4.092
 2230SOL    HW2 7590   1.062   6.429   4.017
 2231SOL     OW 7591   1.653   1.712   1.842
 2231SOL    HW1 7592   1.618   1.620   1.826
 2231SOL    HW2 7593   1.577   1.776   1.848
 2232SOL     OW 7594   0.635   2.901   4.091
 2232SOL    HW1 7595   0.595   2.951   4.014
 2232SOL    HW2 7596   0.728   2.872   4.068
 2233SOL     OW 7597   3.184   5.020   0.538
 2233SOL    HW1 7598   3.092   5.013   0.501
 2233SOL    HW2 7599   3.244   4.956   0.491
 2234SOL     OW 7600   4.312   2.119   0.835
 2234SOL    HW1 7601   4.351   2.080   0.752
 2234SOL    HW2 7602   4.300   2.217   0.823
 2235SOL     OW 7603   1.573   0.575   0.362
 2235SOL    HW1 7604   1.509   0.596   0.436
 2235SOL    HW2 7605   1.622   0.490   0.384
 2236SOL     OW 7606   0.797   4.611   1.117
 2236SOL    HW1 7607   0.789   4.560   1.031
 2236SOL    HW2 7608   0.714   4.597   1.172
 2237SOL     OW 7609   5.887   3.522   5.034
 2237SOL    HW1 7610   5.986   3.526   5.047
 2237SOL    HW2 7611   5.847   3.461   5.102
 2238SOL     OW 7612   6.672   4.966   2.786
 2238SOL    HW1 7613   6.633   4.918   2.707
 2238SOL    HW2 7614   6.716   5.050   2.756
 2239SOL     OW 7615   4.215   4.755   3.743
 2239SOL    HW1 7616   4.278   4.832   3.732
 2239SOL    HW2 7617   4.266   4.670   3.748
 2240SOL     OW 7618   6.050   5.156   3.611
 2240SOL    HW1 7619   5.967   5.156   3.555
 2240SOL    HW2 7620   6.042   5.088   3.683
 2241SOL     OW 7621   0.189   6.287   2.186
 2241SOL    HW1 7622   0.274   6.244   2.158
 2241SOL    HW2 7623   0.206   6.347   2.264
 2242SOL     OW 7624   5.501   1.651   3.232
 2242SOL    HW1 7625   5.407   1.674   3.258
 2242SOL    HW2 7626   5.509   1.552   3.222
 2243SOL     OW 7627   2.078   6.205   5.323
 2243SOL    HW1 7628   2.166   6.174   5.286
 2243SOL    HW2 7629   2.089   6.225   5.421
 2244SOL     OW 7630   4.051   0.316   3.054
 2244SOL    HW1 7631   4.045   0.216   3.050
 2244SOL    HW2 7632   4.131   0.342   3.109
 2245SOL     OW 7633   0.393   2.044   2.249
 2245SOL    HW1 7634   0.394   2.099   2.332
 2245SOL    HW2 7635   0.364   2.100   2.171
 2246SOL     OW 7636   1.707   1.928   5.339
 2246SOL    HW1 7637   1.635   1.869   5.376
 2246SOL    HW2 7638   1.687   2.023   5.362
 2247SOL     OW 7639   2.526   2.374   6.374
 2247SOL    HW1 7640   2.548   2.310   6.448
 2247SOL    HW2 7641   2.550   2.332   6.286
 2248SOL     OW 7642   5.081   4.200   5.842
 2248SOL    HW1 7643   5.142   4.122   5.856
 2248SOL    HW2 7644   5.125   4.267   5.783
 2249SOL     OW 7645   5.962   6.769   2.837
 2249SOL    HW1 7646   5.875   6.792   2.793
 2249SOL    HW2 7647   5.998   6.850   2.883
 2250SOL     OW 7648   5.175   3.918   1.047
 2250SOL    HW1 7649   5.223   3.873   0.972
 2250SOL    HW2 7650   5.146   4.009   1.018
 2251SOL     OW 7651   5.745   1.652   0.416
 2251SOL    HW1 7652   5.801   1.576   0.449
 2251SOL    HW2 7653   5.668   1.617   0.363
 2252SOL     OW 7654   6.322   2.579   5.059
 2252SOL    HW1 7655   6.319   2.672   5.095
 2252SOL    HW2 7656   6.229   2.546   5.045
 2253SOL     OW 7657   0.594   2.997   6.530
 2253SOL    HW1 7658   0.535   3.013   6.451
 2253SOL    HW2 7659   0.671   3.060   6.528
 2254SOL     OW 7660   2.087   2.732   5.745
 2254SOL    HW1 7661   2.174   2.683   5.746
 2254SOL    HW2 7662   2.011   2.666   5.746
 2255SOL     OW 7663   6.592   2.222   0.888
 2255SOL    HW1 7664   6.595   2.187   0.794
 2255SOL    HW2 7665   6.497   2.240   0.915
 2256SOL     OW 7666   4.001   5.839   1.924
 2256SOL    HW1 7667   3.980   5.935   1.911
 2256SOL    HW2 7668   3.975   5.811   2.017
 2257SOL     OW 7669   0.887   2.630   4.639
 2257SOL    HW1 7670   0.870   2.686   4.558
 2257SOL    HW2 7671   0.891   2.688   4.720
 2258SOL     OW 7672   1.570   5.973   4.361
 2258SOL    HW1 7673   1.581   5.882   4.323
 2258SOL    HW2 7674   1.500   6.023   4.310
 2259SOL     OW 7675   4.896   3.553   6.284
 2259SOL    HW1 7676   4.959   3.487   6.326
 2259SOL    HW2 7677   4.902   3.546   6.185
 2260SOL     OW 7678   4.711   4.125   3.031
 2260SOL    HW1 7679   4.770   4.187   2.980
 2260SOL    HW2 7680   4.745   4.032   3.022
 2261SOL     OW 7681   5.938   6.251   0.623
 2261SOL    HW1 7682   6.010   6.294   0.677
 2261SOL    HW2 7683   5.852   6.253   0.675
 2262SOL     OW 7684   5.945   2.199   2.914
 2262SOL    HW1 7685   5.883   2.271   2.885
 2262SOL    HW2 7686   5.983   2.153   2.834
 2263SOL     OW 7687   2.610   5.710   6.071
 2263SOL    HW1 7688   2.538   5.646   6.044
 2263SOL    HW2 7689   2.698   5.663   6.072
 2264SOL     OW 7690   3.261   4.103   2.284
 2264SOL    HW1 7691   3.358   4.110   2.309
 2264SOL    HW2 7692   3.244   4.161   2.204
 2265SOL     OW 7693   0.480   1.109   3.568
 2265SOL    HW1 7694   0.392   1.063   3.560
 2265SOL    HW2 7695   0.492   1.143   3.662
 2266SOL     OW 7696   6.842   1.611   0.924
 2266SOL    HW1 7697   6.754   1.644   0.888
 2266SOL    HW2 7698   6.910   1.611   0.851
 2267SOL     OW 7699   5.354   2.595   4.590
 2267SOL    HW1 7700   5.317   2.508   4.621
 2267SOL    HW2 7701   5.439   2.615   4.640
 2268SOL     OW 7702   6.951   5.267   0.363
 2268SOL    HW1 7703   6.917   5.357   0.390
 2268SOL    HW2 7704   6.874   5.209   0.339
 2269SOL     OW 7705   6.246   5.869   5.280
 2269SOL    HW1 7706   6.204   5.826   5.360
 2269SOL    HW2 7707   6.250   5.968   5.294
 2270SOL     OW 7708   3.550   4.051   0.971
 2270SOL    HW1 7709   3.565   4.087   0.878
 2270SOL    HW2 7710   3.521   3.956   0.965
 2271SOL     OW 7711   6.331   3.833   1.208
 2271SOL    HW1 7712   6.366   3.758   1.264
 2271SOL    HW2 7713   6.362   3.820   1.113
 2272SOL     OW 7714   6.276   2.190   4.786
 2272SOL    HW1 7715   6.321   2.102   4.798
 2272SOL    HW2 7716   6.210   2.204   4.859
 2273SOL     OW 7717   1.957   2.089   2.739
 2273SOL    HW1 7718   1.872   2.104   2.789
 2273SOL    HW2 7719   1.968   1.991   2.721
 2274SOL     OW 7720   1.536   3.342   5.029
 2274SOL    HW1 7721   1.511   3.252   5.063
 2274SOL    HW2 7722   1.629   3.364   5.058
 2275SOL     OW 7723   4.637   6.644   4.544
 2275SOL    HW1 7724   4.622   6.622   4.448
 2275SOL    HW2 7725   4.707   6.716   4.551
 2276SOL     OW 7726   3.695   5.102   1.116
 2276SOL    HW1 7727   3.752   5.024   1.142
 2276SOL    HW2 7728   3.599   5.072   1.112
 2277SOL     OW 7729   3.123   3.587   4.731
 2277SOL    HW1 7730   3.193   3.516   4.725
 2277SOL    HW2 7731   3.055   3.561   4.800
 2278SOL     OW 7732   4.566   6.602   3.694
 2278SOL    HW1 7733   4.478   6.604   3.743
 2278SOL    HW2 7734   4.637   6.640   3.753
 2279SOL     OW 7735   5.657   4.596   4.296
 2279SOL    HW1 7736   5.743   4.617   4.250
 2279SOL    HW2 7737   5.658   4.501   4.327
 2280SOL     OW 7738   6.396   6.451   4.969
 2280SOL    HW1 7739   6.388   6.550   4.971
 2280SOL    HW2 7740   6.314   6.410   5.011
 2281SOL     OW 7741   3.446   1.333   1.873
 2281SOL    HW1 7742   3.455   1.328   1.774
 2281SOL    HW2 7743   3.537   1.322   1.915
 2282SOL     OW 7744   5.329   5.969   4.957
 2282SOL    HW1 7745   5.376   5.902   5.015
 2282SOL    HW2 7746   5.253   6.009   5.007
 2283SOL     OW 7747   6.942   3.305   1.977
 2283SOL    HW1 7748   6.990   3.344   1.898
 2283SOL    HW2 7749   6.844   3.307   1.960
 2284SOL     OW 7750   2.474   1.863   1.879
 2284SOL    HW1 7751   2.438   1.779   1.920
 2284SOL    HW2 7752   2.462   1.861   1.780
 2285SOL     OW 7753   1.462   3.359   6.923
 2285SOL    HW1 7754   1.520   3.434   6.956
 2285SOL    HW2 7755   1.395   3.396   6.858
 2286SOL     OW 7756   6.549   6.027   4.966
 2286SOL    HW1 7757   6.615   6.004   5.037
 2286SOL    HW2 7758   6.568   6.118   4.930
 2287SOL     OW 7759   2.661   2.822   1.679
 2287SOL    HW1 7760   2.614   2.863   1.601
 2287SOL    HW2 7761   2.607   2.744   1.713
 2288SOL     OW 7762   0.283   6.211   4.162
 2288SOL    HW1 7763   0.189   6.182   4.182
 2288SOL    HW2 7764   0.331   6.230   4.247
 2289SOL     OW 7765   5.806   3.169   1.987
 2289SOL    HW1 7766   5.749   3.101   2.033
 2289SOL    HW2 7767   5.754   3.253   1.973
 2290SOL     OW 7768   3.143   3.281   2.022
 2290SOL    HW1 7769   3.064   3.332   2.054
 2290SOL    HW2 7770   3.145   3.191   2.066
 2291SOL     OW 7771   2.119   2.030   1.020
 2291SOL    HW1 7772   2.022   2.037   1.040
 2291SOL    HW2 7773   2.147   1.934   1.020
 2292SOL     OW 7774   5.138   3.326   3.911
 2292SOL    HW1 7775   5.133   3.421   3.878
 2292SOL    HW2 7776   5.060   3.275   3.875
 2293SOL     OW 7777   5.966   1.245   0.674
 2293SOL    HW1 7778   5.896   1.175   0.693
 2293SOL    HW2 7779   5.925   1.336   0.680
 2294SOL     OW 7780   2.857   2.223   6.506
 2294SOL    HW1 7781   2.951   2.231   6.538
 2294SOL    HW2 7782   2.818   2.137   6.540
 2295SOL     OW 7783   6.709   0.933   2.343
 2295SOL    HW1 7784   6.622   0.898   2.377
 2295SOL    HW2 7785   6.761   0.973   2.419
 2296SOL     OW 7786   2.739   4.964   2.710
 2296SOL    HW1 7787   2.754   4.875   2.754
 2296SOL    HW2 7788   2.747   5.036   2.778
 2297SOL     OW 7789   4.541   4.684   6.110
 2297SOL    HW1 7790   4.594   4.655   6.190
 2297SOL    HW2 7791   4.451   4.715   6.138
 2298SOL     OW 7792   3.530   3.394   3.250
 2298SOL    HW1 7793   3.627   3.393   3.273
 2298SOL    HW2 7794   3.508   3.313   3.195
 2299SOL     OW 7795   4.722   4.058   5.062
 2299SOL    HW1 7796   4.799   4.108   5.101
 2299SOL    HW2 7797   4.644   4.119   5.053
 2300SOL     OW 7798   3.598   6.767   3.401
 2300SOL    HW1 7799   3.686   6.793   3.441
 2300SOL    HW2 7800   3.548   6.849   3.374
 2301SOL     OW 7801   3.575   2.921   3.925
 2301SOL    HW1 7802   3.475   2.925   3.928
 2301SOL    HW2 7803   3.613   3.004   3.965
 2302SOL     OW 7804   3.427   0.380   1.494
 2302SOL    HW1 7805   3.480   0.419   1.419
 2302SOL    HW2 7806   3.341   0.430   1.504
 2303SOL     OW 7807   2.540   2.959   1.457
 2303SOL    HW1 7808   2.540   3.056   1.433
 2303SOL    HW2 7809   2.446   2.925   1.458
 2304SOL     OW 7810   5.968   5.575   3.805
 2304SOL    HW1 7811   6.032   5.645   3.836
 2304SOL    HW2 7812   5.988   5.488   3.850
 2305SOL     OW 7813   2.077   0.370   3.972
 2305SOL    HW1 7814   2.076   0.422   3.887
 2305SOL    HW2 7815   2.171   0.345   3.996
 2306SOL     OW 7816   1.617   4.771   2.397
 2306SOL    HW1 7817   1.678   4.703   2.436
 2306SOL    HW2 7818   1.662   4.817   2.320
 2307SOL     OW 7819   0.929   3.450   5.341
 2307SOL    HW1 7820   0.890   3.428   5.431
 2307SOL    HW2 7821   1.016   3.401   5.329
 2308SOL     OW 7822   2.800   4.653   1.428
 2308SOL    HW1 7823   2.857   4.600   1.364
 2308SOL    HW2 7824   2.814   4.750   1.411
 2309SOL     OW 7825   1.566   0.601   3.940
 2309SOL    HW1 7826   1.598   0.601   3.845
 2309SOL    HW2 7827   1.466   0.593   3.941
 2310SOL     OW 7828   6.247   6.530   1.948
 2310SOL    HW1 7829   6.211   6.513   1.856
 2310SOL    HW2 7830   6.243   6.445   2.001
 2311SOL     OW 7831   2.394   5.858   6.717
 2311SOL    HW1 7832   2.312   5.823   6.673
 2311SOL    HW2 7833   2.406   5.954   6.691
 2312SOL     OW 7834   4.070   5.348   3.344
 2312SOL    HW1 7835   3.996   5.325   3.280
 2312SOL    HW2 7836   4.157   5.351   3.295
 2313SOL     OW 7837   5.115   4.895   1.883
 2313SOL    HW1 7838   5.100   4.990   1.855
 2313SOL    HW2 7839   5.093   4.834   1.806
 2314SOL     OW 7840   3.643   6.564   2.916
 2314SOL    HW1 7841   3.692   6.486   2.956
 2314SOL    HW2 7842   3.703   6.644   2.917
 2315SOL     OW 7843   5.348   3.627   5.941
 2315SOL    HW1 7844   5.263   3.655   5.984
 2315SOL    HW2 7845   5.336   3.626   5.841
 2316SOL     OW 7846   5.200   1.962   3.425
 2316SOL    HW1 7847   5.286   2.008   3.449
 2316SOL    HW2 7848   5.123   2.021   3.448
 2317SOL     OW 7849   0.402   4.954   3.103
 2317SOL    HW1 7850   0.470   4.899   3.054
 2317SOL    HW2 7851   0.385   4.913   3.192
 2318SOL     OW 7852   6.946   2.649   3.766
 2318SOL    HW1 7853   0.026   2.649   3.744
 2318SOL    HW2 7854   6.894   2.618   3.687
 2319SOL     OW 7855   1.684   4.402   4.950
 2319SOL    HW1 7856   1.751   4.476   4.944
 2319SOL    HW2 7857   1.627   4.401   4.867
 2320SOL     OW 7858   6.891   2.827   4.561
 2320SOL    HW1 7859   6.934   2.801   4.647
 2320SOL    HW2 7860   6.961   2.840   4.491
 2321SOL     OW 7861   3.650   0.587   5.364
 2321SOL    HW1 7862   3.590   0.531   5.308
 2321SOL    HW2 7863   3.647   0.682   5.332
 2322SOL     OW 7864   2.358   1.630   5.560
 2322SOL    HW1 7865   2.290   1.658   5.493
 2322SOL    HW2 7866   2.315   1.576   5.632
 2323SOL     OW 7867   3.245   5.134   3.053
 2323SOL    HW1 7868   3.204   5.081   3.128
 2323SOL    HW2 7869   3.172   5.174   2.997
 2324SOL     OW 7870   0.316   6.061   2.632
 2324SOL    HW1 7871   0.235   6.109   2.665
 2324SOL    HW2 7872   0.391   6.126   2.621
 2325SOL     OW 7873   1.120   3.778   1.795
 2325SOL    HW1 7874   1.032   3.823   1.777
 2325SOL    HW2 7875   1.132   3.766   1.893
 2326SOL     OW 7876   2.187   3.836   6.014
 2326SOL    HW1 7877   2.127   3.779   6.071
 2326SOL    HW2 7878   2.272   3.854   6.064
 2327SOL     OW 7879   4.633   2.256   4.597
 2327SOL    HW1 7880   4.598   2.344   4.568
 2327SOL    HW2 7881   4.596   2.232   4.687
 2328SOL     OW 7882   4.992   0.984   3.473
 2328SOL    HW1 7883   5.063   1.034   3.524
 2328SOL    HW2 7884   4.939   1.049   3.419
 2329SOL     OW 7885   1.572   5.404   4.010
 2329SOL    HW1 7886   1.506   5.413   3.935
 2329SOL    HW2 7887   1.586   5.307   4.030
 2330SOL     OW 7888   6.937   4.791   2.168
 2330SOL    HW1 7889   0.015   4.768   2.151
 2330SOL    HW2 7890   6.928   4.889   2.182
 2331SOL     OW 7891   6.598   4.658   6.290
 2331SOL    HW1 7892   6.681   4.685   6.242
 2331SOL    HW2 7893   6.540   4.605   6.228
 2332SOL     OW 7894   5.075   2.151   5.693
 2332SOL    HW1 7895   5.157   2.101   5.720
 2332SOL    HW2 7896   5.023   2.097   5.627
 2333SOL     OW 7897   0.327   5.175   2.492
 2333SOL    HW1 7898   0.413   5.225   2.482
 2333SOL    HW2 7899   0.328   5.122   2.577
 2334SOL     OW 7900   3.218   0.242   6.922
 2334SOL    HW1 7901   3.286   0.291   6.977
 2334SOL    HW2 7902   3.184   0.163   6.972
 2335SOL     OW 7903   6.283   1.501   3.424
 2335SOL    HW1 7904   6.256   1.507   3.327
 2335SOL    HW2 7905   6.378   1.473   3.430
 2336SOL     OW 7906   4.647   1.296   5.481
 2336SOL    HW1 7907   4.656   1.209   5.432
 2336SOL    HW2 7908   4.555   1.332   5.468
 2337SOL     OW 7909   5.064   0.313   3.205
 2337SOL    HW1 7910   5.034   0.282   3.115
 2337SOL    HW2 7911   5.082   0.411   3.203
 2338SOL     OW 7912   0.942   0.163   0.132
 2338SOL    HW1 7913   0.974   0.241   0.078
 2338SOL    HW2 7914   1.020   0.106   0.158
 2339SOL     OW 7915   3.284   3.231   5.678
 2339SOL    HW1 7916   3.317   3.301   5.615
 2339SOL    HW2 7917   3.330   3.144   5.658
 2340SOL     OW 7918   3.749   6.492   5.667
 2340SOL    HW1 7919   3.716   6.545   5.590
 2340SOL    HW2 7920   3.806   6.550   5.726
 2341SOL     OW 7921   5.190   4.016   0.304
 2341SOL    HW1 7922   5.153   4.062   0.385
 2341SOL    HW2 7923   5.243   3.936   0.333
 2342SOL     OW 7924   0.754   6.652   5.061
 2342SOL    HW1 7925   0.853   6.666   5.060
 2342SOL    HW2 7926   0.708   6.740   5.053
 2343SOL     OW 7927   1.585   6.747   0.971
 2343SOL    HW1 7928   1.494   6.712   0.991
 2343SOL    HW2 7929   1.638   6.679   0.921
 2344SOL     OW 7930   2.578   1.915   2.532
 2344SOL    HW1 7931   2.632   1.983   2.583
 2344SOL    HW2 7932   2.617   1.903   2.441
 2345SOL     OW 7933   1.437   0.110   5.273
 2345SOL    HW1 7934   1.467   0.205   5.273
 2345SOL    HW2 7935   1.360   0.099   5.336
 2346SOL     OW 7936   4.768   2.716   5.447
 2346SOL    HW1 7937   4.780   2.687   5.353
 2346SOL    HW2 7938   4.856   2.747   5.483
 2347SOL     OW 7939   1.847   4.249   2.149
 2347SOL    HW1 7940   1.944   4.265   2.168
 2347SOL    HW2 7941   1.792   4.316   2.200
 2348SOL     OW 7942   2.144   6.493   3.456
 2348SOL    HW1 7943   2.110   6.400   3.468
 2348SOL    HW2 7944   2.066   6.557   3.452
 2349SOL     OW 7945   0.327   5.952   6.357
 2349SOL    HW1 7946   0.387   5.982   6.432
 2349SOL    HW2 7947   0.238   5.998   6.365
 2350SOL     OW 7948   3.406   0.394   5.771
 2350SOL    HW1 7949   3.323   0.340   5.780
 2350SOL    HW2 7950   3.390   0.487   5.802
 2351SOL     OW 7951   3.204   5.016   3.638
 2351SOL    HW1 7952   3.199   4.947   3.565
 2351SOL    HW2 7953   3.299   5.031   3.663
 2352SOL     OW 7954   6.367   4.119   3.641
 2352SOL    HW1 7955   6.435   4.070   3.587
 2352SOL    HW2 7956   6.335   4.199   3.590
 2353SOL     OW 7957   2.471   4.103   5.369
 2353SOL    HW1 7958   2.418   4.045   5.308
 2353SOL    HW2 7959   2.562   4.117   5.331
 2354SOL     OW 7960   3.485   2.448   0.005
 2354SOL    HW1 7961   3.525   2.530   0.047
 2354SOL    HW2 7962   3.499   2.452   6.923
 2355SOL     OW 7963   1.045   6.775   0.538
 2355SOL    HW1 7964   1.138   6.746   0.561
 2355SOL    HW2 7965   1.034   6.872   0.559
 2356SOL     OW 7966   2.198   4.658   1.864
 2356SOL    HW1 7967   2.195   4.605   1.779
 2356SOL    HW2 7968   2.117   4.637   1.919
 2357SOL     OW 7969   5.057   4.818   4.236
 2357SOL    HW1 7970   5.018   4.734   4.274
 2357SOL    HW2 7971   5.157   4.815   4.243
 2358SOL     OW 7972   3.097   6.588   3.953
 2358SOL    HW1 7973   3.071   6.684   3.945
 2358SOL    HW2 7974   3.185   6.573   3.907
 2359SOL     OW 7975   2.972   1.446   5.886
 2359SOL    HW1 7976   2.902   1.512   5.911
 2359SOL    HW2 7977   2.964   1.365   5.944
 2360SOL     OW 7978   3.985   4.984   6.977
 2360SOL    HW1 7979   4.004   5.077   7.008
 2360SOL    HW2 7980   4.017   4.918   0.028
 2361SOL     OW 7981   2.962   0.124   3.361
 2361SOL    HW1 7982   2.913   0.202   3.322
 2361SOL    HW2 7983   2.977   0.055   3.291
 2362SOL     OW 7984   4.803   6.204   5.189
 2362SOL    HW1 7985   4.886   6.259   5.187
 2362SOL    HW2 7986   4.724   6.263   5.209
 2363SOL     OW 7987   4.185   2.106   5.482
 2363SOL    HW1 7988   4.170   2.168   5.405
 2363SOL    HW2 7989   4.219   2.157   5.560
 2364SOL     OW 7990   5.457   1.887   1.494
 2364SOL    HW1 7991   5.482   1.859   1.587
 2364SOL    HW2 7992   5.369   1.847   1.469
 2365SOL     OW 7993   6.031   4.731   5.104
 2365SOL    HW1 7994   5.935   4.733   5.130
 2365SOL    HW2 7995   6.072   4.821   5.118
 2366SOL     OW 7996   0.992   4.220   5.730
 2366SOL    HW1 7997   0.988   4.125   5.759
 2366SOL    HW2 7998   1.057   4.230   5.655
 2367SOL     OW 7999   0.542   3.403   5.529
 2367SOL    HW1 8000   0.580   3.495   5.529
 2367SOL    HW2 8001   0.451   3.405   5.488
 2368SOL     OW 8002   4.414   0.746   4.816
 2368SOL    HW1 8003   4.347   0.793   4.875
 2368SOL    HW2 8004   4.474   0.814   4.773
 2369SOL     OW 8005   2.931   2.077   3.742
 2369SOL    HW1 8006   2.838   2.044   3.759
 2369SOL    HW2 8007   2.994   2.038   3.809
 2370SOL     OW 8008   4.296   2.810   0.765
 2370SOL    HW1 8009   4.274   2.732   0.707
 2370SOL    HW2 8010   4.389   2.800   0.801
 2371SOL     OW 8011   0.983   6.328   2.588
 2371SOL    HW1 8012   1.083   6.333   2.593
 2371SOL    HW2 8013   0.948   6.287   2.672
 2372SOL     OW 8014   6.972   0.558   6.777
 2372SOL    HW1 8015   7.008   0.597   6.862
 2372SOL    HW2 8016   6.993   0.461   6.774
 2373SOL     OW 8017   6.500   0.909   5.884
 2373SOL    HW1 8018   6.407   0.890   5.916
 2373SOL    HW2 8019   6.563   0.840   5.920
 2374SOL     OW 8020   5.714   6.259   3.048
 2374SOL    HW1 8021   5.650   6.290   3.119
 2374SOL    HW2 8022   5.807   6.279   3.076
 2375SOL     OW 8023   0.679   0.606   3.481
 2375SOL    HW1 8024   0.711   0.584   3.389
 2375SOL    HW2 8025   0.581   0.587   3.487
 2376SOL     OW 8026   6.370   2.514   3.560
 2376SOL    HW1 8027   6.339   2.606   3.583
 2376SOL    HW2 8028   6.444   2.520   3.492
 2377SOL     OW 8029   3.500   4.086   5.788
 2377SOL    HW1 8030   3.460   4.160   5.733
 2377SOL    HW2 8031   3.522   4.009   5.729
 2378SOL     OW 8032   5.392   1.987   6.977
 2378SOL    HW1 8033   5.431   1.956   0.046
 2378SOL    HW2 8034   5.434   1.936   6.901
 2379SOL     OW 8035   6.761   4.548   0.205
 2379SOL    HW1 8036   6.724   4.522   0.116
 2379SOL    HW2 8037   6.717   4.494   0.277
 2380SOL     OW 8038   6.260   1.619   5.144
 2380SOL    HW1 8039   6.219   1.540   5.191
 2380SOL    HW2 8040   6.213   1.635   5.058
 2381SOL     OW 8041   2.212   5.084   4.863
 2381SOL    HW1 8042   2.262   4.999   4.848
 2381SOL    HW2 8043   2.121   5.062   4.898
 2382SOL     OW 8044   1.966   6.263   2.873
 2382SOL    HW1 8045   1.884   6.234   2.924
 2382SOL    HW2 8046   2.004   6.184   2.826
 2383SOL     OW 8047   5.095   5.377   5.688
 2383SOL    HW1 8048   5.154   5.353   5.765
 2383SOL    HW2 8049   5.150   5.420   5.617
 2384SOL     OW 8050   1.234   2.370   1.008
 2384SOL    HW1 8051   1.228   2.397   0.913
 2384SOL    HW2 8052   1.148   2.325   1.035
 2385SOL     OW 8053   0.941   1.199   0.045
 2385SOL    HW1 8054   1.017   1.150   0.001
 2385SOL    HW2 8055   0.868   1.135   0.066
 2386SOL     OW 8056   3.412   4.960   4.806
 2386SOL    HW1 8057   3.400   4.894   4.880
 2386SOL    HW2 8058   3.332   4.958   4.746
 2387SOL     OW 8059   6.529   3.653   4.292
 2387SOL    HW1 8060   6.568   3.720   4.356
 2387SOL    HW2 8061   6.591   3.576   4.282
 2388SOL     OW 8062   0.231   1.422   5.682
 2388SOL    HW1 8063   0.169   1.368   5.739
 2388SOL    HW2 8064   0.195   1.428   5.589
 2389SOL     OW 8065   4.998   4.569   4.370
 2389SOL    HW1 8066   4.987   4.476   4.335
 2389SOL    HW2 8067   5.035   4.565   4.463
 2390SOL     OW 8068   3.412   3.856   5.174
 2390SOL    HW1 8069   3.445   3.918   5.245
 2390SOL    HW2 8070   3.424   3.761   5.204
 2391SOL     OW 8071   3.922   3.960   5.966
 2391SOL    HW1 8072   3.865   4.015   5.906
 2391SOL    HW2 8073   4.017   3.989   5.958
 2392SOL     OW 8074   3.183   4.241   6.365
 2392SOL    HW1 8075   3.272   4.195   6.370
 2392SOL    HW2 8076   3.110   4.173   6.376
 2393SOL     OW 8077   4.185   5.315   1.294
 2393SOL    HW1 8078   4.138   5.389   1.247
 2393SOL    HW2 8079   4.162   5.228   1.251
 2394SOL     OW 8080   0.454   4.189   4.328
 2394SOL    HW1 8081   0.398   4.264   4.293
 2394SOL    HW2 8082   0.400   4.105   4.328
 2395SOL     OW 8083   0.064   3.226   0.137
 2395SOL    HW1 8084   0.016   3.201   0.053
 2395SOL    HW2 8085   7.015   3.241   0.210
 2396SOL     OW 8086   5.187   0.392   0.615
 2396SOL    HW1 8087   5.226   0.342   0.692
 2396SOL    HW2 8088   5.207   0.490   0.626
 2397SOL     OW 8089   0.020   4.604   0.083
 2397SOL    HW1 8090   0.050   4.522   0.034
 2397SOL    HW2 8091   6.945   4.590   0.117
 2398SOL     OW 8092   2.670   5.041   4.714
 2398SOL    HW1 8093   2.734   4.988   4.658
 2398SOL    HW2 8094   2.707   5.133   4.728
 2399SOL     OW 8095   3.709   2.145   3.603
 2399SOL    HW1 8096   3.769   2.157   3.524
 2399SOL    HW2 8097   3.615   2.131   3.571
 2400SOL     OW 8098   1.774   3.397   0.414
 2400SOL    HW1 8099   1.763   3.316   0.356
 2400SOL    HW2 8100   1.862   3.441   0.393
 2401SOL     OW 8101   3.418   0.294   3.831
 2401SOL    HW1 8102   3.422   0.393   3.814
 2401SOL    HW2 8103   3.325   0.269   3.858
 2402SOL     OW 8104   0.008   1.730   3.825
 2402SOL    HW1 8105   0.036   1.801   3.891
 2402SOL    HW2 8106   6.926   1.721   3.826
 2403SOL     OW 8107   3.614   3.484   0.867
 2403SOL    HW1 8108   3.587   3.406   0.811
 2403SOL    HW2 8109   3.694   3.528   0.827
 2404SOL     OW 8110   5.788   2.029   1.211
 2404SOL    HW1 8111   5.760   2.037   1.307
 2404SOL    HW2 8112   5.851   1.951   1.201
 2405SOL     OW 8113   2.995   5.044   5.810
 2405SOL    HW1 8114   3.078   5.098   5.824
 2405SOL    HW2 8115   3.019   4.947   5.809
 2406SOL     OW 8116   2.825   6.938   3.807
 2406SOL    HW1 8117   2.817   7.013   3.741
 2406SOL    HW2 8118   2.760   6.866   3.784
 2407SOL     OW 8119   4.381   2.230   2.847
 2407SOL    HW1 8120   4.404   2.323   2.818
 2407SOL    HW2 8121   4.344   2.179   2.769
 2408SOL     OW 8122   2.383   5.321   2.817
 2408SOL    HW1 8123   2.449   5.300   2.745
 2408SOL    HW2 8124   2.406   5.409   2.859
 2409SOL     OW 8125   2.645   3.022   0.688
 2409SOL    HW1 8126   2.628   2.939   0.740
 2409SOL    HW2 8127   2.561   3.052   0.644
 2410SOL     OW 8128   6.048   3.123   5.795
 2410SOL    HW1 8129   6.045   3.072   5.709
 2410SOL    HW2 8130   6.099   3.208   5.781
 2411SOL     OW 8131   2.653   3.935   5.853
 2411SOL    HW1 8132   2.649   4.033   5.834
 2411SOL    HW2 8133   2.608   3.884   5.780
 2412SOL     OW 8134   2.482   2.737   0.604
 2412SOL    HW1 8135   2.566   2.780   0.636
 2412SOL    HW2 8136   2.449   2.785   0.522
 2413SOL     OW 8137   5.563   3.538   6.639
 2413SOL    HW1 8138   5.495   3.491   6.582
 2413SOL    HW2 8139   5.649   3.545   6.590
 2414SOL     OW 8140   5.885   3.093   3.789
 2414SOL    HW1 8141   5.786   3.083   3.801
 2414SOL    HW2 8142   5.915   3.181   3.825
 2415SOL     OW 8143   2.340   0.190   1.250
 2415SOL    HW1 8144   2.286   0.197   1.167
 2415SOL    HW2 8145   2.355   0.281   1.289
 2416SOL     OW 8146   1.198   2.959   3.815
 2416SOL    HW1 8147   1.203   3.053   3.847
 2416SOL    HW2 8148   1.206   2.896   3.893
 2417SOL     OW 8149   4.567   1.916   6.864
 2417SOL    HW1 8150   4.643   1.855   6.887
 2417SOL    HW2 8151   4.601   1.993   6.811
 2418SOL     OW 8152   3.686   3.812   4.819
 2418SOL    HW1 8153   3.669   3.727   4.769
 2418SOL    HW2 8154   3.599   3.853   4.845
 2419SOL     OW 8155   1.893   6.788   4.271
 2419SOL    HW1 8156   1.829   6.730   4.322
 2419SOL    HW2 8157   1.905   6.750   4.179
 2420SOL     OW 8158   3.427   5.438   1.955
 2420SOL    HW1 8159   3.328   5.429   1.965
 2420SOL    HW2 8160   3.471   5.349   1.967
 2421SOL     OW 8161   3.637   0.041   4.061
 2421SOL    HW1 8162   3.716   6.997   4.059
 2421SOL    HW2 8163   3.625   0.082   3.971
 2422SOL     OW 8164   3.868   0.218   1.252
 2422SOL    HW1 8165   3.807   0.144   1.279
 2422SOL    HW2 8166   3.868   0.228   1.153
 2423SOL     OW 8167   1.374   5.415   1.008
 2423SOL    HW1 8168   1.470   5.404   1.031
 2423SOL    HW2 8169   1.364   5.423   0.909
 2424SOL     OW 8170   5.697   6.350   0.034
 2424SOL    HW1 8171   5.684   6.317   6.958
 2424SOL    HW2 8172   5.661   6.443   0.042
 2425SOL     OW 8173   4.965   6.542   6.017
 2425SOL    HW1 8174   4.977   6.582   5.927
 2425SOL    HW2 8175   5.049   6.552   6.070
 2426SOL     OW 8176   1.369   5.070   3.798
 2426SOL    HW1 8177   1.427   5.114   3.730
 2426SOL    HW2 8178   1.334   5.138   3.862
 2427SOL     OW 8179   5.195   5.645   7.008
 2427SOL    HW1 8180   5.173   5.712   0.061
 2427SOL    HW2 8181   5.146   5.560   0.009
 2428SOL     OW 8182   0.129   0.589   2.821
 2428SOL    HW1 8183   0.107   0.660   2.754
 2428SOL    HW2 8184   0.227   0.591   2.842
 2429SOL     OW 8185   5.579   4.888   2.728
 2429SOL    HW1 8186   5.673   4.872   2.756
 2429SOL    HW2 8187   5.546   4.810   2.674
 2430SOL     OW 8188   5.302   2.297   0.014
 2430SOL    HW1 8189   5.351   2.212   7.016
 2430SOL    HW2 8190   5.218   2.278   0.065
 2431SOL     OW 8191   5.118   1.668   1.231
 2431SOL    HW1 8192   5.082   1.709   1.147
 2431SOL    HW2 8193   5.214   1.695   1.242
 2432SOL     OW 8194   3.038   6.411   1.412
 2432SOL    HW1 8195   3.082   6.353   1.344
 2432SOL    HW2 8196   3.053   6.507   1.389
 2433SOL     OW 8197   1.545   6.885   0.239
 2433SOL    HW1 8198   1.549   6.857   0.144
 2433SOL    HW2 8199   1.600   6.968   0.252
 2434SOL     OW 8200   5.848   1.810   2.571
 2434SOL    HW1 8201   5.775   1.832   2.635
 2434SOL    HW2 8202   5.930   1.783   2.621
 2435SOL     OW 8203   5.839   5.009   6.867
 2435SOL    HW1 8204   5.747   4.979   6.840
 2435SOL    HW2 8205   5.835   5.047   6.959
 2436SOL     OW 8206   1.731   0.929   1.407
 2436SOL    HW1 8207   1.782   0.937   1.322
 2436SOL    HW2 8208   1.783   0.874   1.472
 2437SOL     OW 8209   5.510   6.680   0.898
 2437SOL    HW1 8210   5.419   6.657   0.933
 2437SOL    HW2 8211   5.512   6.777   0.873
 2438SOL     OW 8212   3.890   1.321   3.874
 2438SOL    HW1 8213   3.863   1.235   3.831
 2438SOL    HW2 8214   3.985   1.314   3.906
 2439SOL     OW 8215   0.494   4.808   0.759
 2439SOL    HW1 8216   0.464   4.856   0.842
 2439SOL    HW2 8217   0.450   4.850   0.680
 2440SOL     OW 8218   3.812   6.935   6.177
 2440SOL    HW1 8219   3.879   6.942   6.250
 2440SOL    HW2 8220   3.752   6.856   6.194
 2441SOL     OW 8221   5.897   1.408   0.320
 2441SOL    HW1 8222   5.994   1.397   0.340
 2441SOL    HW2 8223   5.882   1.497   0.278
 2442SOL     OW 8224   5.515   5.128   3.047
 2442SOL    HW1 8225   5.548   5.205   3.101
 2442SOL    HW2 8226   5.421   5.107   3.074
 2443SOL     OW 8227   2.807   0.637   6.998
 2443SOL    HW1 8228   2.735   0.682   0.033
 2443SOL    HW2 8229   2.883   0.615   0.041
 2444SOL     OW 8230   4.015   4.721   0.266
 2444SOL    HW1 8231   4.093   4.783   0.255
 2444SOL    HW2 8232   3.930   4.773   0.267
 2445SOL     OW 8233   5.685   1.421   1.723
 2445SOL    HW1 8234   5.767   1.390   1.771
 2445SOL    HW2 8235   5.711   1.460   1.635
 2446SOL     OW 8236   0.892   2.816   3.971
 2446SOL    HW1 8237   0.854   2.773   3.889
 2446SOL    HW2 8238   0.990   2.794   3.978
 2447SOL     OW 8239   2.410   0.763   0.976
 2447SOL    HW1 8240   2.335   0.708   0.939
 2447SOL    HW2 8241   2.433   0.836   0.911
 2448SOL     OW 8242   6.423   1.288   4.135
 2448SOL    HW1 8243   6.377   1.343   4.066
 2448SOL    HW2 8244   6.462   1.348   4.205
 2449SOL     OW 8245   1.413   3.443   1.420
 2449SOL    HW1 8246   1.342   3.512   1.404
 2449SOL    HW2 8247   1.473   3.474   1.494
 2450SOL     OW 8248   3.109   5.280   6.358
 2450SOL    HW1 8249   3.085   5.286   6.262
 2450SOL    HW2 8250   3.199   5.237   6.367
 2451SOL     OW 8251   1.666   0.630   3.355
 2451SOL    HW1 8252   1.625   0.562   3.295
 2451SOL    HW2 8253   1.731   0.685   3.303
 2452SOL     OW 8254   2.867   1.751   4.176
 2452SOL    HW1 8255   2.965   1.760   4.156
 2452SOL    HW2 8256   2.822   1.839   4.162
 2453SOL     OW 8257   0.260   3.057   0.175
 2453SOL    HW1 8258   0.331   3.056   0.104
 2453SOL    HW2 8259   0.192   3.127   0.152
 2454SOL     OW 8260   2.835   6.920   0.027
 2454SOL    HW1 8261   2.870   6.926   6.952
 2454SOL    HW2 8262   2.779   6.837   0.036
 2455SOL     OW 8263   4.502   0.770   0.606
 2455SOL    HW1 8264   4.479   0.687   0.555
 2455SOL    HW2 8265   4.595   0.798   0.584
 2456SOL     OW 8266   0.120   2.660   6.546
 2456SOL    HW1 8267   0.043   2.711   6.584
 2456SOL    HW2 8268   0.197   2.662   6.610
 2457SOL     OW 8269   6.437   0.924   6.407
 2457SOL    HW1 8270   6.500   0.846   6.402
 2457SOL    HW2 8271   6.457   0.987   6.332
 2458SOL     OW 8272   1.894   6.466   3.808
 2458SOL    HW1 8273   1.911   6.401   3.883
 2458SOL    HW2 8274   1.969   6.531   3.802
 2459SOL     OW 8275   2.676   6.638   5.932
 2459SOL    HW1 8276   2.719   6.705   5.871
 2459SOL    HW2 8277   2.603   6.591   5.883
 2460SOL     OW 8278   1.610   1.245   0.970
 2460SOL    HW1 8279   1.527   1.261   0.916
 2460SOL    HW2 8280   1.597   1.281   1.062
 2461SOL     OW 8281   5.205   0.383   4.045
 2461SOL    HW1 8282   5.118   0.409   4.087
 2461SOL    HW2 8283   5.193   0.375   3.946
 2462SOL     OW 8284   1.839   4.730   6.695
 2462SOL    HW1 8285   1.847   4.823   6.730
 2462SOL    HW2 8286   1.771   4.680   6.749
 2463SOL     OW 8287   5.850   2.160   6.777
 2463SOL    HW1 8288   5.754   2.160   6.748
 2463SOL    HW2 8289   5.855   2.145   6.876
 2464SOL     OW 8290   1.908   3.391   2.879
 2464SOL    HW1 8291   1.969   3.348   2.946
 2464SOL    HW2 8292   1.821   3.343   2.877
 2465SOL     OW 8293   1.018   6.597   6.549
 2465SOL    HW1 8294   0.921   6.616   6.538
 2465SOL    HW2 8295   1.071   6.656   6.488
 2466SOL     OW 8296   2.311   1.874   2.822
 2466SOL    HW1 8297   2.285   1.957   2.772
 2466SOL    HW2 8298   2.405   1.885   2.856
 2467SOL     OW 8299   5.116   1.560   5.261
 2467SOL    HW1 8300   5.202   1.602   5.290
 2467SOL    HW2 8301   5.088   1.492   5.328
 2468SOL     OW 8302   4.141   0.245   0.989
 2468SOL    HW1 8303   4.049   0.208   1.002
 2468SOL    HW2 8304   4.149   0.333   1.035
 2469SOL     OW 8305   4.126   3.641   4.619
 2469SOL    HW1 8306   4.067   3.603   4.548
 2469SOL    HW2 8307   4.203   3.688   4.576
 2470SOL     OW 8308   4.199   4.284   5.879
 2470SOL    HW1 8309   4.282   4.338   5.896
 2470SOL    HW2 8310   4.222   4.187   5.878
 2471SOL     OW 8311   2.983   6.120   0.338
 2471SOL    HW1 8312   3.057   6.170   0.294
 2471SOL    HW2 8313   2.987   6.024   0.310
 2472SOL     OW 8314   4.970   2.102   3.499
 2472SOL    HW1 8315   4.956   2.035   3.571
 2472SOL    HW2 8316   4.888   2.108   3.443
 2473SOL     OW 8317   1.090   3.618   4.470
 2473SOL    HW1 8318   1.044   3.706   4.474
 2473SOL    HW2 8319   1.029   3.550   4.429
 2474SOL     OW 8320   0.252   5.608   1.812
 2474SOL    HW1 8321   0.338   5.648   1.845
 2474SOL    HW2 8322   0.175   5.660   1.850
 2475SOL     OW 8323   3.902   0.750   2.474
 2475SOL    HW1 8324   3.974   0.685   2.498
 2475SOL    HW2 8325   3.943   0.841   2.461
 2476SOL     OW 8326   6.226   1.484   3.137
 2476SOL    HW1 8327   6.300   1.496   3.070
 2476SOL    HW2 8328   6.197   1.389   3.138
 2477SOL     OW 8329   4.324   1.395   2.872
 2477SOL    HW1 8330   4.268   1.409   2.953
 2477SOL    HW2 8331   4.372   1.480   2.849
 2478SOL     OW 8332   6.072   1.535   1.377
 2478SOL    HW1 8333   5.982   1.578   1.391
 2478SOL    HW2 8334   6.122   1.586   1.307
 2479SOL     OW 8335   0.684   2.637   2.601
 2479SOL    HW1 8336   0.766   2.640   2.544
 2479SOL    HW2 8337   0.708   2.603   2.692
 2480SOL     OW 8338   4.790   4.042   0.816
 2480SOL    HW1 8339   4.888   4.034   0.795
 2480SOL    HW2 8340   4.764   3.968   0.879
 2481SOL     OW 8341   3.798   6.207   0.248
 2481SOL    HW1 8342   3.775   6.245   0.338
 2481SOL    HW2 8343   3.897   6.207   0.237
 2482SOL     OW 8344   5.415   3.806   5.543
 2482SOL    HW1 8345   5.475   3.759   5.607
 2482SOL    HW2 8346   5.442   3.783   5.449
 2483SOL     OW 8347   1.932   1.678   0.271
 2483SOL    HW1 8348   2.029   1.692   0.292
 2483SOL    HW2 8349   1.924   1.614   0.194
 2484SOL     OW 8350   3.956   0.435   0.011
 2484SOL    HW1 8351   3.954   0.335   0.004
 2484SOL    HW2 8352   3.983   0.461   0.104
 2485SOL     OW 8353   6.197   3.733   1.691
 2485SOL    HW1 8354   6.206   3.686   1.779
 2485SOL    HW2 8355   6.101   3.756   1.676
 2486SOL     OW 8356   2.127   4.920   5.180
 2486SOL    HW1 8357   2.223   4.947   5.171
 2486SOL    HW2 8358   2.120   4.820   5.177
 2487SOL     OW 8359   4.310   6.331   0.255
 2487SOL    HW1 8360   4.335   6.411   0.311
 2487SOL    HW2 8361   4.300   6.360   0.160
 2488SOL     OW 8362   1.517   4.339   2.230
 2488SOL    HW1 8363   1.430   4.384   2.208
 2488SOL    HW2 8364   1.501   4.268   2.298
 2489SOL     OW 8365   1.461   6.772   3.550
 2489SOL    HW1 8366   1.491   6.709   3.621
 2489SOL    HW2 8367   1.506   6.861   3.563
 2490SOL     OW 8368   0.001   5.220   1.419
 2490SOL    HW1 8369   6.921   5.219   1.396
 2490SOL    HW2 8370   0.051   5.274   1.351
 2491SOL     OW 8371   2.202   4.809   0.379
 2491SOL    HW1 8372   2.247   4.726   0.410
 2491SOL    HW2 8373   2.193   4.873   0.455
 2492SOL     OW 8374   4.958   3.303   0.983
 2492SOL    HW1 8375   4.859   3.308   0.993
 2492SOL    HW2 8376   4.980   3.272   0.891
 2493SOL     OW 8377   5.806   0.076   2.151
 2493SOL    HW1 8378   5.904   0.055   2.146
 2493SOL    HW2 8379   5.760   0.042   2.069
 2494SOL     OW 8380   5.271   4.716   2.911
 2494SOL    HW1 8381   5.245   4.719   3.007
 2494SOL    HW2 8382   5.192   4.690   2.856
 2495SOL     OW 8383   4.974   6.592   4.381
 2495SOL    HW1 8384   4.968   6.685   4.344
 2495SOL    HW2 8385   5.035   6.591   4.460
 2496SOL     OW 8386   0.036   2.878   5.923
 2496SOL    HW1 8387   0.061   2.833   5.837
 2496SOL    HW2 8388   6.955   2.895   5.924
 2497SOL     OW 8389   0.481   0.433   0.769
 2497SOL    HW1 8390   0.516   0.376   0.843
 2497SOL    HW2 8391   0.411   0.382   0.718
 2498SOL     OW 8392   3.062   1.792   4.423
 2498SOL    HW1 8393   3.092   1.724   4.490
 2498SOL    HW2 8394   2.962   1.795   4.421
 2499SOL     OW 8395   6.332   2.455   2.019
 2499SOL    HW1 8396   6.254   2.409   1.977
 2499SOL    HW2 8397   6.413   2.441   1.962
 2500SOL     OW 8398   4.796   3.765   6.438
 2500SOL    HW1 8399   4.859   3.840   6.425
 2500SOL    HW2 8400   4.825   3.686   6.383
 2501SOL     OW 8401   6.035   5.167   0.825
 2501SOL    HW1 8402   6.031   5.069   0.806
 2501SOL    HW2 8403   6.064   5.216   0.743
 2502SOL     OW 8404   1.078   6.417   3.273
 2502SOL    HW1 8405   0.984   6.439   3.301
 2502SOL    HW2 8406   1.138   6.494   3.295
 2503SOL     OW 8407   2.497   6.021   4.454
 2503SOL    HW1 8408   2.438   6.099   4.435
 2503SOL    HW2 8409   2.523   5.977   4.368
 2504SOL     OW 8410   3.513   5.286   4.443
 2504SOL    HW1 8411   3.542   5.220   4.513
 2504SOL    HW2 8412   3.575   5.364   4.443
 2505SOL     OW 8413   1.050   6.689   2.950
 2505SOL    HW1 8414   0.971   6.630   2.963
 2505SOL    HW2 8415   1.093   6.707   3.038
 2506SOL     OW 8416   5.581   4.112   5.850
 2506SOL    HW1 8417   5.514   4.065   5.906
 2506SOL    HW2 8418   5.662   4.054   5.839
 2507SOL     OW 8419   0.222   3.682   0.432
 2507SOL    HW1 8420   0.187   3.759   0.485
 2507SOL    HW2 8421   0.322   3.685   0.432
 2508SOL     OW 8422   1.935   1.323   3.412
 2508SOL    HW1 8423   1.895   1.352   3.498
 2508SOL    HW2 8424   2.035   1.328   3.419
 2509SOL     OW 8425   6.963   3.359   0.762
 2509SOL    HW1 8426   7.002   3.329   0.675
 2509SOL    HW2 8427   0.008   3.337   0.836
 2510SOL     OW 8428   2.591   4.512   1.511
 2510SOL    HW1 8429   2.680   4.546   1.483
 2510SOL    HW2 8430   2.573   4.538   1.606
 2511SOL     OW 8431   3.653   2.067   4.610
 2511SOL    HW1 8432   3.557   2.050   4.588
 2511SOL    HW2 8433   3.661   2.097   4.705
 2512SOL     OW 8434   5.312   3.703   5.250
 2512SOL    HW1 8435   5.297   3.621   5.195
 2512SOL    HW2 8436   5.243   3.772   5.226
 2513SOL     OW 8437   1.813   4.483   5.274
 2513SOL    HW1 8438   1.815   4.525   5.183
 2513SOL    HW2 8439   1.742   4.413   5.277
 2514SOL     OW 8440   6.633   3.032   4.961
 2514SOL    HW1 8441   6.563   3.085   5.008
 2514SOL    HW2 8442   6.647   2.945   5.008
 2515SOL     OW 8443   1.973   6.810   0.816
 2515SOL    HW1 8444   2.071   6.797   0.831
 2515SOL    HW2 8445   1.938   6.877   0.881
 2516SOL     OW 8446   6.006   1.359   2.481
 2516SOL    HW1 8447   6.023   1.291   2.410
 2516SOL    HW2 8448   6.085   1.420   2.488
 2517SOL     OW 8449   1.297   6.350   5.731
 2517SOL    HW1 8450   1.390   6.344   5.695
 2517SOL    HW2 8451   1.285   6.284   5.806
 2518SOL     OW 8452   0.831   4.374   6.773
 2518SOL    HW1 8453   0.752   4.428   6.744
 2518SOL    HW2 8454   0.914   4.428   6.764
 2519SOL     OW 8455   4.152   6.742   3.351
 2519SOL    HW1 8456   4.096   6.823   3.332
 2519SOL    HW2 8457   4.244   6.770   3.378
 2520SOL     OW 8458   2.991   1.939   0.600
 2520SOL    HW1 8459   2.964   2.020   0.651
 2520SOL    HW2 8460   2.918   1.871   0.602
 2521SOL     OW 8461   1.751   1.022   5.347
 2521SOL    HW1 8462   1.717   1.096   5.289
 2521SOL    HW2 8463   1.842   0.994   5.317
 2522SOL     OW 8464   0.319   3.521   4.866
 2522SOL    HW1 8465   0.327   3.589   4.939
 2522SOL    HW2 8466   0.408   3.510   4.821
 2523SOL     OW 8467   0.116   3.115   1.446
 2523SOL    HW1 8468   0.038   3.157   1.399
 2523SOL    HW2 8469   0.149   3.037   1.393
 2524SOL     OW 8470   1.411   6.218   4.758
 2524SOL    HW1 8471   1.328   6.227   4.812
 2524SOL    HW2 8472   1.391   6.238   4.662
 2525SOL     OW 8473   1.087   2.496   5.515
 2525SOL    HW1 8474   1.035   2.475   5.598
 2525SOL    HW2 8475   1.162   2.430   5.506
 2526SOL     OW 8476   1.362   4.758   6.398
 2526SOL    HW1 8477   1.449   4.709   6.399
 2526SOL    HW2 8478   1.288   4.696   6.424
 2527SOL     OW 8479   5.194   5.750   4.825
 2527SOL    HW1 8480   5.102   5.786   4.810
 2527SOL    HW2 8481   5.252   5.823   4.862
 2528SOL     OW 8482   5.887   4.684   0.683
 2528SOL    HW1 8483   5.950   4.661   0.609
 2528SOL    HW2 8484   5.793   4.684   0.648
 2529SOL     OW 8485   6.429   6.670   6.424
 2529SOL    HW1 8486   6.431   6.620   6.338
 2529SOL    HW2 8487   6.518   6.714   6.439
 2530SOL     OW 8488   2.605   6.688   5.453
 2530SOL    HW1 8489   2.507   6.691   5.470
 2530SOL    HW2 8490   2.623   6.639   5.368
 2531SOL     OW 8491   5.168   6.011   4.124
 2531SOL    HW1 8492   5.242   5.997   4.189
 2531SOL    HW2 8493   5.080   5.993   4.170
 2532SOL     OW 8494   0.666   6.441   0.643
 2532SOL    HW1 8495   0.724   6.518   0.619
 2532SOL    HW2 8496   0.721   6.357   0.647
 2533SOL     OW 8497   3.387   6.496   3.771
 2533SOL    HW1 8498   3.315   6.505   3.703
 2533SOL    HW2 8499   3.399   6.399   3.794
 2534SOL     OW 8500   3.840   0.396   3.322
 2534SOL    HW1 8501   3.771   0.450   3.370
 2534SOL    HW2 8502   3.931   0.432   3.342
 2535SOL     OW 8503   3.721   2.096   4.994
 2535SOL    HW1 8504   3.680   2.004   4.986
 2535SOL    HW2 8505   3.651   2.161   5.023
 2536SOL     OW 8506   1.216   1.941   5.041
 2536SOL    HW1 8507   1.198   2.025   4.990
 2536SOL    HW2 8508   1.129   1.898   5.067
 2537SOL     OW 8509   4.046   0.369   6.581
 2537SOL    HW1 8510   3.976   0.405   6.643
 2537SOL    HW2 8511   4.076   0.280   6.613
 2538SOL     OW 8512   1.449   4.572   3.980
 2538SOL    HW1 8513   1.399   4.652   3.946
 2538SOL    HW2 8514   1.391   4.491   3.971
 2539SOL     OW 8515   5.346   1.536   5.544
 2539SOL    HW1 8516   5.297   1.460   5.502
 2539SOL    HW2 8517   5.315   1.548   5.639
 2540SOL     OW 8518   4.404   1.647   2.807
 2540SOL    HW1 8519   4.424   1.697   2.723
 2540SOL    HW2 8520   4.326   1.689   2.854
 2541SOL     OW 8521   2.690   6.962   5.213
 2541SOL    HW1 8522   2.678   6.947   5.115
 2541SOL    HW2 8523   2.602   6.952   5.259
 2542SOL     OW 8524   3.749   1.567   5.997
 2542SOL    HW1 8525   3.745   1.665   6.019
 2542SOL    HW2 8526   3.691   1.516   6.060
 2543SOL     OW 8527   1.352   1.521   3.195
 2543SOL    HW1 8528   1.259   1.521   3.229
 2543SOL    HW2 8529   1.361   1.455   3.121
 2544SOL     OW 8530   0.476   6.017   1.297
 2544SOL    HW1 8531   0.518   6.098   1.256
 2544SOL    HW2 8532   0.449   6.036   1.391
 2545SOL     OW 8533   0.954   0.194   1.387
 2545SOL    HW1 8534   0.895   0.157   1.459
 2545SOL    HW2 8535   0.947   0.294   1.386
 2546SOL     OW 8536   0.205   1.580   1.296
 2546SOL    HW1 8537   0.119   1.558   1.342
 2546SOL    HW2 8538   0.282   1.547   1.351
 2547SOL     OW 8539   6.210   5.447   0.459
 2547SOL    HW1 8540   6.146   5.482   0.390
 2547SOL    HW2 8541   6.251   5.524   0.508
 2548SOL     OW 8542   1.979   6.544   5.930
 2548SOL    HW1 8543   1.957   6.625   5.985
 2548SOL    HW2 8544   1.950   6.462   5.980
 2549SOL     OW 8545   2.478   1.267   0.614
 2549SOL    HW1 8546   2.464   1.286   0.517
 2549SOL    HW2 8547   2.568   1.226   0.628
 2550SOL     OW 8548   0.343   7.008   6.337
 2550SOL    HW1 8549   0.415   6.963   6.285
 2550SOL    HW2 8550   0.288   0.048   6.275
 2551SOL     OW 8551   3.443   5.321   0.636
 2551SOL    HW1 8552   3.409   5.233   0.603
 2551SOL    HW2 8553   3.438   5.323   0.736
 2552SOL     OW 8554   2.300   5.701   5.502
 2552SOL    HW1 8555   2.346   5.706   5.591
 2552SOL    HW2 8556   2.222   5.639   5.508
 2553SOL     OW 8557   4.812   2.631   5.190
 2553SOL    HW1 8558   4.833   2.720   5.149
 2553SOL    HW2 8559   4.844   2.559   5.129
 2554SOL     OW 8560   2.289   6.496   0.504
 2554SOL    HW1 8561   2.221   6.481   0.575
 2554SOL    HW2 8562   2.303   6.411   0.453
 2555SOL     OW 8563   5.912   6.991   5.823
 2555SOL    HW1 8564   5.830   6.964   5.874
 2555SOL    HW2 8565   5.956   0.050   5.870
 2556SOL     OW 8566   4.703   5.755   0.875
 2556SOL    HW1 8567   4.704   5.695   0.955
 2556SOL    HW2 8568   4.651   5.712   0.802
 2557SOL     OW 8569   2.699   3.692   6.715
 2557SOL    HW1 8570   2.797   3.679   6.731
 2557SOL    HW2 8571   2.656   3.604   6.699
 2558SOL     OW 8572   5.045   1.828   5.147
 2558SOL    HW1 8573   5.017   1.732   5.154
 2558SOL    HW2 8574   5.038   1.871   5.237
 2559SOL     OW 8575   6.797   3.972   4.384
 2559SOL    HW1 8576   6.848   3.929   4.310
 2559SOL    HW2 8577   6.772   4.065   4.357
 2560SOL     OW 8578   5.806   3.361   4.563
 2560SOL    HW1 8579   5.882   3.403   4.613
 2560SOL    HW2 8580   5.824   3.366   4.465
 2561SOL     OW 8581   3.604   6.072   4.889
 2561SOL    HW1 8582   3.644   6.123   4.965
 2561SOL    HW2 8583   3.531   6.013   4.923
 2562SOL     OW 8584   1.349   5.187   2.212
 2562SOL    HW1 8585   1.337   5.285   2.230
 2562SOL    HW2 8586   1.405   5.175   2.130
 2563SOL     OW 8587   4.496   2.445   0.267
 2563SOL    HW1 8588   4.406   2.440   0.311
 2563SOL    HW2 8589   4.500   2.378   0.193
 2564SOL     OW 8590   2.164   6.149   6.017
 2564SOL    HW1 8591   2.082   6.133   5.961
 2564SOL    HW2 8592   2.239   6.180   5.959
 2565SOL     OW 8593   0.734   0.442   6.660
 2565SOL    HW1 8594   0.640   0.475   6.650
 2565SOL    HW2 8595   0.740   0.347   6.629
 2566SOL     OW 8596   2.587   0.020   0.594
 2566SOL    HW1 8597   2.664   0.045   0.652
 2566SOL    HW2 8598   2.580   0.086   0.518
 2567SOL     OW 8599   0.670   0.960   1.508
 2567SOL    HW1 8600   0.622   0.873   1.500
 2567SOL    HW2 8601   0.658   1.013   1.424
 2568SOL     OW 8602   4.063   0.026   0.496
 2568SOL    HW1 8603   4.144   7.008   0.450
 2568SOL    HW2 8604   4.091   0.097   0.561
 2569SOL     OW 8605   3.234   1.675   1.584
 2569SOL    HW1 8606   3.210   1.590   1.538
 2569SOL    HW2 8607   3.327   1.702   1.559
 2570SOL     OW 8608   5.524   0.290   6.403
 2570SOL    HW1 8609   5.548   0.199   6.434
 2570SOL    HW2 8610   5.434   0.288   6.360
 2571SOL     OW 8611   2.339   4.324   5.314
 2571SOL    HW1 8612   2.394   4.241   5.321
 2571SOL    HW2 8613   2.246   4.301   5.287
 2572SOL     OW 8614   2.043   4.966   0.200
 2572SOL    HW1 8615   2.057   4.939   0.105
 2572SOL    HW2 8616   2.113   4.923   0.258
 2573SOL     OW 8617   6.612   2.589   1.955
 2573SOL    HW1 8618   6.591   2.638   2.040
 2573SOL    HW2 8619   6.552   2.621   1.882
 2574SOL     OW 8620   6.487   3.925   0.269
 2574SOL    HW1 8621   6.509   3.840   0.221
 2574SOL    HW2 8622   6.492   3.910   0.368
 2575SOL     OW 8623   5.568   5.285   0.862
 2575SOL    HW1 8624   5.549   5.332   0.948
 2575SOL    HW2 8625   5.522   5.196   0.862
 2576SOL     OW 8626   3.760   6.778   4.506
 2576SOL    HW1 8627   3.730   6.822   4.422
 2576SOL    HW2 8628   3.689   6.715   4.538
 2577SOL     OW 8629   3.585   6.840   2.080
 2577SOL    HW1 8630   3.600   6.817   1.984
 2577SOL    HW2 8631   3.486   6.838   2.099
 2578SOL     OW 8632   4.800   1.043   4.299
 2578SOL    HW1 8633   4.838   1.100   4.371
 2578SOL    HW2 8634   4.874   1.005   4.243
 2579SOL     OW 8635   1.531   6.127   3.210
 2579SOL    HW1 8636   1.552   6.033   3.181
 2579SOL    HW2 8637   1.432   6.142   3.207
 2580SOL     OW 8638   2.926   3.355   6.484
 2580SOL    HW1 8639   2.888   3.312   6.402
 2580SOL    HW2 8640   2.877   3.440   6.504
 2581SOL     OW 8641   0.816   4.890   1.027
 2581SOL    HW1 8642   0.821   4.795   1.057
 2581SOL    HW2 8643   0.908   4.929   1.023
 2582SOL     OW 8644   0.589   4.724   2.488
 2582SOL    HW1 8645   0.557   4.811   2.451
 2582SOL    HW2 8646   0.586   4.654   2.417
 2583SOL     OW 8647   0.676   1.186   0.365
 2583SOL    HW1 8648   0.578   1.194   0.347
 2583SOL    HW2 8649   0.714   1.277   0.380
 2584SOL     OW 8650   4.371   5.637   6.673
 2584SOL    HW1 8651   4.409   5.730   6.676
 2584SOL    HW2 8652   4.312   5.628   6.593
 2585SOL     OW 8653   4.390   2.740   6.892
 2585SOL    HW1 8654   4.424   2.646   6.887
 2585SOL    HW2 8655   4.314   2.745   6.957
 2586SOL     OW 8656   3.647   1.449   3.318
 2586SOL    HW1 8657   3.728   1.389   3.323
 2586SOL    HW2 8658   3.592   1.437   3.401
 2587SOL     OW 8659   0.318   0.897   3.560
 2587SOL    HW1 8660   0.352   0.826   3.498
 2587SOL    HW2 8661   0.234   0.865   3.604
 2588SOL     OW 8662   4.433   0.888   6.758
 2588SOL    HW1 8663   4.422   0.982   6.727
 2588SOL    HW2 8664   4.522   0.877   6.801
 2589SOL     OW 8665   0.840   6.382   6.318
 2589SOL    HW1 8666   0.799   6.411   6.232
 2589SOL    HW2 8667   0.931   6.424   6.328
 2590SOL     OW 8668   3.506   5.908   0.942
 2590SOL    HW1 8669   3.445   5.834   0.971
 2590SOL    HW2 8670   3.589   5.906   0.999
 2591SOL     OW 8671   0.019   4.797   3.078
 2591SOL    HW1 8672   7.005   4.830   2.989
 2591SOL    HW2 8673   0.112   4.760   3.069
 2592SOL     OW 8674   3.632   5.642   6.962
 2592SOL    HW1 8675   3.584   5.698   0.012
 2592SOL    HW2 8676   3.610   5.545   6.977
 2593SOL     OW 8677   3.779   5.374   1.029
 2593SOL    HW1 8678   3.743   5.389   0.937
 2593SOL    HW2 8679   3.767   5.279   1.055
 2594SOL     OW 8680   1.978   4.437   6.462
 2594SOL    HW1 8681   2.044   4.483   6.522
 2594SOL    HW2 8682   2.016   4.428   6.370
 2595SOL     OW 8683   6.573   1.481   3.969
 2595SOL    HW1 8684   6.618   1.393   3.980
 2595SOL    HW2 8685   6.573   1.530   4.056
 2596SOL     OW 8686   2.951   1.719   1.649
 2596SOL    HW1 8687   3.044   1.701   1.619
 2596SOL    HW2 8688   2.951   1.749   1.745
 2597SOL     OW 8689   1.493   5.079   6.024
 2597SOL    HW1 8690   1.463   5.006   6.086
 2597SOL    HW2 8691   1.415   5.139   6.003
 2598SOL     OW 8692   6.863   1.251   3.263
 2598SOL    HW1 8693   6.942   1.248   3.202
 2598SOL    HW2 8694   6.837   1.346   3.279
 2599SOL     OW 8695   2.124   6.300   1.262
 2599SOL    HW1 8696   2.109   6.373   1.195
 2599SOL    HW2 8697   2.141   6.339   1.352
 2600SOL     OW 8698   5.238   2.909   4.896
 2600SOL    HW1 8699   5.203   2.905   4.990
 2600SOL    HW2 8700   5.207   2.993   4.852
 2601SOL     OW 8701   2.200   1.280   2.019
 2601SOL    HW1 8702   2.196   1.183   2.044
 2601SOL    HW2 8703   2.223   1.334   2.100
 2602SOL     OW 8704   1.185   4.879   4.737
 2602SOL    HW1 8705   1.200   4.973   4.706
 2602SOL    HW2 8706   1.248   4.818   4.689
 2603SOL     OW 8707   3.109   1.025   4.313
 2603SOL    HW1 8708   3.166   0.966   4.256
 2603SOL    HW2 8709   3.161   1.057   4.392
 2604SOL     OW 8710   4.981   1.874   2.476
 2604SOL    HW1 8711   5.041   1.926   2.537
 2604SOL    HW2 8712   4.902   1.841   2.527
 2605SOL     OW 8713   2.143   3.510   3.886
 2605SOL    HW1 8714   2.121   3.418   3.854
 2605SOL    HW2 8715   2.183   3.506   3.978
 2606SOL     OW 8716   5.300   4.527   1.777
 2606SOL    HW1 8717   5.291   4.526   1.877
 2606SOL    HW2 8718   5.214   4.555   1.736
 2607SOL     OW 8719   1.258   1.444   1.864
 2607SOL    HW1 8720   1.243   1.511   1.937
 2607SOL    HW2 8721   1.190   1.458   1.792
 2608SOL     OW 8722   5.134   4.870   0.174
 2608SOL    HW1 8723   5.153   4.923   0.092
 2608SOL    HW2 8724   5.103   4.931   0.247
 2609SOL     OW 8725   6.246   1.330   1.378
 2609SOL    HW1 8726   6.189   1.258   1.338
 2609SOL    HW2 8727   6.195   1.415   1.381
 2610SOL     OW 8728   1.289   4.461   4.334
 2610SOL    HW1 8729   1.275   4.549   4.289
 2610SOL    HW2 8730   1.206   4.433   4.382
 2611SOL     OW 8731   4.374   6.622   0.998
 2611SOL    HW1 8732   4.304   6.572   1.049
 2611SOL    HW2 8733   4.458   6.568   0.993
 2612SOL     OW 8734   6.291   0.044   4.647
 2612SOL    HW1 8735   6.319   0.140   4.641
 2612SOL    HW2 8736   6.251   0.027   4.737
 2613SOL     OW 8737   2.716   5.398   6.385
 2613SOL    HW1 8738   2.799   5.384   6.440
 2613SOL    HW2 8739   2.696   5.495   6.380
 2614SOL     OW 8740   6.258   1.805   6.514
 2614SOL    HW1 8741   6.254   1.807   6.614
 2614SOL    HW2 8742   6.188   1.865   6.477
 2615SOL     OW 8743   0.878   3.219   2.171
 2615SOL    HW1 8744   0.919   3.172   2.248
 2615SOL    HW2 8745   0.850   3.311   2.198
 2616SOL     OW 8746   2.774   2.954   5.642
 2616SOL    HW1 8747   2.692   2.992   5.598
 2616SOL    HW2 8748   2.810   2.879   5.587
 2617SOL     OW 8749   3.902   0.065   0.808
 2617SOL    HW1 8750   3.832   0.083   0.738
 2617SOL    HW2 8751   3.988   0.110   0.781
 2618SOL     OW 8752   6.666   0.329   3.156
 2618SOL    HW1 8753   6.606   0.394   3.109
 2618SOL    HW2 8754   6.735   0.379   3.208
 2619SOL     OW 8755   4.530   2.146   2.454
 2619SOL    HW1 8756   4.435   2.127   2.430
 2619SOL    HW2 8757   4.574   2.197   2.380
 2620SOL     OW 8758   6.312   6.744   3.613
 2620SOL    HW1 8759   6.367   6.825   3.594
 2620SOL    HW2 8760   6.372   6.664   3.624
 2621SOL     OW 8761   0.982   4.706   1.909
 2621SOL    HW1 8762   0.989   4.771   1.833
 2621SOL    HW2 8763   1.061   4.645   1.909
 2622SOL     OW 8764   1.476   3.812   5.810
 2622SOL    HW1 8765   1.400   3.871   5.781
 2622SOL    HW2 8766   1.540   3.865   5.865
 2623SOL     OW 8767   0.238   0.729   5.223
 2623SOL    HW1 8768   0.189   0.783   5.292
 2623SOL    HW2 8769   0.191   0.642   5.210
 2624SOL     OW 8770   0.082   1.054   4.605
 2624SOL    HW1 8771   0.028   1.131   4.639
 2624SOL    HW2 8772   0.161   1.089   4.555
 2625SOL     OW 8773   2.519   3.753   5.333
 2625SOL    HW1 8774   2.617   3.742   5.314
 2625SOL    HW2 8775   2.486   3.836   5.288
 2626SOL     OW 8776   0.025   0.419   6.262
 2626SOL    HW1 8777   6.943   0.413   6.257
 2626SOL    HW2 8778   0.062   0.443   6.172
 2627SOL     OW 8779   0.885   1.340   6.053
 2627SOL    HW1 8780   0.801   1.291   6.077
 2627SOL    HW2 8781   0.867   1.400   5.975
 2628SOL     OW 8782   2.112   4.054   5.622
 2628SOL    HW1 8783   2.175   4.058   5.544
 2628SOL    HW2 8784   2.078   4.146   5.642
 2629SOL     OW 8785   3.848   3.161   2.356
 2629SOL    HW1 8786   3.823   3.127   2.266
 2629SOL    HW2 8787   3.947   3.158   2.367
 2630SOL     OW 8788   3.217   1.851   2.972
 2630SOL    HW1 8789   3.299   1.903   2.999
 2630SOL    HW2 8790   3.193   1.874   2.878
 2631SOL     OW 8791   5.389   0.598   5.790
 2631SOL    HW1 8792   5.421   0.675   5.735
 2631SOL    HW2 8793   5.416   0.611   5.886
 2632SOL     OW 8794   5.414   2.861   0.327
 2632SOL    HW1 8795   5.357   2.879   0.247
 2632SOL    HW2 8796   5.507   2.894   0.310
 2633SOL     OW 8797   0.617   1.867   4.700
 2633SOL    HW1 8798   0.666   1.780   4.703
 2633SOL    HW2 8799   0.619   1.903   4.607
 2634SOL     OW 8800   0.613   5.008   4.175
 2634SOL    HW1 8801   0.613   5.038   4.080
 2634SOL    HW2 8802   0.686   4.941   4.189
 2635SOL     OW 8803   0.184   6.256   4.837
 2635SOL    HW1 8804   0.141   6.217   4.755
 2635SOL    HW2 8805   0.270   6.209   4.855
 2636SOL     OW 8806   4.163   0.117   5.402
 2636SOL    HW1 8807   4.114   0.066   5.332
 2636SOL    HW2 8808   4.102   0.183   5.445
 2637SOL     OW 8809   5.971   1.821   3.485
 2637SOL    HW1 8810   6.022   1.749   3.532
 2637SOL    HW2 8811   6.035   1.884   3.441
 2638SOL     OW 8812   7.012   0.076   4.045
 2638SOL    HW1 8813   7.011   0.046   4.141
 2638SOL    HW2 8814   0.073   0.036   3.999
 2639SOL     OW 8815   0.703   5.819   0.508
 2639SOL    HW1 8816   0.774   5.771   0.559
 2639SOL    HW2 8817   0.737   5.907   0.478
 2640SOL     OW 8818   6.746   6.439   5.300
 2640SOL    HW1 8819   6.761   6.389   5.215
 2640SOL    HW2 8820   6.771   6.381   5.377
 2641SOL     OW 8821   5.967   2.936   2.264
 2641SOL    HW1 8822   5.905   2.873   2.217
 2641SOL    HW2 8823   6.039   2.966   2.201
 2642SOL     OW 8824   5.746   0.721   3.856
 2642SOL    HW1 8825   5.691   0.682   3.783
 2642SOL    HW2 8826   5.692   0.724   3.941
 2643SOL     OW 8827   1.356   3.661   3.204
 2643SOL    HW1 8828   1.406   3.611   3.274
 2643SOL    HW2 8829   1.401   3.747   3.185
 2644SOL     OW 8830   5.000   5.349   4.849
 2644SOL    HW1 8831   4.975   5.331   4.944
 2644SOL    HW2 8832   4.938   5.301   4.788
 2645SOL     OW 8833   4.046   5.716   3.404
 2645SOL    HW1 8834   3.986   5.787   3.440
 2645SOL    HW2 8835   3.995   5.660   3.338
 2646SOL     OW 8836   6.318   1.832   6.824
 2646SOL    HW1 8837   6.386   1.905   6.833
 2646SOL    HW2 8838   6.234   1.859   6.873
 2647SOL     OW 8839   5.991   0.048   1.331
 2647SOL    HW1 8840   6.031   0.024   1.420
 2647SOL    HW2 8841   5.932   0.128   1.343
 2648SOL     OW 8842   1.100   6.709   3.509
 2648SOL    HW1 8843   1.091   6.768   3.589
 2648SOL    HW2 8844   1.021   6.723   3.448
 2649SOL     OW 8845   6.778   3.252   0.943
 2649SOL    HW1 8846   6.820   3.163   0.926
 2649SOL    HW2 8847   6.806   3.316   0.872
 2650SOL     OW 8848   2.037   4.823   3.627
 2650SOL    HW1 8849   1.955   4.766   3.633
 2650SOL    HW2 8850   2.038   4.870   3.539
 2651SOL     OW 8851   2.529   1.722   1.263
 2651SOL    HW1 8852   2.434   1.711   1.291
 2651SOL    HW2 8853   2.575   1.785   1.325
 2652SOL     OW 8854   4.164   3.241   5.313
 2652SOL    HW1 8855   4.074   3.206   5.285
 2652SOL    HW2 8856   4.175   3.334   5.277
 2653SOL     OW 8857   4.858   6.912   5.859
 2653SOL    HW1 8858   4.946   6.933   5.815
 2653SOL    HW2 8859   4.838   6.981   5.928
 2654SOL     OW 8860   4.211   0.101   1.504
 2654SOL    HW1 8861   4.308   0.111   1.528
 2654SOL    HW2 8862   4.159   0.175   1.548
 2655SOL     OW 8863   5.611   6.299   3.681
 2655SOL    HW1 8864   5.593   6.270   3.775
 2655SOL    HW2 8865   5.702   6.341   3.677
 2656SOL     OW 8866   3.459   4.890   4.461
 2656SOL    HW1 8867   3.426   4.803   4.496
 2656SOL    HW2 8868   3.384   4.941   4.419
 2657SOL     OW 8869   1.106   4.440   6.840
 2657SOL    HW1 8870   1.086   4.348   6.871
 2657SOL    HW2 8871   1.171   4.437   6.764
 2658SOL     OW 8872   5.450   4.870   0.504
 2658SOL    HW1 8873   5.503   4.914   0.431
 2658SOL    HW2 8874   5.380   4.811   0.464
 2659SOL     OW 8875   4.561   2.702   4.994
 2659SOL    HW1 8876   4.501   2.687   4.916
 2659SOL    HW2 8877   4.650   2.735   4.962
 2660SOL     OW 8878   1.516   0.002   1.985
 2660SOL    HW1 8879   1.549   0.064   1.913
 2660SOL    HW2 8880   1.423   6.990   1.963
 2661SOL     OW 8881   2.005   6.653   1.357
 2661SOL    HW1 8882   1.968   6.634   1.448
 2661SOL    HW2 8883   1.930   6.677   1.296
 2662SOL     OW 8884   3.165   6.486   5.589
 2662SOL    HW1 8885   3.155   6.387   5.582
 2662SOL    HW2 8886   3.244   6.508   5.646
 2663SOL     OW 8887   3.581   4.440   6.679
 2663SOL    HW1 8888   3.660   4.381   6.660
 2663SOL    HW2 8889   3.522   4.395   6.746
 2664SOL     OW 8890   4.427   3.332   5.757
 2664SOL    HW1 8891   4.422   3.420   5.804
 2664SOL    HW2 8892   4.370   3.335   5.675
 2665SOL     OW 8893   2.927   3.376   4.935
 2665SOL    HW1 8894   2.833   3.401   4.960
 2665SOL    HW2 8895   2.985   3.379   5.017
 2666SOL     OW 8896   0.554   4.505   1.750
 2666SOL    HW1 8897   0.617   4.556   1.809
 2666SOL    HW2 8898   0.512   4.567   1.684
 2667SOL     OW 8899   1.321   5.689   3.794
 2667SOL    HW1 8900   1.389   5.685   3.721
 2667SOL    HW2 8901   1.240   5.737   3.762
 2668SOL     OW 8902   0.434   3.227   4.884
 2668SOL    HW1 8903   0.358   3.283   4.918
 2668SOL    HW2 8904   0.431   3.224   4.784
 2669SOL     OW 8905   3.057   5.356   6.045
 2669SOL    HW1 8906   3.128   5.289   6.022
 2669SOL    HW2 8907   3.092   5.448   6.034
 2670SOL     OW 8908   5.740   3.777   5.027
 2670SOL    HW1 8909   5.788   3.690   5.026
 2670SOL    HW2 8910   5.803   3.851   5.052
 2671SOL     OW 8911   4.351   5.442   0.336
 2671SOL    HW1 8912   4.287   5.459   0.262
 2671SOL    HW2 8913   4.436   5.404   0.299
 2672SOL     OW 8914   2.643   5.363   1.286
 2672SOL    HW1 8915   2.583   5.304   1.231
 2672SOL    HW2 8916   2.682   5.309   1.361
 2673SOL     OW 8917   6.366   2.064   1.455
 2673SOL    HW1 8918   6.425   2.016   1.392
 2673SOL    HW2 8919   6.417   2.137   1.501
 2674SOL     OW 8920   1.719   4.626   3.954
 2674SOL    HW1 8921   1.761   4.556   3.896
 2674SOL    HW2 8922   1.621   4.631   3.935
 2675SOL     OW 8923   6.588   5.745   3.880
 2675SOL    HW1 8924   6.632   5.834   3.890
 2675SOL    HW2 8925   6.654   5.672   3.899
 2676SOL     OW 8926   3.034   3.238   1.261
 2676SOL    HW1 8927   2.989   3.303   1.322
 2676SOL    HW2 8928   3.058   3.156   1.312
 2677SOL     OW 8929   3.154   4.328   0.051
 2677SOL    HW1 8930   3.169   4.408   7.011
 2677SOL    HW2 8931   3.068   4.337   0.101
 2678SOL     OW 8932   0.373   2.165   2.483
 2678SOL    HW1 8933   0.449   2.168   2.549
 2678SOL    HW2 8934   0.306   2.235   2.507
 2679SOL     OW 8935   2.098   5.083   2.088
 2679SOL    HW1 8936   2.086   5.179   2.113
 2679SOL    HW2 8937   2.063   5.024   2.161
 2680SOL     OW 8938   1.382   1.872   1.097
 2680SOL    HW1 8939   1.368   1.774   1.086
 2680SOL    HW2 8940   1.355   1.900   1.189
 2681SOL     OW 8941   1.297   2.224   5.198
 2681SOL    HW1 8942   1.242   2.246   5.118
 2681SOL    HW2 8943   1.274   2.132   5.231
 2682SOL     OW 8944   4.723   4.584   3.962
 2682SOL    HW1 8945   4.823   4.586   3.970
 2682SOL    HW2 8946   4.692   4.489   3.955
 2683SOL     OW 8947   2.617   4.743   2.004
 2683SOL    HW1 8948   2.710   4.713   2.027
 2683SOL    HW2 8949   2.601   4.834   2.044
 2684SOL     OW 8950   4.361   6.805   2.116
 2684SOL    HW1 8951   4.307   6.732   2.073
 2684SOL    HW2 8952   4.455   6.802   2.083
 2685SOL     OW 8953   6.218   5.775   6.181
 2685SOL    HW1 8954   6.164   5.838   6.125
 2685SOL    HW2 8955   6.157   5.728   6.245
 2686SOL     OW 8956   1.906   1.817   6.021
 2686SOL    HW1 8957   1.819   1.862   6.041
 2686SOL    HW2 8958   1.897   1.719   6.037
 2687SOL     OW 8959   4.993   5.915   1.139
 2687SOL    HW1 8960   5.036   5.851   1.076
 2687SOL    HW2 8961   4.901   5.884   1.162
 2688SOL     OW 8962   2.659   2.695   0.235
 2688SOL    HW1 8963   2.649   2.783   0.282
 2688SOL    HW2 8964   2.684   2.624   0.300
 2689SOL     OW 8965   0.573   3.584   2.176
 2689SOL    HW1 8966   0.530   3.638   2.249
 2689SOL    HW2 8967   0.546   3.621   2.087
 2690SOL     OW 8968   3.625   3.392   5.288
 2690SOL    HW1 8969   3.703   3.421   5.234
 2690SOL    HW2 8970   3.656   3.330   5.360
 2691SOL     OW 8971   0.565   5.629   3.779
 2691SOL    HW1 8972   0.647   5.679   3.753
 2691SOL    HW2 8973   0.505   5.688   3.833
 2692SOL     OW 8974   2.591   6.736   3.710
 2692SOL    HW1 8975   2.491   6.728   3.713
 2692SOL    HW2 8976   2.628   6.670   3.646
 2693SOL     OW 8977   2.193   4.722   3.912
 2693SOL    HW1 8978   2.210   4.813   3.874
 2693SOL    HW2 8979   2.112   4.725   3.971
 2694SOL     OW 8980   4.525   6.629   3.126
 2694SOL    HW1 8981   4.541   6.696   3.199
 2694SOL    HW2 8982   4.455   6.564   3.157
 2695SOL     OW 8983   6.075   0.646   2.526
 2695SOL    HW1 8984   6.166   0.666   2.492
 2695SOL    HW2 8985   6.015   0.724   2.508
 2696SOL     OW 8986   3.655   3.129   6.093
 2696SOL    HW1 8987   3.704   3.042   6.081
 2696SOL    HW2 8988   3.576   3.132   6.032
 2697SOL     OW 8989   3.114   1.421   2.873
 2697SOL    HW1 8990   3.208   1.414   2.839
 2697SOL    HW2 8991   3.084   1.516   2.868
 2698SOL     OW 8992   1.455   4.383   0.780
 2698SOL    HW1 8993   1.403   4.466   0.800
 2698SOL    HW2 8994   1.551   4.407   0.765
 2699SOL     OW 8995   2.554   5.855   1.490
 2699SOL    HW1 8996   2.543   5.851   1.391
 2699SOL    HW2 8997   2.577   5.763   1.524
 2700SOL     OW 8998   2.523   2.375   0.755
 2700SOL    HW1 8999   2.459   2.421   0.694
 2700SOL    HW2 9000   2.515   2.276   0.744
 2701SOL     OW 9001   5.051   2.106   6.095
 2701SOL    HW1 9002   5.134   2.127   6.043
 2701SOL    HW2 9003   5.033   2.181   6.160
 2702SOL     OW 9004   0.897   2.521   3.653
 2702SOL    HW1 9005   0.819   2.551   3.598
 2702SOL    HW2 9006   0.969   2.590   3.650
 2703SOL     OW 9007   1.081   6.494   0.411
 2703SOL    HW1 9008   0.994   6.456   0.379
 2703SOL    HW2 9009   1.121   6.433   0.480
 2704SOL     OW 9010   6.616   5.854   1.781
 2704SOL    HW1 9011   6.517   5.856   1.766
 2704SOL    HW2 9012   6.643   5.764   1.816
 2705SOL     OW 9013   6.125   7.015   4.857
 2705SOL    HW1 9014   6.063   6.940   4.882
 2705SOL    HW2 9015   6.174   0.029   4.938
 2706SOL     OW 9016   6.474   5.168   3.404
 2706SOL    HW1 9017   6.437   5.153   3.312
 2706SOL    HW2 9018   6.570   5.198   3.396
 2707SOL     OW 9019   3.631   6.964   4.352
 2707SOL    HW1 9020   3.635   7.012   4.264
 2707SOL    HW2 9021   3.535   6.950   4.378
 2708SOL     OW 9022   6.420   2.870   1.088
 2708SOL    HW1 9023   6.369   2.791   1.122
 2708SOL    HW2 9024   6.368   2.954   1.109
 2709SOL     OW 9025   5.371   0.245   0.157
 2709SOL    HW1 9026   5.292   0.208   0.109
 2709SOL    HW2 9027   5.451   0.187   0.140
 2710SOL     OW 9028   1.080   3.439   3.816
 2710SOL    HW1 9029   1.108   3.352   3.856
 2710SOL    HW2 9030   0.983   3.455   3.834
 2711SOL     OW 9031   2.663   0.916   3.521
 2711SOL    HW1 9032   2.721   0.972   3.580
 2711SOL    HW2 9033   2.607   0.855   3.576
 2712SOL     OW 9034   2.437   5.114   1.211
 2712SOL    HW1 9035   2.410   5.074   1.298
 2712SOL    HW2 9036   2.528   5.082   1.186
 2713SOL     OW 9037   2.490   3.640   6.073
 2713SOL    HW1 9038   2.434   3.661   5.992
 2713SOL    HW2 9039   2.462   3.552   6.111
 2714SOL     OW 9040   4.192   2.479   0.057
 2714SOL    HW1 9041   4.216   2.567   0.099
 2714SOL    HW2 9042   4.246   2.406   0.099
 2715SOL     OW 9043   5.832   2.561   0.897
 2715SOL    HW1 9044   5.829   2.617   0.980
 2715SOL    HW2 9045   5.760   2.492   0.901
 2716SOL     OW 9046   5.238   3.159   3.650
 2716SOL    HW1 9047   5.255   3.258   3.643
 2716SOL    HW2 9048   5.222   3.121   3.559
 2717SOL     OW 9049   0.824   0.063   2.234
 2717SOL    HW1 9050   0.780   0.145   2.196
 2717SOL    HW2 9051   0.837   0.075   2.332
 2718SOL     OW 9052   1.483   1.169   5.661
 2718SOL    HW1 9053   1.469   1.070   5.669
 2718SOL    HW2 9054   1.525   1.204   5.745
 2719SOL     OW 9055   0.458   4.875   2.072
 2719SOL    HW1 9056   0.510   4.853   2.155
 2719SOL    HW2 9057   0.479   4.969   2.043
 2720SOL     OW 9058   1.718   6.861   2.403
 2720SOL    HW1 9059   1.653   6.830   2.474
 2720SOL    HW2 9060   1.807   6.877   2.445
 2721SOL     OW 9061   3.041   6.215   3.474
 2721SOL    HW1 9062   2.993   6.128   3.482
 2721SOL    HW2 9063   3.054   6.237   3.377
 2722SOL     OW 9064   6.026   5.312   0.588
 2722SOL    HW1 9065   6.117   5.337   0.554
 2722SOL    HW2 9066   5.973   5.395   0.604
 2723SOL     OW 9067   0.922   5.696   6.024
 2723SOL    HW1 9068   0.865   5.626   6.066
 2723SOL    HW2 9069   0.915   5.690   5.925
 2724SOL     OW 9070   1.692   6.065   6.766
 2724SOL    HW1 9071   1.634   6.006   6.709
 2724SOL    HW2 9072   1.787   6.055   6.738
 2725SOL     OW 9073   5.069   4.638   5.012
 2725SOL    HW1 9074   5.048   4.655   4.916
 2725SOL    HW2 9075   5.152   4.582   5.018
 2726SOL     OW 9076   0.226   2.456   1.911
 2726SOL    HW1 9077   0.288   2.533   1.925
 2726SOL    HW2 9078   0.151   2.461   1.977
 2727SOL     OW 9079   1.043   4.712   3.834
 2727SOL    HW1 9080   1.020   4.702   3.931
 2727SOL    HW2 9081   1.137   4.681   3.819
 2728SOL     OW 9082   4.506   6.589   5.135
 2728SOL    HW1 9083   4.472   6.683   5.134
 2728SOL    HW2 9084   4.467   6.539   5.057
 2729SOL     OW 9085   0.180   6.201   0.633
 2729SOL    HW1 9086   0.145   6.176   0.723
 2729SOL    HW2 9087   0.114   6.259   0.586
 2730SOL     OW 9088   1.155   5.353   1.935
 2730SOL    HW1 9089   1.160   5.270   1.880
 2730SOL    HW2 9090   1.162   5.433   1.875
 2731SOL     OW 9091   2.988   3.634   3.464
 2731SOL    HW1 9092   2.992   3.668   3.558
 2731SOL    HW2 9093   2.977   3.534   3.465
 2732SOL     OW 9094   5.795   2.326   1.174
 2732SOL    HW1 9095   5.842   2.238   1.166
 2732SOL    HW2 9096   5.723   2.332   1.105
 2733SOL     OW 9097   6.531   1.680   5.085
 2733SOL    HW1 9098   6.447   1.657   5.135
 2733SOL    HW2 9099   6.508   1.741   5.009
 2734SOL     OW 9100   2.962   4.934   1.057
 2734SOL    HW1 9101   3.008   5.010   1.011
 2734SOL    HW2 9102   3.018   4.852   1.051
 2735SOL     OW 9103   1.848   2.603   1.729
 2735SOL    HW1 9104   1.785   2.642   1.796
 2735SOL    HW2 9105   1.796   2.555   1.658
 2736SOL     OW 9106   6.338   6.110   4.380
 2736SOL    HW1 9107   6.429   6.101   4.340
 2736SOL    HW2 9108   6.274   6.050   4.332
 2737SOL     OW 9109   2.805   4.087   5.358
 2737SOL    HW1 9110   2.807   4.022   5.282
 2737SOL    HW2 9111   2.878   4.154   5.346
 2738SOL     OW 9112   5.043   6.517   2.029
 2738SOL    HW1 9113   5.033   6.579   1.950
 2738SOL    HW2 9114   5.090   6.434   2.000
 2739SOL     OW 9115   1.453   4.947   0.927
 2739SOL    HW1 9116   1.485   4.898   0.846
 2739SOL    HW2 9117   1.361   4.982   0.912
 2740SOL     OW 9118   6.159   4.487   1.617
 2740SOL    HW1 9119   6.238   4.543   1.591
 2740SOL    HW2 9120   6.176   4.392   1.592
 2741SOL     OW 9121   6.154   0.558   4.254
 2741SOL    HW1 9122   6.135   0.516   4.343
 2741SOL    HW2 9123   6.119   0.498   4.182
 2742SOL     OW 9124   1.422   4.810   0.456
 2742SOL    HW1 9125   1.448   4.838   0.364
 2742SOL    HW2 9126   1.326   4.780   0.456
 2743SOL     OW 9127   0.097   4.233   2.406
 2743SOL    HW1 9128   0.052   4.309   2.361
 2743SOL    HW2 9129   0.191   4.224   2.371
 2744SOL     OW 9130   4.766   2.513   0.263
 2744SOL    HW1 9131   4.668   2.495   0.275
 2744SOL    HW2 9132   4.779   2.606   0.230
 2745SOL     OW 9133   0.126   0.902   4.816
 2745SOL    HW1 9134   0.129   0.967   4.740
 2745SOL    HW2 9135   0.144   0.810   4.783
 2746SOL     OW 9136   0.999   2.410   4.986
 2746SOL    HW1 9137   1.016   2.503   4.956
 2746SOL    HW2 9138   1.079   2.353   4.969
 2747SOL     OW 9139   4.768   5.091   0.191
 2747SOL    HW1 9140   4.798   5.129   0.278
 2747SOL    HW2 9141   4.674   5.121   0.173
 2748SOL     OW 9142   4.672   1.343   2.431
 2748SOL    HW1 9143   4.736   1.421   2.436
 2748SOL    HW2 9144   4.675   1.304   2.339
 2749SOL     OW 9145   6.973   4.246   0.967
 2749SOL    HW1 9146   6.873   4.252   0.977
 2749SOL    HW2 9147   7.015   4.253   1.057
 2750SOL     OW 9148   1.560   3.504   1.206
 2750SOL    HW1 9149   1.638   3.454   1.167
 2750SOL    HW2 9150   1.521   3.451   1.281
 2751SOL     OW 9151   1.330   3.036   1.632
 2751SOL    HW1 9152   1.336   2.959   1.570
 2751SOL    HW2 9153   1.277   3.011   1.713
 2752SOL     OW 9154   3.277   5.005   5.680
 2752SOL    HW1 9155   3.270   4.938   5.606
 2752SOL    HW2 9156   3.248   5.095   5.646
 2753SOL     OW 9157   6.744   6.596   4.912
 2753SOL    HW1 9158   6.837   6.614   4.945
 2753SOL    HW2 9159   6.742   6.508   4.865
 2754SOL     OW 9160   0.658   0.259   0.930
 2754SOL    HW1 9161   0.665   0.235   1.027
 2754SOL    HW2 9162   0.649   0.175   0.876
 2755SOL     OW 9163   3.022   6.648   2.147
 2755SOL    HW1 9164   3.121   6.640   2.136
 2755SOL    HW2 9165   3.000   6.739   2.182
 2756SOL     OW 9166   5.604   5.297   0.303
 2756SOL    HW1 9167   5.586   5.265   0.396
 2756SOL    HW2 9168   5.586   5.395   0.297
 2757SOL     OW 9169   2.848   6.676   6.779
 2757SOL    HW1 9170   2.794   6.643   6.702
 2757SOL    HW2 9171   2.800   6.656   6.865
 2758SOL     OW 9172   3.568   6.247   3.982
 2758SOL    HW1 9173   3.542   6.208   4.070
 2758SOL    HW2 9174   3.503   6.217   3.912
 2759SOL     OW 9175   5.150   6.646   6.187
 2759SOL    HW1 9176   5.106   6.722   6.139
 2759SOL    HW2 9177   5.126   6.650   6.284
 2760SOL     OW 9178   0.528   6.015   1.769
 2760SOL    HW1 9179   0.453   6.061   1.815
 2760SOL    HW2 9180   0.513   5.917   1.769
 2761SOL     OW 9181   2.039   5.220   4.363
 2761SOL    HW1 9182   2.116   5.269   4.322
 2761SOL    HW2 9183   2.061   5.194   4.457
 2762SOL     OW 9184   1.685   1.215   5.816
 2762SOL    HW1 9185   1.685   1.224   5.916
 2762SOL    HW2 9186   1.739   1.135   5.790
 2763SOL     OW 9187   5.117   1.689   3.757
 2763SOL    HW1 9188   5.177   1.650   3.688
 2763SOL    HW2 9189   5.022   1.675   3.730
 2764SOL     OW 9190   5.797   1.066   0.778
 2764SOL    HW1 9191   5.835   1.060   0.870
 2764SOL    HW2 9192   5.698   1.056   0.782
 2765SOL     OW 9193   6.121   6.620   0.802
 2765SOL    HW1 9194   6.072   6.686   0.858
 2765SOL    HW2 9195   6.214   6.653   0.786
 2766SOL     OW 9196   4.882   2.024   6.926
 2766SOL    HW1 9197   4.838   2.000   7.012
 2766SOL    HW2 9198   4.922   1.943   6.885
 2767SOL     OW 9199   0.145   5.324   0.172
 2767SOL    HW1 9200   0.070   5.289   0.229
 2767SOL    HW2 9201   0.121   5.415   0.138
 2768SOL     OW 9202   4.286   1.106   1.011
 2768SOL    HW1 9203   4.379   1.137   1.034
 2768SOL    HW2 9204   4.291   1.037   0.939
 2769SOL     OW 9205   1.042   4.390   4.012
 2769SOL    HW1 9206   0.955   4.367   3.968
 2769SOL    HW2 9207   1.025   4.449   4.090
 2770SOL     OW 9208   3.437   5.772   5.550
 2770SOL    HW1 9209   3.365   5.760   5.618
 2770SOL    HW2 9210   3.400   5.816   5.468
 2771SOL     OW 9211   6.907   0.995   3.370
 2771SOL    HW1 9212   6.945   1.087   3.365
 2771SOL    HW2 9213   6.875   0.967   3.279
 2772SOL     OW 9214   4.209   1.451   1.093
 2772SOL    HW1 9215   4.128   1.508   1.091
 2772SOL    HW2 9216   4.251   1.449   1.002
 2773SOL     OW 9217   6.372   2.298   5.478
 2773SOL    HW1 9218   6.405   2.204   5.490
 2773SOL    HW2 9219   6.273   2.301   5.490
 2774SOL     OW 9220   5.683   3.541   3.140
 2774SOL    HW1 9221   5.769   3.587   3.119
 2774SOL    HW2 9222   5.608   3.588   3.093
 2775SOL     OW 9223   0.068   5.941   6.563
 2775SOL    HW1 9224   0.084   5.873   6.634
 2775SOL    HW2 9225   0.037   6.026   6.604
 2776SOL     OW 9226   3.901   5.017   5.777
 2776SOL    HW1 9227   3.993   5.054   5.778
 2776SOL    HW2 9228   3.901   4.925   5.816
 2777SOL     OW 9229   2.570   1.460   2.177
 2777SOL    HW1 9230   2.488   1.444   2.232
 2777SOL    HW2 9231   2.597   1.374   2.132
 2778SOL     OW 9232   1.442   6.988   5.659
 2778SOL    HW1 9233   1.527   0.021   5.641
 2778SOL    HW2 9234   1.371   0.000   5.595
 2779SOL     OW 9235   4.868   6.403   0.990
 2779SOL    HW1 9236   4.873   6.319   1.045
 2779SOL    HW2 9237   4.937   6.468   1.023
 2780SOL     OW 9238   6.449   6.202   6.715
 2780SOL    HW1 9239   6.410   6.294   6.712
 2780SOL    HW2 9240   6.539   6.205   6.759
 2781SOL     OW 9241   5.009   6.700   1.774
 2781SOL    HW1 9242   5.065   6.780   1.798
 2781SOL    HW2 9243   4.915   6.715   1.803
 2782SOL     OW 9244   3.873   2.016   5.749
 2782SOL    HW1 9245   3.895   2.091   5.686
 2782SOL    HW2 9246   3.875   2.050   5.843
 2783SOL     OW 9247   4.978   4.339   4.168
 2783SOL    HW1 9248   4.909   4.269   4.188
 2783SOL    HW2 9249   5.033   4.309   4.090
 2784SOL     OW 9250   3.807   1.858   2.171
 2784SOL    HW1 9251   3.729   1.815   2.126
 2784SOL    HW2 9252   3.882   1.868   2.106
 2785SOL     OW 9253   4.898   1.295   0.726
 2785SOL    HW1 9254   4.922   1.332   0.637
 2785SOL    HW2 9255   4.949   1.342   0.797
 2786SOL     OW 9256   4.915   6.881   2.044
 2786SOL    HW1 9257   4.974   6.904   2.121
 2786SOL    HW2 9258   4.917   6.955   1.978
 2787SOL     OW 9259   3.685   1.642   6.584
 2787SOL    HW1 9260   3.780   1.642   6.552
 2787SOL    HW2 9261   3.673   1.713   6.654
 2788SOL     OW 9262   2.634   4.724   6.345
 2788SOL    HW1 9263   2.674   4.805   6.302
 2788SOL    HW2 9264   2.653   4.644   6.289
 2789SOL     OW 9265   1.918   2.674   3.767
 2789SOL    HW1 9266   1.859   2.604   3.806
 2789SOL    HW2 9267   1.958   2.730   3.840
 2790SOL     OW 9268   3.241   5.854   2.105
 2790SOL    HW1 9269   3.248   5.768   2.055
 2790SOL    HW2 9270   3.199   5.924   2.046
 2791SOL     OW 9271   0.892   3.227   2.605
 2791SOL    HW1 9272   0.798   3.194   2.603
 2791SOL    HW2 9273   0.894   3.323   2.576
 2792SOL     OW 9274   2.029   6.984   4.024
 2792SOL    HW1 9275   1.958   6.914   4.033
 2792SOL    HW2 9276   1.986   0.053   3.999
 2793SOL     OW 9277   5.335   3.405   3.472
 2793SOL    HW1 9278   5.424   3.439   3.443
 2793SOL    HW2 9279   5.278   3.389   3.391
 2794SOL     OW 9280   0.251   2.832   6.855
 2794SOL    HW1 9281   0.326   2.839   6.790
 2794SOL    HW2 9282   0.284   2.797   6.942
 2795SOL     OW 9283   1.623   2.651   0.720
 2795SOL    HW1 9284   1.642   2.742   0.683
 2795SOL    HW2 9285   1.609   2.586   0.644
 2796SOL     OW 9286   7.011   6.107   2.215
 2796SOL    HW1 9287   6.914   6.120   2.198
 2796SOL    HW2 9288   0.042   6.193   2.201
 2797SOL     OW 9289   5.994   4.975   4.446
 2797SOL    HW1 9290   5.904   5.000   4.410
 2797SOL    HW2 9291   6.040   5.058   4.478
 2798SOL     OW 9292   0.415   5.269   2.137
 2798SOL    HW1 9293   0.489   5.298   2.076
 2798SOL    HW2 9294   0.450   5.257   2.229
 2799SOL     OW 9295   6.057   6.069   0.135
 2799SOL    HW1 9296   5.969   6.112   0.157
 2799SOL    HW2 9297   6.114   6.134   0.084
 2800SOL     OW 9298   4.864   5.539   0.384
 2800SOL    HW1 9299   4.819   5.609   0.440
 2800SOL    HW2 9300   4.801   5.509   0.313
 2801SOL     OW 9301   5.836   5.666   5.824
 2801SOL    HW1 9302   5.745   5.657   5.866
 2801SOL    HW2 9303   5.901   5.696   5.894
 2802SOL     OW 9304   5.065   1.156   4.996
 2802SOL    HW1 9305   5.132   1.122   4.930
 2802SOL    HW2 9306   4.993   1.088   5.010
 2803SOL     OW 9307   3.925   6.031   6.767
 2803SOL    HW1 9308   3.861   6.090   6.718
 2803SOL    HW2 9309   3.884   5.941   6.779
 2804SOL     OW 9310   0.400   5.185   5.106
 2804SOL    HW1 9311   0.417   5.129   5.025
 2804SOL    HW2 9312   0.375   5.277   5.077
 2805SOL     OW 9313   5.393   3.187   1.757
 2805SOL    HW1 9314   5.354   3.196   1.848
 2805SOL    HW2 9315   5.332   3.132   1.700
 2806SOL     OW 9316   6.372   5.190   5.762
 2806SOL    HW1 9317   6.389   5.244   5.679
 2806SOL    HW2 9318   6.431   5.223   5.836
 2807SOL     OW 9319   5.220   5.952   3.764
 2807SOL    HW1 9320   5.151   6.019   3.791
 2807SOL    HW2 9321   5.277   5.929   3.843
 2808SOL     OW 9322   5.585   3.887   2.507
 2808SOL    HW1 9323   5.530   3.833   2.443
 2808SOL    HW2 9324   5.672   3.841   2.524
 2809SOL     OW 9325   5.929   3.060   1.133
 2809SOL    HW1 9326   5.990   2.990   1.171
 2809SOL    HW2 9327   5.872   3.020   1.062
 2810SOL     OW 9328   3.425   5.357   3.656
 2810SOL    HW1 9329   3.466   5.422   3.720
 2810SOL    HW2 9330   3.490   5.336   3.584
 2811SOL     OW 9331   1.134   1.875   3.625
 2811SOL    HW1 9332   1.208   1.833   3.676
 2811SOL    HW2 9333   1.146   1.858   3.527
 2812SOL     OW 9334   5.013   3.947   6.442
 2812SOL    HW1 9335   5.041   3.937   6.537
 2812SOL    HW2 9336   5.087   3.915   6.382
 2813SOL     OW 9337   6.698   6.820   6.119
 2813SOL    HW1 9338   6.660   6.751   6.057
 2813SOL    HW2 9339   6.691   6.910   6.077
 2814SOL     OW 9340   3.990   3.414   5.674
 2814SOL    HW1 9341   4.012   3.453   5.763
 2814SOL    HW2 9342   4.074   3.391   5.626
 2815SOL     OW 9343   6.422   0.318   5.550
 2815SOL    HW1 9344   6.420   0.232   5.498
 2815SOL    HW2 9345   6.516   0.353   5.553
 2816SOL     OW 9346   6.768   5.757   3.493
 2816SOL    HW1 9347   6.750   5.775   3.397
 2816SOL    HW2 9348   6.722   5.825   3.550
 2817SOL     OW 9349   2.808   6.632   1.305
 2817SOL    HW1 9350   2.781   6.725   1.329
 2817SOL    HW2 9351   2.781   6.570   1.379
 2818SOL     OW 9352   0.172   0.585   0.942
 2818SOL    HW1 9353   0.142   0.498   0.904
 2818SOL    HW2 9354   0.218   0.568   1.030
 2819SOL     OW 9355   0.530   1.081   1.713
 2819SOL    HW1 9356   0.618   1.051   1.676
 2819SOL    HW2 9357   0.518   1.179   1.696
 2820SOL     OW 9358   0.787   2.745   3.151
 2820SOL    HW1 9359   0.799   2.656   3.108
 2820SOL    HW2 9360   0.820   2.817   3.089
 2821SOL     OW 9361   3.967   3.477   0.056
 2821SOL    HW1 9362   3.937   3.387   0.088
 2821SOL    HW2 9363   3.924   3.497   6.986
 2822SOL     OW 9364   4.484   1.680   0.050
 2822SOL    HW1 9365   4.480   1.780   0.043
 2822SOL    HW2 9366   4.411   1.648   0.110
 2823SOL     OW 9367   4.548   6.745   0.075
 2823SOL    HW1 9368   4.615   6.672   0.089
 2823SOL    HW2 9369   4.461   6.706   0.046
 2824SOL     OW 9370   3.207   1.294   3.148
 2824SOL    HW1 9371   3.133   1.295   3.081
 2824SOL    HW2 9372   3.241   1.387   3.162
 2825SOL     OW 9373   6.276   0.168   6.631
 2825SOL    HW1 9374   6.271   0.092   6.696
 2825SOL    HW2 9375   6.343   0.234   6.663
 2826SOL     OW 9376   4.728   1.200   6.760
 2826SOL    HW1 9377   4.635   1.220   6.790
 2826SOL    HW2 9378   4.726   1.136   6.684
 2827SOL     OW 9379   6.969   0.395   5.083
 2827SOL    HW1 9380   7.004   0.454   5.010
 2827SOL    HW2 9381   0.007   0.312   5.086
 2828SOL     OW 9382   3.017   0.820   6.848
 2828SOL    HW1 9383   2.978   0.840   6.758
 2828SOL    HW2 9384   2.969   0.743   6.890
 2829SOL     OW 9385   3.401   3.608   5.279
 2829SOL    HW1 9386   3.330   3.568   5.337
 2829SOL    HW2 9387   3.460   3.535   5.243
 2830SOL     OW 9388   1.600   3.150   5.797
 2830SOL    HW1 9389   1.625   3.210   5.721
 2830SOL    HW2 9390   1.618   3.055   5.770
 2831SOL     OW 9391   0.467   5.383   3.794
 2831SOL    HW1 9392   0.502   5.477   3.792
 2831SOL    HW2 9393   0.442   5.355   3.702
 2832SOL     OW 9394   0.927   1.793   2.608
 2832SOL    HW1 9395   0.946   1.863   2.677
 2832SOL    HW2 9396   0.973   1.708   2.633
 2833SOL     OW 9397   3.766   2.134   2.476
 2833SOL    HW1 9398   3.826   2.144   2.396
 2833SOL    HW2 9399   3.676   2.170   2.455
 2834SOL     OW 9400   3.841   5.316   6.916
 2834SOL    HW1 9401   3.857   5.242   6.850
 2834SOL    HW2 9402   3.854   5.404   6.870
 2835SOL     OW 9403   0.170   0.358   1.693
 2835SOL    HW1 9404   0.077   0.367   1.657
 2835SOL    HW2 9405   0.186   0.427   1.763
 2836SOL     OW 9406   6.068   0.048   2.101
 2836SOL    HW1 9407   6.122   6.988   2.067
 2836SOL    HW2 9408   6.123   0.102   2.164
 2837SOL     OW 9409   5.424   4.247   2.686
 2837SOL    HW1 9410   5.452   4.277   2.777
 2837SOL    HW2 9411   5.411   4.326   2.627
 2838SOL     OW 9412   2.455   4.079   1.062
 2838SOL    HW1 9413   2.500   4.087   0.973
 2838SOL    HW2 9414   2.445   4.170   1.103
 2839SOL     OW 9415   6.823   1.406   1.931
 2839SOL    HW1 9416   6.861   1.326   1.884
 2839SOL    HW2 9417   6.799   1.476   1.864
 2840SOL     OW 9418   2.062   0.722   3.036
 2840SOL    HW1 9419   2.161   0.727   3.019
 2840SOL    HW2 9420   2.042   0.640   3.088
 2841SOL     OW 9421   0.164   1.204   6.315
 2841SOL    HW1 9422   0.206   1.220   6.404
 2841SOL    HW2 9423   0.083   1.146   6.327
 2842SOL     OW 9424   0.154   4.164   3.986
 2842SOL    HW1 9425   0.184   4.110   3.907
 2842SOL    HW2 9426   0.152   4.105   4.067
 2843SOL     OW 9427   2.747   1.849   2.850
 2843SOL    HW1 9428   2.712   1.770   2.799
 2843SOL    HW2 9429   2.744   1.829   2.948
 2844SOL     OW 9430   0.279   4.906   0.566
 2844SOL    HW1 9431   0.335   4.989   0.556
 2844SOL    HW2 9432   0.188   4.924   0.531
 2845SOL     OW 9433   6.115   2.886   1.326
 2845SOL    HW1 9434   6.168   2.801   1.317
 2845SOL    HW2 9435   6.173   2.957   1.367
 2846SOL     OW 9436   4.047   1.192   6.667
 2846SOL    HW1 9437   4.024   1.097   6.646
 2846SOL    HW2 9438   4.145   1.206   6.657
 2847SOL     OW 9439   5.090   3.590   3.702
 2847SOL    HW1 9440   5.105   3.662   3.771
 2847SOL    HW2 9441   5.175   3.537   3.692
 2848SOL     OW 9442   1.436   2.806   5.161
 2848SOL    HW1 9443   1.383   2.793   5.078
 2848SOL    HW2 9444   1.507   2.736   5.166
 2849SOL     OW 9445   4.033   6.041   0.763
 2849SOL    HW1 9446   4.000   6.119   0.816
 2849SOL    HW2 9447   4.106   5.995   0.813
 2850SOL     OW 9448   1.878   0.168   2.348
 2850SOL    HW1 9449   1.895   0.267   2.347
 2850SOL    HW2 9450   1.862   0.138   2.442
 2851SOL     OW 9451   6.236   1.288   6.337
 2851SOL    HW1 9452   6.175   1.364   6.313
 2851SOL    HW2 9453   6.182   1.204   6.348
 2852SOL     OW 9454   6.107   4.720   0.066
 2852SOL    HW1 9455   6.034   4.735   0.133
 2852SOL    HW2 9456   6.076   4.752   6.994
 2853SOL     OW 9457   1.823   3.083   6.576
 2853SOL    HW1 9458   1.765   3.049   6.649
 2853SOL    HW2 9459   1.880   3.009   6.541
 2854SOL     OW 9460   4.420   1.424   5.446
 2854SOL    HW1 9461   4.436   1.498   5.379
 2854SOL    HW2 9462   4.332   1.380   5.426
 2855SOL     OW 9463   2.828   1.503   6.935
 2855SOL    HW1 9464   2.866   1.522   6.845
 2855SOL    HW2 9465   2.797   1.589   6.977
 2856SOL     OW 9466   1.282   3.001   5.565
 2856SOL    HW1 9467   1.279   2.929   5.634
 2856SOL    HW2 9468   1.377   3.025   5.545
 2857SOL     OW 9469   2.895   1.935   2.442
 2857SOL    HW1 9470   2.852   1.962   2.356
 2857SOL    HW2 9471   2.955   2.009   2.474
 2858SOL     OW 9472   4.660   4.250   2.427
 2858SOL    HW1 9473   4.673   4.151   2.432
 2858SOL    HW2 9474   4.700   4.286   2.343
 2859SOL     OW 9475   5.056   1.376   6.464
 2859SOL    HW1 9476   5.116   1.416   6.533
 2859SOL    HW2 9477   5.112   1.337   6.390
 2860SOL     OW 9478   3.368   1.561   2.030
 2860SOL    HW1 9479   3.280   1.590   1.992
 2860SOL    HW2 9480   3.403   1.484   1.977
 2861SOL     OW 9481   4.067   3.754   5.472
 2861SOL    HW1 9482   4.080   3.819   5.548
 2861SOL    HW2 9483   3.995   3.689   5.496
 2862SOL     OW 9484   5.480   1.761   2.972
 2862SOL    HW1 9485   5.380   1.769   2.979
 2862SOL    HW2 9486   5.519   1.742   3.062
 2863SOL     OW 9487   5.342   1.046   6.379
 2863SOL    HW1 9488   5.256   1.003   6.352
 2863SOL    HW2 9489   5.341   1.066   6.477
 2864SOL     OW 9490   4.639   1.664   1.846
 2864SOL    HW1 9491   4.587   1.645   1.763
 2864SOL    HW2 9492   4.733   1.631   1.835
 2865SOL     OW 9493   4.029   4.118   6.818
 2865SOL    HW1 9494   4.063   4.076   6.901
 2865SOL    HW2 9495   4.093   4.189   6.787
 2866SOL     OW 9496   6.839   5.278   0.858
 2866SOL    HW1 9497   6.786   5.363   0.866
 2866SOL    HW2 9498   6.915   5.291   0.795
 2867SOL     OW 9499   5.857   4.952   2.774
 2867SOL    HW1 9500   5.911   4.947   2.690
 2867SOL    HW2 9501   5.902   5.014   2.838
 2868SOL     OW 9502   0.884   1.617   5.586
 2868SOL    HW1 9503   0.900   1.531   5.537
 2868SOL    HW2 9504   0.789   1.645   5.575
 2869SOL     OW 9505   6.448   1.475   2.954
 2869SOL    HW1 9506   6.440   1.537   2.876
 2869SOL    HW2 9507   6.541   1.481   2.992
 2870SOL     OW 9508   0.335   1.506   4.646
 2870SOL    HW1 9509   0.274   1.491   4.568
 2870SOL    HW2 9510   0.362   1.417   4.685
 2871SOL     OW 9511   0.419   1.887   6.874
 2871SOL    HW1 9512   0.485   1.913   6.804
 2871SOL    HW2 9513   0.453   1.806   6.923
 2872SOL     OW 9514   2.507   1.203   2.379
 2872SOL    HW1 9515   2.596   1.228   2.418
 2872SOL    HW2 9516   2.511   1.110   2.343
 2873SOL     OW 9517   0.087   5.557   3.185
 2873SOL    HW1 9518   0.122   5.578   3.094
 2873SOL    HW2 9519   0.043   5.638   3.224
 2874SOL     OW 9520   3.862   6.455   3.035
 2874SOL    HW1 9521   3.885   6.552   3.027
 2874SOL    HW2 9522   3.921   6.412   3.103
 2875SOL     OW 9523   4.716   6.839   0.608
 2875SOL    HW1 9524   4.667   6.917   0.645
 2875SOL    HW2 9525   4.651   6.774   0.568
 2876SOL     OW 9526   1.212   6.929   1.657
 2876SOL    HW1 9527   1.150   6.993   1.703
 2876SOL    HW2 9528   1.201   6.937   1.558
 2877SOL     OW 9529   3.157   2.561   5.344
 2877SOL    HW1 9530   3.192   2.496   5.277
 2877SOL    HW2 9531   3.183   2.532   5.436
 2878SOL     OW 9532   4.534   5.067   4.576
 2878SOL    HW1 9533   4.460   5.067   4.643
 2878SOL    HW2 9534   4.522   5.142   4.512
 2879SOL     OW 9535   5.199   5.017   0.626
 2879SOL    HW1 9536   5.297   5.001   0.637
 2879SOL    HW2 9537   5.148   4.937   0.659
 2880SOL     OW 9538   6.728   0.321   1.340
 2880SOL    HW1 9539   6.660   0.250   1.323
 2880SOL    HW2 9540   6.696   0.382   1.412
 2881SOL     OW 9541   5.452   5.692   6.938
 2881SOL    HW1 9542   5.356   5.668   6.955
 2881SOL    HW2 9543   5.465   5.789   6.958
 2882SOL     OW 9544   0.531   4.597   2.749
 2882SOL    HW1 9545   0.536   4.497   2.743
 2882SOL    HW2 9546   0.591   4.636   2.679
 2883SOL     OW 9547   5.887   0.010   3.481
 2883SOL    HW1 9548   5.945   6.964   3.531
 2883SOL    HW2 9549   5.936   0.096   3.467
 2884SOL     OW 9550   0.923   6.965   2.534
 2884SOL    HW1 9551   1.018   6.936   2.546
 2884SOL    HW2 9552   0.901   0.018   2.601
 2885SOL     OW 9553   0.705   3.264   2.852
 2885SOL    HW1 9554   0.614   3.247   2.816
 2885SOL    HW2 9555   0.772   3.256   2.778
 2886SOL     OW 9556   2.120   4.389   5.645
 2886SOL    HW1 9557   2.097   4.390   5.547
 2886SOL    HW2 9558   2.210   4.430   5.659
 2887SOL     OW 9559   0.422   0.474   4.552
 2887SOL    HW1 9560   0.416   0.504   4.456
 2887SOL    HW2 9561   0.372   0.388   4.563
 2888SOL     OW 9562   0.666   4.201   0.042
 2888SOL    HW1 9563   0.719   4.236   0.119
 2888SOL    HW2 9564   0.727   4.148   6.999
 2889SOL     OW 9565   2.030   6.741   2.109
 2889SOL    HW1 9566   2.130   6.740   2.104
 2889SOL    HW2 9567   1.993   6.780   2.025
 2890SOL     OW 9568   2.213   5.984   0.644
 2890SOL    HW1 9569   2.183   5.959   0.736
 2890SOL    HW2 9570   2.163   6.065   0.614
 2891SOL     OW 9571   1.168   4.421   3.635
 2891SOL    HW1 9572   1.077   4.458   3.653
 2891SOL    HW2 9573   1.216   4.480   3.570
 2892SOL     OW 9574   5.067   3.109   0.064
 2892SOL    HW1 9575   4.973   3.075   0.067
 2892SOL    HW2 9576   5.087   3.158   0.149
 2893SOL     OW 9577   0.743   6.487   4.498
 2893SOL    HW1 9578   0.682   6.414   4.468
 2893SOL    HW2 9579   0.837   6.467   4.468
 2894SOL     OW 9580   1.684   2.214   1.777
 2894SOL    HW1 9581   1.586   2.218   1.800
 2894SOL    HW2 9582   1.736   2.272   1.839
 2895SOL     OW 9583   4.251   2.442   5.869
 2895SOL    HW1 9584   4.252   2.420   5.966
 2895SOL    HW2 9585   4.324   2.508   5.849
 2896SOL     OW 9586   4.759   5.383   5.906
 2896SOL    HW1 9587   4.704   5.355   5.984
 2896SOL    HW2 9588   4.700   5.409   5.830
 2897SOL     OW 9589   3.758   5.028   3.182
 2897SOL    HW1 9590   3.665   5.036   3.145
 2897SOL    HW2 9591   3.791   4.935   3.169
 2898SOL     OW 9592   3.871   5.471   4.034
 2898SOL    HW1 9593   3.926   5.393   4.003
 2898SOL    HW2 9594   3.919   5.556   4.013
 2899SOL     OW 9595   1.009   1.743   0.451
 2899SOL    HW1 9596   1.003   1.692   0.365
 2899SOL    HW2 9597   0.935   1.811   0.454
 2900SOL     OW 9598   1.508   4.594   5.290
 2900SOL    HW1 9599   1.520   4.616   5.387
 2900SOL    HW2 9600   1.546   4.503   5.272
 2901SOL     OW 9601   3.135   5.684   3.679
 2901SOL    HW1 9602   3.217   5.686   3.621
 2901SOL    HW2 9603   3.053   5.685   3.622
 2902SOL     OW 9604   4.783   6.357   2.378
 2902SOL    HW1 9605   4.731   6.443   2.375
 2902SOL    HW2 9606   4.749   6.300   2.452
 2903SOL     OW 9607   4.097   1.130   0.682
 2903SOL    HW1 9608   4.109   1.114   0.584
 2903SOL    HW2 9609   4.144   1.214   0.708
 2904SOL     OW 9610   2.116   4.181   5.148
 2904SOL    HW1 9611   2.028   4.205   5.106
 2904SOL    HW2 9612   2.168   4.122   5.086
 2905SOL     OW 9613   1.187   2.754   4.055
 2905SOL    HW1 9614   1.189   2.655   4.057
 2905SOL    HW2 9615   1.272   2.790   4.092
 2906SOL     OW 9616   4.398   5.793   2.404
 2906SOL    HW1 9617   4.381   5.783   2.306
 2906SOL    HW2 9618   4.381   5.705   2.449
 2907SOL     OW 9619   0.872   1.779   3.621
 2907SOL    HW1 9620   0.899   1.688   3.589
 2907SOL    HW2 9621   0.953   1.837   3.628
 2908SOL     OW 9622   4.601   6.026   4.142
 2908SOL    HW1 9623   4.594   5.929   4.163
 2908SOL    HW2 9624   4.572   6.079   4.222
 2909SOL     OW 9625   1.418   6.538   3.132
 2909SOL    HW1 9626   1.405   6.630   3.167
 2909SOL    HW2 9627   1.463   6.482   3.201
 2910SOL     OW 9628   4.459   6.393   4.706
 2910SOL    HW1 9629   4.473   6.488   4.678
 2910SOL    HW2 9630   4.455   6.335   4.624
 2911SOL     OW 9631   1.190   5.507   3.485
 2911SOL    HW1 9632   1.266   5.483   3.426
 2911SOL    HW2 9633   1.152   5.423   3.526
 2912SOL     OW 9634   4.828   0.415   6.868
 2912SOL    HW1 9635   4.848   0.436   6.964
 2912SOL    HW2 9636   4.901   0.358   6.831
 2913SOL     OW 9637   2.680   4.677   2.917
 2913SOL    HW1 9638   2.592   4.674   2.965
 2913SOL    HW2 9639   2.697   4.590   2.872
 2914SOL     OW 9640   5.445   5.986   6.412
 2914SOL    HW1 9641   5.394   6.064   6.448
 2914SOL    HW2 9642   5.418   5.903   6.461
 2915SOL     OW 9643   5.480   1.654   4.458
 2915SOL    HW1 9644   5.569   1.693   4.480
 2915SOL    HW2 9645   5.490   1.558   4.433
 2916SOL     OW 9646   0.625   6.483   6.664
 2916SOL    HW1 9647   0.589   6.576   6.657
 2916SOL    HW2 9648   0.696   6.481   6.735
 2917SOL     OW 9649   2.629   6.966   2.851
 2917SOL    HW1 9650   2.535   6.991   2.873
 2917SOL    HW2 9651   2.640   6.957   2.752
 2918SOL     OW 9652   0.032   5.173   4.263
 2918SOL    HW1 9653   0.030   5.140   4.168
 2918SOL    HW2 9654   0.038   5.095   4.325
 2919SOL     OW 9655   6.852   1.285   0.875
 2919SOL    HW1 9656   6.778   1.296   0.941
 2919SOL    HW2 9657   6.814   1.264   0.785
 2920SOL     OW 9658   2.815   2.222   1.772
 2920SOL    HW1 9659   2.906   2.190   1.748
 2920SOL    HW2 9660   2.822   2.293   1.843
 2921SOL     OW 9661   1.036   0.998   3.293
 2921SOL    HW1 9662   1.054   0.960   3.384
 2921SOL    HW2 9663   1.102   0.961   3.228
 2922SOL     OW 9664   5.128   0.799   0.444
 2922SOL    HW1 9665   5.063   0.845   0.505
 2922SOL    HW2 9666   5.146   0.857   0.365
 2923SOL     OW 9667   6.892   5.636   2.279
 2923SOL    HW1 9668   6.860   5.690   2.202
 2923SOL    HW2 9669   6.985   5.661   2.303
 2924SOL     OW 9670   6.827   1.570   6.096
 2924SOL    HW1 9671   6.858   1.606   6.008
 2924SOL    HW2 9672   6.900   1.582   6.164
 2925SOL     OW 9673   4.251   0.923   2.576
 2925SOL    HW1 9674   4.166   0.937   2.524
 2925SOL    HW2 9675   4.234   0.941   2.673
 2926SOL     OW 9676   6.123   1.556   4.686
 2926SOL    HW1 9677   6.136   1.498   4.766
 2926SOL    HW2 9678   6.208   1.605   4.666
 2927SOL     OW 9679   0.686   2.048   2.481
 2927SOL    HW1 9680   0.773   2.074   2.522
 2927SOL    HW2 9681   0.703   1.987   2.403
 2928SOL     OW 9682   6.979   1.244   5.930
 2928SOL    HW1 9683   6.950   1.148   5.921
 2928SOL    HW2 9684   6.971   1.289   5.842
 2929SOL     OW 9685   0.768   2.026   6.813
 2929SOL    HW1 9686   0.682   2.034   6.763
 2929SOL    HW2 9687   0.829   2.101   6.789
 2930SOL     OW 9688   4.624   6.338   4.948
 2930SOL    HW1 9689   4.666   6.248   4.935
 2930SOL    HW2 9690   4.668   6.404   4.888
 2931SOL     OW 9691   5.629   4.638   0.576
 2931SOL    HW1 9692   5.624   4.576   0.498
 2931SOL    HW2 9693   5.575   4.720   0.559
 2932SOL     OW 9694   0.622   5.018   1.234
 2932SOL    HW1 9695   0.708   4.985   1.194
 2932SOL    HW2 9696   0.559   4.942   1.245
 2933SOL     OW 9697   6.007   4.531   3.208
 2933SOL    HW1 9698   5.960   4.554   3.293
 2933SOL    HW2 9699   6.088   4.589   3.197
 2934SOL     OW 9700   4.682   1.221   0.086
 2934SOL    HW1 9701   4.616   1.161   0.131
 2934SOL    HW2 9702   4.774   1.185   0.099
 2935SOL     OW 9703   6.422   2.694   0.565
 2935SOL    HW1 9704   6.500   2.734   0.613
 2935SOL    HW2 9705   6.358   2.655   0.631
 2936SOL     OW 9706   3.551   5.703   1.562
 2936SOL    HW1 9707   3.489   5.739   1.632
 2936SOL    HW2 9708   3.631   5.761   1.555
 2937SOL     OW 9709   5.003   4.507   0.420
 2937SOL    HW1 9710   5.058   4.529   0.340
 2937SOL    HW2 9711   4.909   4.487   0.391
 2938SOL     OW 9712   4.467   5.576   6.980
 2938SOL    HW1 9713   4.560   5.607   6.999
 2938SOL    HW2 9714   4.462   5.540   6.887
 2939SOL     OW 9715   1.189   0.875   3.504
 2939SOL    HW1 9716   1.255   0.814   3.461
 2939SOL    HW2 9717   1.203   0.968   3.471
 2940SOL     OW 9718   5.902   5.471   6.179
 2940SOL    HW1 9719   5.864   5.524   6.255
 2940SOL    HW2 9720   5.845   5.390   6.163
 2941SOL     OW 9721   1.285   3.133   4.573
 2941SOL    HW1 9722   1.297   3.050   4.519
 2941SOL    HW2 9723   1.306   3.213   4.516
 2942SOL     OW 9724   3.254   2.701   1.189
 2942SOL    HW1 9725   3.253   2.617   1.244
 2942SOL    HW2 9726   3.303   2.684   1.104
 2943SOL     OW 9727   4.978   4.648   2.948
 2943SOL    HW1 9728   4.967   4.729   2.889
 2943SOL    HW2 9729   4.960   4.673   3.043
 2944SOL     OW 9730   3.138   5.200   5.050
 2944SOL    HW1 9731   3.160   5.109   5.087
 2944SOL    HW2 9732   3.222   5.246   5.024
 2945SOL     OW 9733   3.568   4.106   4.028
 2945SOL    HW1 9734   3.655   4.137   4.065
 2945SOL    HW2 9735   3.502   4.094   4.103
 2946SOL     OW 9736   0.835   5.160   6.757
 2946SOL    HW1 9737   0.843   5.062   6.739
 2946SOL    HW2 9738   0.906   5.209   6.706
 2947SOL     OW 9739   0.301   3.411   0.485
 2947SOL    HW1 9740   0.266   3.504   0.472
 2947SOL    HW2 9741   0.359   3.387   0.407
 2948SOL     OW 9742   0.515   4.686   5.443
 2948SOL    HW1 9743   0.448   4.699   5.516
 2948SOL    HW2 9744   0.574   4.608   5.465
 2949SOL     OW 9745   3.086   4.717   0.903
 2949SOL    HW1 9746   3.111   4.707   0.806
 2949SOL    HW2 9747   2.998   4.673   0.920
 2950SOL     OW 9748   5.426   3.414   4.652
 2950SOL    HW1 9749   5.462   3.364   4.731
 2950SOL    HW2 9750   5.446   3.364   4.568
 2951SOL     OW 9751   5.890   1.278   1.014
 2951SOL    HW1 9752   5.814   1.337   1.043
 2951SOL    HW2 9753   5.925   1.311   0.926
 2952SOL     OW 9754   1.104   5.592   4.996
 2952SOL    HW1 9755   1.177   5.608   4.929
 2952SOL    HW2 9756   1.053   5.510   4.970
 2953SOL     OW 9757   5.348   3.657   2.842
 2953SOL    HW1 9758   5.255   3.650   2.806
 2953SOL    HW2 9759   5.412   3.675   2.768
 2954SOL     OW 9760   0.512   5.859   2.510
 2954SOL    HW1 9761   0.441   5.896   2.450
 2954SOL    HW2 9762   0.473   5.787   2.567
 2955SOL     OW 9763   0.977   3.972   1.341
 2955SOL    HW1 9764   0.911   4.012   1.406
 2955SOL    HW2 9765   0.992   3.876   1.365
 2956SOL     OW 9766   5.659   6.763   3.136
 2956SOL    HW1 9767   5.578   6.734   3.187
 2956SOL    HW2 9768   5.645   6.857   3.103
 2957SOL     OW 9769   6.019   3.021   2.507
 2957SOL    HW1 9770   5.967   3.001   2.424
 2957SOL    HW2 9771   6.095   3.081   2.485
 2958SOL     OW 9772   2.225   4.655   4.562
 2958SOL    HW1 9773   2.257   4.562   4.578
 2958SOL    HW2 9774   2.283   4.720   4.611
 2959SOL     OW 9775   5.053   4.228   0.738
 2959SOL    HW1 9776   4.990   4.301   0.712
 2959SOL    HW2 9777   5.095   4.190   0.657
 2960SOL     OW 9778   3.939   0.162   6.046
 2960SOL    HW1 9779   3.892   0.081   6.082
 2960SOL    HW2 9780   3.871   0.226   6.009
 2961SOL     OW 9781   4.985   3.374   3.086
 2961SOL    HW1 9782   5.077   3.337   3.103
 2961SOL    HW2 9783   4.976   3.462   3.133
 2962SOL     OW 9784   4.044   0.611   3.110
 2962SOL    HW1 9785   4.077   0.598   3.204
 2962SOL    HW2 9786   4.026   0.521   3.069
 2963SOL     OW 9787   2.068   0.369   6.838
 2963SOL    HW1 9788   2.035   0.416   6.756
 2963SOL    HW2 9789   2.026   0.408   6.919
 2964SOL     OW 9790   0.689   0.358   2.808
 2964SOL    HW1 9791   0.687   0.263   2.776
 2964SOL    HW2 9792   0.783   0.393   2.803
 2965SOL     OW 9793   6.337   1.018   4.572
 2965SOL    HW1 9794   6.340   1.115   4.549
 2965SOL    HW2 9795   6.389   0.965   4.505
 2966SOL     OW 9796   6.595   6.120   4.311
 2966SOL    HW1 9797   6.628   6.033   4.275
 2966SOL    HW2 9798   6.639   6.138   4.399
 2967SOL     OW 9799   5.744   0.857   4.660
 2967SOL    HW1 9800   5.754   0.867   4.562
 2967SOL    HW2 9801   5.817   0.798   4.696
 2968SOL     OW 9802   0.540   3.403   6.262
 2968SOL    HW1 9803   0.445   3.425   6.239
 2968SOL    HW2 9804   0.576   3.337   6.196
 2969SOL     OW 9805   5.399   1.158   4.276
 2969SOL    HW1 9806   5.393   1.068   4.321
 2969SOL    HW2 9807   5.489   1.198   4.293
 2970SOL     OW 9808   1.642   4.671   6.086
 2970SOL    HW1 9809   1.706   4.596   6.068
 2970SOL    HW2 9810   1.551   4.634   6.104
 2971SOL     OW 9811   5.347   4.329   6.915
 2971SOL    HW1 9812   5.298   4.313   6.830
 2971SOL    HW2 9813   5.288   4.305   6.993
 2972SOL     OW 9814   5.979   4.230   6.360
 2972SOL    HW1 9815   6.004   4.152   6.417
 2972SOL    HW2 9816   5.890   4.266   6.390
 2973SOL     OW 9817   5.592   1.054   3.846
 2973SOL    HW1 9818   5.577   0.981   3.914
 2973SOL    HW2 9819   5.547   1.138   3.878
 2974SOL     OW 9820   0.490   4.244   3.035
 2974SOL    HW1 9821   0.395   4.267   3.014
 2974SOL    HW2 9822   0.530   4.316   3.091
 2975SOL     OW 9823   6.302   2.840   5.145
 2975SOL    HW1 9824   6.312   2.908   5.217
 2975SOL    HW2 9825   6.306   2.884   5.055
 2976SOL     OW 9826   4.122   2.184   3.104
 2976SOL    HW1 9827   4.142   2.250   3.177
 2976SOL    HW2 9828   4.206   2.139   3.076
 2977SOL     OW 9829   2.307   0.009   3.235
 2977SOL    HW1 9830   2.216   0.013   3.194
 2977SOL    HW2 9831   2.356   6.947   3.200
 2978SOL     OW 9832   4.607   4.613   0.282
 2978SOL    HW1 9833   4.698   4.652   0.268
 2978SOL    HW2 9834   4.574   4.636   0.374
 2979SOL     OW 9835   4.563   0.941   4.442
 2979SOL    HW1 9836   4.570   1.025   4.495
 2979SOL    HW2 9837   4.625   0.947   4.363
 2980SOL     OW 9838   2.048   6.852   3.628
 2980SOL    HW1 9839   1.979   6.801   3.578
 2980SOL    HW2 9840   2.007   6.933   3.670
 2981SOL     OW 9841   2.171   1.097   6.016
 2981SOL    HW1 9842   2.178   1.111   6.115
 2981SOL    HW2 9843   2.147   1.001   5.998
 2982SOL     OW 9844   3.926   5.247   3.153
 2982SOL    HW1 9845   3.876   5.290   3.078
 2982SOL    HW2 9846   3.876   5.167   3.185
 2983SOL     OW 9847   1.227   1.896   3.336
 2983SOL    HW1 9848   1.231   1.867   3.241
 2983SOL    HW2 9849   1.317   1.883   3.378
 2984SOL     OW 9850   5.599   5.767   1.154
 2984SOL    HW1 9851   5.533   5.812   1.216
 2984SOL    HW2 9852   5.557   5.753   1.065
 2985SOL     OW 9853   1.431   2.521   6.023
 2985SOL    HW1 9854   1.484   2.437   6.037
 2985SOL    HW2 9855   1.442   2.552   5.928
 2986SOL     OW 9856   3.592   3.857   5.566
 2986SOL    HW1 9857   3.605   3.784   5.634
 2986SOL    HW2 9858   3.499   3.891   5.571
 2987SOL     OW 9859   5.861   0.842   4.386
 2987SOL    HW1 9860   5.923   0.822   4.310
 2987SOL    HW2 9861   5.882   0.933   4.423
 2988SOL     OW 9862   0.976   6.346   2.922
 2988SOL    HW1 9863   1.070   6.363   2.951
 2988SOL    HW2 9864   0.954   6.249   2.933
 2989SOL     OW 9865   6.791   6.223   6.674
 2989SOL    HW1 9866   6.887   6.245   6.660
 2989SOL    HW2 9867   6.779   6.124   6.681
 2990SOL     OW 9868   4.298   1.927   4.315
 2990SOL    HW1 9869   4.392   1.955   4.334
 2990SOL    HW2 9870   4.281   1.930   4.217
 2991SOL     OW 9871   6.435   4.165   5.867
 2991SOL    HW1 9872   6.346   4.162   5.821
 2991SOL    HW2 9873   6.497   4.100   5.824
 2992SOL     OW 9874   2.951   5.046   5.427
 2992SOL    HW1 9875   2.920   5.139   5.406
 2992SOL    HW2 9876   3.044   5.033   5.394
 2993SOL     OW 9877   0.702   5.233   1.433
 2993SOL    HW1 9878   0.784   5.194   1.477
 2993SOL    HW2 9879   0.663   5.165   1.371
 2994SOL     OW 9880   3.595   6.546   6.947
 2994SOL    HW1 9881   3.530   6.472   6.929
 2994SOL    HW2 9882   3.632   6.538   0.022
 2995SOL     OW 9883   2.255   2.748   6.641
 2995SOL    HW1 9884   2.329   2.814   6.650
 2995SOL    HW2 9885   2.293   2.656   6.629
 2996SOL     OW 9886   2.351   0.261   3.933
 2996SOL    HW1 9887   2.388   0.325   3.865
 2996SOL    HW2 9888   2.328   0.175   3.888
 2997SOL     OW 9889   5.909   0.945   2.252
 2997SOL    HW1 9890   5.838   0.952   2.181
 2997SOL    HW2 9891   5.868   0.912   2.337
 2998SOL     OW 9892   4.666   0.118   4.331
 2998SOL    HW1 9893   4.612   0.169   4.265
 2998SOL    HW2 9894   4.763   0.139   4.320
 2999SOL     OW 9895   2.861   4.841   4.639
 2999SOL    HW1 9896   2.820   4.755   4.609
 2999SOL    HW2 9897   2.889   4.833   4.735
 3000SOL     OW 9898   2.117   3.540   6.914
 3000SOL    HW1 9899   2.108   3.635   6.944
 3000SOL    HW2 9900   2.173   3.537   6.830
 3001SOL     OW 9901   5.186   6.337   6.366
 3001SOL    HW1 9902   5.171   6.436   6.359
 3001SOL    HW2 9903   5.197   6.298   6.275
 3002SOL     OW 9904   3.931   0.673   6.203
 3002SOL    HW1 9905   3.930   0.577   6.231
 3002SOL    HW2 9906   4.022   0.712   6.219
 3003SOL     OW 9907   2.441   6.768   6.901
 3003SOL    HW1 9908   2.411   6.862   6.885
 3003SOL    HW2 9909   2.371   6.720   6.954
 3004SOL     OW 9910   1.574   4.920   3.092
 3004SOL    HW1 9911   1.605   4.829   3.063
 3004SOL    HW2 9912   1.568   4.923   3.191
 3005SOL     OW 9913   3.328   2.688   6.693
 3005SOL    HW1 9914   3.317   2.755   6.767
 3005SOL    HW2 9915   3.372   2.732   6.615
 3006SOL     OW 9916   5.284   2.205   5.965
 3006SOL    HW1 9917   5.264   2.297   5.933
 3006SOL    HW2 9918   5.376   2.201   6.002
 3007SOL     OW 9919   6.054   5.641   1.015
 3007SOL    HW1 9920   6.023   5.717   0.957
 3007SOL    HW2 9921   5.993   5.632   1.093
 3008SOL     OW 9922   3.618   1.452   6.837
 3008SOL    HW1 9923   3.526   1.416   6.853
 3008SOL    HW2 9924   3.616   1.514   6.759
 3009SOL     OW 9925   0.834   0.959   2.992
 3009SOL    HW1 9926   0.743   0.952   3.033
 3009SOL    HW2 9927   0.883   0.873   3.007
 3010SOL     OW 9928   3.149   5.985   3.192
 3010SOL    HW1 9929   3.128   5.942   3.105
 3010SOL    HW2 9930   3.134   6.084   3.185
 3011SOL     OW 9931   5.247   1.415   1.162
 3011SOL    HW1 9932   5.296   1.488   1.209
 3011SOL    HW2 9933   5.153   1.412   1.195
 3012SOL     OW 9934   1.342   3.626   5.086
 3012SOL    HW1 9935   1.293   3.539   5.080
 3012SOL    HW2 9936   1.324   3.669   5.175
 3013SOL     OW 9937   5.656   5.773   4.457
 3013SOL    HW1 9938   5.739   5.772   4.512
 3013SOL    HW2 9939   5.576   5.763   4.516
 3014SOL     OW 9940   4.735   2.234   5.137
 3014SOL    HW1 9941   4.728   2.237   5.237
 3014SOL    HW2 9942   4.753   2.141   5.107
 3015SOL     OW 9943   3.215   2.498   0.009
 3015SOL    HW1 9944   3.175   2.544   0.088
 3015SOL    HW2 9945   3.315   2.503   0.014
 3016SOL     OW 9946   2.842   6.141   4.419
 3016SOL    HW1 9947   2.923   6.104   4.375
 3016SOL    HW2 9948   2.763   6.081   4.402
 3017SOL     OW 9949   0.030   5.442   1.930
 3017SOL    HW1 9950   7.000   5.373   1.875
 3017SOL    HW2 9951   0.119   5.461   1.890
 3018SOL     OW 9952   2.793   6.223   6.301
 3018SOL    HW1 9953   2.853   6.267   6.234
 3018SOL    HW2 9954   2.779   6.285   6.378
 3019SOL     OW 9955   1.355   0.221   6.879
 3019SOL    HW1 9956   1.432   0.264   6.831
 3019SOL    HW2 9957   1.376   0.125   6.896
 3020SOL     OW 9958   3.935   3.057   2.115
 3020SOL    HW1 9959   3.952   2.960   2.131
 3020SOL    HW2 9960   3.997   3.091   2.044
 3021SOL     OW 9961   3.135   0.302   6.675
 3021SOL    HW1 9962   3.048   0.351   6.684
 3021SOL    HW2 9963   3.160   0.262   6.764
 3022SOL     OW 9964   3.735   4.941   4.447
 3022SOL    HW1 9965   3.770   4.981   4.363
 3022SOL    HW2 9966   3.637   4.925   4.439
 3023SOL     OW 9967   4.422   0.407   2.717
 3023SOL    HW1 9968   4.520   0.411   2.702
 3023SOL    HW2 9969   4.388   0.499   2.738
 3024SOL     OW 9970   4.127   6.313   5.641
 3024SOL    HW1 9971   4.178   6.398   5.633
 3024SOL    HW2 9972   4.124   6.284   5.737
 3025SOL     OW 9973   3.332   1.141   0.771
 3025SOL    HW1 9974   3.419   1.168   0.731
 3025SOL    HW2 9975   3.259   1.152   0.703
 3026SOL     OW 9976   1.394   1.132   0.695
 3026SOL    HW1 9977   1.390   1.183   0.609
 3026SOL    HW2 9978   1.433   1.042   0.678
 3027SOL     OW 9979   4.169   0.579   2.744
 3027SOL    HW1 9980   4.162   0.634   2.827
 3027SOL    HW2 9981   4.099   0.507   2.746
 3028SOL     OW 9982   1.281   4.835   5.469
 3028SOL    HW1 9983   1.336   4.783   5.535
 3028SOL    HW2 9984   1.257   4.776   5.392
 3029SOL     OW 9985   6.902   3.099   4.965
 3029SOL    HW1 9986   6.947   3.145   4.889
 3029SOL    HW2 9987   6.812   3.067   4.936
 3030SOL     OW 9988   0.661   2.964   6.153
 3030SOL    HW1 9989   0.646   2.900   6.078
 3030SOL    HW2 9990   0.754   3.001   6.147
 3031SOL     OW 9991   0.395   2.809   0.334
 3031SOL    HW1 9992   0.483   2.852   0.359
 3031SOL    HW2 9993   0.342   2.873   0.278
 3032SOL     OW 9994   3.885   6.432   1.346
 3032SOL    HW1 9995   3.814   6.411   1.413
 3032SOL    HW2 9996   3.848   6.494   1.277
 3033SOL     OW 9997   6.669   1.997   1.656
 3033SOL    HW1 9998   6.652   1.908   1.614
 3033SOL    HW2 9999   6.752   2.036   1.618
 3034SOL     OW10000   1.304   5.793   3.037
 3034SOL    HW110001   1.228   5.729   3.024
 3034SOL    HW210002   1.285   5.851   3.117
 3035SOL     OW10003   6.750   3.069   0.030
 3035SOL    HW110004   6.719   2.996   6.986
 3035SOL    HW210005   6.674   3.097   0.089
 3036SOL     OW10006   1.594   2.221   6.370
 3036SOL    HW110007   1.604   2.123   6.389
 3036SOL    HW210008   1.662   2.249   6.302
 3037SOL     OW10009   6.760   6.289   5.077
 3037SOL    HW110010   6.803   6.199   5.086
 3037SOL    HW210011   6.689   6.286   5.007
 3038SOL     OW10012   5.778   5.989   5.993
 3038SOL    HW110013   5.832   6.062   5.951
 3038SOL    HW210014   5.735   6.022   6.077
 3039SOL     OW10015   6.601   3.754   1.407
 3039SOL    HW110016   6.529   3.791   1.467
 3039SOL    HW210017   6.622   3.821   1.336
 3040SOL     OW10018   3.688   3.451   6.208
 3040SOL    HW110019   3.598   3.415   6.183
 3040SOL    HW210020   3.685   3.487   6.301
 3041SOL     OW10021   2.163   3.230   4.418
 3041SOL    HW110022   2.233   3.165   4.447
 3041SOL    HW210023   2.076   3.209   4.464
 3042SOL     OW10024   4.893   6.635   2.217
 3042SOL    HW110025   4.948   6.556   2.193
 3042SOL    HW210026   4.911   6.710   2.153
 3043SOL     OW10027   0.750   5.596   1.677
 3043SOL    HW110028   0.836   5.648   1.681
 3043SOL    HW210029   0.747   5.545   1.591
 3044SOL     OW10030   3.270   3.558   5.656
 3044SOL    HW110031   3.269   3.571   5.557
 3044SOL    HW210032   3.178   3.538   5.688
 3045SOL     OW10033   4.924   0.646   2.889
 3045SOL    HW110034   4.923   0.647   2.989
 3045SOL    HW210035   4.953   0.735   2.855
 3046SOL     OW10036   2.405   1.271   6.458
 3046SOL    HW110037   2.453   1.188   6.486
 3046SOL    HW210038   2.405   1.278   6.359
 3047SOL     OW10039   5.865   0.383   2.457
 3047SOL    HW110040   5.842   0.468   2.410
 3047SOL    HW210041   5.841   0.305   2.400
 3048SOL     OW10042   4.220   2.502   1.590
 3048SOL    HW110043   4.197   2.440   1.515
 3048SOL    HW210044   4.139   2.518   1.647
 3049SOL     OW10045   0.771   6.946   1.989
 3049SOL    HW110046   0.781   6.982   2.082
 3049SOL    HW210047   0.699   6.877   1.988
 3050SOL     OW10048   2.883   1.030   2.412
 3050SOL    HW110049   2.857   1.126   2.424
 3050SOL    HW210050   2.865   1.002   2.317
 3051SOL     OW10051   1.989   4.233   6.891
 3051SOL    HW110052   2.047   4.279   6.824
 3051SOL    HW210053   1.937   4.160   6.846
 3052SOL     OW10054   5.647   0.278   2.262
 3052SOL    HW110055   5.718   0.213   2.237
 3052SOL    HW210056   5.557   0.241   2.237
 3053SOL     OW10057   0.120   1.843   6.697
 3053SOL    HW110058   0.153   1.753   6.725
 3053SOL    HW210059   0.085   1.892   6.777
 3054SOL     OW10060   6.608   1.728   0.774
 3054SOL    HW110061   6.596   1.665   0.697
 3054SOL    HW210062   6.553   1.810   0.759
 3055SOL     OW10063   4.971   6.658   3.955
 3055SOL    HW110064   4.986   6.593   4.030
 3055SOL    HW210065   5.050   6.658   3.895
 3056SOL     OW10066   5.784   1.072   5.041
 3056SOL    HW110067   5.742   1.153   5.080
 3056SOL    HW210068   5.773   1.073   4.941
 3057SOL     OW10069   3.837   6.051   3.264
 3057SOL    HW110070   3.738   6.066   3.265
 3057SOL    HW210071   3.864   6.004   3.348
 3058SOL     OW10072   6.807   5.592   1.173
 3058SOL    HW110073   6.903   5.606   1.195
 3058SOL    HW210074   6.763   5.680   1.157
 3059SOL     OW10075   2.638   2.249   4.394
 3059SOL    HW110076   2.706   2.301   4.343
 3059SOL    HW210077   2.567   2.216   4.331
 3060SOL     OW10078   0.449   5.149   0.587
 3060SOL    HW110079   0.430   5.207   0.507
 3060SOL    HW210080   0.400   5.184   0.666
 3061SOL     OW10081   6.261   7.016   5.894
 3061SOL    HW110082   6.332   0.035   5.833
 3061SOL    HW210083   6.185   0.063   5.898
 3062SOL     OW10084   1.598   6.520   0.012
 3062SOL    HW110085   1.641   6.527   0.102
 3062SOL    HW210086   1.600   6.424   6.999
 3063SOL     OW10087   2.860   5.539   1.505
 3063SOL    HW110088   2.763   5.557   1.520
 3063SOL    HW210089   2.876   5.440   1.505
 3064SOL     OW10090   5.857   4.281   3.227
 3064SOL    HW110091   5.915   4.354   3.263
 3064SOL    HW210092   5.820   4.309   3.138
 3065SOL     OW10093   2.588   0.846   0.032
 3065SOL    HW110094   2.570   0.877   0.125
 3065SOL    HW210095   2.644   0.913   7.001
 3066SOL     OW10096   5.634   4.939   0.729
 3066SOL    HW110097   5.538   4.911   0.724
 3066SOL    HW210098   5.645   5.031   0.691
 3067SOL     OW10099   3.768   1.742   5.506
 3067SOL    HW110100   3.780   1.836   5.473
 3067SOL    HW210101   3.723   1.687   5.435
 3068SOL     OW10102   6.465   6.660   1.666
 3068SOL    HW110103   6.484   6.703   1.578
 3068SOL    HW210104   6.373   6.621   1.665
 3069SOL     OW10105   6.492   6.421   1.843
 3069SOL    HW110106   6.485   6.421   1.743
 3069SOL    HW210107   6.413   6.469   1.882
 3070SOL     OW10108   1.410   1.173   1.222
 3070SOL    HW110109   1.413   1.109   1.145
 3070SOL    HW210110   1.435   1.124   1.306
 3071SOL     OW10111   6.471   6.218   2.602
 3071SOL    HW110112   6.571   6.218   2.603
 3071SOL    HW210113   6.437   6.169   2.683
 3072SOL     OW10114   1.883   6.841   6.663
 3072SOL    HW110115   1.805   6.864   6.606
 3072SOL    HW210116   1.884   6.900   6.744
 3073SOL     OW10117   6.215   2.802   4.574
 3073SOL    HW110118   6.235   2.767   4.666
 3073SOL    HW210119   6.282   2.871   4.549
 3074SOL     OW10120   5.973   3.289   1.296
 3074SOL    HW110121   5.942   3.224   1.227
 3074SOL    HW210122   5.899   3.307   1.361
 3075SOL     OW10123   2.647   5.590   1.942
 3075SOL    HW110124   2.703   5.628   2.016
 3075SOL    HW210125   2.704   5.575   1.861
 3076SOL     OW10126   6.632   0.489   4.119
 3076SOL    HW110127   6.617   0.406   4.171
 3076SOL    HW210128   6.685   0.554   4.173
 3077SOL     OW10129   4.950   5.989   2.086
 3077SOL    HW110130   5.024   5.930   2.053
 3077SOL    HW210131   4.887   5.935   2.141
 3078SOL     OW10132   1.032   3.111   2.369
 3078SOL    HW110133   1.114   3.161   2.342
 3078SOL    HW210134   1.002   3.141   2.459
 3079SOL     OW10135   2.009   2.418   4.022
 3079SOL    HW110136   1.926   2.462   3.988
 3079SOL    HW210137   1.998   2.319   4.022
 3080SOL     OW10138   4.937   3.796   3.926
 3080SOL    HW110139   4.908   3.761   3.837
 3080SOL    HW210140   4.901   3.888   3.938
 3081SOL     OW10141   0.380   2.410   5.975
 3081SOL    HW110142   0.463   2.355   5.978
 3081SOL    HW210143   0.300   2.350   5.986
 3082SOL     OW10144   2.846   6.763   4.155
 3082SOL    HW110145   2.789   6.745   4.235
 3082SOL    HW210146   2.810   6.715   4.076
 3083SOL     OW10147   4.058   6.307   3.696
 3083SOL    HW110148   4.019   6.331   3.607
 3083SOL    HW210149   4.048   6.209   3.711
 3084SOL     OW10150   5.508   3.656   4.568
 3084SOL    HW110151   5.526   3.635   4.472
 3084SOL    HW210152   5.456   3.582   4.609
 3085SOL     OW10153   6.974   4.582   1.554
 3085SOL    HW110154   0.020   4.643   1.508
 3085SOL    HW210155   6.948   4.620   1.643
 3086SOL     OW10156   3.899   1.886   1.683
 3086SOL    HW110157   3.902   1.938   1.768
 3086SOL    HW210158   3.809   1.843   1.673
 3087SOL     OW10159   0.383   5.781   3.912
 3087SOL    HW110160   0.319   5.780   3.989
 3087SOL    HW210161   0.467   5.827   3.940
 3088SOL     OW10162   2.039   4.349   5.368
 3088SOL    HW110163   2.051   4.257   5.330
 3088SOL    HW210164   1.953   4.388   5.333
 3089SOL     OW10165   1.163   3.258   0.094
 3089SOL    HW110166   1.135   3.350   0.069
 3089SOL    HW210167   1.172   3.251   0.194
 3090SOL     OW10168   1.597   2.123   2.106
 3090SOL    HW110169   1.565   2.218   2.116
 3090SOL    HW210170   1.697   2.122   2.105
 3091SOL     OW10171   1.853   0.921   1.181
 3091SOL    HW110172   1.897   0.889   1.097
 3091SOL    HW210173   1.858   1.021   1.185
 3092SOL     OW10174   4.992   6.829   0.604
 3092SOL    HW110175   4.897   6.803   0.585
 3092SOL    HW210176   4.993   6.914   0.656
 3093SOL     OW10177   5.086   6.180   5.620
 3093SOL    HW110178   5.155   6.218   5.559
 3093SOL    HW210179   4.995   6.211   5.591
 3094SOL     OW10180   2.819   6.641   4.436
 3094SOL    HW110181   2.768   6.555   4.442
 3094SOL    HW210182   2.917   6.621   4.430
 3095SOL     OW10183   2.056   5.494   5.749
 3095SOL    HW110184   1.978   5.432   5.754
 3095SOL    HW210185   2.065   5.530   5.656
 3096SOL     OW10186   1.732   6.587   4.814
 3096SOL    HW110187   1.690   6.496   4.823
 3096SOL    HW210188   1.736   6.631   4.903
 3097SOL     OW10189   6.716   2.461   0.480
 3097SOL    HW110190   6.752   2.370   0.460
 3097SOL    HW210191   6.765   2.501   0.557
 3098SOL     OW10192   2.881   2.917   1.082
 3098SOL    HW110193   2.910   2.898   1.175
 3098SOL    HW210194   2.935   2.993   1.045
 3099SOL     OW10195   0.608   6.763   2.819
 3099SOL    HW110196   0.648   6.688   2.871
 3099SOL    HW210197   0.668   6.843   2.824
 3100SOL     OW10198   6.628   0.027   4.900
 3100SOL    HW110199   6.614   0.005   4.803
 3100SOL    HW210200   6.628   6.960   4.953
 3101SOL     OW10201   4.861   6.799   6.516
 3101SOL    HW110202   4.786   6.846   6.561
 3101SOL    HW210203   4.853   6.810   6.417
 3102SOL     OW10204   0.269   4.592   2.536
 3102SOL    HW110205   0.175   4.624   2.522
 3102SOL    HW210206   0.322   4.664   2.581
 3103SOL     OW10207   4.336   0.206   2.531
 3103SOL    HW110208   4.236   0.212   2.530
 3103SOL    HW210209   4.372   0.263   2.605
 3104SOL     OW10210   5.391   6.452   5.213
 3104SOL    HW110211   5.485   6.479   5.231
 3104SOL    HW210212   5.378   6.441   5.114
 3105SOL     OW10213   5.871   4.433   2.109
 3105SOL    HW110214   5.892   4.531   2.103
 3105SOL    HW210215   5.785   4.413   2.063
 3106SOL     OW10216   6.256   2.008   2.638
 3106SOL    HW110217   6.317   2.085   2.618
 3106SOL    HW210218   6.161   2.040   2.640
 3107SOL     OW10219   4.070   1.025   4.611
 3107SOL    HW110220   4.150   1.040   4.668
 3107SOL    HW210221   4.006   0.963   4.657
 3108SOL     OW10222   0.734   0.066   4.095
 3108SOL    HW110223   0.684   0.107   4.171
 3108SOL    HW210224   0.818   0.023   4.129
 3109SOL     OW10225   5.233   0.151   2.821
 3109SOL    HW110226   5.318   0.198   2.798
 3109SOL    HW210227   5.201   0.098   2.742
 3110SOL     OW10228   1.822   2.024   3.200
 3110SOL    HW110229   1.879   1.993   3.277
 3110SOL    HW210230   1.880   2.052   3.124
 3111SOL     OW10231   5.903   6.332   3.690
 3111SOL    HW110232   5.976   6.266   3.709
 3111SOL    HW210233   5.907   6.359   3.594
 3112SOL     OW10234   4.778   2.486   6.489
 3112SOL    HW110235   4.735   2.436   6.414
 3112SOL    HW210236   4.722   2.477   6.571
 3113SOL     OW10237   1.982   6.184   3.799
 3113SOL    HW110238   1.925   6.101   3.803
 3113SOL    HW210239   1.944   6.247   3.731
 3114SOL     OW10240   3.989   2.017   0.658
 3114SOL    HW110241   3.912   2.076   0.633
 3114SOL    HW210242   4.031   2.052   0.742
 3115SOL     OW10243   4.176   3.392   6.352
 3115SOL    HW110244   4.113   3.332   6.401
 3115SOL    HW210245   4.225   3.339   6.282
 3116SOL     OW10246   0.246   2.657   0.128
 3116SOL    HW110247   0.324   2.718   0.142
 3116SOL    HW210248   0.230   2.605   0.211
 3117SOL     OW10249   4.216   3.506   5.182
 3117SOL    HW110250   4.235   3.503   5.084
 3117SOL    HW210251   4.222   3.601   5.214
 3118SOL     OW10252   0.227   4.517   1.672
 3118SOL    HW110253   0.128   4.527   1.667
 3118SOL    HW210254   0.255   4.432   1.628
 3119SOL     OW10255   1.786   3.753   5.915
 3119SOL    HW110256   1.765   3.733   6.011
 3119SOL    HW210257   1.818   3.848   5.907
 3120SOL     OW10258   3.200   6.662   4.863
 3120SOL    HW110259   3.101   6.646   4.863
 3120SOL    HW210260   3.222   6.736   4.926
 3121SOL     OW10261   6.950   1.534   3.467
 3121SOL    HW110262   6.900   1.484   3.537
 3121SOL    HW210263   6.912   1.626   3.458
 3122SOL     OW10264   3.221   6.831   6.116
 3122SOL    HW110265   3.147   6.897   6.128
 3122SOL    HW210266   3.183   6.741   6.096
 3123SOL     OW10267   4.335   1.516   4.010
 3123SOL    HW110268   4.358   1.429   4.054
 3123SOL    HW210269   4.403   1.538   3.940
 3124SOL     OW10270   4.265   6.658   4.610
 3124SOL    HW110271   4.200   6.705   4.551
 3124SOL    HW210272   4.225   6.644   4.701
 3125SOL     OW10273   6.572   1.998   4.909
 3125SOL    HW110274   6.557   1.966   4.815
 3125SOL    HW210275   6.665   2.032   4.918
 3126SOL     OW10276   4.382   4.925   6.451
 3126SOL    HW110277   4.347   4.851   6.393
 3126SOL    HW210278   4.409   4.887   6.540
 3127SOL     OW10279   1.088   3.688   3.677
 3127SOL    HW110280   1.087   3.592   3.707
 3127SOL    HW210281   1.112   3.692   3.580
 3128SOL     OW10282   2.264   0.725   6.841
 3128SOL    HW110283   2.344   0.697   6.894
 3128SOL    HW210284   2.218   0.800   6.888
 3129SOL     OW10285   0.417   3.957   6.339
 3129SOL    HW110286   0.378   4.049   6.338
 3129SOL    HW210287   0.392   3.911   6.424
 3130SOL     OW10288   1.938   4.356   1.224
 3130SOL    HW110289   1.886   4.319   1.147
 3130SOL    HW210290   2.020   4.299   1.238
 3131SOL     OW10291   6.996   2.750   1.217
 3131SOL    HW110292   7.003   2.715   1.124
 3131SOL    HW210293   6.975   2.848   1.214
 3132SOL     OW10294   4.678   5.742   5.841
 3132SOL    HW110295   4.756   5.753   5.903
 3132SOL    HW210296   4.618   5.823   5.849
 3133SOL     OW10297   3.529   2.140   3.949
 3133SOL    HW110298   3.489   2.073   3.886
 3133SOL    HW210299   3.518   2.232   3.910
 3134SOL     OW10300   4.980   4.498   1.203
 3134SOL    HW110301   4.919   4.451   1.139
 3134SOL    HW210302   5.067   4.517   1.158
 3135SOL     OW10303   5.423   0.408   5.342
 3135SOL    HW110304   5.393   0.319   5.308
 3135SOL    HW210305   5.382   0.480   5.287
 3136SOL     OW10306   5.334   0.520   1.061
 3136SOL    HW110307   5.390   0.492   1.139
 3136SOL    HW210308   5.263   0.583   1.091
 3137SOL     OW10309   6.134   0.716   2.831
 3137SOL    HW110310   6.203   0.718   2.759
 3137SOL    HW210311   6.059   0.778   2.808
 3138SOL     OW10312   6.122   3.413   3.994
 3138SOL    HW110313   6.126   3.325   4.041
 3138SOL    HW210314   6.194   3.473   4.028
 3139SOL     OW10315   5.159   6.358   0.449
 3139SOL    HW110316   5.085   6.309   0.404
 3139SOL    HW210317   5.124   6.401   0.533
 3140SOL     OW10318   6.251   6.966   6.357
 3140SOL    HW110319   6.247   6.926   6.449
 3140SOL    HW210320   6.339   6.944   6.316
 3141SOL     OW10321   6.935   6.452   6.183
 3141SOL    HW110322   6.945   6.356   6.206
 3141SOL    HW210323   6.963   6.467   6.088
 3142SOL     OW10324   3.648   6.756   1.810
 3142SOL    HW110325   3.659   6.660   1.835
 3142SOL    HW210326   3.726   6.785   1.754
 3143SOL     OW10327   6.659   1.609   6.590
 3143SOL    HW110328   6.720   1.643   6.519
 3143SOL    HW210329   6.565   1.610   6.556
 3144SOL     OW10330   4.157   4.454   1.411
 3144SOL    HW110331   4.148   4.377   1.348
 3144SOL    HW210332   4.139   4.421   1.505
 3145SOL     OW10333   1.925   5.753   1.652
 3145SOL    HW110334   1.982   5.672   1.638
 3145SOL    HW210335   1.837   5.725   1.689
 3146SOL     OW10336   1.425   0.058   2.647
 3146SOL    HW110337   1.494   7.014   2.609
 3146SOL    HW210338   1.360   0.083   2.576
 3147SOL     OW10339   2.989   4.848   0.361
 3147SOL    HW110340   2.932   4.914   0.312
 3147SOL    HW210341   3.014   4.773   0.300
 3148SOL     OW10342   4.920   6.001   4.281
 3148SOL    HW110343   4.866   6.068   4.230
 3148SOL    HW210344   4.935   6.035   4.374
 3149SOL     OW10345   2.503   1.578   6.033
 3149SOL    HW110346   2.424   1.638   6.016
 3149SOL    HW210347   2.535   1.592   6.127
 3150SOL     OW10348   6.585   6.336   3.824
 3150SOL    HW110349   6.581   6.242   3.858
 3150SOL    HW210350   6.564   6.399   3.898
 3151SOL     OW10351   4.222   1.626   6.204
 3151SOL    HW110352   4.316   1.644   6.232
 3151SOL    HW210353   4.219   1.544   6.147
 3152SOL     OW10354   1.278   6.298   0.284
 3152SOL    HW110355   1.221   6.379   0.269
 3152SOL    HW210356   1.308   6.295   0.380
 3153SOL     OW10357   6.558   4.854   2.357
 3153SOL    HW110358   6.572   4.787   2.430
 3153SOL    HW210359   6.504   4.814   2.284
 3154SOL     OW10360   6.544   0.755   6.703
 3154SOL    HW110361   6.450   0.765   6.669
 3154SOL    HW210362   6.575   0.661   6.688
 3155SOL     OW10363   6.556   4.353   1.223
 3155SOL    HW110364   6.486   4.291   1.187
 3155SOL    HW210365   6.539   4.369   1.320
 3156SOL     OW10366   3.282   3.535   3.296
 3156SOL    HW110367   3.367   3.489   3.270
 3156SOL    HW210368   3.209   3.467   3.303
 3157SOL     OW10369   2.269   2.779   4.875
 3157SOL    HW110370   2.280   2.869   4.916
 3157SOL    HW210371   2.358   2.741   4.853
 3158SOL     OW10372   4.069   0.130   2.547
 3158SOL    HW110373   4.000   0.125   2.474
 3158SOL    HW210374   4.140   0.061   2.531
 3159SOL     OW10375   5.543   1.542   0.292
 3159SOL    HW110376   5.452   1.573   0.264
 3159SOL    HW210377   5.561   1.451   0.254
 3160SOL     OW10378   0.478   6.194   4.824
 3160SOL    HW110379   0.451   6.286   4.853
 3160SOL    HW210380   0.563   6.168   4.870
 3161SOL     OW10381   1.544   2.417   4.047
 3161SOL    HW110382   1.464   2.397   3.991
 3161SOL    HW210383   1.516   2.425   4.143
 3162SOL     OW10384   1.233   6.545   1.584
 3162SOL    HW110385   1.202   6.607   1.656
 3162SOL    HW210386   1.213   6.451   1.611
 3163SOL     OW10387   3.505   1.911   6.134
 3163SOL    HW110388   3.451   1.985   6.094
 3163SOL    HW210389   3.484   1.904   6.232
 3164SOL     OW10390   4.441   4.305   1.441
 3164SOL    HW110391   4.389   4.372   1.493
 3164SOL    HW210392   4.439   4.217   1.488
 3165SOL     OW10393   0.969   5.831   0.977
 3165SOL    HW110394   0.995   5.900   1.045
 3165SOL    HW210395   0.909   5.763   1.020
 3166SOL     OW10396   4.350   1.442   5.733
 3166SOL    HW110397   4.377   1.459   5.638
 3166SOL    HW210398   4.423   1.472   5.794
 3167SOL     OW10399   6.839   3.752   1.672
 3167SOL    HW110400   6.820   3.678   1.608
 3167SOL    HW210401   6.904   3.816   1.631
 3168SOL     OW10402   4.924   2.720   6.476
 3168SOL    HW110403   4.995   2.659   6.510
 3168SOL    HW210404   4.834   2.676   6.485
 3169SOL     OW10405   1.697   3.301   4.702
 3169SOL    HW110406   1.747   3.360   4.639
 3169SOL    HW210407   1.620   3.351   4.742
 3170SOL     OW10408   4.129   0.741   1.446
 3170SOL    HW110409   4.068   0.750   1.524
 3170SOL    HW210410   4.222   0.720   1.479
 3171SOL     OW10411   0.717   6.282   1.188
 3171SOL    HW110412   0.739   6.300   1.092
 3171SOL    HW210413   0.618   6.290   1.201
 3172SOL     OW10414   0.342   5.158   6.118
 3172SOL    HW110415   0.345   5.153   6.018
 3172SOL    HW210416   0.257   5.117   6.150
 3173SOL     OW10417   2.947   2.126   0.801
 3173SOL    HW110418   2.878   2.094   0.866
 3173SOL    HW210419   3.035   2.137   0.848
 3174SOL     OW10420   2.845   3.206   6.277
 3174SOL    HW110421   2.854   3.117   6.231
 3174SOL    HW210422   2.797   3.269   6.217
 3175SOL     OW10423   0.313   6.771   0.251
 3175SOL    HW110424   0.349   6.803   0.163
 3175SOL    HW210425   0.389   6.742   0.309
 3176SOL     OW10426   1.952   5.097   5.273
 3176SOL    HW110427   2.001   5.174   5.315
 3176SOL    HW210428   2.006   5.014   5.283
 3177SOL     OW10429   4.696   4.685   4.869
 3177SOL    HW110430   4.685   4.592   4.834
 3177SOL    HW210431   4.613   4.712   4.919
 3178SOL     OW10432   6.573   2.053   0.611
 3178SOL    HW110433   6.658   2.001   0.612
 3178SOL    HW210434   6.520   2.029   0.529
 3179SOL     OW10435   1.722   2.706   1.998
 3179SOL    HW110436   1.676   2.785   1.959
 3179SOL    HW210437   1.795   2.736   2.059
 3180SOL     OW10438   4.681   0.855   6.905
 3180SOL    HW110439   4.666   0.770   6.854
 3180SOL    HW210440   4.742   0.838   6.982
 3181SOL     OW10441   1.136   1.204   3.003
 3181SOL    HW110442   1.122   1.158   3.090
 3181SOL    HW210443   1.113   1.142   2.928
 3182SOL     OW10444   2.094   1.641   4.673
 3182SOL    HW110445   2.056   1.694   4.597
 3182SOL    HW210446   2.089   1.696   4.757
 3183SOL     OW10447   4.382   3.871   1.311
 3183SOL    HW110448   4.412   3.891   1.404
 3183SOL    HW210449   4.297   3.921   1.292
 3184SOL     OW10450   1.298   2.645   3.052
 3184SOL    HW110451   1.253   2.727   3.086
 3184SOL    HW210452   1.397   2.662   3.043
 3185SOL     OW10453   5.966   6.452   6.979
 3185SOL    HW110454   5.996   6.542   7.009
 3185SOL    HW210455   5.883   6.427   0.011
 3186SOL     OW10456   3.965   1.961   2.570
 3186SOL    HW110457   4.017   1.932   2.490
 3186SOL    HW210458   3.904   2.036   2.545
 3187SOL     OW10459   4.514   3.960   0.580
 3187SOL    HW110460   4.484   3.989   0.489
 3187SOL    HW210461   4.613   3.944   0.579
 3188SOL     OW10462   4.038   6.405   5.211
 3188SOL    HW110463   3.951   6.454   5.217
 3188SOL    HW210464   4.070   6.383   5.304
 3189SOL     OW10465   1.864   1.214   1.752
 3189SOL    HW110466   1.900   1.301   1.787
 3189SOL    HW210467   1.932   1.170   1.694
 3190SOL     OW10468   0.344   6.044   1.524
 3190SOL    HW110469   0.268   6.099   1.558
 3190SOL    HW210470   0.407   6.025   1.600
 3191SOL     OW10471   4.503   6.346   0.726
 3191SOL    HW110472   4.564   6.424   0.736
 3191SOL    HW210473   4.414   6.367   0.766
 3192SOL     OW10474   0.065   2.430   1.237
 3192SOL    HW110475   0.086   2.528   1.243
 3192SOL    HW210476   0.057   2.403   1.141
 3193SOL     OW10477   4.059   1.612   5.937
 3193SOL    HW110478   3.968   1.584   5.967
 3193SOL    HW210479   4.051   1.680   5.865
 3194SOL     OW10480   0.666   3.607   5.784
 3194SOL    HW110481   0.642   3.638   5.876
 3194SOL    HW210482   0.673   3.507   5.784
 3195SOL     OW10483   2.315   2.266   3.197
 3195SOL    HW110484   2.385   2.336   3.214
 3195SOL    HW210485   2.285   2.272   3.102
 3196SOL     OW10486   0.043   0.520   5.304
 3196SOL    HW110487   6.977   0.566   5.333
 3196SOL    HW210488   0.023   0.459   5.227
 3197SOL     OW10489   1.741   6.216   3.367
 3197SOL    HW110490   1.811   6.207   3.296
 3197SOL    HW210491   1.653   6.185   3.330
 3198SOL     OW10492   6.499   2.103   5.773
 3198SOL    HW110493   6.567   2.032   5.753
 3198SOL    HW210494   6.411   2.059   5.796
 3199SOL     OW10495   4.720   2.740   2.015
 3199SOL    HW110496   4.679   2.713   1.928
 3199SOL    HW210497   4.725   2.839   2.020
 3200SOL     OW10498   0.007   2.501   2.077
 3200SOL    HW110499   0.030   2.548   2.162
 3200SOL    HW210500   6.945   2.441   2.092
 3201SOL     OW10501   5.285   4.932   4.635
 3201SOL    HW110502   5.314   4.935   4.731
 3201SOL    HW210503   5.185   4.931   4.631
 3202SOL     OW10504   1.530   4.839   2.038
 3202SOL    HW110505   1.441   4.809   2.074
 3202SOL    HW210506   1.542   4.802   1.946
 3203SOL     OW10507   5.984   2.332   0.079
 3203SOL    HW110508   6.048   2.373   0.014
 3203SOL    HW210509   5.891   2.366   0.060
 3204SOL     OW10510   5.066   6.472   1.651
 3204SOL    HW110511   5.156   6.455   1.611
 3204SOL    HW210512   5.067   6.560   1.700
 3205SOL     OW10513   0.475   3.747   6.534
 3205SOL    HW110514   0.398   3.683   6.542
 3205SOL    HW210515   0.547   3.705   6.478
 3206SOL     OW10516   7.012   6.513   5.910
 3206SOL    HW110517   6.981   6.593   5.857
 3206SOL    HW210518   0.094   6.513   5.915
 3207SOL     OW10519   0.401   1.386   5.899
 3207SOL    HW110520   0.361   1.439   5.824
 3207SOL    HW210521   0.329   1.353   5.959
 3208SOL     OW10522   4.868   6.256   5.484
 3208SOL    HW110523   4.912   6.182   5.435
 3208SOL    HW210524   4.866   6.338   5.427
 3209SOL     OW10525   3.464   5.211   3.316
 3209SOL    HW110526   3.439   5.165   3.230
 3209SOL    HW210527   3.387   5.268   3.346
 3210SOL     OW10528   0.928   3.801   2.232
 3210SOL    HW110529   0.892   3.871   2.171
 3210SOL    HW210530   0.988   3.739   2.181
 3211SOL     OW10531   2.692   3.178   0.954
 3211SOL    HW110532   2.704   3.108   0.884
 3211SOL    HW210533   2.611   3.157   1.009
 3212SOL     OW10534   3.663   1.401   0.188
 3212SOL    HW110535   3.659   1.499   0.171
 3212SOL    HW210536   3.610   1.353   0.117
 3213SOL     OW10537   6.087   6.264   2.603
 3213SOL    HW110538   6.185   6.286   2.602
 3213SOL    HW210539   6.036   6.337   2.557
 3214SOL     OW10540   5.164   5.266   0.225
 3214SOL    HW110541   5.247   5.234   0.178
 3214SOL    HW210542   5.132   5.196   0.289
 3215SOL     OW10543   0.532   2.924   1.020
 3215SOL    HW110544   0.506   2.947   1.114
 3215SOL    HW210545   0.618   2.874   1.020
 3216SOL     OW10546   5.490   5.298   1.832
 3216SOL    HW110547   5.399   5.256   1.824
 3216SOL    HW210548   5.482   5.386   1.879
 3217SOL     OW10549   0.468   5.690   2.727
 3217SOL    HW110550   0.481   5.599   2.765
 3217SOL    HW210551   0.415   5.746   2.791
 3218SOL     OW10552   3.931   6.321   3.448
 3218SOL    HW110553   3.971   6.265   3.376
 3218SOL    HW210554   3.928   6.416   3.419
 3219SOL     OW10555   7.015   1.809   3.192
 3219SOL    HW110556   0.094   1.782   3.189
 3219SOL    HW210557   6.986   1.814   3.288
 3220SOL     OW10558   6.389   6.108   6.070
 3220SOL    HW110559   6.366   6.164   5.991
 3220SOL    HW210560   6.316   6.115   6.138
 3221SOL     OW10561   3.383   0.495   2.043
 3221SOL    HW110562   3.440   0.566   2.085
 3221SOL    HW210563   3.352   0.526   1.954
 3222SOL     OW10564   4.279   1.746   3.528
 3222SOL    HW110565   4.194   1.745   3.476
 3222SOL    HW210566   4.320   1.655   3.525
 3223SOL     OW10567   1.825   5.010   6.811
 3223SOL    HW110568   1.810   5.108   6.795
 3223SOL    HW210569   1.809   4.989   6.908
 3224SOL     OW10570   3.940   4.977   6.439
 3224SOL    HW110571   3.888   4.964   6.355
 3224SOL    HW210572   3.998   5.058   6.430
 3225SOL     OW10573   4.479   2.764   5.278
 3225SOL    HW110574   4.517   2.751   5.186
 3225SOL    HW210575   4.515   2.848   5.317
 3226SOL     OW10576   1.167   1.829   4.766
 3226SOL    HW110577   1.233   1.755   4.784
 3226SOL    HW210578   1.093   1.825   4.834
 3227SOL     OW10579   2.867   2.369   6.273
 3227SOL    HW110580   2.874   2.459   6.317
 3227SOL    HW210581   2.846   2.300   6.342
 3228SOL     OW10582   5.584   3.520   3.427
 3228SOL    HW110583   5.649   3.535   3.353
 3228SOL    HW210584   5.633   3.503   3.512
 3229SOL     OW10585   3.431   1.822   5.282
 3229SOL    HW110586   3.447   1.770   5.366
 3229SOL    HW210587   3.516   1.830   5.231
 3230SOL     OW10588   0.872   3.068   3.775
 3230SOL    HW110589   0.898   3.128   3.700
 3230SOL    HW210590   0.946   3.002   3.791
 3231SOL     OW10591   2.977   6.926   2.259
 3231SOL    HW110592   2.946   6.878   2.341
 3231SOL    HW210593   2.923   7.008   2.245
 3232SOL     OW10594   4.141   4.732   4.038
 3232SOL    HW110595   4.077   4.687   4.101
 3232SOL    HW210596   4.227   4.749   4.085
 3233SOL     OW10597   2.060   3.009   1.390
 3233SOL    HW110598   2.048   3.067   1.309
 3233SOL    HW210599   1.994   2.934   1.387
 3234SOL     OW10600   0.137   2.113   0.341
 3234SOL    HW110601   0.198   2.193   0.347
 3234SOL    HW210602   0.062   2.134   0.279
 3235SOL     OW10603   4.577   6.614   1.315
 3235SOL    HW110604   4.666   6.657   1.302
 3235SOL    HW210605   4.552   6.563   1.233
 3236SOL     OW10606   1.524   3.246   0.957
 3236SOL    HW110607   1.433   3.205   0.959
 3236SOL    HW210608   1.525   3.322   0.892
 3237SOL     OW10609   5.495   1.540   4.165
 3237SOL    HW110610   5.525   1.629   4.201
 3237SOL    HW210611   5.514   1.536   4.067
 3238SOL     OW10612   0.082   4.681   0.333
 3238SOL    HW110613   0.165   4.737   0.330
 3238SOL    HW210614   0.059   4.651   0.240
 3239SOL     OW10615   5.570   1.843   0.475
 3239SOL    HW110616   5.541   1.908   0.405
 3239SOL    HW210617   5.642   1.784   0.437
 3240SOL     OW10618   0.819   6.287   4.805
 3240SOL    HW110619   0.750   6.354   4.832
 3240SOL    HW210620   0.876   6.325   4.732
 3241SOL     OW10621   4.914   1.245   4.450
 3241SOL    HW110622   4.948   1.219   4.540
 3241SOL    HW210623   4.989   1.285   4.396
 3242SOL     OW10624   3.101   4.702   1.430
 3242SOL    HW110625   3.044   4.626   1.399
 3242SOL    HW210626   3.162   4.730   1.356
 3243SOL     OW10627   6.211   5.106   6.947
 3243SOL    HW110628   6.270   5.028   6.968
 3243SOL    HW210629   6.139   5.113   7.016
 3244SOL     OW10630   5.060   5.750   0.229
 3244SOL    HW110631   5.159   5.761   0.239
 3244SOL    HW210632   5.020   5.724   0.317
 3245SOL     OW10633   5.061   2.446   5.655
 3245SOL    HW110634   5.057   2.461   5.557
 3245SOL    HW210635   5.051   2.349   5.676
 3246SOL     OW10636   6.252   0.971   3.023
 3246SOL    HW110637   6.198   0.896   3.063
 3246SOL    HW210638   6.306   1.015   3.094
 3247SOL     OW10639   6.533   5.172   3.852
 3247SOL    HW110640   6.490   5.250   3.807
 3247SOL    HW210641   6.621   5.153   3.808
 3248SOL     OW10642   6.019   3.528   1.662
 3248SOL    HW110643   5.953   3.603   1.655
 3248SOL    HW210644   6.111   3.562   1.646
 3249SOL     OW10645   3.756   4.028   5.442
 3249SOL    HW110646   3.787   3.998   5.352
 3249SOL    HW210647   3.680   3.970   5.472
 3250SOL     OW10648   5.843   0.834   2.520
 3250SOL    HW110649   5.753   0.791   2.529
 3250SOL    HW210650   5.870   0.873   2.608
 3251SOL     OW10651   3.905   1.134   2.727
 3251SOL    HW110652   3.814   1.175   2.722
 3251SOL    HW210653   3.974   1.206   2.730
 3252SOL     OW10654   2.776   1.278   2.470
 3252SOL    HW110655   2.737   1.336   2.542
 3252SOL    HW210656   2.818   1.335   2.400
 3253SOL     OW10657   5.073   3.479   2.609
 3253SOL    HW110658   5.014   3.433   2.676
 3253SOL    HW210659   5.168   3.478   2.642
 3254SOL     OW10660   4.002   5.354   5.352
 3254SOL    HW110661   4.040   5.426   5.294
 3254SOL    HW210662   3.956   5.286   5.295
 3255SOL     OW10663   4.383   6.207   1.473
 3255SOL    HW110664   4.284   6.192   1.473
 3255SOL    HW210665   4.402   6.302   1.498
 3256SOL     OW10666   5.506   0.177   6.725
 3256SOL    HW110667   5.584   0.173   6.663
 3256SOL    HW210668   5.422   0.192   6.672
 3257SOL     OW10669   1.372   1.732   1.526
 3257SOL    HW110670   1.398   1.678   1.607
 3257SOL    HW210671   1.313   1.677   1.467
 3258SOL     OW10672   3.885   5.203   2.233
 3258SOL    HW110673   3.867   5.294   2.196
 3258SOL    HW210674   3.980   5.197   2.263
 3259SOL     OW10675   4.799   6.120   3.959
 3259SOL    HW110676   4.734   6.084   4.026
 3259SOL    HW210677   4.775   6.086   3.868
 3260SOL     OW10678   1.927   1.705   1.850
 3260SOL    HW110679   1.828   1.717   1.860
 3260SOL    HW210680   1.975   1.781   1.892
 3261SOL     OW10681   4.470   6.061   0.298
 3261SOL    HW110682   4.426   6.147   0.324
 3261SOL    HW210683   4.409   5.984   0.318
 3262SOL     OW10684   3.307   1.954   2.569
 3262SOL    HW110685   3.243   1.888   2.529
 3262SOL    HW210686   3.352   1.913   2.649
 3263SOL     OW10687   4.772   0.376   3.887
 3263SOL    HW110688   4.822   0.327   3.815
 3263SOL    HW210689   4.796   0.338   3.976
 3264SOL     OW10690   1.112   4.680   0.961
 3264SOL    HW110691   1.040   4.627   0.916
 3264SOL    HW210692   1.152   4.626   1.035
 3265SOL     OW10693   4.376   2.056   5.888
 3265SOL    HW110694   4.338   1.976   5.842
 3265SOL    HW210695   4.440   2.027   5.959
 3266SOL     OW10696   1.229   2.486   0.475
 3266SOL    HW110697   1.165   2.526   0.410
 3266SOL    HW210698   1.291   2.558   0.509
 3267SOL     OW10699   3.493   1.907   0.375
 3267SOL    HW110700   3.482   1.946   0.467
 3267SOL    HW210701   3.489   1.807   0.381
 3268SOL     OW10702   1.310   3.797   6.410
 3268SOL    HW110703   1.239   3.853   6.453
 3268SOL    HW210704   1.276   3.703   6.398
 3269SOL     OW10705   4.479   5.036   1.795
 3269SOL    HW110706   4.456   5.127   1.760
 3269SOL    HW210707   4.574   5.035   1.825
 3270SOL     OW10708   1.451   4.695   4.858
 3270SOL    HW110709   1.443   4.721   4.762
 3270SOL    HW210710   1.540   4.724   4.893
 3271SOL     OW10711   5.595   3.359   2.908
 3271SOL    HW110712   5.622   3.311   2.992
 3271SOL    HW210713   5.561   3.293   2.841
 3272SOL     OW10714   3.172   4.192   0.594
 3272SOL    HW110715   3.155   4.186   0.496
 3272SOL    HW210716   3.085   4.194   0.643
 3273SOL     OW10717   1.145   6.729   2.081
 3273SOL    HW110718   1.082   6.800   2.111
 3273SOL    HW210719   1.177   6.677   2.161
 3274SOL     OW10720   3.964   1.936   0.166
 3274SOL    HW110721   4.044   1.956   0.222
 3274SOL    HW210722   3.882   1.931   0.223
 3275SOL     OW10723   1.295   0.794   6.671
 3275SOL    HW110724   1.392   0.799   6.695
 3275SOL    HW210725   1.251   0.721   6.723
 3276SOL     OW10726   3.219   5.390   6.950
 3276SOL    HW110727   3.317   5.376   6.966
 3276SOL    HW210728   3.206   5.464   6.885
 3277SOL     OW10729   5.397   6.668   6.794
 3277SOL    HW110730   5.352   6.726   6.726
 3277SOL    HW210731   5.496   6.684   6.791
 3278SOL     OW10732   6.525   1.350   5.780
 3278SOL    HW110733   6.492   1.391   5.866
 3278SOL    HW210734   6.486   1.258   5.770
 3279SOL     OW10735   0.535   0.899   1.054
 3279SOL    HW110736   0.537   0.818   0.995
 3279SOL    HW210737   0.442   0.911   1.090
 3280SOL     OW10738   3.393   5.310   5.839
 3280SOL    HW110739   3.403   5.403   5.873
 3280SOL    HW210740   3.361   5.312   5.745
 3281SOL     OW10741   1.658   5.627   0.877
 3281SOL    HW110742   1.570   5.586   0.900
 3281SOL    HW210743   1.694   5.674   0.957
 3282SOL     OW10744   2.514   4.977   4.402
 3282SOL    HW110745   2.593   4.920   4.378
 3282SOL    HW210746   2.438   4.957   4.340
 3283SOL     OW10747   2.774   1.200   1.835
 3283SOL    HW110748   2.856   1.174   1.784
 3283SOL    HW210749   2.726   1.273   1.786
 3284SOL     OW10750   6.294   6.429   6.633
 3284SOL    HW110751   6.208   6.395   6.596
 3284SOL    HW210752   6.354   6.456   6.558
 3285SOL     OW10753   5.974   2.604   3.456
 3285SOL    HW110754   5.891   2.618   3.509
 3285SOL    HW210755   6.046   2.666   3.488
 3286SOL     OW10756   4.098   3.443   3.744
 3286SOL    HW110757   4.043   3.383   3.686
 3286SOL    HW210758   4.119   3.396   3.830
 3287SOL     OW10759   1.350   5.913   0.458
 3287SOL    HW110760   1.345   5.813   0.457
 3287SOL    HW210761   1.304   5.948   0.539
 3288SOL     OW10762   0.704   4.879   6.775
 3288SOL    HW110763   0.676   4.971   6.805
 3288SOL    HW210764   0.643   4.849   6.701
 3289SOL     OW10765   1.987   0.027   5.771
 3289SOL    HW110766   1.943   6.985   5.703
 3289SOL    HW210767   2.006   0.116   5.729
 3290SOL     OW10768   0.472   6.836   1.964
 3290SOL    HW110769   0.478   6.885   1.877
 3290SOL    HW210770   0.492   6.739   1.949
 3291SOL     OW10771   1.274   6.166   6.555
 3291SOL    HW110772   1.360   6.213   6.536
 3291SOL    HW210773   1.197   6.228   6.542
 3292SOL     OW10774   0.258   1.423   6.939
 3292SOL    HW110775   0.350   1.401   6.970
 3292SOL    HW210776   0.191   1.372   6.994
 3293SOL     OW10777   6.222   3.228   2.692
 3293SOL    HW110778   6.227   3.283   2.609
 3293SOL    HW210779   6.311   3.187   2.710
 3294SOL     OW10780   0.261   0.781   6.036
 3294SOL    HW110781   0.208   0.768   5.952
 3294SOL    HW210782   0.199   0.798   6.112
 3295SOL     OW10783   1.689   2.485   1.548
 3295SOL    HW110784   1.601   2.505   1.590
 3295SOL    HW210785   1.677   2.472   1.449
 3296SOL     OW10786   2.341   6.144   1.367
 3296SOL    HW110787   2.290   6.215   1.318
 3296SOL    HW210788   2.432   6.134   1.326
 3297SOL     OW10789   2.739   0.501   4.950
 3297SOL    HW110790   2.742   0.442   5.031
 3297SOL    HW210791   2.699   0.589   4.974
 3298SOL     OW10792   6.020   2.596   3.772
 3298SOL    HW110793   5.947   2.650   3.729
 3298SOL    HW210794   6.109   2.634   3.747
 3299SOL     OW10795   2.366   6.564   3.578
 3299SOL    HW110796   2.292   6.507   3.540
 3299SOL    HW210797   2.326   6.637   3.633
 3300SOL     OW10798   0.005   0.697   5.642
 3300SOL    HW110799   0.011   0.779   5.699
 3300SOL    HW210800   6.991   0.722   5.550
 3301SOL     OW10801   2.133   3.917   3.439
 3301SOL    HW110802   2.148   3.820   3.458
 3301SOL    HW210803   2.156   3.971   3.520
 3302SOL     OW10804   1.427   6.222   4.314
 3302SOL    HW110805   1.518   6.261   4.328
 3302SOL    HW210806   1.378   6.277   4.247
 3303SOL     OW10807   3.663   3.348   1.312
 3303SOL    HW110808   3.591   3.279   1.320
 3303SOL    HW210809   3.641   3.411   1.238
 3304SOL     OW10810   1.562   5.063   3.427
 3304SOL    HW110811   1.657   5.074   3.399
 3304SOL    HW210812   1.548   5.104   3.517
 3305SOL     OW10813   2.643   2.184   3.158
 3305SOL    HW110814   2.707   2.132   3.214
 3305SOL    HW210815   2.685   2.205   3.070
 3306SOL     OW10816   2.438   5.235   3.735
 3306SOL    HW110817   2.408   5.140   3.733
 3306SOL    HW210818   2.359   5.294   3.751
 3307SOL     OW10819   0.697   5.430   6.577
 3307SOL    HW110820   0.726   5.387   6.491
 3307SOL    HW210821   0.598   5.423   6.586
 3308SOL     OW10822   4.668   5.958   6.976
 3308SOL    HW110823   4.618   6.035   7.016
 3308SOL    HW210824   4.766   5.978   6.979
 3309SOL     OW10825   0.803   5.461   2.376
 3309SOL    HW110826   0.804   5.555   2.411
 3309SOL    HW210827   0.746   5.457   2.294
 3310SOL     OW10828   0.077   4.446   4.664
 3310SOL    HW110829   0.112   4.406   4.579
 3310SOL    HW210830   7.008   4.402   4.688
 3311SOL     OW10831   2.839   4.921   1.441
 3311SOL    HW110832   2.856   4.855   1.514
 3311SOL    HW210833   2.909   4.992   1.442
 3312SOL     OW10834   3.283   4.375   6.105
 3312SOL    HW110835   3.195   4.326   6.109
 3312SOL    HW210836   3.306   4.411   6.195
 3313SOL     OW10837   0.134   5.350   2.600
 3313SOL    HW110838   0.066   5.368   2.529
 3313SOL    HW210839   0.190   5.271   2.574
 3314SOL     OW10840   1.763   2.303   4.924
 3314SOL    HW110841   1.841   2.365   4.927
 3314SOL    HW210842   1.699   2.326   4.998
 3315SOL     OW10843   6.337   2.934   4.296
 3315SOL    HW110844   6.391   2.979   4.367
 3315SOL    HW210845   6.396   2.874   4.243
 3316SOL     OW10846   3.301   1.493   5.904
 3316SOL    HW110847   3.322   1.588   5.928
 3316SOL    HW210848   3.215   1.466   5.947
 3317SOL     OW10849   4.970   3.027   1.825
 3317SOL    HW110850   4.896   3.039   1.891
 3317SOL    HW210851   5.005   3.117   1.797
 3318SOL     OW10852   2.950   0.403   0.183
 3318SOL    HW110853   2.935   0.486   0.238
 3318SOL    HW210854   3.028   0.352   0.221
 3319SOL     OW10855   5.922   6.838   3.882
 3319SOL    HW110856   5.978   6.907   3.927
 3319SOL    HW210857   5.970   6.803   3.802
 3320SOL     OW10858   5.225   1.163   5.934
 3320SOL    HW110859   5.187   1.190   5.845
 3320SOL    HW210860   5.194   1.071   5.957
 3321SOL     OW10861   3.427   2.398   1.730
 3321SOL    HW110862   3.455   2.450   1.650
 3321SOL    HW210863   3.505   2.385   1.791
 3322SOL     OW10864   5.058   2.876   2.022
 3322SOL    HW110865   5.036   2.919   1.935
 3322SOL    HW210866   4.988   2.808   2.044
 3323SOL     OW10867   1.737   3.818   6.998
 3323SOL    HW110868   1.671   3.891   6.983
 3323SOL    HW210869   1.804   3.818   6.923
 3324SOL     OW10870   1.010   3.811   6.491
 3324SOL    HW110871   0.995   3.817   6.392
 3324SOL    HW210872   0.922   3.817   6.538
 3325SOL     OW10873   2.266   3.422   6.573
 3325SOL    HW110874   2.199   3.493   6.551
 3325SOL    HW210875   2.285   3.367   6.492
 3326SOL     OW10876   5.054   1.767   1.720
 3326SOL    HW110877   4.999   1.693   1.760
 3326SOL    HW210878   5.001   1.852   1.721
 3327SOL     OW10879   2.760   5.905   1.287
 3327SOL    HW110880   2.802   5.988   1.250
 3327SOL    HW210881   2.822   5.827   1.273
 3328SOL     OW10882   4.233   1.790   2.959
 3328SOL    HW110883   4.139   1.822   2.946
 3328SOL    HW210884   4.250   1.776   3.056
 3329SOL     OW10885   4.684   6.999   5.601
 3329SOL    HW110886   4.720   6.944   5.526
 3329SOL    HW210887   4.591   6.967   5.623
 3330SOL     OW10888   5.440   6.293   2.169
 3330SOL    HW110889   5.536   6.273   2.187
 3330SOL    HW210890   5.396   6.326   2.252
 3331SOL     OW10891   1.519   2.750   2.516
 3331SOL    HW110892   1.503   2.652   2.519
 3331SOL    HW210893   1.602   2.769   2.463
 3332SOL     OW10894   6.754   4.241   6.901
 3332SOL    HW110895   6.846   4.281   6.908
 3332SOL    HW210896   6.688   4.301   6.947
 3333SOL     OW10897   2.516   3.450   6.933
 3333SOL    HW110898   2.516   3.444   6.833
 3333SOL    HW210899   2.608   3.431   6.967
 3334SOL     OW10900   2.129   3.216   2.080
 3334SOL    HW110901   2.203   3.281   2.061
 3334SOL    HW210902   2.092   3.182   1.994
 3335SOL     OW10903   5.129   6.089   6.505
 3335SOL    HW110904   5.126   6.185   6.477
 3335SOL    HW210905   5.113   6.031   6.426
 3336SOL     OW10906   2.262   6.867   4.004
 3336SOL    HW110907   2.176   6.917   4.008
 3336SOL    HW210908   2.306   6.869   4.094
 3337SOL     OW10909   2.743   3.893   1.199
 3337SOL    HW110910   2.725   3.988   1.224
 3337SOL    HW210911   2.841   3.882   1.178
 3338SOL     OW10912   0.318   2.276   1.717
 3338SOL    HW110913   0.286   2.350   1.775
 3338SOL    HW210914   0.409   2.247   1.746
 3339SOL     OW10915   1.693   6.995   6.552
 3339SOL    HW110916   1.594   7.001   6.569
 3339SOL    HW210917   1.729   0.068   6.532
 3340SOL     OW10918   4.070   1.287   4.491
 3340SOL    HW110919   3.984   1.335   4.474
 3340SOL    HW210920   4.050   1.196   4.527
 3341SOL     OW10921   2.146   4.349   3.935
 3341SOL    HW110922   2.187   4.259   3.951
 3341SOL    HW210923   2.218   4.416   3.918
 3342SOL     OW10924   1.055   0.699   2.676
 3342SOL    HW110925   0.973   0.752   2.654
 3342SOL    HW210926   1.082   0.647   2.595
 3343SOL     OW10927   5.451   4.901   6.440
 3343SOL    HW110928   5.354   4.886   6.422
 3343SOL    HW210929   5.497   4.812   6.447
 3344SOL     OW10930   6.186   3.160   4.155
 3344SOL    HW110931   6.283   3.150   4.176
 3344SOL    HW210932   6.159   3.093   4.086
 3345SOL     OW10933   0.770   4.042   6.006
 3345SOL    HW110934   0.735   4.034   6.099
 3345SOL    HW210935   0.705   4.093   5.950
 3346SOL     OW10936   1.555   0.815   6.722
 3346SOL    HW110937   1.537   0.865   6.807
 3346SOL    HW210938   1.648   0.834   6.692
 3347SOL     OW10939   1.360   2.678   6.228
 3347SOL    HW110940   1.416   2.625   6.164
 3347SOL    HW210941   1.389   2.659   6.321
 3348SOL     OW10942   4.074   3.542   4.861
 3348SOL    HW110943   4.095   3.575   4.769
 3348SOL    HW210944   4.112   3.450   4.873
 3349SOL     OW10945   2.092   4.803   3.027
 3349SOL    HW110946   2.163   4.863   2.991
 3349SOL    HW210947   2.118   4.707   3.012
 3350SOL     OW10948   0.330   2.489   6.227
 3350SOL    HW110949   0.246   2.437   6.241
 3350SOL    HW210950   0.359   2.480   6.132
 3351SOL     OW10951   4.746   1.187   2.088
 3351SOL    HW110952   4.698   1.232   2.012
 3351SOL    HW210953   4.788   1.257   2.146
 3352SOL     OW10954   5.793   2.400   1.439
 3352SOL    HW110955   5.713   2.415   1.497
 3352SOL    HW210956   5.765   2.359   1.352
 3353SOL     OW10957   2.123   6.051   0.930
 3353SOL    HW110958   2.073   5.965   0.944
 3353SOL    HW210959   2.215   6.042   0.968
 3354SOL     OW10960   4.299   2.588   5.383
 3354SOL    HW110961   4.230   2.557   5.317
 3354SOL    HW210962   4.357   2.657   5.340
 3355SOL     OW10963   2.232   1.389   6.038
 3355SOL    HW110964   2.203   1.473   5.994
 3355SOL    HW210965   2.220   1.312   5.975
 3356SOL     OW10966   1.386   5.921   5.993
 3356SOL    HW110967   1.477   5.887   6.015
 3356SOL    HW210968   1.317   5.863   6.036
 3357SOL     OW10969   3.481   3.083   1.955
 3357SOL    HW110970   3.578   3.088   1.930
 3357SOL    HW210971   3.456   2.988   1.973
 3358SOL     OW10972   5.072   1.394   3.416
 3358SOL    HW110973   4.974   1.393   3.433
 3358SOL    HW210974   5.095   1.472   3.358
 3359SOL     OW10975   6.748   5.824   3.217
 3359SOL    HW110976   6.648   5.819   3.214
 3359SOL    HW210977   6.783   5.841   3.125
 3360SOL     OW10978   0.809   2.125   6.331
 3360SOL    HW110979   0.858   2.065   6.395
 3360SOL    HW210980   0.833   2.099   6.237
 3361SOL     OW10981   1.066   6.424   4.818
 3361SOL    HW110982   1.111   6.378   4.895
 3361SOL    HW210983   1.078   6.523   4.827
 3362SOL     OW10984   3.733   1.559   2.731
 3362SOL    HW110985   3.738   1.547   2.632
 3362SOL    HW210986   3.763   1.652   2.754
 3363SOL     OW10987   0.091   2.515   1.555
 3363SOL    HW110988   0.088   2.416   1.546
 3363SOL    HW210989   0.174   2.542   1.604
 3364SOL     OW10990   2.360   4.711   2.724
 3364SOL    HW110991   2.360   4.804   2.689
 3364SOL    HW210992   2.387   4.711   2.820
 3365SOL     OW10993   0.415   3.186   4.602
 3365SOL    HW110994   0.468   3.116   4.555
 3365SOL    HW210995   0.318   3.170   4.588
 3366SOL     OW10996   6.098   4.986   3.837
 3366SOL    HW110997   6.018   4.948   3.882
 3366SOL    HW210998   6.179   4.934   3.864
 3367SOL     OW10999   3.093   3.138   2.801
 3367SOL    HW111000   3.191   3.159   2.804
 3367SOL    HW211001   3.041   3.220   2.824
 3368SOL     OW11002   0.950   5.625   6.398
 3368SOL    HW111003   0.926   5.539   6.353
 3368SOL    HW211004   0.908   5.701   6.349
 3369SOL     OW11005   4.501   1.642   1.566
 3369SOL    HW111006   4.571   1.672   1.501
 3369SOL    HW211007   4.416   1.623   1.517
 3370SOL     OW11008   5.791   6.221   1.934
 3370SOL    HW111009   5.879   6.179   1.913
 3370SOL    HW211010   5.726   6.201   1.860
 3371SOL     OW11011   2.152   3.438   1.675
 3371SOL    HW111012   2.198   3.427   1.763
 3371SOL    HW211013   2.189   3.518   1.628
 3372SOL     OW11014   0.548   1.983   6.647
 3372SOL    HW111015   0.540   2.083   6.652
 3372SOL    HW211016   0.462   1.944   6.614
 3373SOL     OW11017   6.983   2.493   3.991
 3373SOL    HW111018   6.973   2.546   3.907
 3373SOL    HW211019   6.916   2.419   3.992
 3374SOL     OW11020   1.106   0.530   3.646
 3374SOL    HW111021   1.046   0.595   3.600
 3374SOL    HW211022   1.202   0.553   3.627
 3375SOL     OW11023   0.062   4.400   0.786
 3375SOL    HW111024   0.022   4.335   0.851
 3375SOL    HW211025   0.039   4.493   0.814
 3376SOL     OW11026   3.446   2.866   4.695
 3376SOL    HW111027   3.350   2.885   4.715
 3376SOL    HW211028   3.496   2.851   4.781
 3377SOL     OW11029   6.381   5.274   5.471
 3377SOL    HW111030   6.322   5.220   5.412
 3377SOL    HW211031   6.438   5.334   5.415
 3378SOL     OW11032   1.045   6.295   6.544
 3378SOL    HW111033   1.050   6.263   6.450
 3378SOL    HW211034   1.011   6.389   6.546
 3379SOL     OW11035   0.678   2.421   4.638
 3379SOL    HW111036   0.774   2.441   4.619
 3379SOL    HW211037   0.621   2.450   4.561
 3380SOL     OW11038   4.392   5.699   5.688
 3380SOL    HW111039   4.454   5.761   5.735
 3380SOL    HW211040   4.345   5.641   5.755
 3381SOL     OW11041   6.918   2.664   1.446
 3381SOL    HW111042   6.949   2.690   1.355
 3381SOL    HW211043   6.988   2.608   1.490
 3382SOL     OW11044   0.475   2.858   0.055
 3382SOL    HW111045   0.485   2.953   0.024
 3382SOL    HW211046   0.554   2.804   0.023
 3383SOL     OW11047   3.386   5.088   0.826
 3383SOL    HW111048   3.409   5.174   0.872
 3383SOL    HW211049   3.288   5.071   0.835
 3384SOL     OW11050   2.207   3.541   0.642
 3384SOL    HW111051   2.289   3.498   0.679
 3384SOL    HW211052   2.187   3.502   0.552
 3385SOL     OW11053   6.286   3.339   4.684
 3385SOL    HW111054   6.384   3.324   4.674
 3385SOL    HW211055   6.247   3.369   4.597
 3386SOL     OW11056   6.024   4.425   6.815
 3386SOL    HW111057   6.044   4.441   6.718
 3386SOL    HW211058   5.958   4.351   6.823
 3387SOL     OW11059   4.960   0.240   2.876
 3387SOL    HW111060   4.860   0.247   2.878
 3387SOL    HW211061   4.991   0.230   2.781
 3388SOL     OW11062   5.148   3.834   2.767
 3388SOL    HW111063   5.219   3.817   2.700
 3388SOL    HW211064   5.182   3.899   2.836
 3389SOL     OW11065   6.497   5.808   6.243
 3389SOL    HW111066   6.403   5.818   6.211
 3389SOL    HW211067   6.542   5.898   6.240
 3390SOL     OW11068   4.513   6.594   6.360
 3390SOL    HW111069   4.453   6.667   6.395
 3390SOL    HW211070   4.488   6.573   6.266
 3391SOL     OW11071   4.930   2.436   3.092
 3391SOL    HW111072   4.863   2.415   3.163
 3391SOL    HW211073   4.953   2.353   3.042
 3392SOL     OW11074   3.109   0.056   4.740
 3392SOL    HW111075   3.033   0.004   4.779
 3392SOL    HW211076   3.072   0.130   4.683
 3393SOL     OW11077   6.027   6.090   0.977
 3393SOL    HW111078   6.029   6.094   1.077
 3393SOL    HW211079   5.981   6.172   0.942
 3394SOL     OW11080   4.293   3.968   0.722
 3394SOL    HW111081   4.372   3.947   0.665
 3394SOL    HW211082   4.297   3.916   0.807
 3395SOL     OW11083   5.213   1.865   2.944
 3395SOL    HW111084   5.167   1.890   3.030
 3395SOL    HW211085   5.152   1.807   2.889
 3396SOL     OW11086   5.611   1.493   3.920
 3396SOL    HW111087   5.581   1.424   3.854
 3396SOL    HW211088   5.678   1.554   3.876
 3397SOL     OW11089   3.524   5.222   6.083
 3397SOL    HW111090   3.533   5.218   5.984
 3397SOL    HW211091   3.608   5.257   6.123
 3398SOL     OW11092   0.808   0.017   4.974
 3398SOL    HW111093   0.767   6.978   4.902
 3398SOL    HW211094   0.765   7.013   5.062
 3399SOL     OW11095   5.903   5.257   3.072
 3399SOL    HW111096   5.953   5.228   3.153
 3399SOL    HW211097   5.841   5.184   3.043
 3400SOL     OW11098   5.877   3.545   6.958
 3400SOL    HW111099   5.941   3.622   6.962
 3400SOL    HW211100   5.791   3.572   7.002
 3401SOL     OW11101   6.348   3.975   6.916
 3401SOL    HW111102   6.354   4.074   6.930
 3401SOL    HW211103   6.437   3.940   6.886
 3402SOL     OW11104   5.986   5.347   7.017
 3402SOL    HW111105   5.894   5.309   7.013
 3402SOL    HW211106   6.011   5.364   0.095
 3403SOL     OW11107   4.898   5.278   6.593
 3403SOL    HW111108   4.967   5.346   6.568
 3403SOL    HW211109   4.932   5.186   6.569
 3404SOL     OW11110   4.922   2.955   6.612
 3404SOL    HW111111   5.014   2.945   6.649
 3404SOL    HW211112   4.900   2.875   6.556
 3405SOL     OW11113   6.057   4.451   6.505
 3405SOL    HW111114   6.036   4.397   6.424
 3405SOL    HW211115   6.156   4.457   6.516
 3406SOL     OW11116   1.414   3.665   2.196
 3406SOL    HW111117   1.437   3.744   2.139
 3406SOL    HW211118   1.475   3.589   2.175
 3407SOL     OW11119   2.372   4.592   0.441
 3407SOL    HW111120   2.318   4.511   0.420
 3407SOL    HW211121   2.449   4.566   0.499
 3408SOL     OW11122   4.896   3.008   4.936
 3408SOL    HW111123   4.856   2.917   4.936
 3408SOL    HW211124   4.845   3.067   4.999
 3409SOL     OW11125   3.859   5.991   0.566
 3409SOL    HW111126   3.773   5.945   0.586
 3409SOL    HW211127   3.930   5.957   0.627
 3410SOL     OW11128   5.743   6.652   2.208
 3410SOL    HW111129   5.657   6.619   2.169
 3410SOL    HW211130   5.786   6.717   2.145
 3411SOL     OW11131   0.781   2.749   0.725
 3411SOL    HW111132   0.711   2.814   0.755
 3411SOL    HW211133   0.836   2.791   0.652
 3412SOL     OW11134   5.027   3.671   1.130
 3412SOL    HW111135   4.948   3.691   1.188
 3412SOL    HW211136   5.076   3.756   1.109
 3413SOL     OW11137   6.290   2.085   6.963
 3413SOL    HW111138   6.211   2.086   6.902
 3413SOL    HW211139   6.367   2.130   6.918
 3414SOL     OW11140   3.208   2.263   5.629
 3414SOL    HW111141   3.236   2.184   5.575
 3414SOL    HW211142   3.116   2.291   5.602
 3415SOL     OW11143   2.597   2.473   4.051
 3415SOL    HW111144   2.538   2.548   4.021
 3415SOL    HW211145   2.565   2.438   4.139
 3416SOL     OW11146   6.062   0.306   6.810
 3416SOL    HW111147   6.099   0.218   6.781
 3416SOL    HW211148   5.964   0.297   6.830
 3417SOL     OW11149   6.897   6.714   3.245
 3417SOL    HW111150   6.927   6.802   3.283
 3417SOL    HW211151   6.970   6.647   3.255
 3418SOL     OW11152   3.901   5.922   3.515
 3418SOL    HW111153   3.960   5.937   3.595
 3418SOL    HW211154   3.807   5.950   3.538
 3419SOL     OW11155   3.638   5.599   6.110
 3419SOL    HW111156   3.683   5.523   6.063
 3419SOL    HW211157   3.674   5.685   6.075
 3420SOL     OW11158   5.132   3.427   4.506
 3420SOL    HW111159   5.109   3.472   4.593
 3420SOL    HW211160   5.050   3.383   4.469
 3421SOL     OW11161   5.683   1.714   3.444
 3421SOL    HW111162   5.602   1.676   3.399
 3421SOL    HW211163   5.729   1.776   3.382
 3422SOL     OW11164   2.510   0.624   0.623
 3422SOL    HW111165   2.540   0.534   0.656
 3422SOL    HW211166   2.503   0.687   0.700
 3423SOL     OW11167   0.560   4.170   5.905
 3423SOL    HW111168   0.463   4.194   5.907
 3423SOL    HW211169   0.614   4.252   5.886
 3424SOL     OW11170   2.802   0.532   1.198
 3424SOL    HW111171   2.836   0.527   1.104
 3424SOL    HW211172   2.858   0.473   1.257
 3425SOL     OW11173   4.973   4.306   1.988
 3425SOL    HW111174   4.976   4.372   2.062
 3425SOL    HW211175   4.951   4.215   2.024
 3426SOL     OW11176   4.968   2.686   0.867
 3426SOL    HW111177   5.000   2.781   0.867
 3426SOL    HW211178   4.891   2.677   0.804
 3427SOL     OW11179   0.956   2.369   2.248
 3427SOL    HW111180   1.054   2.356   2.228
 3427SOL    HW211181   0.902   2.334   2.171
 3428SOL     OW11182   4.206   4.352   6.757
 3428SOL    HW111183   4.188   4.347   6.659
 3428SOL    HW211184   4.252   4.439   6.778
 3429SOL     OW11185   0.783   0.973   1.072
 3429SOL    HW111186   0.808   1.036   0.998
 3429SOL    HW211187   0.686   0.951   1.064
 3430SOL     OW11188   2.251   5.288   5.771
 3430SOL    HW111189   2.209   5.375   5.797
 3430SOL    HW211190   2.207   5.214   5.822
 3431SOL     OW11191   1.416   6.215   1.748
 3431SOL    HW111192   1.334   6.197   1.694
 3431SOL    HW211193   1.491   6.242   1.687
 3432SOL     OW11194   2.637   4.687   6.853
 3432SOL    HW111195   2.637   4.747   6.773
 3432SOL    HW211196   2.577   4.609   6.836
 3433SOL     OW11197   1.759   1.468   5.750
 3433SOL    HW111198   1.757   1.508   5.842
 3433SOL    HW211199   1.765   1.368   5.757
 3434SOL     OW11200   3.754   1.958   1.350
 3434SOL    HW111201   3.662   1.988   1.323
 3434SOL    HW211202   3.749   1.865   1.384
 3435SOL     OW11203   2.661   1.061   0.542
 3435SOL    HW111204   2.743   1.005   0.531
 3435SOL    HW211205   2.631   1.093   0.452
 3436SOL     OW11206   3.324   5.778   0.581
 3436SOL    HW111207   3.309   5.876   0.585
 3436SOL    HW211208   3.418   5.758   0.608
 3437SOL     OW11209   2.432   6.560   5.797
 3437SOL    HW111210   2.453   6.466   5.767
 3437SOL    HW211211   2.355   6.558   5.860
 3438SOL     OW11212   0.715   3.839   1.356
 3438SOL    HW111213   0.743   3.907   1.423
 3438SOL    HW211214   0.709   3.750   1.399
 3439SOL     OW11215   3.217   6.013   4.082
 3439SOL    HW111216   3.247   5.918   4.079
 3439SOL    HW211217   3.281   6.066   4.138
 3440SOL     OW11218   4.029   3.314   2.877
 3440SOL    HW111219   4.079   3.339   2.960
 3440SOL    HW211220   3.950   3.374   2.866
 3441SOL     OW11221   0.279   5.761   6.697
 3441SOL    HW111222   0.214   5.685   6.695
 3441SOL    HW211223   0.357   5.740   6.638
 3442SOL     OW11224   2.769   3.438   1.084
 3442SOL    HW111225   2.787   3.375   1.160
 3442SOL    HW211226   2.721   3.389   1.011
 3443SOL     OW11227   3.580   6.187   1.990
 3443SOL    HW111228   3.504   6.246   2.017
 3443SOL    HW211229   3.546   6.094   1.974
 3444SOL     OW11230   5.217   5.535   1.053
 3444SOL    HW111231   5.204   5.495   1.144
 3444SOL    HW211232   5.128   5.553   1.012
 3445SOL     OW11233   6.715   5.485   3.592
 3445SOL    HW111234   6.720   5.580   3.561
 3445SOL    HW211235   6.691   5.483   3.689
 3446SOL     OW11236   5.812   0.512   1.509
 3446SOL    HW111237   5.829   0.519   1.608
 3446SOL    HW211238   5.733   0.568   1.485
 3447SOL     OW11239   4.870   0.350   0.413
 3447SOL    HW111240   4.969   0.355   0.404
 3447SOL    HW211241   4.843   0.256   0.435
 3448SOL     OW11242   3.287   6.471   6.195
 3448SOL    HW111243   3.346   6.510   6.125
 3448SOL    HW211244   3.275   6.537   6.269
 3449SOL     OW11245   6.069   5.161   4.723
 3449SOL    HW111246   6.081   5.224   4.800
 3449SOL    HW211247   6.033   5.074   4.756
 3450SOL     OW11248   1.426   1.019   6.477
 3450SOL    HW111249   1.390   0.934   6.515
 3450SOL    HW211250   1.416   1.018   6.378
 3451SOL     OW11251   1.698   5.896   0.051
 3451SOL    HW111252   1.714   5.994   0.063
 3451SOL    HW211253   1.621   5.882   7.006
 3452SOL     OW11254   5.936   0.299   6.134
 3452SOL    HW111255   5.966   0.316   6.228
 3452SOL    HW211256   5.841   0.269   6.135
 3453SOL     OW11257   5.745   5.606   6.400
 3453SOL    HW111258   5.724   5.697   6.363
 3453SOL    HW211259   5.779   5.615   6.494
 3454SOL     OW11260   1.489   4.054   4.756
 3454SOL    HW111261   1.569   4.032   4.812
 3454SOL    HW211262   1.423   3.978   4.763
 3455SOL     OW11263   2.794   1.378   4.687
 3455SOL    HW111264   2.802   1.384   4.786
 3455SOL    HW211265   2.751   1.292   4.662
 3456SOL     OW11266   4.702   4.985   2.006
 3456SOL    HW111267   4.794   4.956   1.978
 3456SOL    HW211268   4.647   4.904   2.028
 3457SOL     OW11269   4.002   5.405   4.813
 3457SOL    HW111270   4.049   5.487   4.780
 3457SOL    HW211271   3.956   5.360   4.737
 3458SOL     OW11272   4.696   1.785   2.302
 3458SOL    HW111273   4.640   1.778   2.219
 3458SOL    HW211274   4.642   1.828   2.374
 3459SOL     OW11275   5.091   1.958   3.191
 3459SOL    HW111276   5.034   1.884   3.226
 3459SOL    HW211277   5.148   1.995   3.264
 3460SOL     OW11278   3.048   2.118   5.899
 3460SOL    HW111279   3.111   2.195   5.885
 3460SOL    HW211280   3.065   2.048   5.829
 3461SOL     OW11281   5.578   4.197   6.893
 3461SOL    HW111282   5.492   4.249   6.898
 3461SOL    HW211283   5.636   4.221   6.972
 3462SOL     OW11284   0.724   3.996   5.045
 3462SOL    HW111285   0.725   4.084   5.092
 3462SOL    HW211286   0.630   3.965   5.035
 3463SOL     OW11287   0.738   4.239   0.838
 3463SOL    HW111288   0.647   4.276   0.821
 3463SOL    HW211289   0.738   4.140   0.822
 3464SOL     OW11290   0.437   4.553   6.338
 3464SOL    HW111291   0.359   4.577   6.280
 3464SOL    HW211292   0.512   4.522   6.280
 3465SOL     OW11293   2.607   2.370   2.120
 3465SOL    HW111294   2.640   2.278   2.102
 3465SOL    HW211295   2.581   2.414   2.034
 3466SOL     OW11296   0.128   5.500   6.079
 3466SOL    HW111297   0.091   5.535   5.993
 3466SOL    HW211298   0.222   5.468   6.064
 3467SOL     OW11299   1.485   2.240   6.835
 3467SOL    HW111300   1.533   2.294   6.765
 3467SOL    HW211301   1.549   2.217   6.908
 3468SOL     OW11302   3.663   5.570   2.910
 3468SOL    HW111303   3.593   5.553   2.841
 3468SOL    HW211304   3.640   5.520   2.994
 3469SOL     OW11305   6.263   1.462   3.997
 3469SOL    HW111306   6.299   1.555   3.992
 3469SOL    HW211307   6.177   1.456   3.947
 3470SOL     OW11308   6.869   4.640   1.133
 3470SOL    HW111309   6.828   4.676   1.216
 3470SOL    HW211310   6.937   4.570   1.157
 3471SOL     OW11311   4.088   5.150   4.868
 3471SOL    HW111312   4.049   5.241   4.875
 3471SOL    HW211313   4.023   5.090   4.819
 3472SOL     OW11314   2.580   0.873   3.816
 3472SOL    HW111315   2.492   0.904   3.781
 3472SOL    HW211316   2.646   0.948   3.814
 3473SOL     OW11317   5.788   1.446   5.860
 3473SOL    HW111318   5.838   1.517   5.811
 3473SOL    HW211319   5.807   1.357   5.819
 3474SOL     OW11320   2.970   5.123   1.725
 3474SOL    HW111321   2.953   5.041   1.780
 3474SOL    HW211322   2.903   5.193   1.748
 3475SOL     OW11323   1.232   6.816   4.542
 3475SOL    HW111324   1.307   6.772   4.493
 3475SOL    HW211325   1.236   6.915   4.528
 3476SOL     OW11326   3.612   1.068   4.238
 3476SOL    HW111327   3.654   1.063   4.148
 3476SOL    HW211328   3.524   1.021   4.237
 3477SOL     OW11329   3.190   5.593   2.030
 3477SOL    HW111330   3.097   5.557   2.042
 3477SOL    HW211331   3.240   5.584   2.116
 3478SOL     OW11332   2.889   6.227   5.538
 3478SOL    HW111333   2.819   6.157   5.549
 3478SOL    HW211334   2.852   6.316   5.566
 3479SOL     OW11335   0.437   0.507   3.041
 3479SOL    HW111336   0.445   0.416   3.081
 3479SOL    HW211337   0.434   0.500   2.941
 3480SOL     OW11338   6.676   1.152   4.708
 3480SOL    HW111339   6.739   1.077   4.688
 3480SOL    HW211340   6.586   1.116   4.732
 3481SOL     OW11341   4.630   6.940   6.597
 3481SOL    HW111342   4.593   0.016   6.594
 3481SOL    HW211343   4.599   6.896   6.682
 3482SOL     OW11344   5.510   1.303   1.042
 3482SOL    HW111345   5.417   1.330   1.065
 3482SOL    HW211346   5.537   1.224   1.098
 3483SOL     OW11347   3.257   0.473   0.955
 3483SOL    HW111348   3.235   0.569   0.967
 3483SOL    HW211349   3.205   0.437   0.877
 3484SOL     OW11350   2.868   3.244   1.866
 3484SOL    HW111351   2.806   3.179   1.822
 3484SOL    HW211352   2.857   3.239   1.965
 3485SOL     OW11353   1.488   0.790   4.787
 3485SOL    HW111354   1.485   0.886   4.758
 3485SOL    HW211355   1.577   0.771   4.830
 3486SOL     OW11356   3.376   1.697   2.358
 3486SOL    HW111357   3.464   1.745   2.365
 3486SOL    HW211358   3.349   1.690   2.262
 3487SOL     OW11359   5.799   2.135   6.171
 3487SOL    HW111360   5.792   2.222   6.219
 3487SOL    HW211361   5.798   2.152   6.072
 3488SOL     OW11362   5.823   3.189   4.127
 3488SOL    HW111363   5.859   3.143   4.046
 3488SOL    HW211364   5.781   3.121   4.188
 3489SOL     OW11365   2.847   0.153   0.393
 3489SOL    HW111366   2.844   0.055   0.373
 3489SOL    HW211367   2.791   0.202   0.326
 3490SOL     OW11368   4.520   4.454   0.046
 3490SOL    HW111369   4.545   4.517   0.119
 3490SOL    HW211370   4.421   4.455   0.034
 3491SOL     OW11371   6.628   2.841   5.509
 3491SOL    HW111372   6.573   2.799   5.581
 3491SOL    HW211373   6.625   2.783   5.427
 3492SOL     OW11374   0.502   5.791   0.677
 3492SOL    HW111375   0.566   5.795   0.601
 3492SOL    HW211376   0.457   5.702   0.679
 3493SOL     OW11377   6.599   5.096   6.676
 3493SOL    HW111378   6.516   5.059   6.717
 3493SOL    HW211379   6.674   5.092   6.743
 3494SOL     OW11380   4.163   0.184   0.720
 3494SOL    HW111381   4.258   0.183   0.689
 3494SOL    HW211382   4.158   0.229   0.809
 3495SOL     OW11383   4.637   4.938   2.322
 3495SOL    HW111384   4.725   4.981   2.306
 3495SOL    HW211385   4.648   4.839   2.328
 3496SOL     OW11386   1.162   2.973   1.312
 3496SOL    HW111387   1.233   3.004   1.249
 3496SOL    HW211388   1.199   2.902   1.372
 3497SOL     OW11389   3.967   0.424   2.807
 3497SOL    HW111390   3.882   0.473   2.824
 3497SOL    HW211391   3.988   0.366   2.886
 3498SOL     OW11392   2.897   2.341   1.142
 3498SOL    HW111393   2.917   2.375   1.234
 3498SOL    HW211394   2.912   2.413   1.075
 3499SOL     OW11395   5.289   2.865   4.521
 3499SOL    HW111396   5.321   2.939   4.580
 3499SOL    HW211397   5.338   2.781   4.543
 3500SOL     OW11398   0.068   4.152   5.813
 3500SOL    HW111399   0.049   4.085   5.740
 3500SOL    HW211400   7.005   4.209   5.827
 3501SOL     OW11401   0.545   5.525   4.686
 3501SOL    HW111402   0.578   5.519   4.592
 3501SOL    HW211403   0.481   5.450   4.703
 3502SOL     OW11404   6.805   2.364   2.152
 3502SOL    HW111405   6.741   2.342   2.226
 3502SOL    HW211406   6.788   2.304   2.074
 3503SOL     OW11407   5.299   5.522   5.400
 3503SOL    HW111408   5.312   5.467   5.318
 3503SOL    HW211409   5.205   5.556   5.403
 3504SOL     OW11410   2.619   2.868   1.080
 3504SOL    HW111411   2.571   2.926   1.146
 3504SOL    HW211412   2.713   2.903   1.068
 3505SOL     OW11413   5.971   5.225   5.458
 3505SOL    HW111414   5.943   5.206   5.552
 3505SOL    HW211415   5.958   5.323   5.438
 3506SOL     OW11416   3.736   5.845   4.549
 3506SOL    HW111417   3.775   5.934   4.525
 3506SOL    HW211418   3.757   5.824   4.644
 3507SOL     OW11419   1.825   0.894   6.642
 3507SOL    HW111420   1.917   0.872   6.673
 3507SOL    HW211421   1.810   0.992   6.648
 3508SOL     OW11422   4.616   2.209   6.459
 3508SOL    HW111423   4.658   2.150   6.390
 3508SOL    HW211424   4.520   2.226   6.435
 3509SOL     OW11425   5.707   5.322   6.467
 3509SOL    HW111426   5.739   5.415   6.449
 3509SOL    HW211427   5.679   5.314   6.562
 3510SOL     OW11428   1.875   2.266   1.541
 3510SOL    HW111429   1.966   2.304   1.525
 3510SOL    HW211430   1.810   2.342   1.550
 3511SOL     OW11431   1.424   3.673   6.999
 3511SOL    HW111432   1.391   3.744   0.043
 3511SOL    HW211433   1.501   3.625   0.023
 3512SOL     OW11434   0.836   4.523   0.852
 3512SOL    HW111435   0.811   4.575   0.771
 3512SOL    HW211436   0.842   4.426   0.828
 3513SOL     OW11437   5.954   3.810   0.725
 3513SOL    HW111438   6.021   3.793   0.797
 3513SOL    HW211439   5.877   3.862   0.762
 3514SOL     OW11440   0.980   0.742   1.920
 3514SOL    HW111441   1.022   0.795   1.994
 3514SOL    HW211442   0.900   0.791   1.886
 3515SOL     OW11443   3.873   5.953   2.362
 3515SOL    HW111444   3.790   5.966   2.415
 3515SOL    HW211445   3.948   6.004   2.403
 3516SOL     OW11446   3.716   1.052   1.718
 3516SOL    HW111447   3.735   1.030   1.814
 3516SOL    HW211448   3.789   1.110   1.682
 3517SOL     OW11449   0.555   1.642   6.940
 3517SOL    HW111450   0.538   1.556   6.988
 3517SOL    HW211451   0.644   1.679   6.969
 3518SOL     OW11452   4.662   4.026   5.387
 3518SOL    HW111453   4.724   4.100   5.363
 3518SOL    HW211454   4.642   4.029   5.485
 3519SOL     OW11455   1.560   0.639   6.480
 3519SOL    HW111456   1.525   0.726   6.515
 3519SOL    HW211457   1.623   0.656   6.405
 3520SOL     OW11458   3.733   4.361   1.449
 3520SOL    HW111459   3.760   4.409   1.533
 3520SOL    HW211460   3.784   4.276   1.441
 3521SOL     OW11461   5.886   2.863   1.464
 3521SOL    HW111462   5.961   2.898   1.407
 3521SOL    HW211463   5.799   2.900   1.429
 3522SOL     OW11464   3.131   5.174   2.072
 3522SOL    HW111465   3.109   5.077   2.067
 3522SOL    HW211466   3.212   5.187   2.130
 3523SOL     OW11467   3.244   4.796   5.498
 3523SOL    HW111468   3.313   4.828   5.434
 3523SOL    HW211469   3.190   4.723   5.456
 3524SOL     OW11470   2.628   0.556   1.453
 3524SOL    HW111471   2.663   0.650   1.455
 3524SOL    HW211472   2.692   0.498   1.402
 3525SOL     OW11473   0.920   3.477   1.929
 3525SOL    HW111474   0.822   3.461   1.916
 3525SOL    HW211475   0.960   3.509   1.843
 3526SOL     OW11476   1.056   0.526   4.160
 3526SOL    HW111477   1.030   0.431   4.179
 3526SOL    HW211478   1.072   0.574   4.246
 3527SOL     OW11479   5.175   2.699   5.426
 3527SOL    HW111480   5.271   2.707   5.453
 3527SOL    HW211481   5.117   2.750   5.489
 3528SOL     OW11482   1.039   6.484   3.672
 3528SOL    HW111483   0.982   6.427   3.613
 3528SOL    HW211484   1.058   6.571   3.626
 3529SOL     OW11485   3.652   6.974   5.756
 3529SOL    HW111486   3.627   0.052   5.769
 3529SOL    HW211487   3.570   6.917   5.765
 3530SOL     OW11488   1.893   5.338   2.592
 3530SOL    HW111489   1.920   5.385   2.507
 3530SOL    HW211490   1.975   5.305   2.639
 3531SOL     OW11491   5.104   3.710   0.505
 3531SOL    HW111492   5.064   3.685   0.593
 3531SOL    HW211493   5.032   3.738   0.442
 3532SOL     OW11494   3.498   0.758   0.309
 3532SOL    HW111495   3.463   0.811   0.232
 3532SOL    HW211496   3.583   0.799   0.341
 3533SOL     OW11497   1.633   2.010   3.506
 3533SOL    HW111498   1.714   1.952   3.500
 3533SOL    HW211499   1.660   2.104   3.524
 3534SOL     OW11500   5.942   1.559   5.347
 3534SOL    HW111501   5.910   1.489   5.411
 3534SOL    HW211502   5.901   1.544   5.257
 3535SOL     OW11503   0.164   5.802   0.831
 3535SOL    HW111504   0.207   5.744   0.900
 3535SOL    HW211505   0.147   5.748   0.748
 3536SOL     OW11506   2.091   3.607   3.488
 3536SOL    HW111507   2.118   3.569   3.577
 3536SOL    HW211508   1.995   3.584   3.470
 3537SOL     OW11509   2.010   4.393   0.804
 3537SOL    HW111510   1.948   4.462   0.838
 3537SOL    HW211511   1.971   4.302   0.819
 3538SOL     OW11512   3.131   1.222   3.682
 3538SOL    HW111513   3.120   1.215   3.583
 3538SOL    HW211514   3.104   1.135   3.724
 3539SOL     OW11515   6.178   3.392   5.789
 3539SOL    HW111516   6.209   3.437   5.873
 3539SOL    HW211517   6.138   3.460   5.727
 3540SOL     OW11518   2.058   2.505   6.231
 3540SOL    HW111519   2.085   2.410   6.245
 3540SOL    HW211520   1.977   2.525   6.285
 3541SOL     OW11521   2.553   3.212   0.391
 3541SOL    HW111522   2.575   3.286   0.453
 3541SOL    HW211523   2.487   3.244   0.323
 3542SOL     OW11524   5.663   2.292   0.235
 3542SOL    HW111525   5.726   2.219   0.261
 3542SOL    HW211526   5.694   2.334   0.149
 3543SOL     OW11527   1.575   3.407   3.136
 3543SOL    HW111528   1.669   3.381   3.155
 3543SOL    HW211529   1.513   3.354   3.194
 3544SOL     OW11530   2.411   4.483   6.789
 3544SOL    HW111531   2.461   4.397   6.795
 3544SOL    HW211532   2.388   4.515   6.880
 3545SOL     OW11533   3.762   4.809   0.599
 3545SOL    HW111534   3.791   4.742   0.667
 3545SOL    HW211535   3.676   4.851   0.627
 3546SOL     OW11536   6.060   4.736   3.582
 3546SOL    HW111537   5.968   4.733   3.544
 3546SOL    HW211538   6.109   4.815   3.545
 3547SOL     OW11539   6.389   4.037   4.920
 3547SOL    HW111540   6.356   4.041   5.014
 3547SOL    HW211541   6.405   3.942   4.894
 3548SOL     OW11542   5.659   0.648   5.449
 3548SOL    HW111543   5.649   0.601   5.361
 3548SOL    HW211544   5.717   0.594   5.510
 3549SOL     OW11545   1.898   5.066   6.479
 3549SOL    HW111546   1.898   5.042   6.576
 3549SOL    HW211547   1.817   5.028   6.435
 3550SOL     OW11548   5.566   2.546   5.202
 3550SOL    HW111549   5.553   2.538   5.104
 3550SOL    HW211550   5.499   2.489   5.250
 3551SOL     OW11551   3.422   2.149   5.042
 3551SOL    HW111552   3.404   2.066   4.990
 3551SOL    HW211553   3.342   2.209   5.036
 3552SOL     OW11554   6.078   5.291   2.318
 3552SOL    HW111555   6.049   5.376   2.362
 3552SOL    HW211556   5.997   5.236   2.296
 3553SOL     OW11557   3.401   5.764   6.297
 3553SOL    HW111558   3.302   5.761   6.306
 3553SOL    HW211559   3.444   5.746   6.386
 3554SOL     OW11560   4.175   3.727   0.488
 3554SOL    HW111561   4.111   3.722   0.411
 3554SOL    HW211562   4.164   3.816   0.534
 3555SOL     OW11563   1.754   2.357   4.530
 3555SOL    HW111564   1.718   2.297   4.601
 3555SOL    HW211565   1.757   2.308   4.443
 3556SOL     OW11566   3.826   1.432   4.508
 3556SOL    HW111567   3.828   1.531   4.493
 3556SOL    HW211568   3.811   1.385   4.421
 3557SOL     OW11569   0.909   0.734   3.161
 3557SOL    HW111570   0.846   0.668   3.200
 3557SOL    HW211571   0.921   0.810   3.225
 3558SOL     OW11572   2.840   4.601   0.963
 3558SOL    HW111573   2.796   4.652   0.889
 3558SOL    HW211574   2.773   4.584   1.036
 3559SOL     OW11575   2.228   6.933   4.595
 3559SOL    HW111576   2.152   6.990   4.625
 3559SOL    HW211577   2.309   6.990   4.580
 3560SOL     OW11578   2.248   4.685   3.475
 3560SOL    HW111579   2.183   4.722   3.542
 3560SOL    HW211580   2.223   4.591   3.452
 3561SOL     OW11581   5.266   4.882   6.068
 3561SOL    HW111582   5.234   4.954   6.006
 3561SOL    HW211583   5.366   4.885   6.075
 3562SOL     OW11584   3.382   2.039   4.627
 3562SOL    HW111585   3.310   2.105   4.605
 3562SOL    HW211586   3.361   1.951   4.584
 3563SOL     OW11587   5.884   2.403   6.135
 3563SOL    HW111588   5.975   2.406   6.094
 3563SOL    HW211589   5.888   2.446   6.225
 3564SOL     OW11590   0.473   5.059   2.837
 3564SOL    HW111591   0.432   5.034   2.925
 3564SOL    HW211592   0.410   5.037   2.763
 3565SOL     OW11593   3.546   4.874   2.532
 3565SOL    HW111594   3.527   4.967   2.561
 3565SOL    HW211595   3.482   4.811   2.576
 3566SOL     OW11596   6.437   1.093   5.720
 3566SOL    HW111597   6.423   1.047   5.633
 3566SOL    HW211598   6.472   1.028   5.788
 3567SOL     OW11599   0.065   2.368   6.231
 3567SOL    HW111600   0.083   2.293   6.168
 3567SOL    HW211601   0.033   2.447   6.180
 3568SOL     OW11602   6.163   4.127   5.498
 3568SOL    HW111603   6.078   4.090   5.535
 3568SOL    HW211604   6.209   4.181   5.568
 3569SOL     OW11605   3.026   1.749   5.357
 3569SOL    HW111606   2.982   1.781   5.272
 3569SOL    HW211607   3.094   1.816   5.386
 3570SOL     OW11608   4.941   0.599   6.347
 3570SOL    HW111609   4.862   0.555   6.304
 3570SOL    HW211610   5.024   0.578   6.295
 3571SOL     OW11611   0.667   5.734   6.812
 3571SOL    HW111612   0.747   5.792   6.796
 3571SOL    HW211613   0.696   5.640   6.829
 3572SOL     OW11614   5.394   4.032   3.736
 3572SOL    HW111615   5.436   3.969   3.802
 3572SOL    HW211616   5.322   3.984   3.686
 3573SOL     OW11617   0.433   4.695   4.015
 3573SOL    HW111618   0.360   4.724   4.077
 3573SOL    HW211619   0.483   4.619   4.055
 3574SOL     OW11620   0.325   4.661   0.214
 3574SOL    HW111621   0.344   4.722   0.138
 3574SOL    HW211622   0.376   4.691   0.295
 3575SOL     OW11623   5.550   4.674   3.208
 3575SOL    HW111624   5.504   4.619   3.139
 3575SOL    HW211625   5.487   4.744   3.242
 3576SOL     OW11626   2.120   1.620   5.877
 3576SOL    HW111627   2.037   1.675   5.876
 3576SOL    HW211628   2.121   1.559   5.798
 3577SOL     OW11629   1.151   3.355   5.823
 3577SOL    HW111630   1.142   3.453   5.842
 3577SOL    HW211631   1.247   3.328   5.832
 3578SOL     OW11632   3.786   2.921   0.281
 3578SOL    HW111633   3.781   2.830   0.240
 3578SOL    HW211634   3.871   2.966   0.253
 3579SOL     OW11635   0.430   4.287   4.619
 3579SOL    HW111636   0.456   4.241   4.534
 3579SOL    HW211637   0.347   4.341   4.604
 3580SOL     OW11638   6.031   1.538   1.046
 3580SOL    HW111639   6.082   1.463   1.088
 3580SOL    HW211640   5.949   1.557   1.100
 3581SOL     OW11641   6.055   0.007   4.031
 3581SOL    HW111642   6.064   6.959   4.106
 3581SOL    HW211643   6.145   0.039   4.003
 3582SOL     OW11644   0.641   1.788   6.012
 3582SOL    HW111645   0.580   1.709   6.018
 3582SOL    HW211646   0.667   1.803   5.917
 3583SOL     OW11647   0.754   3.790   6.602
 3583SOL    HW111648   0.667   3.830   6.634
 3583SOL    HW211649   0.735   3.717   6.537
 3584SOL     OW11650   5.923   5.985   6.331
 3584SOL    HW111651   5.986   5.926   6.380
 3584SOL    HW211652   5.849   5.930   6.292
 3585SOL     OW11653   3.676   5.373   5.068
 3585SOL    HW111654   3.695   5.411   4.978
 3585SOL    HW211655   3.607   5.300   5.059
 3586SOL     OW11656   6.827   1.825   5.336
 3586SOL    HW111657   6.824   1.844   5.434
 3586SOL    HW211658   6.782   1.738   5.317
 3587SOL     OW11659   2.391   5.092   0.133
 3587SOL    HW111660   2.295   5.095   0.106
 3587SOL    HW211661   2.449   5.105   0.053
 3588SOL     OW11662   0.892   2.759   5.149
 3588SOL    HW111663   0.869   2.709   5.232
 3588SOL    HW211664   0.844   2.847   5.148
 3589SOL     OW11665   3.565   1.778   4.001
 3589SOL    HW111666   3.660   1.759   4.025
 3589SOL    HW211667   3.541   1.728   3.917
 3590SOL     OW11668   0.129   3.618   5.946
 3590SOL    HW111669   0.104   3.679   6.021
 3590SOL    HW211670   0.079   3.643   5.863
 3591SOL     OW11671   4.800   3.228   6.378
 3591SOL    HW111672   4.808   3.319   6.419
 3591SOL    HW211673   4.715   3.185   6.409
 3592SOL     OW11674   5.896   3.984   3.101
 3592SOL    HW111675   5.940   4.069   3.072
 3592SOL    HW211676   5.858   3.937   3.022
 3593SOL     OW11677   1.987   5.825   4.651
 3593SOL    HW111678   2.031   5.914   4.636
 3593SOL    HW211679   2.024   5.784   4.734
 3594SOL     OW11680   3.942   0.443   2.495
 3594SOL    HW111681   3.995   0.406   2.419
 3594SOL    HW211682   3.966   0.394   2.579
 3595SOL     OW11683   2.398   5.564   6.195
 3595SOL    HW111684   2.328   5.542   6.127
 3595SOL    HW211685   2.378   5.515   6.280
 3596SOL     OW11686   6.318   2.169   3.063
 3596SOL    HW111687   6.401   2.114   3.065
 3596SOL    HW211688   6.300   2.207   3.154
 3597SOL     OW11689   2.631   6.376   4.797
 3597SOL    HW111690   2.555   6.370   4.732
 3597SOL    HW211691   2.716   6.390   4.746
 3598SOL     OW11692   1.200   6.738   6.400
 3598SOL    HW111693   1.297   6.753   6.383
 3598SOL    HW211694   1.159   6.821   6.439
 3599SOL     OW11695   0.629   2.199   5.370
 3599SOL    HW111696   0.634   2.298   5.377
 3599SOL    HW211697   0.569   2.163   5.442
 3600SOL     OW11698   1.001   2.963   0.571
 3600SOL    HW111699   0.976   2.912   0.489
 3600SOL    HW211700   0.946   3.046   0.577
 3601SOL     OW11701   6.688   4.266   0.387
 3601SOL    HW111702   6.683   4.255   0.486
 3601SOL    HW211703   6.784   4.273   0.359
 3602SOL     OW11704   1.344   1.618   1.082
 3602SOL    HW111705   1.273   1.577   1.026
 3602SOL    HW211706   1.363   1.558   1.160
 3603SOL     OW11707   3.485   6.389   4.420
 3603SOL    HW111708   3.573   6.345   4.437
 3603SOL    HW211709   3.500   6.481   4.384
 3604SOL     OW11710   6.716   4.925   4.133
 3604SOL    HW111711   6.643   4.913   4.064
 3604SOL    HW211712   6.690   4.997   4.196
 3605SOL     OW11713   5.334   4.516   5.399
 3605SOL    HW111714   5.242   4.494   5.366
 3605SOL    HW211715   5.399   4.450   5.363
 3606SOL     OW11716   6.784   5.509   5.446
 3606SOL    HW111717   6.761   5.506   5.543
 3606SOL    HW211718   6.865   5.452   5.430
 3607SOL     OW11719   5.295   6.498   0.949
 3607SOL    HW111720   5.302   6.469   0.854
 3607SOL    HW211721   5.289   6.418   1.009
 3608SOL     OW11722   6.409   1.704   1.815
 3608SOL    HW111723   6.501   1.732   1.844
 3608SOL    HW211724   6.416   1.636   1.742
 3609SOL     OW11725   0.354   0.550   3.746
 3609SOL    HW111726   0.307   0.462   3.756
 3609SOL    HW211727   0.306   0.620   3.799
 3610SOL     OW11728   0.881   0.516   5.727
 3610SOL    HW111729   0.786   0.544   5.741
 3610SOL    HW211730   0.897   0.429   5.773
 3611SOL     OW11731   3.823   5.913   5.548
 3611SOL    HW111732   3.750   5.980   5.560
 3611SOL    HW211733   3.838   5.865   5.635
 3612SOL     OW11734   6.336   0.596   5.768
 3612SOL    HW111735   6.362   0.580   5.673
 3612SOL    HW211736   6.417   0.623   5.820
 3613SOL     OW11737   5.355   5.518   1.451
 3613SOL    HW111738   5.437   5.564   1.417
 3613SOL    HW211739   5.340   5.434   1.398
 3614SOL     OW11740   3.408   2.923   2.774
 3614SOL    HW111741   3.398   2.828   2.805
 3614SOL    HW211742   3.398   2.985   2.852
 3615SOL     OW11743   5.208   6.095   0.015
 3615SOL    HW111744   5.296   6.124   0.051
 3615SOL    HW211745   5.221   6.055   6.941
 3616SOL     OW11746   6.896   1.765   5.915
 3616SOL    HW111747   6.987   1.754   5.876
 3616SOL    HW211748   6.904   1.799   6.009
 3617SOL     OW11749   4.944   1.057   6.827
 3617SOL    HW111750   4.859   1.106   6.809
 3617SOL    HW211751   5.022   1.110   6.793
 3618SOL     OW11752   2.117   1.785   4.909
 3618SOL    HW111753   2.036   1.830   4.948
 3618SOL    HW211754   2.199   1.826   4.949
 3619SOL     OW11755   6.419   3.022   3.965
 3619SOL    HW111756   6.451   2.937   4.008
 3619SOL    HW211757   6.325   3.009   3.934
 3620SOL     OW11758   6.146   5.916   5.816
 3620SOL    HW111759   6.076   5.972   5.773
 3620SOL    HW211760   6.225   5.910   5.754
 3621SOL     OW11761   2.899   2.435   5.794
 3621SOL    HW111762   2.806   2.424   5.828
 3621SOL    HW211763   2.915   2.373   5.717
 3622SOL     OW11764   2.009   2.515   3.508
 3622SOL    HW111765   1.940   2.548   3.573
 3622SOL    HW211766   2.084   2.580   3.503
 3623SOL     OW11767   6.057   6.099   3.682
 3623SOL    HW111768   6.149   6.091   3.645
 3623SOL    HW211769   6.009   6.012   3.672
 3624SOL     OW11770   1.317   0.118   2.392
 3624SOL    HW111771   1.396   0.082   2.343
 3624SOL    HW211772   1.235   0.070   2.362
 3625SOL     OW11773   5.824   3.289   6.899
 3625SOL    HW111774   5.910   3.250   6.866
 3625SOL    HW211775   5.822   3.387   6.880
 3626SOL     OW11776   1.561   3.723   4.966
 3626SOL    HW111777   1.605   3.792   5.023
 3626SOL    HW211778   1.495   3.671   5.021
 3627SOL     OW11779   3.630   2.981   3.657
 3627SOL    HW111780   3.632   2.929   3.742
 3627SOL    HW211781   3.722   2.989   3.620
 3628SOL     OW11782   1.747   6.821   1.606
 3628SOL    HW111783   1.766   6.731   1.646
 3628SOL    HW211784   1.649   6.830   1.591
 3629SOL     OW11785   5.981   2.294   4.417
 3629SOL    HW111786   6.012   2.201   4.396
 3629SOL    HW211787   6.053   2.343   4.465
 3630SOL     OW11788   5.004   2.701   3.077
 3630SOL    HW111789   5.103   2.703   3.093
 3630SOL    HW211790   4.970   2.608   3.092
 3631SOL     OW11791   2.292   0.113   3.702
 3631SOL    HW111792   2.335   0.043   3.645
 3631SOL    HW211793   2.193   0.100   3.700
 3632SOL     OW11794   4.835   0.068   0.466
 3632SOL    HW111795   4.804   6.990   0.465
 3632SOL    HW211796   4.913   0.077   0.529
 3633SOL     OW11797   3.116   1.935   5.704
 3633SOL    HW111798   3.091   1.965   5.611
 3633SOL    HW211799   3.122   1.836   5.707
 3634SOL     OW11800   0.844   5.481   4.651
 3634SOL    HW111801   0.902   5.545   4.703
 3634SOL    HW211802   0.748   5.498   4.675
 3635SOL     OW11803   2.686   6.860   6.340
 3635SOL    HW111804   2.650   6.839   6.248
 3635SOL    HW211805   2.639   6.941   6.376
 3636SOL     OW11806   0.502   5.650   6.573
 3636SOL    HW111807   0.590   5.643   6.620
 3636SOL    HW211808   0.500   5.586   6.496
 3637SOL     OW11809   6.323   2.285   0.935
 3637SOL    HW111810   6.255   2.341   0.887
 3637SOL    HW211811   6.306   2.289   1.033
 3638SOL     OW11812   0.048   4.932   4.415
 3638SOL    HW111813   6.972   4.958   4.439
 3638SOL    HW211814   0.074   4.851   4.467
 3639SOL     OW11815   3.578   4.081   1.400
 3639SOL    HW111816   3.609   4.076   1.495
 3639SOL    HW211817   3.653   4.056   1.338
 3640SOL     OW11818   3.888   0.706   6.950
 3640SOL    HW111819   3.858   0.724   6.856
 3640SOL    HW211820   3.916   0.610   6.958
 3641SOL     OW11821   4.746   2.870   4.042
 3641SOL    HW111822   4.719   2.787   3.993
 3641SOL    HW211823   4.702   2.949   4.001
 3642SOL     OW11824   5.084   1.255   0.349
 3642SOL    HW111825   5.163   1.281   0.405
 3642SOL    HW211826   5.080   1.155   0.343
 3643SOL     OW11827   3.358   5.796   4.680
 3643SOL    HW111828   3.392   5.702   4.692
 3643SOL    HW211829   3.264   5.802   4.712
 3644SOL     OW11830   6.472   1.416   1.536
 3644SOL    HW111831   6.379   1.394   1.508
 3644SOL    HW211832   6.535   1.346   1.503
 3645SOL     OW11833   6.895   2.090   3.814
 3645SOL    HW111834   6.883   2.182   3.777
 3645SOL    HW211835   6.895   2.094   3.914
 3646SOL     OW11836   6.572   3.902   6.787
 3646SOL    HW111837   6.643   3.922   6.720
 3646SOL    HW211838   6.524   3.818   6.760
 3647SOL     OW11839   1.987   3.408   0.093
 3647SOL    HW111840   2.047   3.453   0.027
 3647SOL    HW211841   2.034   3.330   0.133
 3648SOL     OW11842   3.064   4.818   3.051
 3648SOL    HW111843   2.968   4.844   3.062
 3648SOL    HW211844   3.086   4.809   2.954
 3649SOL     OW11845   5.288   3.128   2.021
 3649SOL    HW111846   5.318   3.032   2.017
 3649SOL    HW211847   5.189   3.132   2.016
 3650SOL     OW11848   0.657   4.518   0.252
 3650SOL    HW111849   0.637   4.528   0.155
 3650SOL    HW211850   0.580   4.552   0.306
 3651SOL     OW11851   0.479   0.035   3.627
 3651SOL    HW111852   0.566   0.068   3.592
 3651SOL    HW211853   0.493   7.010   3.717
 3652SOL     OW11854   6.230   6.152   2.826
 3652SOL    HW111855   6.169   6.176   2.750
 3652SOL    HW211856   6.175   6.122   2.904
 3653SOL     OW11857   0.171   1.483   4.433
 3653SOL    HW111858   0.106   1.556   4.414
 3653SOL    HW211859   0.208   1.447   4.347
 3654SOL     OW11860   2.809   5.573   0.513
 3654SOL    HW111861   2.781   5.570   0.417
 3654SOL    HW211862   2.889   5.514   0.526
 3655SOL     OW11863   2.537   0.220   3.538
 3655SOL    HW111864   2.481   0.252   3.614
 3655SOL    HW211865   2.514   0.125   3.517
 3656SOL     OW11866   0.820   3.499   2.208
 3656SOL    HW111867   0.858   3.499   2.115
 3656SOL    HW211868   0.730   3.541   2.207
 3657SOL     OW11869   5.213   4.856   6.327
 3657SOL    HW111870   5.148   4.780   6.334
 3657SOL    HW211871   5.240   4.868   6.232
 3658SOL     OW11872   1.925   6.502   4.157
 3658SOL    HW111873   1.976   6.555   4.089
 3658SOL    HW211874   1.988   6.441   4.205
 3659SOL     OW11875   2.242   3.098   5.705
 3659SOL    HW111876   2.326   3.051   5.678
 3659SOL    HW211877   2.250   3.196   5.686
 3660SOL     OW11878   4.628   0.837   2.774
 3660SOL    HW111879   4.538   0.846   2.817
 3660SOL    HW211880   4.686   0.912   2.806
 3661SOL     OW11881   4.549   1.657   6.118
 3661SOL    HW111882   4.600   1.668   6.204
 3661SOL    HW211883   4.563   1.739   6.061
 3662SOL     OW11884   4.333   0.349   3.763
 3662SOL    HW111885   4.304   0.434   3.719
 3662SOL    HW211886   4.290   0.341   3.852
 3663SOL     OW11887   1.686   1.853   0.200
 3663SOL    HW111888   1.593   1.885   0.221
 3663SOL    HW211889   1.751   1.926   0.218
 3664SOL     OW11890   4.927   1.984   1.790
 3664SOL    HW111891   4.920   2.075   1.747
 3664SOL    HW211892   4.882   1.985   1.879
 3665SOL     OW11893   2.003   6.461   5.243
 3665SOL    HW111894   1.978   6.467   5.147
 3665SOL    HW211895   2.016   6.365   5.268
 3666SOL     OW11896   1.614   3.792   3.280
 3666SOL    HW111897   1.561   3.858   3.226
 3666SOL    HW211898   1.616   3.821   3.376
 3667SOL     OW11899   0.043   0.804   1.029
 3667SOL    HW111900   0.071   0.726   0.974
 3667SOL    HW211901   7.003   0.865   0.974
 3668SOL     OW11902   1.427   1.142   2.244
 3668SOL    HW111903   1.429   1.241   2.228
 3668SOL    HW211904   1.487   1.096   2.179
 3669SOL     OW11905   5.818   1.511   3.554
 3669SOL    HW111906   5.777   1.468   3.634
 3669SOL    HW211907   5.786   1.606   3.547
 3670SOL     OW11908   2.019   4.400   0.515
 3670SOL    HW111909   2.024   4.428   0.611
 3670SOL    HW211910   2.106   4.359   0.487
 3671SOL     OW11911   5.855   0.259   3.728
 3671SOL    HW111912   5.845   0.225   3.821
 3671SOL    HW211913   5.950   0.248   3.699
 3672SOL     OW11914   5.617   2.155   1.915
 3672SOL    HW111915   5.539   2.096   1.894
 3672SOL    HW211916   5.636   2.151   2.013
 3673SOL     OW11917   4.312   0.400   6.480
 3673SOL    HW111918   4.341   0.492   6.505
 3673SOL    HW211919   4.215   0.389   6.503
 3674SOL     OW11920   0.327   6.706   4.976
 3674SOL    HW111921   0.280   6.759   4.905
 3674SOL    HW211922   0.261   6.674   5.043
 3675SOL     OW11923   1.269   3.218   4.819
 3675SOL    HW111924   1.318   3.305   4.823
 3675SOL    HW211925   1.277   3.178   4.728
 3676SOL     OW11926   5.119   4.471   4.685
 3676SOL    HW111927   5.074   4.536   4.747
 3676SOL    HW211928   5.149   4.391   4.737
 3677SOL     OW11929   2.199   6.319   3.186
 3677SOL    HW111930   2.132   6.263   3.235
 3677SOL    HW211931   2.185   6.416   3.208
 3678SOL     OW11932   0.253   3.241   4.143
 3678SOL    HW111933   0.337   3.265   4.192
 3678SOL    HW211934   0.265   3.258   4.045
 3679SOL     OW11935   1.827   0.395   3.134
 3679SOL    HW111936   1.897   0.433   3.194
 3679SOL    HW211937   1.779   0.470   3.087
 3680SOL     OW11938   5.635   2.112   2.885
 3680SOL    HW111939   5.669   2.206   2.878
 3680SOL    HW211940   5.680   2.066   2.961
 3681SOL     OW11941   0.595   0.634   5.103
 3681SOL    HW111942   0.636   0.664   5.189
 3681SOL    HW211943   0.538   0.553   5.120
 3682SOL     OW11944   5.351   2.355   6.529
 3682SOL    HW111945   5.349   2.446   6.488
 3682SOL    HW211946   5.363   2.286   6.458
 3683SOL     OW11947   0.015   6.904   3.007
 3683SOL    HW111948   6.933   6.893   3.019
 3683SOL    HW211949   0.033   6.984   2.950
 3684SOL     OW11950   1.479   4.815   6.739
 3684SOL    HW111951   1.499   4.839   6.834
 3684SOL    HW211952   1.473   4.715   6.730
 3685SOL     OW11953   6.560   6.377   5.904
 3685SOL    HW111954   6.518   6.298   5.859
 3685SOL    HW211955   6.660   6.364   5.907
 3686SOL     OW11956   5.564   6.477   2.685
 3686SOL    HW111957   5.486   6.515   2.734
 3686SOL    HW211958   5.561   6.507   2.589
 3687SOL     OW11959   4.056   6.051   5.511
 3687SOL    HW111960   3.975   5.998   5.534
 3687SOL    HW211961   4.051   6.141   5.555
 3688SOL     OW11962   6.805   3.125   6.670
 3688SOL    HW111963   6.850   3.174   6.595
 3688SOL    HW211964   6.721   3.082   6.636
 3689SOL     OW11965   1.881   0.964   6.964
 3689SOL    HW111966   1.806   0.922   7.015
 3689SOL    HW211967   1.861   1.060   6.946
 3690SOL     OW11968   4.887   6.728   0.238
 3690SOL    HW111969   4.911   6.666   0.313
 3690SOL    HW211970   4.910   6.685   0.151
 3691SOL     OW11971   2.864   2.670   0.060
 3691SOL    HW111972   2.791   2.688   0.127
 3691SOL    HW211973   2.892   2.757   0.018
 3692SOL     OW11974   0.925   6.033   4.805
 3692SOL    HW111975   0.878   6.120   4.791
 3692SOL    HW211976   1.021   6.051   4.827
 3693SOL     OW11977   2.009   2.924   2.764
 3693SOL    HW111978   1.910   2.940   2.765
 3693SOL    HW211979   2.050   2.972   2.686
 3694SOL     OW11980   1.013   5.396   2.887
 3694SOL    HW111981   0.962   5.397   2.974
 3694SOL    HW211982   0.998   5.309   2.841
 3695SOL     OW11983   6.914   2.773   2.169
 3695SOL    HW111984   6.987   2.707   2.153
 3695SOL    HW211985   6.925   2.814   2.259
 3696SOL     OW11986   2.957   5.672   5.107
 3696SOL    HW111987   3.053   5.696   5.090
 3696SOL    HW211988   2.908   5.753   5.141
 3697SOL     OW11989   0.246   6.501   3.368
 3697SOL    HW111990   0.156   6.475   3.331
 3697SOL    HW211991   0.315   6.438   3.333
 3698SOL     OW11992   2.012   0.182   4.754
 3698SOL    HW111993   2.028   0.167   4.656
 3698SOL    HW211994   2.008   0.094   4.801
 3699SOL     OW11995   0.414   3.452   3.457
 3699SOL    HW111996   0.391   3.544   3.489
 3699SOL    HW211997   0.333   3.409   3.418
 3700SOL     OW11998   0.233   0.258   4.696
 3700SOL    HW111999   0.287   0.260   4.780
 3700SOL    HW212000   0.147   0.308   4.710
 3701SOL     OW12001   1.371   0.583   3.596
 3701SOL    HW112002   1.470   0.571   3.604
 3701SOL    HW212003   1.348   0.616   3.504
 3702SOL     OW12004   6.280   6.312   2.088
 3702SOL    HW112005   6.350   6.260   2.039
 3702SOL    HW212006   6.309   6.325   2.183
 3703SOL     OW12007   4.224   1.966   6.588
 3703SOL    HW112008   4.258   1.937   6.498
 3703SOL    HW212009   4.125   1.975   6.585
 3704SOL     OW12010   3.533   1.276   1.617
 3704SOL    HW112011   3.462   1.218   1.576
 3704SOL    HW212012   3.609   1.218   1.648
 3705SOL     OW12013   4.526   5.852   3.794
 3705SOL    HW112014   4.571   5.763   3.794
 3705SOL    HW212015   4.428   5.840   3.807
 3706SOL     OW12016   1.606   3.954   5.078
 3706SOL    HW112017   1.656   4.022   5.024
 3706SOL    HW212018   1.525   3.997   5.118
 3707SOL     OW12019   5.509   4.306   5.533
 3707SOL    HW112020   5.603   4.274   5.543
 3707SOL    HW212021   5.508   4.405   5.521
 3708SOL     OW12022   6.783   0.956   6.126
 3708SOL    HW112023   6.812   0.988   6.036
 3708SOL    HW212024   6.804   0.859   6.135
 3709SOL     OW12025   3.882   0.932   0.709
 3709SOL    HW112026   3.964   0.990   0.705
 3709SOL    HW212027   3.810   0.980   0.760
 3710SOL     OW12028   0.017   5.766   6.833
 3710SOL    HW112029   0.043   5.722   6.748
 3710SOL    HW212030   6.955   5.825   6.818
 3711SOL     OW12031   0.674   0.078   2.729
 3711SOL    HW112032   0.631   0.012   2.668
 3711SOL    HW212033   0.690   0.035   2.818
 3712SOL     OW12034   0.230   6.241   6.890
 3712SOL    HW112035   0.288   6.306   6.840
 3712SOL    HW212036   0.260   6.236   6.985
 3713SOL     OW12037   1.853   6.146   4.837
 3713SOL    HW112038   1.807   6.232   4.857
 3713SOL    HW212039   1.830   6.116   4.744
 3714SOL     OW12040   4.310   5.610   5.018
 3714SOL    HW112041   4.305   5.672   5.096
 3714SOL    HW212042   4.386   5.546   5.032
 3715SOL     OW12043   5.772   3.823   2.840
 3715SOL    HW112044   5.827   3.830   2.756
 3715SOL    HW212045   5.721   3.737   2.839
 3716SOL     OW12046   6.195   6.867   5.524
 3716SOL    HW112047   6.112   6.923   5.517
 3716SOL    HW212048   6.173   6.780   5.568
 3717SOL     OW12049   5.439   5.667   6.133
 3717SOL    HW112050   5.357   5.656   6.076
 3717SOL    HW212051   5.416   5.646   6.228
 3718SOL     OW12052   1.976   0.738   0.128
 3718SOL    HW112053   1.888   0.782   0.111
 3718SOL    HW212054   2.048   0.788   0.080
 3719SOL     OW12055   5.580   4.567   0.848
 3719SOL    HW112056   5.665   4.518   0.868
 3719SOL    HW212057   5.588   4.613   0.760
 3720SOL     OW12058   6.250   1.964   5.923
 3720SOL    HW112059   6.321   1.903   5.958
 3720SOL    HW212060   6.188   1.913   5.864
 3721SOL     OW12061   4.987   4.232   1.496
 3721SOL    HW112062   4.948   4.284   1.571
 3721SOL    HW212063   4.997   4.136   1.523
 3722SOL     OW12064   6.376   6.454   1.178
 3722SOL    HW112065   6.452   6.512   1.207
 3722SOL    HW212066   6.297   6.470   1.237
 3723SOL     OW12067   6.353   6.038   1.957
 3723SOL    HW112068   6.389   6.037   2.051
 3723SOL    HW212069   6.313   5.948   1.936
 3724SOL     OW12070   2.334   4.680   5.967
 3724SOL    HW112071   2.248   4.695   6.016
 3724SOL    HW212072   2.320   4.609   5.898
 3725SOL     OW12073   5.928   5.381   1.001
 3725SOL    HW112074   5.985   5.463   0.999
 3725SOL    HW212075   5.967   5.312   0.939
 3726SOL     OW12076   6.554   5.017   0.598
 3726SOL    HW112077   6.592   5.041   0.687
 3726SOL    HW212078   6.518   5.100   0.554
 3727SOL     OW12079   0.104   1.806   5.673
 3727SOL    HW112080   0.132   1.876   5.607
 3727SOL    HW212081   0.038   1.744   5.629
 3728SOL     OW12082   0.937   4.147   6.880
 3728SOL    HW112083   1.002   4.099   6.822
 3728SOL    HW212084   0.897   4.224   6.829
 3729SOL     OW12085   0.986   2.117   3.369
 3729SOL    HW112086   1.056   2.049   3.344
 3729SOL    HW212087   0.896   2.085   3.340
 3730SOL     OW12088   2.640   5.206   6.605
 3730SOL    HW112089   2.730   5.219   6.564
 3730SOL    HW212090   2.642   5.234   6.700
 3731SOL     OW12091   5.127   0.227   0.994
 3731SOL    HW112092   5.087   0.202   1.083
 3731SOL    HW212093   5.055   0.259   0.933
 3732SOL     OW12094   2.031   2.211   6.239
 3732SOL    HW112095   2.037   2.112   6.225
 3732SOL    HW212096   2.089   2.237   6.315
 3733SOL     OW12097   1.169   3.407   2.082
 3733SOL    HW112098   1.136   3.454   2.165
 3733SOL    HW212099   1.092   3.391   2.021
 3734SOL     OW12100   4.606   0.966   2.153
 3734SOL    HW112101   4.567   0.955   2.244
 3734SOL    HW212102   4.660   1.050   2.149
 3735SOL     OW12103   2.436   0.662   3.627
 3735SOL    HW112104   2.387   0.619   3.551
 3735SOL    HW212105   2.434   0.761   3.616
 3736SOL     OW12106   6.502   1.991   0.329
 3736SOL    HW112107   6.583   1.953   0.284
 3736SOL    HW212108   6.420   1.949   0.290
 3737SOL     OW12109   4.741   0.417   3.247
 3737SOL    HW112110   4.662   0.367   3.210
 3737SOL    HW212111   4.785   0.361   3.318
 3738SOL     OW12112   0.112   5.911   2.093
 3738SOL    HW112113   0.204   5.948   2.103
 3738SOL    HW212114   0.051   5.957   2.158
 3739SOL     OW12115   2.550   4.971   1.446
 3739SOL    HW112116   2.649   4.967   1.434
 3739SOL    HW212117   2.521   4.895   1.505
 3740SOL     OW12118   5.609   0.238   0.682
 3740SOL    HW112119   5.539   0.258   0.614
 3740SOL    HW212120   5.580   0.275   0.771
 3741SOL     OW12121   5.003   3.251   1.354
 3741SOL    HW112122   5.062   3.303   1.292
 3741SOL    HW212123   4.944   3.190   1.301
 3742SOL     OW12124   2.504   2.156   6.623
 3742SOL    HW112125   2.537   2.116   6.538
 3742SOL    HW212126   2.536   2.250   6.631
 3743SOL     OW12127   4.914   3.022   0.930
 3743SOL    HW112128   4.969   2.957   0.982
 3743SOL    HW212129   4.962   3.046   0.846
 3744SOL     OW12130   0.538   6.301   2.946
 3744SOL    HW112131   0.538   6.285   3.045
 3744SOL    HW212132   0.622   6.263   2.907
 3745SOL     OW12133   3.989   5.103   1.930
 3745SOL    HW112134   4.042   5.122   2.012
 3745SOL    HW212135   3.934   5.020   1.944
 3746SOL     OW12136   5.538   1.475   2.815
 3746SOL    HW112137   5.464   1.541   2.802
 3746SOL    HW212138   5.593   1.470   2.732
 3747SOL     OW12139   2.914   6.919   5.386
 3747SOL    HW112140   2.836   6.913   5.324
 3747SOL    HW212141   2.956   7.010   5.378
 3748SOL     OW12142   5.778   0.273   1.780
 3748SOL    HW112143   5.691   0.267   1.731
 3748SOL    HW212144   5.810   0.367   1.779
 3749SOL     OW12145   2.143   6.612   3.992
 3749SOL    HW112146   2.190   6.531   4.025
 3749SOL    HW212147   2.208   6.687   3.981
 3750SOL     OW12148   1.184   3.721   0.782
 3750SOL    HW112149   1.099   3.686   0.742
 3750SOL    HW212150   1.230   3.648   0.833
 3751SOL     OW12151   6.654   3.444   2.025
 3751SOL    HW112152   6.632   3.508   1.952
 3751SOL    HW212153   6.584   3.373   2.030
 3752SOL     OW12154   5.467   0.580   6.498
 3752SOL    HW112155   5.478   0.534   6.410
 3752SOL    HW212156   5.369   0.599   6.513
 3753SOL     OW12157   6.296   0.434   5.202
 3753SOL    HW112158   6.219   0.497   5.215
 3753SOL    HW212159   6.265   0.341   5.220
 3754SOL     OW12160   1.797   0.045   1.489
 3754SOL    HW112161   1.893   0.036   1.464
 3754SOL    HW212162   1.769   6.985   1.544
 3755SOL     OW12163   4.712   5.652   4.911
 3755SOL    HW112164   4.645   5.697   4.851
 3755SOL    HW212165   4.801   5.697   4.900
 3756SOL     OW12166   3.250   5.527   6.373
 3756SOL    HW112167   3.266   5.552   6.468
 3756SOL    HW212168   3.220   5.432   6.367
 3757SOL     OW12169   6.028   5.203   2.006
 3757SOL    HW112170   5.967   5.174   2.080
 3757SOL    HW212171   6.118   5.161   2.019
 3758SOL     OW12172   2.380   1.320   4.190
 3758SOL    HW112173   2.305   1.386   4.193
 3758SOL    HW212174   2.467   1.369   4.197
 3759SOL     OW12175   3.849   6.898   5.920
 3759SOL    HW112176   3.843   6.917   6.018
 3759SOL    HW212177   3.774   6.944   5.872
 3760SOL     OW12178   0.624   1.853   4.365
 3760SOL    HW112179   0.671   1.787   4.306
 3760SOL    HW212180   0.542   1.887   4.318
 3761SOL     OW12181   6.350   0.906   5.493
 3761SOL    HW112182   6.420   0.930   5.426
 3761SOL    HW212183   6.275   0.973   5.488
 3762SOL     OW12184   1.433   4.369   1.251
 3762SOL    HW112185   1.461   4.302   1.183
 3762SOL    HW212186   1.468   4.341   1.341
 3763SOL     OW12187   0.192   3.669   0.009
 3763SOL    HW112188   0.140   3.707   6.950
 3763SOL    HW212189   0.288   3.698   0.002
 3764SOL     OW12190   1.516   7.015   2.268
 3764SOL    HW112191   1.537   0.029   2.176
 3764SOL    HW212192   1.595   6.967   2.306
 3765SOL     OW12193   5.889   1.004   1.027
 3765SOL    HW112194   5.854   1.080   1.083
 3765SOL    HW212195   5.970   0.965   1.072
 3766SOL     OW12196   1.774   2.748   4.121
 3766SOL    HW112197   1.772   2.672   4.185
 3766SOL    HW212198   1.713   2.821   4.154
 3767SOL     OW12199   3.269   4.862   6.545
 3767SOL    HW112200   3.210   4.851   6.465
 3767SOL    HW212201   3.214   4.882   6.625
 3768SOL     OW12202   0.707   6.910   4.512
 3768SOL    HW112203   0.716   6.990   4.571
 3768SOL    HW212204   0.662   6.935   4.427
 3769SOL     OW12205   6.011   5.571   5.073
 3769SOL    HW112206   5.936   5.541   5.014
 3769SOL    HW212207   6.077   5.624   5.020
 3770SOL     OW12208   1.169   0.561   6.796
 3770SOL    HW112209   1.072   0.585   6.798
 3770SOL    HW212210   1.188   0.491   6.864
 3771SOL     OW12211   5.191   4.207   0.106
 3771SOL    HW112212   5.115   4.270   0.116
 3771SOL    HW212213   5.191   4.142   0.182
 3772SOL     OW12214   0.693   0.379   0.255
 3772SOL    HW112215   0.729   0.396   0.347
 3772SOL    HW212216   0.739   0.300   0.216
 3773SOL     OW12217   6.086   3.244   5.321
 3773SOL    HW112218   6.097   3.242   5.221
 3773SOL    HW212219   5.991   3.225   5.345
 3774SOL     OW12220   5.683   5.577   1.679
 3774SOL    HW112221   5.694   5.613   1.772
 3774SOL    HW212222   5.651   5.483   1.683
 3775SOL     OW12223   4.742   5.173   2.825
 3775SOL    HW112224   4.712   5.257   2.871
 3775SOL    HW212225   4.664   5.127   2.784
 3776SOL     OW12226   3.499   2.457   6.762
 3776SOL    HW112227   3.580   2.446   6.704
 3776SOL    HW212228   3.444   2.534   6.727
 3777SOL     OW12229   2.688   5.352   3.338
 3777SOL    HW112230   2.779   5.311   3.346
 3777SOL    HW212231   2.655   5.377   3.429
 3778SOL     OW12232   2.328   5.597   3.438
 3778SOL    HW112233   2.405   5.653   3.410
 3778SOL    HW212234   2.276   5.569   3.358
 3779SOL     OW12235   0.686   4.629   1.371
 3779SOL    HW112236   0.756   4.700   1.374
 3779SOL    HW212237   0.617   4.648   1.440
 3780SOL     OW12238   6.278   4.180   4.685
 3780SOL    HW112239   6.303   4.146   4.776
 3780SOL    HW212240   6.186   4.150   4.662
 3781SOL     OW12241   0.722   0.135   3.606
 3781SOL    HW112242   0.799   0.181   3.562
 3781SOL    HW212243   0.702   0.178   3.694
 3782SOL     OW12244   3.642   7.001   2.455
 3782SOL    HW112245   3.601   6.959   2.536
 3782SOL    HW212246   3.733   6.963   2.440
 3783SOL     OW12247   6.256   5.087   4.129
 3783SOL    HW112248   6.311   5.124   4.204
 3783SOL    HW212249   6.238   5.159   4.062
 3784SOL     OW12250   5.201   3.091   2.866
 3784SOL    HW112251   5.196   3.190   2.857
 3784SOL    HW212252   5.109   3.053   2.877
 3785SOL     OW12253   1.518   3.017   4.876
 3785SOL    HW112254   1.488   3.053   4.964
 3785SOL    HW212255   1.582   3.082   4.834
 3786SOL     OW12256   2.105   3.981   3.149
 3786SOL    HW112257   2.058   3.920   3.086
 3786SOL    HW212258   2.133   3.930   3.230
 3787SOL     OW12259   5.543   1.076   1.759
 3787SOL    HW112260   5.495   1.157   1.793
 3787SOL    HW212261   5.483   0.996   1.768
 3788SOL     OW12262   6.917   4.486   4.904
 3788SOL    HW112263   6.910   4.554   4.977
 3788SOL    HW212264   6.903   4.531   4.816
 3789SOL     OW12265   0.096   3.744   4.016
 3789SOL    HW112266   0.014   3.708   3.971
 3789SOL    HW212267   0.151   3.669   4.052
 3790SOL     OW12268   0.657   4.913   6.035
 3790SOL    HW112269   0.675   4.816   6.017
 3790SOL    HW212270   0.712   4.942   6.114
 3791SOL     OW12271   4.857   1.619   6.180
 3791SOL    HW112272   4.824   1.601   6.273
 3791SOL    HW212273   4.917   1.700   6.181
 3792SOL     OW12274   1.288   1.865   3.925
 3792SOL    HW112275   1.330   1.819   3.846
 3792SOL    HW212276   1.200   1.823   3.945
 3793SOL     OW12277   4.460   6.377   1.767
 3793SOL    HW112278   4.548   6.343   1.799
 3793SOL    HW212279   4.468   6.411   1.674
 3794SOL     OW12280   2.927   2.891   1.627
 3794SOL    HW112281   2.984   2.809   1.630
 3794SOL    HW212282   2.834   2.868   1.655
 3795SOL     OW12283   4.758   5.824   1.269
 3795SOL    HW112284   4.775   5.833   1.367
 3795SOL    HW212285   4.663   5.848   1.249
 3796SOL     OW12286   4.268   2.069   2.362
 3796SOL    HW112287   4.236   1.976   2.345
 3796SOL    HW212288   4.252   2.126   2.281
 3797SOL     OW12289   0.339   3.562   3.067
 3797SOL    HW112290   0.341   3.495   2.992
 3797SOL    HW212291   0.330   3.654   3.029
 3798SOL     OW12292   2.375   6.118   2.620
 3798SOL    HW112293   2.464   6.142   2.581
 3798SOL    HW212294   2.309   6.190   2.600
 3799SOL     OW12295   6.643   3.017   3.818
 3799SOL    HW112296   6.550   3.013   3.855
 3799SOL    HW212297   6.708   2.985   3.888
 3800SOL     OW12298   5.498   1.788   3.678
 3800SOL    HW112299   5.507   1.832   3.767
 3800SOL    HW212300   5.579   1.809   3.622
 3801SOL     OW12301   5.865   6.482   1.792
 3801SOL    HW112302   5.834   6.396   1.832
 3801SOL    HW212303   5.787   6.530   1.753
 3802SOL     OW12304   1.104   1.533   1.674
 3802SOL    HW112305   1.004   1.525   1.674
 3802SOL    HW212306   1.135   1.557   1.582
 3803SOL     OW12307   4.135   3.591   2.834
 3803SOL    HW112308   4.168   3.577   2.741
 3803SOL    HW212309   4.039   3.620   2.831
 3804SOL     OW12310   4.140   1.213   3.934
 3804SOL    HW112311   4.219   1.241   3.988
 3804SOL    HW212312   4.161   1.129   3.884
 3805SOL     OW12313   1.997   3.061   1.880
 3805SOL    HW112314   1.956   3.140   1.833
 3805SOL    HW212315   1.978   2.978   1.827
 3806SOL     OW12316   3.001   3.571   5.465
 3806SOL    HW112317   2.973   3.640   5.531
 3806SOL    HW212318   2.947   3.488   5.478
 3807SOL     OW12319   2.290   5.312   3.118
 3807SOL    HW112320   2.380   5.287   3.082
 3807SOL    HW212321   2.279   5.411   3.116
 3808SOL     OW12322   4.043   1.053   0.392
 3808SOL    HW112323   4.117   1.029   0.328
 3808SOL    HW212324   3.957   1.016   0.358
 3809SOL     OW12325   5.579   3.046   1.542
 3809SOL    HW112326   5.604   3.140   1.566
 3809SOL    HW212327   5.484   3.029   1.568
 3810SOL     OW12328   5.762   2.666   3.643
 3810SOL    HW112329   5.705   2.739   3.607
 3810SOL    HW212330   5.708   2.582   3.652
 3811SOL     OW12331   0.057   6.661   4.550
 3811SOL    HW112332   6.997   6.637   4.491
 3811SOL    HW212333   0.129   6.702   4.495
 3812SOL     OW12334   4.026   4.905   5.566
 3812SOL    HW112335   3.947   4.956   5.601
 3812SOL    HW212336   3.998   4.851   5.487
 3813SOL     OW12337   5.774   3.841   0.117
 3813SOL    HW112338   5.865   3.835   0.076
 3813SOL    HW212339   5.705   3.822   0.047
 3814SOL     OW12340   6.494   0.257   4.956
 3814SOL    HW112341   6.552   0.339   4.964
 3814SOL    HW212342   6.552   0.176   4.948
 3815SOL     OW12343   3.961   2.171   0.935
 3815SOL    HW112344   3.896   2.103   0.970
 3815SOL    HW212345   4.051   2.156   0.977
 3816SOL     OW12346   0.980   5.135   6.520
 3816SOL    HW112347   0.908   5.102   6.458
 3816SOL    HW212348   1.064   5.082   6.504
 3817SOL     OW12349   4.888   3.467   2.268
 3817SOL    HW112350   4.915   3.459   2.364
 3817SOL    HW212351   4.911   3.558   2.234
 3818SOL     OW12352   6.640   1.376   0.148
 3818SOL    HW112353   6.620   1.469   0.177
 3818SOL    HW212354   6.677   1.377   0.055
 3819SOL     OW12355   5.919   5.380   2.676
 3819SOL    HW112356   5.840   5.347   2.624
 3819SOL    HW212357   5.969   5.302   2.714
 3820SOL     OW12358   5.194   6.524   4.572
 3820SOL    HW112359   5.275   6.572   4.609
 3820SOL    HW212360   5.220   6.431   4.546
 3821SOL     OW12361   1.463   0.621   1.856
 3821SOL    HW112362   1.407   0.664   1.926
 3821SOL    HW212363   1.458   0.521   1.866
 3822SOL     OW12364   2.047   6.204   0.541
 3822SOL    HW112365   2.019   6.176   0.449
 3822SOL    HW212366   1.967   6.220   0.598
 3823SOL     OW12367   3.338   3.765   6.329
 3823SOL    HW112368   3.267   3.813   6.381
 3823SOL    HW212369   3.400   3.831   6.288
 3824SOL     OW12370   0.410   2.318   0.605
 3824SOL    HW112371   0.505   2.345   0.587
 3824SOL    HW212372   0.393   2.228   0.566
 3825SOL     OW12373   0.406   4.848   7.017
 3825SOL    HW112374   0.490   4.901   0.008
 3825SOL    HW212375   0.341   4.897   6.959
 3826SOL     OW12376   0.553   3.728   0.731
 3826SOL    HW112377   0.560   3.694   0.637
 3826SOL    HW212378   0.550   3.651   0.794
 3827SOL     OW12379   1.053   0.848   1.505
 3827SOL    HW112380   1.082   0.888   1.418
 3827SOL    HW212381   1.006   0.917   1.560
 3828SOL     OW12382   3.258   3.537   3.615
 3828SOL    HW112383   3.340   3.481   3.606
 3828SOL    HW212384   3.283   3.626   3.655
 3829SOL     OW12385   0.578   4.334   2.313
 3829SOL    HW112386   0.636   4.326   2.395
 3829SOL    HW212387   0.634   4.320   2.231
 3830SOL     OW12388   1.037   1.045   5.301
 3830SOL    HW112389   0.994   0.955   5.292
 3830SOL    HW212390   1.039   1.070   5.398
 3831SOL     OW12391   4.565   1.878   2.531
 3831SOL    HW112392   4.468   1.852   2.536
 3831SOL    HW212393   4.572   1.970   2.494
 3832SOL     OW12394   6.738   0.696   2.945
 3832SOL    HW112395   6.730   0.678   2.847
 3832SOL    HW212396   6.825   0.661   2.979
 3833SOL     OW12397   0.352   6.010   6.790
 3833SOL    HW112398   0.349   6.085   6.856
 3833SOL    HW212399   0.271   5.952   6.802
 3834SOL     OW12400   3.571   4.150   0.720
 3834SOL    HW112401   3.658   4.193   0.699
 3834SOL    HW212402   3.537   4.102   0.640
 3835SOL     OW12403   4.002   5.947   4.520
 3835SOL    HW112404   4.021   5.927   4.616
 3835SOL    HW212405   4.088   5.962   4.471
 3836SOL     OW12406   6.870   4.906   5.946
 3836SOL    HW112407   6.843   4.980   6.008
 3836SOL    HW212408   6.964   4.922   5.915
 3837SOL     OW12409   4.763   4.400   6.197
 3837SOL    HW112410   4.796   4.395   6.291
 3837SOL    HW212411   4.840   4.404   6.134
 3838SOL     OW12412   0.620   3.017   3.819
 3838SOL    HW112413   0.716   3.044   3.817
 3838SOL    HW212414   0.598   2.965   3.737
 3839SOL     OW12415   5.637   1.877   2.752
 3839SOL    HW112416   5.650   1.966   2.794
 3839SOL    HW212417   5.591   1.816   2.816
 3840SOL     OW12418   2.870   1.474   6.489
 3840SOL    HW112419   2.913   1.546   6.434
 3840SOL    HW212420   2.780   1.454   6.452
 3841SOL     OW12421   0.154   3.452   4.439
 3841SOL    HW112422   0.248   3.470   4.412
 3841SOL    HW212423   0.138   3.354   4.445
 3842SOL     OW12424   1.707   2.280   2.400
 3842SOL    HW112425   1.802   2.261   2.424
 3842SOL    HW212426   1.704   2.338   2.319
 3843SOL     OW12427   5.661   4.118   2.611
 3843SOL    HW112428   5.589   4.170   2.657
 3843SOL    HW212429   5.622   4.033   2.573
 3844SOL     OW12430   1.158   2.645   5.130
 3844SOL    HW112431   1.080   2.709   5.127
 3844SOL    HW212432   1.203   2.652   5.218
 3845SOL     OW12433   3.267   4.634   5.882
 3845SOL    HW112434   3.273   4.581   5.966
 3845SOL    HW212435   3.324   4.716   5.889
 3846SOL     OW12436   0.359   4.483   3.307
 3846SOL    HW112437   0.328   4.526   3.392
 3846SOL    HW212438   0.340   4.385   3.311
 3847SOL     OW12439   5.082   2.944   4.375
 3847SOL    HW112440   5.092   2.908   4.282
 3847SOL    HW212441   5.147   2.900   4.436
 3848SOL     OW12442   4.651   4.464   2.875
 3848SOL    HW112443   4.562   4.487   2.916
 3848SOL    HW212444   4.638   4.440   2.779
 3849SOL     OW12445   1.184   1.753   5.820
 3849SOL    HW112446   1.110   1.790   5.764
 3849SOL    HW212447   1.214   1.666   5.781
 3850SOL     OW12448   2.567   3.515   1.638
 3850SOL    HW112449   2.513   3.476   1.712
 3850SOL    HW212450   2.659   3.475   1.639
 3851SOL     OW12451   0.817   4.297   3.025
 3851SOL    HW112452   0.872   4.364   2.974
 3851SOL    HW212453   0.750   4.345   3.082
 3852SOL     OW12454   4.295   6.433   3.727
 3852SOL    HW112455   4.311   6.436   3.826
 3852SOL    HW212456   4.215   6.378   3.708
 3853SOL     OW12457   0.781   4.366   3.927
 3853SOL    HW112458   0.721   4.322   3.994
 3853SOL    HW212459   0.769   4.465   3.931
 3854SOL     OW12460   1.318   2.050   2.892
 3854SOL    HW112461   1.262   2.131   2.908
 3854SOL    HW212462   1.409   2.078   2.863
 3855SOL     OW12463   4.882   6.378   6.342
 3855SOL    HW112464   4.847   6.471   6.352
 3855SOL    HW212465   4.981   6.378   6.354
 3856SOL     OW12466   6.814   0.424   6.072
 3856SOL    HW112467   6.859   0.381   5.994
 3856SOL    HW212468   6.720   0.390   6.080
 3857SOL     OW12469   0.781   6.126   6.685
 3857SOL    HW112470   0.814   6.221   6.689
 3857SOL    HW212471   0.832   6.070   6.750
 3858SOL     OW12472   2.541   1.057   5.614
 3858SOL    HW112473   2.630   1.054   5.659
 3858SOL    HW212474   2.526   1.148   5.576
 3859SOL     OW12475   5.316   1.460   1.565
 3859SOL    HW112476   5.278   1.384   1.513
 3859SOL    HW212477   5.282   1.457   1.659
 3860SOL     OW12478   2.040   1.530   3.899
 3860SOL    HW112479   2.011   1.448   3.850
 3860SOL    HW212480   2.066   1.506   3.992
 3861SOL     OW12481   4.535   5.121   3.196
 3861SOL    HW112482   4.448   5.158   3.163
 3861SOL    HW212483   4.518   5.039   3.250
 3862SOL     OW12484   0.412   0.228   4.899
 3862SOL    HW112485   0.417   0.194   4.993
 3862SOL    HW212486   0.430   0.327   4.898
 3863SOL     OW12487   5.487   2.379   6.860
 3863SOL    HW112488   5.411   2.378   6.924
 3863SOL    HW212489   5.474   2.307   6.792
 3864SOL     OW12490   2.314   0.869   5.808
 3864SOL    HW112491   2.396   0.847   5.756
 3864SOL    HW212492   2.268   0.948   5.767
 3865SOL     OW12493   4.186   0.925   0.830
 3865SOL    HW112494   4.157   0.838   0.790
 3865SOL    HW212495   4.138   1.000   0.784
 3866SOL     OW12496   3.712   0.156   0.598
 3866SOL    HW112497   3.700   0.128   0.503
 3866SOL    HW212498   3.637   0.120   0.653
 3867SOL     OW12499   0.939   5.531   4.114
 3867SOL    HW112500   0.950   5.601   4.043
 3867SOL    HW212501   1.021   5.475   4.119
 3868SOL     OW12502   2.685   6.502   0.416
 3868SOL    HW112503   2.646   6.594   0.427
 3868SOL    HW212504   2.716   6.490   0.322
 3869SOL     OW12505   6.237   3.897   4.360
 3869SOL    HW112506   6.233   3.875   4.262
 3869SOL    HW212507   6.292   3.980   4.373
 3870SOL     OW12508   6.207   6.252   7.008
 3870SOL    HW112509   6.169   6.342   6.985
 3870SOL    HW212510   6.289   6.236   6.953
 3871SOL     OW12511   3.831   0.792   3.098
 3871SOL    HW112512   3.835   0.757   3.004
 3871SOL    HW212513   3.874   0.727   3.160
 3872SOL     OW12514   3.647   2.865   4.188
 3872SOL    HW112515   3.551   2.882   4.209
 3872SOL    HW212516   3.657   2.843   4.091
 3873SOL     OW12517   6.869   2.982   0.910
 3873SOL    HW112518   6.957   2.938   0.889
 3873SOL    HW212519   6.796   2.915   0.900
 3874SOL     OW12520   4.511   6.244   6.894
 3874SOL    HW112521   4.593   6.237   6.950
 3874SOL    HW212522   4.515   6.326   6.838
 3875SOL     OW12523   2.033   3.012   2.238
 3875SOL    HW112524   2.043   3.098   2.188
 3875SOL    HW212525   2.110   2.952   2.217
 3876SOL     OW12526   3.868   5.741   1.222
 3876SOL    HW112527   3.814   5.656   1.219
 3876SOL    HW212528   3.924   5.742   1.305
 3877SOL     OW12529   5.520   2.844   0.730
 3877SOL    HW112530   5.444   2.788   0.696
 3877SOL    HW212531   5.537   2.822   0.826
 3878SOL     OW12532   3.337   0.070   4.886
 3878SOL    HW112533   3.252   0.070   4.833
 3878SOL    HW212534   3.414   0.057   4.824
 3879SOL     OW12535   5.733   5.412   1.188
 3879SOL    HW112536   5.792   5.387   1.111
 3879SOL    HW212537   5.637   5.402   1.161
 3880SOL     OW12538   5.576   4.835   4.432
 3880SOL    HW112539   5.593   4.765   4.364
 3880SOL    HW212540   5.599   4.800   4.523
 3881SOL     OW12541   1.204   3.574   1.630
 3881SOL    HW112542   1.161   3.647   1.684
 3881SOL    HW212543   1.178   3.485   1.667
 3882SOL     OW12544   1.459   0.878   5.722
 3882SOL    HW112545   1.447   0.788   5.764
 3882SOL    HW212546   1.515   0.869   5.640
 3883SOL     OW12547   4.226   0.727   2.969
 3883SOL    HW112548   4.309   0.751   3.020
 3883SOL    HW212549   4.152   0.705   3.032
 3884SOL     OW12550   0.160   5.906   3.084
 3884SOL    HW112551   0.175   6.004   3.091
 3884SOL    HW212552   0.123   5.871   3.170
 3885SOL     OW12553   6.253   7.007   2.543
 3885SOL    HW112554   6.182   0.058   2.553
 3885SOL    HW212555   6.342   0.031   2.561
 3886SOL     OW12556   5.904   5.964   4.879
 3886SOL    HW112557   5.836   5.942   4.809
 3886SOL    HW212558   5.981   5.901   4.872
 3887SOL     OW12559   0.493   0.550   6.694
 3887SOL    HW112560   0.474   0.604   6.776
 3887SOL    HW212561   0.412   0.550   6.635
 3888SOL     OW12562   6.367   0.683   4.854
 3888SOL    HW112563   6.370   0.680   4.754
 3888SOL    HW212564   6.290   0.740   4.883
 3889SOL     OW12565   0.451   3.644   6.923
 3889SOL    HW112566   0.517   3.633   6.997
 3889SOL    HW212567   0.454   3.564   6.863
 3890SOL     OW12568   5.365   5.380   2.918
 3890SOL    HW112569   5.412   5.333   2.994
 3890SOL    HW212570   5.403   5.472   2.908
 3891SOL     OW12571   5.821   4.525   4.663
 3891SOL    HW112572   5.777   4.440   4.691
 3891SOL    HW212573   5.881   4.557   4.736
 3892SOL     OW12574   0.113   2.098   1.640
 3892SOL    HW112575   0.171   2.020   1.615
 3892SOL    HW212576   0.171   2.172   1.674
 3893SOL     OW12577   4.690   4.256   0.934
 3893SOL    HW112578   4.743   4.187   0.886
 3893SOL    HW212579   4.615   4.212   0.983
 3894SOL     OW12580   3.515   1.531   1.519
 3894SOL    HW112581   3.531   1.444   1.566
 3894SOL    HW212582   3.422   1.531   1.480
 3895SOL     OW12583   1.520   0.619   5.326
 3895SOL    HW112584   1.440   0.596   5.382
 3895SOL    HW212585   1.508   0.582   5.234
 3896SOL     OW12586   0.077   0.852   6.228
 3896SOL    HW112587   0.001   0.787   6.227
 3896SOL    HW212588   0.060   0.922   6.296
 3897SOL     OW12589   3.455   5.308   2.949
 3897SOL    HW112590   3.457   5.369   3.028
 3897SOL    HW212591   3.367   5.260   2.945
 3898SOL     OW12592   3.791   3.498   4.950
 3898SOL    HW112593   3.796   3.491   5.049
 3898SOL    HW212594   3.870   3.548   4.916
 3899SOL     OW12595   5.673   6.758   4.873
 3899SOL    HW112596   5.708   6.851   4.859
 3899SOL    HW212597   5.729   6.693   4.822
 3900SOL     OW12598   4.879   3.238   3.821
 3900SOL    HW112599   4.858   3.146   3.786
 3900SOL    HW212600   4.881   3.303   3.746
 3901SOL     OW12601   2.891   0.491   5.965
 3901SOL    HW112602   2.816   0.424   5.969
 3901SOL    HW212603   2.854   0.583   5.962
 3902SOL     OW12604   5.556   3.803   2.031
 3902SOL    HW112605   5.626   3.874   2.019
 3902SOL    HW212606   5.467   3.839   2.004
 3903SOL     OW12607   4.121   5.919   0.143
 3903SOL    HW112608   4.054   5.847   0.163
 3903SOL    HW212609   4.191   5.882   0.081
 3904SOL     OW12610   2.119   0.586   5.274
 3904SOL    HW112611   2.183   0.656   5.304
 3904SOL    HW212612   2.128   0.505   5.331
 3905SOL     OW12613   6.852   0.134   5.994
 3905SOL    HW112614   6.919   0.181   5.937
 3905SOL    HW212615   6.892   0.114   6.083
 3906SOL     OW12616   3.873   5.204   5.155
 3906SOL    HW112617   3.858   5.110   5.124
 3906SOL    HW212618   3.797   5.262   5.123
 3907SOL     OW12619   5.499   0.011   5.126
 3907SOL    HW112620   5.445   0.072   5.183
 3907SOL    HW212621   5.597   0.029   5.141
 3908SOL     OW12622   0.930   1.357   0.456
 3908SOL    HW112623   1.009   1.297   0.451
 3908SOL    HW212624   0.901   1.382   0.363
 3909SOL     OW12625   0.280   5.208   5.572
 3909SOL    HW112626   0.224   5.230   5.492
 3909SOL    HW212627   0.338   5.287   5.595
 3910SOL     OW12628   3.339   3.828   1.827
 3910SOL    HW112629   3.329   3.899   1.897
 3910SOL    HW212630   3.297   3.743   1.860
 3911SOL     OW12631   4.289   1.389   0.279
 3911SOL    HW112632   4.281   1.323   0.205
 3911SOL    HW212633   4.219   1.371   0.348
 3912SOL     OW12634   3.787   0.360   5.931
 3912SOL    HW112635   3.722   0.400   5.867
 3912SOL    HW212636   3.748   0.360   6.023
 3913SOL     OW12637   2.392   5.848   6.305
 3913SOL    HW112638   2.352   5.905   6.233
 3913SOL    HW212639   2.398   5.753   6.273
 3914SOL     OW12640   4.177   1.269   1.327
 3914SOL    HW112641   4.171   1.329   1.247
 3914SOL    HW212642   4.204   1.177   1.298
 3915SOL     OW12643   3.843   6.240   2.077
 3915SOL    HW112644   3.848   6.278   2.170
 3915SOL    HW212645   3.755   6.194   2.065
 3916SOL     OW12646   1.738   6.216   3.660
 3916SOL    HW112647   1.696   6.259   3.580
 3916SOL    HW212648   1.724   6.117   3.657
 3917SOL     OW12649   1.207   4.991   6.412
 3917SOL    HW112650   1.257   5.055   6.355
 3917SOL    HW212651   1.266   4.914   6.437
 3918SOL     OW12652   5.216   0.451   2.494
 3918SOL    HW112653   5.146   0.464   2.565
 3918SOL    HW212654   5.306   0.448   2.537
 3919SOL     OW12655   2.798   5.829   6.821
 3919SOL    HW112656   2.747   5.805   6.738
 3919SOL    HW212657   2.889   5.861   6.795
 3920SOL     OW12658   2.458   2.918   6.626
 3920SOL    HW112659   2.416   3.009   6.623
 3920SOL    HW212660   2.552   2.925   6.657
 3921SOL     OW12661   0.039   2.746   0.928
 3921SOL    HW112662   0.131   2.769   0.961
 3921SOL    HW212663   0.034   2.763   0.830
 3922SOL     OW12664   5.897   4.287   1.131
 3922SOL    HW112665   5.914   4.364   1.070
 3922SOL    HW212666   5.916   4.201   1.083
 3923SOL     OW12667   6.651   1.950   6.967
 3923SOL    HW112668   6.707   2.032   6.958
 3923SOL    HW212669   6.618   1.922   6.877
 3924SOL     OW12670   0.037   5.815   3.299
 3924SOL    HW112671   6.974   5.874   3.309
 3924SOL    HW212672   0.086   5.811   3.386
 3925SOL     OW12673   3.744   4.192   1.115
 3925SOL    HW112674   3.682   4.129   1.069
 3925SOL    HW212675   3.697   4.278   1.134
 3926SOL     OW12676   6.463   5.516   2.610
 3926SOL    HW112677   6.517   5.491   2.690
 3926SOL    HW212678   6.494   5.605   2.575
 3927SOL     OW12679   6.734   3.890   4.042
 3927SOL    HW112680   6.780   3.888   4.131
 3927SOL    HW212681   6.799   3.864   3.971
 3928SOL     OW12682   2.518   5.353   5.249
 3928SOL    HW112683   2.515   5.354   5.349
 3928SOL    HW212684   2.591   5.414   5.218
 3929SOL     OW12685   0.623   1.717   5.549
 3929SOL    HW112686   0.566   1.641   5.579
 3929SOL    HW212687   0.622   1.721   5.449
 3930SOL     OW12688   2.101   1.817   4.041
 3930SOL    HW112689   2.152   1.842   3.959
 3930SOL    HW212690   2.158   1.759   4.099
 3931SOL     OW12691   1.696   2.139   2.850
 3931SOL    HW112692   1.617   2.185   2.891
 3931SOL    HW212693   1.719   2.058   2.904
 3932SOL     OW12694   1.571   3.794   2.840
 3932SOL    HW112695   1.594   3.734   2.917
 3932SOL    HW212696   1.594   3.889   2.864
 3933SOL     OW12697   2.211   6.916   6.544
 3933SOL    HW112698   2.188   6.911   6.641
 3933SOL    HW212699   2.311   6.916   6.534
 3934SOL     OW12700   0.294   0.911   1.182
 3934SOL    HW112701   0.311   0.879   1.275
 3934SOL    HW212702   0.198   0.897   1.158
 3935SOL     OW12703   2.075   6.817   6.334
 3935SOL    HW112704   1.989   6.867   6.340
 3935SOL    HW212705   2.140   6.854   6.400
 3936SOL     OW12706   0.303   4.828   5.290
 3936SOL    HW112707   0.332   4.924   5.290
 3936SOL    HW212708   0.380   4.770   5.314
 3937SOL     OW12709   7.005   0.692   2.193
 3937SOL    HW112710   6.929   0.718   2.134
 3937SOL    HW212711   7.017   0.762   2.264
 3938SOL     OW12712   6.818   2.346   3.689
 3938SOL    HW112713   6.761   2.406   3.746
 3938SOL    HW212714   6.854   2.398   3.612
 3939SOL     OW12715   3.045   1.726   2.170
 3939SOL    HW112716   2.958   1.742   2.123
 3939SOL    HW212717   3.027   1.711   2.268
 3940SOL     OW12718   4.353   5.287   1.999
 3940SOL    HW112719   4.300   5.367   2.029
 3940SOL    HW212720   4.338   5.212   2.062
 3941SOL     OW12721   4.958   1.374   6.107
 3941SOL    HW112722   4.950   1.468   6.139
 3941SOL    HW212723   4.977   1.314   6.184
 3942SOL     OW12724   0.233   0.174   5.816
 3942SOL    HW112725   0.196   0.099   5.870
 3942SOL    HW212726   0.268   0.245   5.876
 3943SOL     OW12727   1.074   3.563   2.896
 3943SOL    HW112728   0.988   3.522   2.927
 3943SOL    HW212729   1.059   3.608   2.808
 3944SOL     OW12730   5.794   3.819   5.465
 3944SOL    HW112731   5.832   3.744   5.411
 3944SOL    HW212732   5.716   3.785   5.518
 3945SOL     OW12733   0.888   2.021   2.107
 3945SOL    HW112734   0.974   2.004   2.154
 3945SOL    HW212735   0.812   2.009   2.171
 3946SOL     OW12736   6.241   4.692   5.906
 3946SOL    HW112737   6.180   4.747   5.849
 3946SOL    HW212738   6.305   4.752   5.954
 3947SOL     OW12739   6.031   5.151   1.665
 3947SOL    HW112740   6.083   5.124   1.746
 3947SOL    HW212741   6.058   5.094   1.587
 3948SOL     OW12742   0.843   4.810   1.500
 3948SOL    HW112743   0.852   4.910   1.495
 3948SOL    HW212744   0.863   4.780   1.593
 3949SOL     OW12745   5.718   0.655   3.255
 3949SOL    HW112746   5.776   0.736   3.261
 3949SOL    HW212747   5.707   0.630   3.159
 3950SOL     OW12748   2.890   3.797   1.740
 3950SOL    HW112749   2.845   3.723   1.791
 3950SOL    HW212750   2.954   3.757   1.674
 3951SOL     OW12751   0.442   0.042   0.432
 3951SOL    HW112752   0.503   6.988   0.397
 3951SOL    HW212753   0.412   0.100   0.356
 3952SOL     OW12754   6.950   4.310   4.026
 3952SOL    HW112755   0.016   4.261   4.003
 3952SOL    HW212756   6.871   4.249   4.018
 3953SOL     OW12757   3.538   4.382   1.060
 3953SOL    HW112758   3.469   4.310   1.058
 3953SOL    HW212759   3.528   4.440   0.979
 3954SOL     OW12760   5.959   5.511   5.378
 3954SOL    HW112761   5.995   5.529   5.286
 3954SOL    HW212762   5.880   5.571   5.394
 3955SOL     OW12763   3.630   6.380   6.256
 3955SOL    HW112764   3.589   6.442   6.323
 3955SOL    HW212765   3.582   6.293   6.257
 3956SOL     OW12766   0.232   1.461   2.603
 3956SOL    HW112767   0.248   1.558   2.587
 3956SOL    HW212768   0.245   1.441   2.700
 3957SOL     OW12769   4.807   6.466   3.506
 3957SOL    HW112770   4.721   6.415   3.513
 3957SOL    HW212771   4.880   6.417   3.553
 3958SOL     OW12772   5.658   0.271   6.165
 3958SOL    HW112773   5.589   0.274   6.093
 3958SOL    HW212774   5.622   0.313   6.248
 3959SOL     OW12775   3.813   6.577   1.154
 3959SOL    HW112776   3.715   6.592   1.138
 3959SOL    HW212777   3.865   6.652   1.113
 3960SOL     OW12778   4.601   1.398   6.473
 3960SOL    HW112779   4.564   1.340   6.401
 3960SOL    HW212780   4.692   1.431   6.447
 3961SOL     OW12781   5.227   2.325   2.075
 3961SOL    HW112782   5.192   2.281   1.993
 3961SOL    HW212783   5.158   2.388   2.111
 3962SOL     OW12784   2.130   4.782   6.949
 3962SOL    HW112785   2.176   4.749   6.867
 3962SOL    HW212786   2.079   4.708   6.992
 3963SOL     OW12787   4.696   4.454   4.229
 3963SOL    HW112788   4.743   4.542   4.214
 3963SOL    HW212789   4.603   4.460   4.193
 3964SOL     OW12790   4.776   4.937   3.777
 3964SOL    HW112791   4.681   4.952   3.749
 3964SOL    HW212792   4.816   4.865   3.719
 3965SOL     OW12793   4.208   2.746   6.270
 3965SOL    HW112794   4.145   2.729   6.194
 3965SOL    HW212795   4.201   2.841   6.299
 3966SOL     OW12796   5.784   5.878   0.511
 3966SOL    HW112797   5.868   5.888   0.458
 3966SOL    HW212798   5.795   5.918   0.602
 3967SOL     OW12799   1.266   4.409   2.605
 3967SOL    HW112800   1.331   4.363   2.665
 3967SOL    HW212801   1.314   4.470   2.543
 3968SOL     OW12802   6.272   0.236   0.960
 3968SOL    HW112803   6.210   0.201   0.890
 3968SOL    HW212804   6.244   0.328   0.988
 3969SOL     OW12805   1.508   3.576   2.666
 3969SOL    HW112806   1.520   3.668   2.704
 3969SOL    HW212807   1.470   3.516   2.737
 3970SOL     OW12808   5.644   5.453   4.027
 3970SOL    HW112809   5.577   5.387   3.991
 3970SOL    HW212810   5.675   5.423   4.117
 3971SOL     OW12811   2.438   5.282   1.552
 3971SOL    HW112812   2.374   5.219   1.595
 3971SOL    HW212813   2.532   5.253   1.573
 3972SOL     OW12814   1.605   5.163   0.787
 3972SOL    HW112815   1.653   5.233   0.841
 3972SOL    HW212816   1.595   5.196   0.693
 3973SOL     OW12817   1.009   4.341   5.983
 3973SOL    HW112818   1.109   4.352   5.977
 3973SOL    HW212819   0.977   4.291   5.902
 3974SOL     OW12820   1.035   0.640   4.784
 3974SOL    HW112821   0.994   0.624   4.874
 3974SOL    HW212822   0.969   0.618   4.713
 3975SOL     OW12823   5.398   0.259   6.037
 3975SOL    HW112824   5.304   0.290   6.026
 3975SOL    HW212825   5.399   0.167   6.077
 3976SOL     OW12826   1.123   5.247   1.199
 3976SOL    HW112827   1.093   5.202   1.115
 3976SOL    HW212828   1.166   5.334   1.178
 3977SOL     OW12829   3.236   4.175   5.649
 3977SOL    HW112830   3.281   4.259   5.617
 3977SOL    HW212831   3.158   4.199   5.706
 3978SOL     OW12832   5.406   6.644   4.680
 3978SOL    HW112833   5.458   6.700   4.745
 3978SOL    HW212834   5.469   6.585   4.629
 3979SOL     OW12835   2.900   5.890   1.818
 3979SOL    HW112836   2.818   5.946   1.831
 3979SOL    HW212837   2.874   5.793   1.818
 3980SOL     OW12838   0.340   5.656   6.276
 3980SOL    HW112839   0.256   5.603   6.264
 3980SOL    HW212840   0.316   5.747   6.312
 3981SOL     OW12841   1.794   1.816   6.481
 3981SOL    HW112842   1.874   1.807   6.539
 3981SOL    HW212843   1.727   1.745   6.504
 3982SOL     OW12844   2.455   0.462   4.129
 3982SOL    HW112845   2.443   0.554   4.091
 3982SOL    HW212846   2.403   0.397   4.074
 3983SOL     OW12847   4.451   5.077   4.155
 3983SOL    HW112848   4.519   5.119   4.094
 3983SOL    HW212849   4.495   5.004   4.207
 3984SOL     OW12850   1.187   0.643   3.153
 3984SOL    HW112851   1.090   0.664   3.164
 3984SOL    HW212852   1.220   0.680   3.066
 3985SOL     OW12853   3.992   4.678   6.325
 3985SOL    HW112854   4.023   4.667   6.231
 3985SOL    HW212855   4.009   4.772   6.356
 3986SOL     OW12856   6.429   2.227   2.589
 3986SOL    HW112857   6.479   2.149   2.552
 3986SOL    HW212858   6.482   2.269   2.663
 3987SOL     OW12859   2.975   5.396   3.983
 3987SOL    HW112860   2.993   5.445   4.068
 3987SOL    HW212861   3.061   5.360   3.946
 3988SOL     OW12862   3.962   3.669   6.480
 3988SOL    HW112863   3.881   3.669   6.539
 3988SOL    HW212864   3.957   3.745   6.416
 3989SOL     OW12865   6.589   1.633   6.959
 3989SOL    HW112866   6.543   1.686   0.012
 3989SOL    HW212867   6.526   1.614   6.884
 3990SOL     OW12868   5.745   2.388   2.839
 3990SOL    HW112869   5.694   2.391   2.754
 3990SOL    HW212870   5.709   2.456   2.903
 3991SOL     OW12871   5.797   1.699   1.869
 3991SOL    HW112872   5.770   1.761   1.943
 3991SOL    HW212873   5.842   1.618   1.908
 3992SOL     OW12874   3.700   2.339   0.165
 3992SOL    HW112875   3.617   2.356   0.113
 3992SOL    HW212876   3.752   2.265   0.123
 3993SOL     OW12877   0.421   2.656   3.367
 3993SOL    HW112878   0.488   2.616   3.430
 3993SOL    HW212879   0.463   2.732   3.318
 3994SOL     OW12880   0.481   1.291   6.243
 3994SOL    HW112881   0.533   1.281   6.328
 3994SOL    HW212882   0.412   1.363   6.254
 3995SOL     OW12883   1.685   3.831   4.380
 3995SOL    HW112884   1.628   3.773   4.437
 3995SOL    HW212885   1.632   3.861   4.300
 3996SOL     OW12886   0.889   1.147   4.445
 3996SOL    HW112887   0.807   1.119   4.395
 3996SOL    HW212888   0.954   1.190   4.382
 3997SOL     OW12889   5.014   2.394   3.599
 3997SOL    HW112890   5.023   2.317   3.536
 3997SOL    HW212891   4.984   2.475   3.548
 3998SOL     OW12892   3.979   1.003   2.503
 3998SOL    HW112893   3.982   1.084   2.444
 3998SOL    HW212894   3.943   1.029   2.593
 3999SOL     OW12895   5.567   3.367   3.818
 3999SOL    HW112896   5.489   3.423   3.789
 3999SOL    HW212897   5.584   3.381   3.916
 4000SOL     OW12898   2.747   5.132   2.940
 4000SOL    HW112899   2.764   5.051   2.996
 4000SOL    HW212900   2.676   5.187   2.982
 4001SOL     OW12901   2.457   2.135   4.182
 4001SOL    HW112902   2.399   2.212   4.156
 4001SOL    HW212903   2.426   2.052   4.135
 4002SOL     OW12904   2.679   2.535   0.498
 4002SOL    HW112905   2.721   2.497   0.581
 4002SOL    HW212906   2.587   2.569   0.519
 4003SOL     OW12907   2.878   5.999   4.882
 4003SOL    HW112908   2.894   6.056   4.802
 4003SOL    HW212909   2.797   6.032   4.930
 4004SOL     OW12910   5.751   2.204   3.938
 4004SOL    HW112911   5.698   2.132   3.981
 4004SOL    HW212912   5.692   2.257   3.877
 4005SOL     OW12913   5.518   5.953   0.863
 4005SOL    HW112914   5.483   5.870   0.906
 4005SOL    HW212915   5.617   5.948   0.855
 4006SOL     OW12916   3.892   5.137   2.737
 4006SOL    HW112917   3.893   5.234   2.714
 4006SOL    HW212918   3.961   5.118   2.807
 4007SOL     OW12919   1.130   2.949   1.876
 4007SOL    HW112920   1.171   2.972   1.965
 4007SOL    HW212921   1.148   2.853   1.854
 4008SOL     OW12922   3.610   1.852   4.359
 4008SOL    HW112923   3.573   1.893   4.443
 4008SOL    HW212924   3.537   1.844   4.292
 4009SOL     OW12925   4.911   3.337   0.305
 4009SOL    HW112926   4.811   3.332   0.305
 4009SOL    HW212927   4.942   3.402   0.235
 4010SOL     OW12928   2.373   2.986   1.754
 4010SOL    HW112929   2.356   2.937   1.668
 4010SOL    HW212930   2.417   3.073   1.734
 4011SOL     OW12931   0.623   0.571   1.674
 4011SOL    HW112932   0.685   0.498   1.644
 4011SOL    HW212933   0.643   0.655   1.623
 4012SOL     OW12934   4.412   5.294   1.738
 4012SOL    HW112935   4.427   5.311   1.835
 4012SOL    HW212936   4.331   5.345   1.707
 4013SOL     OW12937   3.264   6.883   0.245
 4013SOL    HW112938   3.324   6.945   0.294
 4013SOL    HW212939   3.272   6.791   0.284
 4014SOL     OW12940   4.038   5.821   3.105
 4014SOL    HW112941   3.981   5.742   3.124
 4014SOL    HW212942   4.024   5.890   3.176
 4015SOL     OW12943   4.541   5.458   6.294
 4015SOL    HW112944   4.589   5.425   6.376
 4015SOL    HW212945   4.587   5.539   6.259
 4016SOL     OW12946   1.949   5.987   6.680
 4016SOL    HW112947   2.024   5.990   6.746
 4016SOL    HW212948   1.897   5.902   6.693
 4017SOL     OW12949   0.412   6.211   1.007
 4017SOL    HW112950   0.447   6.161   0.927
 4017SOL    HW212951   0.313   6.200   1.012
 4018SOL     OW12952   4.877   6.489   2.785
 4018SOL    HW112953   4.797   6.443   2.822
 4018SOL    HW212954   4.861   6.588   2.784
 4019SOL     OW12955   5.617   3.579   2.762
 4019SOL    HW112956   5.610   3.501   2.823
 4019SOL    HW212957   5.604   3.549   2.667
 4020SOL     OW12958   5.688   2.341   5.707
 4020SOL    HW112959   5.663   2.361   5.801
 4020SOL    HW212960   5.609   2.299   5.660
 4021SOL     OW12961   2.970   3.079   5.832
 4021SOL    HW112962   3.056   3.036   5.803
 4021SOL    HW212963   2.893   3.031   5.790
 4022SOL     OW12964   4.215   0.399   0.552
 4022SOL    HW112965   4.207   0.433   0.646
 4022SOL    HW212966   4.268   0.314   0.552
 4023SOL     OW12967   6.391   1.382   5.297
 4023SOL    HW112968   6.294   1.361   5.284
 4023SOL    HW212969   6.403   1.430   5.384
 4024SOL     OW12970   3.517   5.236   4.163
 4024SOL    HW112971   3.502   5.240   4.261
 4024SOL    HW212972   3.538   5.328   4.129
 4025SOL     OW12973   0.954   6.383   4.388
 4025SOL    HW112974   0.921   6.392   4.294
 4025SOL    HW212975   0.974   6.286   4.407
 4026SOL     OW12976   6.242   5.974   4.054
 4026SOL    HW112977   6.199   6.058   4.019
 4026SOL    HW212978   6.227   5.969   4.153
 4027SOL     OW12979   3.582   4.124   2.094
 4027SOL    HW112980   3.655   4.135   2.027
 4027SOL    HW212981   3.495   4.113   2.046
 4028SOL     OW12982   1.297   2.246   4.201
 4028SOL    HW112983   1.386   2.231   4.243
 4028SOL    HW212984   1.231   2.180   4.236
 4029SOL     OW12985   2.333   4.053   6.587
 4029SOL    HW112986   2.400   4.089   6.522
 4029SOL    HW212987   2.359   4.078   6.680
 4030SOL     OW12988   1.545   1.876   6.159
 4030SOL    HW112989   1.561   1.918   6.248
 4030SOL    HW212990   1.550   1.776   6.167
 4031SOL     OW12991   4.619   5.898   2.720
 4031SOL    HW112992   4.637   5.909   2.622
 4031SOL    HW212993   4.705   5.877   2.768
 4032SOL     OW12994   5.758   0.500   3.019
 4032SOL    HW112995   5.709   0.558   2.954
 4032SOL    HW212996   5.846   0.473   2.978
 4033SOL     OW12997   3.094   3.334   3.227
 4033SOL    HW112998   3.123   3.371   3.139
 4033SOL    HW212999   3.107   3.235   3.228
 4034SOL     OW13000   6.072   1.852   4.924
 4034SOL    HW113001   6.071   1.903   5.010
 4034SOL    HW213002   6.025   1.765   4.937
 4035SOL     OW13003   6.700   3.344   1.241
 4035SOL    HW113004   6.744   3.312   1.157
 4035SOL    HW213005   6.693   3.268   1.306
 4036SOL     OW13006   5.512   0.148   2.814
 4036SOL    HW113007   5.510   0.103   2.904
 4036SOL    HW213008   5.586   0.215   2.812
 4037SOL     OW13009   1.729   1.888   0.629
 4037SOL    HW113010   1.693   1.867   0.720
 4037SOL    HW213011   1.809   1.947   0.638
 4038SOL     OW13012   5.062   4.645   1.695
 4038SOL    HW113013   5.073   4.676   1.601
 4038SOL    HW213014   5.016   4.557   1.697
 4039SOL     OW13015   5.293   5.285   1.264
 4039SOL    HW113016   5.201   5.320   1.245
 4039SOL    HW213017   5.287   5.191   1.297
 4040SOL     OW13018   2.932   6.941   6.777
 4040SOL    HW113019   3.010   6.956   6.717
 4040SOL    HW213020   2.894   6.850   6.762
 4041SOL     OW13021   1.687   5.919   1.620
 4041SOL    HW113022   1.763   5.862   1.587
 4041SOL    HW213023   1.714   5.963   1.705
 4042SOL     OW13024   6.434   4.498   2.914
 4042SOL    HW113025   6.389   4.415   2.945
 4042SOL    HW213026   6.428   4.505   2.814
 4043SOL     OW13027   5.279   2.372   4.709
 4043SOL    HW113028   5.188   2.370   4.667
 4043SOL    HW213029   5.316   2.279   4.710
 4044SOL     OW13030   4.817   0.596   4.365
 4044SOL    HW113031   4.822   0.644   4.452
 4044SOL    HW213032   4.828   0.662   4.290
 4045SOL     OW13033   2.884   4.532   6.488
 4045SOL    HW113034   2.983   4.523   6.486
 4045SOL    HW213035   2.846   4.493   6.403
 4046SOL     OW13036   0.771   2.082   3.811
 4046SOL    HW113037   0.858   2.078   3.860
 4046SOL    HW213038   0.784   2.047   3.718
 4047SOL     OW13039   2.885   2.629   1.068
 4047SOL    HW113040   2.841   2.625   1.158
 4047SOL    HW213041   2.930   2.718   1.057
 4048SOL     OW13042   5.523   1.463   1.403
 4048SOL    HW113043   5.445   1.485   1.461
 4048SOL    HW213044   5.541   1.364   1.408
 4049SOL     OW13045   6.049   6.373   6.537
 4049SOL    HW113046   6.020   6.284   6.571
 4049SOL    HW213047   6.044   6.374   6.437
 4050SOL     OW13048   1.840   6.406   0.622
 4050SOL    HW113049   1.855   6.505   0.623
 4050SOL    HW213050   1.746   6.387   0.595
 4051SOL     OW13051   3.857   3.187   0.436
 4051SOL    HW113052   3.953   3.216   0.425
 4051SOL    HW213053   3.804   3.219   0.358
 4052SOL     OW13054   1.164   0.480   1.440
 4052SOL    HW113055   1.137   0.533   1.521
 4052SOL    HW213056   1.221   0.403   1.468
 4053SOL     OW13057   3.386   5.065   3.970
 4053SOL    HW113058   3.440   5.125   4.030
 4053SOL    HW213059   3.445   4.993   3.935
 4054SOL     OW13060   1.632   2.419   1.292
 4054SOL    HW113061   1.570   2.368   1.233
 4054SOL    HW213062   1.658   2.505   1.248
 4055SOL     OW13063   3.365   3.344   5.432
 4055SOL    HW113064   3.304   3.306   5.362
 4055SOL    HW213065   3.447   3.379   5.387
 4056SOL     OW13066   4.166   3.125   6.664
 4056SOL    HW113067   4.251   3.087   6.700
 4056SOL    HW213068   4.110   3.052   6.625
 4057SOL     OW13069   5.107   2.850   0.268
 4057SOL    HW113070   5.160   2.922   0.225
 4057SOL    HW213071   5.118   2.855   0.367
 4058SOL     OW13072   1.082   1.601   4.175
 4058SOL    HW113073   1.052   1.674   4.235
 4058SOL    HW213074   1.012   1.530   4.170
 4059SOL     OW13075   1.975   2.461   2.980
 4059SOL    HW113076   2.009   2.540   2.929
 4059SOL    HW213077   1.959   2.487   3.076
 4060SOL     OW13078   4.278   5.074   5.580
 4060SOL    HW113079   4.345   5.054   5.652
 4060SOL    HW213080   4.202   5.009   5.586
 4061SOL     OW13081   3.414   4.712   1.606
 4061SOL    HW113082   3.474   4.675   1.677
 4061SOL    HW213083   3.455   4.696   1.516
 4062SOL     OW13084   3.738   1.651   3.163
 4062SOL    HW113085   3.652   1.691   3.133
 4062SOL    HW213086   3.726   1.608   3.253
 4063SOL     OW13087   4.773   6.874   5.367
 4063SOL    HW113088   4.791   6.825   5.282
 4063SOL    HW213089   4.828   6.957   5.370
 4064SOL     OW13090   2.043   6.707   2.973
 4064SOL    HW113091   2.067   6.671   3.064
 4064SOL    HW213092   1.987   6.639   2.925
 4065SOL     OW13093   1.686   6.619   0.265
 4065SOL    HW113094   1.622   6.670   0.322
 4065SOL    HW213095   1.697   6.527   0.301
 4066SOL     OW13096   5.107   4.869   2.314
 4066SOL    HW113097   5.181   4.899   2.376
 4066SOL    HW213098   5.032   4.832   2.368
 4067SOL     OW13099   6.150   2.878   2.788
 4067SOL    HW113100   6.067   2.858   2.840
 4067SOL    HW213101   6.127   2.933   2.708
 4068SOL     OW13102   4.647   0.082   4.635
 4068SOL    HW113103   4.628   0.105   4.539
 4068SOL    HW213104   4.576   0.018   4.668
 4069SOL     OW13105   4.085   3.719   6.724
 4069SOL    HW113106   4.035   3.692   6.642
 4069SOL    HW213107   4.114   3.638   6.775
 4070SOL     OW13108   1.653   3.654   3.048
 4070SOL    HW113109   1.622   3.692   3.136
 4070SOL    HW213110   1.627   3.558   3.042
 4071SOL     OW13111   1.485   1.134   5.037
 4071SOL    HW113112   1.435   1.177   4.962
 4071SOL    HW213113   1.439   1.049   5.063
 4072SOL     OW13114   1.466   6.709   3.897
 4072SOL    HW113115   1.379   6.716   3.946
 4072SOL    HW213116   1.525   6.643   3.943
 4073SOL     OW13117   2.560   5.498   5.856
 4073SOL    HW113118   2.653   5.533   5.868
 4073SOL    HW213119   2.551   5.410   5.903
 4074SOL     OW13120   1.392   2.797   2.171
 4074SOL    HW113121   1.376   2.772   2.075
 4074SOL    HW213122   1.415   2.716   2.223
 4075SOL     OW13123   4.738   2.364   2.879
 4075SOL    HW113124   4.654   2.415   2.862
 4075SOL    HW213125   4.817   2.420   2.854
 4076SOL     OW13126   2.489   3.892   5.616
 4076SOL    HW113127   2.410   3.890   5.676
 4076SOL    HW213128   2.468   3.844   5.531
 4077SOL     OW13129   3.087   6.395   0.496
 4077SOL    HW113130   3.129   6.396   0.587
 4077SOL    HW213131   3.039   6.308   0.483
 4078SOL     OW13132   6.964   5.228   1.813
 4078SOL    HW113133   6.895   5.190   1.875
 4078SOL    HW213134   0.011   5.156   1.787
 4079SOL     OW13135   1.582   1.012   3.182
 4079SOL    HW113136   1.655   1.051   3.126
 4079SOL    HW213137   1.594   1.042   3.277
 4080SOL     OW13138   2.554   2.961   6.976
 4080SOL    HW113139   2.615   2.947   0.036
 4080SOL    HW213140   2.604   2.941   6.891
 4081SOL     OW13141   1.657   1.021   4.569
 4081SOL    HW113142   1.605   0.983   4.493
 4081SOL    HW213143   1.616   1.108   4.598
 4082SOL     OW13144   1.747   2.004   6.875
 4082SOL    HW113145   1.810   1.969   6.944
 4082SOL    HW213146   1.726   2.100   6.894
 4083SOL     OW13147   5.721   4.037   3.333
 4083SOL    HW113148   5.762   4.064   3.246
 4083SOL    HW213149   5.781   3.970   3.377
 4084SOL     OW13150   4.844   3.124   3.052
 4084SOL    HW113151   4.874   3.218   3.040
 4084SOL    HW213152   4.853   3.075   2.965
 4085SOL     OW13153   2.700   5.011   1.143
 4085SOL    HW113154   2.780   4.954   1.132
 4085SOL    HW213155   2.692   5.074   1.066
 4086SOL     OW13156   0.468   4.713   0.438
 4086SOL    HW113157   0.478   4.805   0.475
 4086SOL    HW213158   0.505   4.647   0.503
 4087SOL     OW13159   2.317   1.355   2.282
 4087SOL    HW113160   2.370   1.277   2.318
 4087SOL    HW213161   2.294   1.416   2.357
 4088SOL     OW13162   6.156   1.181   5.758
 4088SOL    HW113163   6.249   1.144   5.758
 4088SOL    HW213164   6.140   1.229   5.844
 4089SOL     OW13165   0.236   5.878   4.143
 4089SOL    HW113166   0.217   5.976   4.152
 4089SOL    HW213167   0.151   5.827   4.142
 4090SOL     OW13168   1.845   6.118   5.241
 4090SOL    HW113169   1.934   6.161   5.251
 4090SOL    HW213170   1.808   6.097   5.331
 4091SOL     OW13171   1.357   4.909   0.176
 4091SOL    HW113172   1.310   4.890   0.090
 4091SOL    HW213173   1.307   4.980   0.226
 4092SOL     OW13174   5.094   2.946   3.832
 4092SOL    HW113175   5.175   2.975   3.781
 4092SOL    HW213176   5.011   2.968   3.780
 4093SOL     OW13177   5.593   6.526   1.747
 4093SOL    HW113178   5.528   6.454   1.770
 4093SOL    HW213179   5.562   6.613   1.784
 4094SOL     OW13180   1.055   4.607   0.047
 4094SOL    HW113181   0.988   4.672   0.011
 4094SOL    HW213182   1.069   4.533   6.998
 4095SOL     OW13183   0.813   3.052   0.126
 4095SOL    HW113184   0.903   3.027   0.090
 4095SOL    HW213185   0.802   3.151   0.122
 4096SOL     OW13186   2.190   0.807   6.352
 4096SOL    HW113187   2.271   0.784   6.407
 4096SOL    HW213188   2.201   0.768   6.261
 4097SOL     OW13189   5.767   4.251   5.539
 4097SOL    HW113190   5.811   4.306   5.610
 4097SOL    HW213191   5.828   4.175   5.515
 4098SOL     OW13192   2.267   2.886   1.524
 4098SOL    HW113193   2.193   2.940   1.484
 4098SOL    HW213194   2.267   2.794   1.484
 4099SOL     OW13195   3.492   5.132   0.205
 4099SOL    HW113196   3.591   5.119   0.202
 4099SOL    HW213197   3.446   5.044   0.203
 4100SOL     OW13198   1.235   0.822   4.138
 4100SOL    HW113199   1.315   0.881   4.147
 4100SOL    HW213200   1.185   0.845   4.054
 4101SOL     OW13201   0.164   1.386   6.078
 4101SOL    HW113202   0.078   1.350   6.041
 4101SOL    HW213203   0.196   1.327   6.152
 4102SOL     OW13204   2.219   1.008   0.895
 4102SOL    HW113205   2.237   1.028   0.799
 4102SOL    HW213206   2.183   1.089   0.940
 4103SOL     OW13207   0.047   6.976   1.821
 4103SOL    HW113208   0.113   6.980   1.896
 4103SOL    HW213209   6.973   6.991   1.856
 4104SOL     OW13210   0.277   4.944   3.938
 4104SOL    HW113211   0.191   4.914   3.979
 4104SOL    HW213212   0.344   4.870   3.943
 4105SOL     OW13213   5.121   1.134   2.032
 4105SOL    HW113214   5.107   1.040   2.060
 4105SOL    HW213215   5.116   1.194   2.112
 4106SOL     OW13216   0.539   2.205   3.470
 4106SOL    HW113217   0.570   2.244   3.557
 4106SOL    HW213218   0.617   2.194   3.408
 4107SOL     OW13219   0.552   6.198   6.949
 4107SOL    HW113220   0.627   6.218   6.885
 4107SOL    HW213221   0.581   6.126   7.013
 4108SOL     OW13222   0.038   5.674   4.687
 4108SOL    HW113223   0.010   5.582   4.660
 4108SOL    HW213224   6.989   5.712   4.751
 4109SOL     OW13225   5.390   6.559   4.297
 4109SOL    HW113226   5.306   6.592   4.339
 4109SOL    HW213227   5.417   6.621   4.223
 4110SOL     OW13228   3.656   3.478   6.516
 4110SOL    HW113229   3.676   3.569   6.552
 4110SOL    HW213230   3.561   3.474   6.485
 4111SOL     OW13231   6.336   4.997   6.697
 4111SOL    HW113232   6.320   5.010   6.599
 4111SOL    HW213233   6.282   5.062   6.749
 4112SOL     OW13234   4.829   6.841   4.573
 4112SOL    HW113235   4.882   6.893   4.506
 4112SOL    HW213236   4.834   6.887   4.662
 4113SOL     OW13237   4.745   5.591   4.418
 4113SOL    HW113238   4.760   5.511   4.475
 4113SOL    HW213239   4.671   5.647   4.457
 4114SOL     OW13240   6.272   1.769   3.166
 4114SOL    HW113241   6.264   1.669   3.170
 4114SOL    HW213242   6.345   1.794   3.103
 4115SOL     OW13243   2.689   4.977   3.327
 4115SOL    HW113244   2.716   4.916   3.401
 4115SOL    HW213245   2.729   5.067   3.341
 4116SOL     OW13246   4.516   2.394   3.607
 4116SOL    HW113247   4.565   2.475   3.574
 4116SOL    HW213248   4.466   2.353   3.530
 4117SOL     OW13249   1.723   2.300   3.249
 4117SOL    HW113250   1.624   2.316   3.249
 4117SOL    HW213251   1.742   2.215   3.199
 4118SOL     OW13252   5.491   6.604   6.370
 4118SOL    HW113253   5.481   6.506   6.386
 4118SOL    HW213254   5.588   6.628   6.364
 4119SOL     OW13255   3.083   1.189   3.405
 4119SOL    HW113256   3.002   1.134   3.385
 4119SOL    HW213257   3.143   1.190   3.325
 4120SOL     OW13258   3.693   1.276   6.148
 4120SOL    HW113259   3.734   1.314   6.231
 4120SOL    HW213260   3.596   1.299   6.145
 4121SOL     OW13261   6.498   0.146   2.602
 4121SOL    HW113262   6.513   0.168   2.506
 4121SOL    HW213263   6.583   0.109   2.640
 4122SOL     OW13264   1.520   6.973   5.073
 4122SOL    HW113265   1.476   0.012   5.143
 4122SOL    HW213266   1.617   6.997   5.067
 4123SOL     OW13267   3.797   4.918   4.068
 4123SOL    HW113268   3.824   4.867   3.987
 4123SOL    HW213269   3.700   4.901   4.088
 4124SOL     OW13270   6.820   6.764   1.038
 4124SOL    HW113271   6.847   6.835   0.973
 4124SOL    HW213272   6.892   6.752   1.106
 4125SOL     OW13273   4.468   2.422   2.620
 4125SOL    HW113274   4.491   2.502   2.564
 4125SOL    HW213275   4.491   2.338   2.571
 4126SOL     OW13276   1.972   3.441   2.616
 4126SOL    HW113277   1.939   3.395   2.699
 4126SOL    HW213278   1.897   3.448   2.550
 4127SOL     OW13279   5.283   2.404   5.215
 4127SOL    HW113280   5.257   2.466   5.141
 4127SOL    HW213281   5.202   2.356   5.248
 4128SOL     OW13282   0.905   3.340   1.451
 4128SOL    HW113283   0.996   3.325   1.489
 4128SOL    HW213284   0.911   3.360   1.353
 4129SOL     OW13285   3.579   1.216   0.676
 4129SOL    HW113286   3.651   1.190   0.741
 4129SOL    HW213287   3.552   1.311   0.692
 4130SOL     OW13288   6.275   2.202   0.479
 4130SOL    HW113289   6.253   2.112   0.517
 4130SOL    HW213290   6.283   2.196   0.380
 4131SOL     OW13291   6.904   1.422   2.900
 4131SOL    HW113292   6.813   1.380   2.899
 4131SOL    HW213293   6.919   1.471   2.813
 4132SOL     OW13294   5.544   3.917   4.510
 4132SOL    HW113295   5.637   3.947   4.528
 4132SOL    HW213296   5.536   3.819   4.528
 4133SOL     OW13297   4.125   6.495   1.464
 4133SOL    HW113298   4.093   6.579   1.508
 4133SOL    HW213299   4.046   6.440   1.437
 4134SOL     OW13300   2.030   3.758   0.595
 4134SOL    HW113301   2.115   3.705   0.597
 4134SOL    HW213302   1.958   3.706   0.643
 4135SOL     OW13303   0.236   2.583   2.562
 4135SOL    HW113304   0.180   2.631   2.630
 4135SOL    HW213305   0.192   2.497   2.537
 4136SOL     OW13306   1.242   4.010   2.151
 4136SOL    HW113307   1.190   4.094   2.135
 4136SOL    HW213308   1.234   3.984   2.248
 4137SOL     OW13309   1.358   3.103   6.584
 4137SOL    HW113310   1.439   3.062   6.626
 4137SOL    HW213311   1.353   3.077   6.488
 4138SOL     OW13312   3.884   4.971   1.494
 4138SOL    HW113313   3.852   4.894   1.551
 4138SOL    HW213314   3.972   5.003   1.528
 4139SOL     OW13315   1.356   1.711   3.727
 4139SOL    HW113316   1.422   1.704   3.652
 4139SOL    HW213317   1.366   1.631   3.787
 4140SOL     OW13318   3.191   1.913   4.241
 4140SOL    HW113319   3.281   1.872   4.231
 4140SOL    HW213320   3.143   1.872   4.319
 4141SOL     OW13321   5.268   6.932   1.118
 4141SOL    HW113322   5.310   6.960   1.031
 4141SOL    HW213323   5.299   6.841   1.142
 4142SOL     OW13324   6.050   3.743   1.327
 4142SOL    HW113325   6.048   3.841   1.347
 4142SOL    HW213326   6.144   3.710   1.332
 4143SOL     OW13327   5.682   2.913   0.266
 4143SOL    HW113328   5.726   2.933   0.354
 4143SOL    HW213329   5.723   2.970   0.195
 4144SOL     OW13330   4.792   1.448   6.710
 4144SOL    HW113331   4.785   1.351   6.732
 4144SOL    HW213332   4.714   1.475   6.653
 4145SOL     OW13333   0.844   6.376   0.348
 4145SOL    HW113334   0.748   6.363   0.371
 4145SOL    HW213335   0.853   6.443   0.275
 4146SOL     OW13336   6.715   0.788   3.497
 4146SOL    HW113337   6.769   0.871   3.490
 4146SOL    HW213338   6.640   0.791   3.430
 4147SOL     OW13339   4.870   4.476   6.433
 4147SOL    HW113340   4.958   4.438   6.403
 4147SOL    HW213341   4.838   4.542   6.366
 4148SOL     OW13342   3.033   0.540   5.702
 4148SOL    HW113343   3.027   0.519   5.800
 4148SOL    HW213344   3.123   0.513   5.668
 4149SOL     OW13345   0.371   3.494   1.561
 4149SOL    HW113346   0.460   3.496   1.515
 4149SOL    HW213347   0.381   3.452   1.651
 4150SOL     OW13348   0.060   1.838   5.047
 4150SOL    HW113349   0.084   1.741   5.043
 4150SOL    HW213350   0.061   1.876   4.954
 4151SOL     OW13351   2.478   6.230   6.255
 4151SOL    HW113352   2.517   6.159   6.196
 4151SOL    HW213353   2.548   6.300   6.274
 4152SOL     OW13354   3.769   5.668   1.875
 4152SOL    HW113355   3.851   5.719   1.901
 4152SOL    HW213356   3.786   5.618   1.790
 4153SOL     OW13357   6.095   5.037   1.430
 4153SOL    HW113358   6.022   5.044   1.363
 4153SOL    HW213359   6.178   5.003   1.386
 4154SOL     OW13360   0.168   6.207   3.898
 4154SOL    HW113361   0.231   6.223   3.974
 4154SOL    HW213362   0.080   6.175   3.933
 4155SOL     OW13363   0.348   1.799   0.793
 4155SOL    HW113364   0.257   1.768   0.822
 4155SOL    HW213365   0.414   1.727   0.813
 4156SOL     OW13366   6.538   5.728   5.038
 4156SOL    HW113367   6.518   5.732   5.136
 4156SOL    HW213368   6.540   5.821   5.001
 4157SOL     OW13369   5.236   6.433   3.461
 4157SOL    HW113370   5.245   6.490   3.379
 4157SOL    HW213371   5.302   6.463   3.530
 4158SOL     OW13372   0.911   2.636   2.457
 4158SOL    HW113373   0.946   2.571   2.389
 4158SOL    HW213374   0.911   2.728   2.418
 4159SOL     OW13375   2.141   2.336   3.664
 4159SOL    HW113376   2.125   2.421   3.614
 4159SOL    HW213377   2.055   2.305   3.705
 4160SOL     OW13378   5.774   6.733   0.154
 4160SOL    HW113379   5.873   6.746   0.154
 4160SOL    HW213380   5.733   6.783   0.230
 4161SOL     OW13381   1.712   1.965   1.666
 4161SOL    HW113382   1.712   2.064   1.679
 4161SOL    HW213383   1.669   1.921   1.745
 4162SOL     OW13384   6.299   5.645   0.606
 4162SOL    HW113385   6.296   5.669   0.703
 4162SOL    HW213386   6.309   5.729   0.552
 4163SOL     OW13387   6.060   1.375   3.543
 4163SOL    HW113388   5.976   1.428   3.531
 4163SOL    HW213389   6.135   1.420   3.495
 4164SOL     OW13390   1.185   0.110   4.900
 4164SOL    HW113391   1.282   0.122   4.884
 4164SOL    HW213392   1.135   0.112   4.813
 4165SOL     OW13393   4.897   0.265   5.576
 4165SOL    HW113394   4.875   0.362   5.589
 4165SOL    HW213395   4.817   0.209   5.600
 4166SOL     OW13396   5.087   1.256   1.439
 4166SOL    HW113397   5.048   1.316   1.369
 4166SOL    HW213398   5.013   1.219   1.496
 4167SOL     OW13399   3.492   4.980   6.759
 4167SOL    HW113400   3.500   4.884   6.733
 4167SOL    HW213401   3.459   5.034   6.682
 4168SOL     OW13402   0.054   3.941   1.195
 4168SOL    HW113403   0.088   3.934   1.102
 4168SOL    HW213404   0.104   3.878   1.255
 4169SOL     OW13405   5.868   4.369   5.062
 4169SOL    HW113406   5.955   4.409   5.092
 4169SOL    HW213407   5.818   4.335   5.141
 4170SOL     OW13408   4.840   2.938   5.238
 4170SOL    HW113409   4.793   2.869   5.294
 4170SOL    HW213410   4.840   3.026   5.287
 4171SOL     OW13411   6.750   5.008   1.313
 4171SOL    HW113412   6.725   4.947   1.388
 4171SOL    HW213413   6.818   4.964   1.255
 4172SOL     OW13414   2.273   2.497   0.273
 4172SOL    HW113415   2.304   2.464   0.184
 4172SOL    HW213416   2.231   2.587   0.262
 4173SOL     OW13417   5.545   3.378   4.951
 4173SOL    HW113418   5.511   3.388   5.045
 4173SOL    HW213419   5.553   3.469   4.909
 4174SOL     OW13420   4.901   1.607   2.146
 4174SOL    HW113421   4.984   1.636   2.195
 4174SOL    HW213422   4.825   1.667   2.171
 4175SOL     OW13423   1.985   4.710   4.850
 4175SOL    HW113424   2.067   4.739   4.899
 4175SOL    HW213425   1.987   4.611   4.838
 4176SOL     OW13426   4.131   6.827   1.180
 4176SOL    HW113427   4.215   6.795   1.136
 4176SOL    HW213428   4.079   6.748   1.213
 4177SOL     OW13429   5.589   4.961   5.155
 4177SOL    HW113430   5.670   4.930   5.206
 4177SOL    HW213431   5.508   4.952   5.213
 4178SOL     OW13432   4.393   6.913   3.689
 4178SOL    HW113433   4.407   6.838   3.754
 4178SOL    HW213434   4.316   6.969   3.720
 4179SOL     OW13435   5.226   4.174   3.304
 4179SOL    HW113436   5.320   4.154   3.275
 4179SOL    HW213437   5.162   4.143   3.233
 4180SOL     OW13438   4.558   2.396   0.556
 4180SOL    HW113439   4.523   2.452   0.482
 4180SOL    HW213440   4.594   2.310   0.519
 4181SOL     OW13441   4.380   0.482   0.178
 4181SOL    HW113442   4.320   0.402   0.172
 4181SOL    HW213443   4.333   0.562   0.142
 4182SOL     OW13444   0.352   5.304   3.541
 4182SOL    HW113445   0.381   5.209   3.554
 4182SOL    HW213446   0.276   5.307   3.477
 4183SOL     OW13447   2.496   1.900   0.874
 4183SOL    HW113448   2.421   1.855   0.922
 4183SOL    HW213449   2.523   1.846   0.794
 4184SOL     OW13450   3.352   6.799   2.396
 4184SOL    HW113451   3.405   6.834   2.473
 4184SOL    HW213452   3.306   6.874   2.350
 4185SOL     OW13453   0.750   4.665   3.212
 4185SOL    HW113454   0.839   4.700   3.181
 4185SOL    HW213455   0.678   4.709   3.159
 4186SOL     OW13456   2.164   5.071   6.918
 4186SOL    HW113457   2.204   5.080   6.827
 4186SOL    HW213458   2.170   4.976   6.948
 4187SOL     OW13459   2.146   2.919   5.524
 4187SOL    HW113460   2.145   2.982   5.601
 4187SOL    HW213461   2.141   2.825   5.557
 4188SOL     OW13462   5.448   0.764   4.959
 4188SOL    HW113463   5.367   0.710   4.981
 4188SOL    HW213464   5.432   0.815   4.875
 4189SOL     OW13465   3.217   4.975   4.396
 4189SOL    HW113466   3.157   5.055   4.398
 4189SOL    HW213467   3.203   4.925   4.311
 4190SOL     OW13468   0.889   0.463   1.389
 4190SOL    HW113469   0.841   0.479   1.475
 4190SOL    HW213470   0.987   0.477   1.402
 4191SOL     OW13471   4.978   4.707   4.767
 4191SOL    HW113472   5.000   4.759   4.685
 4191SOL    HW213473   4.894   4.742   4.808
 4192SOL     OW13474   0.573   1.695   3.130
 4192SOL    HW113475   0.588   1.766   3.061
 4192SOL    HW213476   0.612   1.725   3.217
 4193SOL     OW13477   5.927   0.442   0.980
 4193SOL    HW113478   5.859   0.510   0.951
 4193SOL    HW213479   6.019   0.479   0.969
 4194SOL     OW13480   5.007   0.396   4.496
 4194SOL    HW113481   4.927   0.363   4.546
 4194SOL    HW213482   4.982   0.411   4.400
 4195SOL     OW13483   4.171   5.344   1.588
 4195SOL    HW113484   4.201   5.357   1.493
 4195SOL    HW213485   4.152   5.248   1.605
 4196SOL     OW13486   6.355   2.855   2.959
 4196SOL    HW113487   6.426   2.852   2.889
 4196SOL    HW213488   6.265   2.863   2.916
 4197SOL     OW13489   4.685   5.530   5.670
 4197SOL    HW113490   4.668   5.594   5.745
 4197SOL    HW213491   4.653   5.571   5.584
 4198SOL     OW13492   5.946   2.012   0.686
 4198SOL    HW113493   6.037   1.983   0.657
 4198SOL    HW213494   5.954   2.074   0.764
 4199SOL     OW13495   1.248   2.731   5.650
 4199SOL    HW113496   1.243   2.751   5.747
 4199SOL    HW213497   1.181   2.661   5.626
 4200SOL     OW13498   3.031   0.240   6.245
 4200SOL    HW113499   3.003   0.159   6.195
 4200SOL    HW213500   3.052   0.314   6.181
 4201SOL     OW13501   5.664   6.935   3.664
 4201SOL    HW113502   5.611   6.989   3.730
 4201SOL    HW213503   5.737   6.992   3.625
 4202SOL     OW13504   3.156   5.625   6.102
 4202SOL    HW113505   3.188   5.620   6.197
 4202SOL    HW213506   3.078   5.687   6.097
 4203SOL     OW13507   4.357   4.094   0.344
 4203SOL    HW113508   4.405   4.079   0.258
 4203SOL    HW213509   4.371   4.188   0.375
 4204SOL     OW13510   4.084   3.632   4.201
 4204SOL    HW113511   4.106   3.716   4.251
 4204SOL    HW213512   4.112   3.642   4.106
 4205SOL     OW13513   4.332   6.326   4.401
 4205SOL    HW113514   4.353   6.416   4.362
 4205SOL    HW213515   4.389   6.256   4.357
 4206SOL     OW13516   6.127   1.238   5.484
 4206SOL    HW113517   6.162   1.330   5.464
 4206SOL    HW213518   6.163   1.208   5.572
 4207SOL     OW13519   2.340   2.281   2.026
 4207SOL    HW113520   2.413   2.261   1.960
 4207SOL    HW213521   2.285   2.357   1.993
 4208SOL     OW13522   6.930   3.651   5.282
 4208SOL    HW113523   7.014   3.687   5.241
 4208SOL    HW213524   6.860   3.722   5.281
 4209SOL     OW13525   6.797   6.626   3.966
 4209SOL    HW113526   6.796   6.695   3.894
 4209SOL    HW213527   6.888   6.622   4.007
 4210SOL     OW13528   3.716   3.683   2.308
 4210SOL    HW113529   3.809   3.672   2.272
 4210SOL    HW213530   3.652   3.690   2.232
 4211SOL     OW13531   3.880   0.878   5.699
 4211SOL    HW113532   3.811   0.817   5.660
 4211SOL    HW213533   3.874   0.876   5.799
 4212SOL     OW13534   6.189   2.344   2.530
 4212SOL    HW113535   6.265   2.283   2.552
 4212SOL    HW213536   6.128   2.299   2.466
 4213SOL     OW13537   2.551   0.321   2.271
 4213SOL    HW113538   2.465   0.291   2.312
 4213SOL    HW213539   2.538   0.410   2.227
 4214SOL     OW13540   0.765   5.648   5.419
 4214SOL    HW113541   0.818   5.647   5.335
 4214SOL    HW213542   0.812   5.703   5.488
 4215SOL     OW13543   4.585   6.997   6.163
 4215SOL    HW113544   4.517   0.054   6.167
 4215SOL    HW213545   4.545   6.919   6.116
 4216SOL     OW13546   1.872   0.788   3.280
 4216SOL    HW113547   1.894   0.885   3.283
 4216SOL    HW213548   1.917   0.746   3.201
 4217SOL     OW13549   1.225   0.940   3.122
 4217SOL    HW113550   1.187   0.939   3.030
 4217SOL    HW213551   1.324   0.929   3.117
 4218SOL     OW13552   3.298   1.155   1.542
 4218SOL    HW113553   3.208   1.149   1.500
 4218SOL    HW213554   3.295   1.114   1.633
 4219SOL     OW13555   3.971   5.721   3.947
 4219SOL    HW113556   3.964   5.815   3.981
 4219SOL    HW213557   3.915   5.712   3.864
 4220SOL     OW13558   6.803   3.163   3.355
 4220SOL    HW113559   6.709   3.182   3.329
 4220SOL    HW213560   6.841   3.242   3.403
 4221SOL     OW13561   6.005   5.227   6.382
 4221SOL    HW113562   5.935   5.218   6.310
 4221SOL    HW213563   6.094   5.200   6.346
 4222SOL     OW13564   0.176   1.627   1.913
 4222SOL    HW113565   0.117   1.550   1.937
 4222SOL    HW213566   0.175   1.694   1.986
 4223SOL     OW13567   3.683   3.374   0.260
 4223SOL    HW113568   3.717   3.434   0.332
 4223SOL    HW213569   3.680   3.424   0.173
 4224SOL     OW13570   5.283   4.628   4.035
 4224SOL    HW113571   5.361   4.690   4.043
 4224SOL    HW213572   5.313   4.543   3.992
 4225SOL     OW13573   2.395   2.603   5.105
 4225SOL    HW113574   2.321   2.644   5.160
 4225SOL    HW213575   2.460   2.558   5.166
 4226SOL     OW13576   0.558   6.928   2.536
 4226SOL    HW113577   0.474   6.875   2.547
 4226SOL    HW213578   0.628   6.871   2.493
 4227SOL     OW13579   3.648   5.163   1.490
 4227SOL    HW113580   3.641   5.218   1.407
 4227SOL    HW213581   3.732   5.108   1.487
 4228SOL     OW13582   1.226   5.534   5.236
 4228SOL    HW113583   1.186   5.561   5.148
 4228SOL    HW213584   1.206   5.437   5.253
 4229SOL     OW13585   4.702   6.076   6.140
 4229SOL    HW113586   4.665   6.133   6.214
 4229SOL    HW213587   4.723   6.134   6.061
 4230SOL     OW13588   0.725   6.088   2.892
 4230SOL    HW113589   0.810   6.037   2.904
 4230SOL    HW213590   0.691   6.074   2.799
 4231SOL     OW13591   5.656   6.933   5.949
 4231SOL    HW113592   5.556   6.936   5.945
 4231SOL    HW213593   5.685   6.856   6.006
 4232SOL     OW13594   0.315   4.608   3.534
 4232SOL    HW113595   0.390   4.615   3.600
 4232SOL    HW213596   0.237   4.562   3.577
 4233SOL     OW13597   6.079   0.196   5.905
 4233SOL    HW113598   6.061   0.263   5.977
 4233SOL    HW213599   6.132   0.240   5.832
 4234SOL     OW13600   2.257   5.623   4.938
 4234SOL    HW113601   2.289   5.529   4.938
 4234SOL    HW213602   2.335   5.685   4.927
 4235SOL     OW13603   5.444   3.988   6.051
 4235SOL    HW113604   5.502   4.045   6.108
 4235SOL    HW213605   5.452   3.893   6.081
 4236SOL     OW13606   6.511   3.608   1.853
 4236SOL    HW113607   6.438   3.636   1.915
 4236SOL    HW213608   6.474   3.600   1.760
 4237SOL     OW13609   5.496   5.636   3.277
 4237SOL    HW113610   5.497   5.707   3.206
 4237SOL    HW213611   5.424   5.656   3.343
 4238SOL     OW13612   2.185   6.313   2.484
 4238SOL    HW113613   2.110   6.353   2.432
 4238SOL    HW213614   2.262   6.292   2.423
 4239SOL     OW13615   5.223   1.007   2.490
 4239SOL    HW113616   5.190   0.917   2.461
 4239SOL    HW213617   5.145   1.062   2.522
 4240SOL     OW13618   2.199   5.784   0.414
 4240SOL    HW113619   2.271   5.833   0.365
 4240SOL    HW213620   2.198   5.814   0.510
 4241SOL     OW13621   6.127   0.974   0.148
 4241SOL    HW113622   6.143   0.937   0.239
 4241SOL    HW213623   6.195   0.937   0.084
 4242SOL     OW13624   3.398   1.759   4.211
 4242SOL    HW113625   3.346   1.674   4.212
 4242SOL    HW213626   3.447   1.768   4.125
 4243SOL     OW13627   6.473   3.180   2.462
 4243SOL    HW113628   6.488   3.278   2.474
 4243SOL    HW213629   6.533   3.145   2.391
 4244SOL     OW13630   4.307   4.347   1.694
 4244SOL    HW113631   4.377   4.302   1.749
 4244SOL    HW213632   4.279   4.432   1.738
 4245SOL     OW13633   6.579   1.126   6.256
 4245SOL    HW113634   6.658   1.082   6.212
 4245SOL    HW213635   6.584   1.225   6.242
 4246SOL     OW13636   0.037   4.185   3.133
 4246SOL    HW113637   0.014   4.282   3.130
 4246SOL    HW213638   6.986   4.137   3.188
 4247SOL     OW13639   2.465   6.351   3.697
 4247SOL    HW113640   2.447   6.273   3.638
 4247SOL    HW213641   2.439   6.436   3.650
 4248SOL     OW13642   3.542   1.412   3.567
 4248SOL    HW113643   3.622   1.444   3.617
 4248SOL    HW213644   3.513   1.323   3.603
 4249SOL     OW13645   5.888   2.917   4.616
 4249SOL    HW113646   5.941   2.961   4.544
 4249SOL    HW213647   5.913   2.820   4.622
 4250SOL     OW13648   6.631   4.645   2.526
 4250SOL    HW113649   6.590   4.563   2.487
 4250SOL    HW213650   6.633   4.638   2.626
 4251SOL     OW13651   5.696   4.786   1.290
 4251SOL    HW113652   5.706   4.710   1.354
 4251SOL    HW213653   5.658   4.866   1.338
 4252SOL     OW13654   5.370   6.157   5.752
 4252SOL    HW113655   5.320   6.099   5.687
 4252SOL    HW213656   5.449   6.107   5.786
 4253SOL     OW13657   3.810   6.488   0.789
 4253SOL    HW113658   3.831   6.584   0.769
 4253SOL    HW213659   3.711   6.475   0.785
 4254SOL     OW13660   0.610   2.849   2.128
 4254SOL    HW113661   0.638   2.827   2.035
 4254SOL    HW213662   0.672   2.805   2.193
 4255SOL     OW13663   6.160   3.794   3.681
 4255SOL    HW113664   6.223   3.720   3.700
 4255SOL    HW213665   6.074   3.779   3.729
 4256SOL     OW13666   2.263   6.566   6.976
 4256SOL    HW113667   2.291   6.471   6.992
 4256SOL    HW213668   2.179   6.586   0.009
 4257SOL     OW13669   2.694   0.535   4.313
 4257SOL    HW113670   2.712   0.448   4.360
 4257SOL    HW213671   2.728   0.530   4.219
 4258SOL     OW13672   5.054   6.473   0.707
 4258SOL    HW113673   5.047   6.540   0.780
 4258SOL    HW213674   5.005   6.390   0.733
 4259SOL     OW13675   2.777   1.365   0.650
 4259SOL    HW113676   2.708   1.420   0.697
 4259SOL    HW213677   2.865   1.413   0.652
 4260SOL     OW13678   5.152   0.286   0.370
 4260SOL    HW113679   5.172   0.312   0.464
 4260SOL    HW213680   5.220   0.326   0.308
 4261SOL     OW13681   2.031   6.842   1.782
 4261SOL    HW113682   1.949   6.900   1.784
 4261SOL    HW213683   2.112   6.901   1.771
 4262SOL     OW13684   0.667   4.781   5.233
 4262SOL    HW113685   0.602   4.757   5.305
 4262SOL    HW213686   0.646   4.873   5.198
 4263SOL     OW13687   2.488   6.496   3.268
 4263SOL    HW113688   2.442   6.437   3.203
 4263SOL    HW213689   2.436   6.499   3.353
 4264SOL     OW13690   0.269   2.773   2.974
 4264SOL    HW113691   0.223   2.735   3.054
 4264SOL    HW213692   0.223   2.741   2.891
 4265SOL     OW13693   5.325   1.497   0.690
 4265SOL    HW113694   5.333   1.549   0.775
 4265SOL    HW213695   5.248   1.434   0.696
 4266SOL     OW13696   1.675   5.244   0.287
 4266SOL    HW113697   1.772   5.246   0.313
 4266SOL    HW213698   1.651   5.330   0.242
 4267SOL     OW13699   2.121   3.349   4.744
 4267SOL    HW113700   2.104   3.403   4.661
 4267SOL    HW213701   2.133   3.253   4.719
 4268SOL     OW13702   1.316   6.049   6.257
 4268SOL    HW113703   1.342   5.952   6.253
 4268SOL    HW213704   1.320   6.080   6.352
 4269SOL     OW13705   2.333   0.568   1.777
 4269SOL    HW113706   2.277   0.514   1.840
 4269SOL    HW213707   2.368   0.649   1.824
 4270SOL     OW13708   4.124   3.660   3.928
 4270SOL    HW113709   4.062   3.607   3.870
 4270SOL    HW213710   4.207   3.682   3.876
 4271SOL     OW13711   6.760   0.981   6.639
 4271SOL    HW113712   6.696   0.904   6.635
 4271SOL    HW213713   6.720   1.055   6.695
 4272SOL     OW13714   6.435   3.006   4.570
 4272SOL    HW113715   6.514   2.961   4.612
 4272SOL    HW213716   6.398   3.075   4.632
 4273SOL     OW13717   4.371   6.476   4.934
 4273SOL    HW113718   4.335   6.403   4.992
 4273SOL    HW213719   4.409   6.437   4.851
 4274SOL     OW13720   1.037   6.181   1.819
 4274SOL    HW113721   1.047   6.102   1.759
 4274SOL    HW213722   1.020   6.263   1.763
 4275SOL     OW13723   6.595   0.631   3.863
 4275SOL    HW113724   6.617   0.592   3.952
 4275SOL    HW213725   6.495   0.631   3.850
 4276SOL     OW13726   1.972   5.091   3.062
 4276SOL    HW113727   2.035   5.040   3.121
 4276SOL    HW213728   1.972   5.051   2.970
 4277SOL     OW13729   6.479   4.525   4.259
 4277SOL    HW113730   6.459   4.474   4.175
 4277SOL    HW213731   6.406   4.591   4.276
 4278SOL     OW13732   0.100   0.316   4.351
 4278SOL    HW113733   0.061   0.242   4.406
 4278SOL    HW213734   0.033   0.348   4.285
 4279SOL     OW13735   3.362   0.901   4.193
 4279SOL    HW113736   3.384   0.825   4.253
 4279SOL    HW213737   3.299   0.870   4.121
 4280SOL     OW13738   4.737   0.167   6.376
 4280SOL    HW113739   4.694   0.113   6.304
 4280SOL    HW213740   4.798   0.109   6.430
 4281SOL     OW13741   0.575   5.062   3.890
 4281SOL    HW113742   0.603   5.156   3.913
 4281SOL    HW213743   0.478   5.050   3.913
 4282SOL     OW13744   3.521   4.300   5.968
 4282SOL    HW113745   3.438   4.328   6.016
 4282SOL    HW213746   3.503   4.218   5.915
 4283SOL     OW13747   1.665   0.857   3.600
 4283SOL    HW113748   1.627   0.855   3.507
 4283SOL    HW213749   1.674   0.764   3.635
 4284SOL     OW13750   4.244   4.572   1.849
 4284SOL    HW113751   4.157   4.618   1.828
 4284SOL    HW213752   4.320   4.632   1.823
 4285SOL     OW13753   0.563   0.763   6.055
 4285SOL    HW113754   0.464   0.778   6.054
 4285SOL    HW213755   0.592   0.740   6.148
 4286SOL     OW13756   4.847   5.849   6.044
 4286SOL    HW113757   4.886   5.791   6.116
 4286SOL    HW213758   4.782   5.913   6.084
 4287SOL     OW13759   5.525   2.374   6.257
 4287SOL    HW113760   5.584   2.454   6.270
 4287SOL    HW213761   5.555   2.323   6.176
 4288SOL     OW13762   0.998   6.114   3.619
 4288SOL    HW113763   0.957   6.206   3.623
 4288SOL    HW213764   0.988   6.077   3.527
 4289SOL     OW13765   6.865   2.909   0.483
 4289SOL    HW113766   6.799   2.845   0.444
 4289SOL    HW213767   6.869   2.991   0.425
 4290SOL     OW13768   1.527   6.787   2.610
 4290SOL    HW113769   1.512   6.849   2.687
 4290SOL    HW213770   1.496   6.695   2.634
 4291SOL     OW13771   4.031   3.581   1.538
 4291SOL    HW113772   4.116   3.533   1.561
 4291SOL    HW213773   4.044   3.632   1.453
 4292SOL     OW13774   6.248   4.226   6.959
 4292SOL    HW113775   6.293   4.288   0.006
 4292SOL    HW213776   6.149   4.225   6.977
 4293SOL     OW13777   2.096   3.211   0.260
 4293SOL    HW113778   2.105   3.239   0.356
 4293SOL    HW213779   2.060   3.118   0.256
 4294SOL     OW13780   2.725   2.906   6.732
 4294SOL    HW113781   2.772   2.963   6.664
 4294SOL    HW213782   2.729   2.810   6.705
 4295SOL     OW13783   4.009   5.280   3.878
 4295SOL    HW113784   4.041   5.326   3.795
 4295SOL    HW213785   4.031   5.183   3.872
 4296SOL     OW13786   4.075   0.694   0.710
 4296SOL    HW113787   4.062   0.686   0.611
 4296SOL    HW213788   4.002   0.749   0.749
 4297SOL     OW13789   4.983   0.775   6.738
 4297SOL    HW113790   5.021   0.714   6.808
 4297SOL    HW213791   4.955   0.861   6.781
 4298SOL     OW13792   3.583   5.816   0.684
 4298SOL    HW113793   3.564   5.865   0.769
 4298SOL    HW213794   3.635   5.733   0.703
 4299SOL     OW13795   1.235   2.585   6.714
 4299SOL    HW113796   1.155   2.590   6.774
 4299SOL    HW213797   1.215   2.526   6.636
 4300SOL     OW13798   4.206   0.271   0.221
 4300SOL    HW113799   4.107   0.255   0.225
 4300SOL    HW213800   4.253   0.187   0.194
 4301SOL     OW13801   3.900   1.520   1.520
 4301SOL    HW113802   3.881   1.529   1.618
 4301SOL    HW213803   3.895   1.424   1.494
 4302SOL     OW13804   1.358   6.491   6.183
 4302SOL    HW113805   1.437   6.517   6.239
 4302SOL    HW213806   1.351   6.552   6.104
 4303SOL     OW13807   6.792   4.997   4.484
 4303SOL    HW113808   6.738   4.913   4.478
 4303SOL    HW213809   6.775   5.053   4.403
 4304SOL     OW13810   3.133   3.843   3.135
 4304SOL    HW113811   3.164   3.825   3.042
 4304SOL    HW213812   3.047   3.795   3.152
 4305SOL     OW13813   6.396   0.595   4.560
 4305SOL    HW113814   6.493   0.571   4.567
 4305SOL    HW213815   6.376   0.624   4.467
 4306SOL     OW13816   5.941   3.826   6.758
 4306SOL    HW113817   5.924   3.756   6.689
 4306SOL    HW213818   5.858   3.879   6.773
 4307SOL     OW13819   3.960   4.050   6.301
 4307SOL    HW113820   3.956   3.955   6.270
 4307SOL    HW213821   3.867   4.087   6.308
 4308SOL     OW13822   5.967   5.416   6.738
 4308SOL    HW113823   5.964   5.427   6.837
 4308SOL    HW213824   6.016   5.333   6.715
 4309SOL     OW13825   0.858   1.424   0.202
 4309SOL    HW113826   0.761   1.441   0.223
 4309SOL    HW213827   0.868   1.331   0.167
 4310SOL     OW13828   1.719   2.936   2.822
 4310SOL    HW113829   1.664   2.956   2.741
 4310SOL    HW213830   1.702   3.006   2.892
 4311SOL     OW13831   2.012   6.117   3.232
 4311SOL    HW113832   1.996   6.028   3.276
 4311SOL    HW213833   2.003   6.107   3.133
 4312SOL     OW13834   1.350   4.605   0.893
 4312SOL    HW113835   1.386   4.675   0.831
 4312SOL    HW213836   1.260   4.634   0.927
 4313SOL     OW13837   4.906   1.565   1.883
 4313SOL    HW113838   4.897   1.466   1.892
 4313SOL    HW213839   4.898   1.608   1.973
 4314SOL     OW13840   5.963   0.903   3.945
 4314SOL    HW113841   5.999   0.854   4.024
 4314SOL    HW213842   5.883   0.853   3.909
 4315SOL     OW13843   2.566   0.117   1.481
 4315SOL    HW113844   2.607   0.185   1.420
 4315SOL    HW213845   2.522   0.046   1.427
 4316SOL     OW13846   5.184   0.264   1.925
 4316SOL    HW113847   5.151   0.335   1.864
 4316SOL    HW213848   5.112   0.197   1.940
 4317SOL     OW13849   4.719   1.684   4.646
 4317SOL    HW113850   4.644   1.622   4.668
 4317SOL    HW213851   4.716   1.763   4.706
 4318SOL     OW13852   0.473   3.889   4.618
 4318SOL    HW113853   0.512   3.885   4.710
 4318SOL    HW213854   0.373   3.894   4.624
 4319SOL     OW13855   2.018   2.529   0.900
 4319SOL    HW113856   1.976   2.541   0.810
 4319SOL    HW213857   2.031   2.431   0.918
 4320SOL     OW13858   6.429   5.935   1.440
 4320SOL    HW113859   6.379   5.996   1.379
 4320SOL    HW213860   6.491   5.989   1.497
 4321SOL     OW13861   6.989   6.924   5.750
 4321SOL    HW113862   0.014   6.964   5.831
 4321SOL    HW213863   6.920   6.857   5.778
 4322SOL     OW13864   6.353   2.579   6.749
 4322SOL    HW113865   6.444   2.544   6.767
 4322SOL    HW213866   6.325   2.641   6.823
 4323SOL     OW13867   4.695   3.849   0.988
 4323SOL    HW113868   4.600   3.847   1.019
 4323SOL    HW213869   4.754   3.804   1.055
 4324SOL     OW13870   5.567   4.154   6.248
 4324SOL    HW113871   5.548   4.248   6.278
 4324SOL    HW213872   5.663   4.148   6.218
 4325SOL     OW13873   2.516   1.536   1.472
 4325SOL    HW113874   2.536   1.583   1.386
 4325SOL    HW213875   2.530   1.599   1.548
 4326SOL     OW13876   4.839   4.647   5.191
 4326SOL    HW113877   4.908   4.668   5.122
 4326SOL    HW213878   4.767   4.717   5.188
 4327SOL     OW13879   5.844   5.750   2.049
 4327SOL    HW113880   5.868   5.815   1.976
 4327SOL    HW213881   5.802   5.799   2.125
 4328SOL     OW13882   4.628   3.612   5.529
 4328SOL    HW113883   4.567   3.562   5.468
 4328SOL    HW213884   4.701   3.655   5.476
 4329SOL     OW13885   4.214   1.396   6.034
 4329SOL    HW113886   4.217   1.313   5.978
 4329SOL    HW213887   4.167   1.469   5.983
 4330SOL     OW13888   2.490   0.256   4.992
 4330SOL    HW113889   2.391   0.244   4.980
 4330SOL    HW213890   2.506   0.322   5.065
 4331SOL     OW13891   5.387   2.452   1.375
 4331SOL    HW113892   5.418   2.428   1.284
 4331SOL    HW213893   5.287   2.440   1.381
 4332SOL     OW13894   5.134   4.405   2.323
 4332SOL    HW113895   5.111   4.462   2.402
 4332SOL    HW213896   5.163   4.315   2.355
 4333SOL     OW13897   3.756   0.121   5.314
 4333SOL    HW113898   3.714   0.063   5.244
 4333SOL    HW213899   3.798   0.065   5.384
 4334SOL     OW13900   1.842   2.678   2.613
 4334SOL    HW113901   1.849   2.754   2.677
 4334SOL    HW213902   1.892   2.700   2.529
 4335SOL     OW13903   3.766   3.508   2.572
 4335SOL    HW113904   3.729   3.424   2.532
 4335SOL    HW213905   3.785   3.574   2.500
 4336SOL     OW13906   2.015   6.621   6.700
 4336SOL    HW113907   1.957   6.696   6.669
 4336SOL    HW213908   2.110   6.639   6.675
 4337SOL     OW13909   0.384   4.594   0.834
 4337SOL    HW113910   0.300   4.577   0.781
 4337SOL    HW213911   0.412   4.689   0.822
 4338SOL     OW13912   5.660   5.592   5.143
 4338SOL    HW113913   5.719   5.514   5.121
 4338SOL    HW213914   5.712   5.677   5.133
 4339SOL     OW13915   5.392   3.361   5.185
 4339SOL    HW113916   5.310   3.403   5.146
 4339SOL    HW213917   5.375   3.264   5.202
 4340SOL     OW13918   6.426   3.373   1.257
 4340SOL    HW113919   6.519   3.388   1.221
 4340SOL    HW213920   6.360   3.422   1.200
 4341SOL     OW13921   0.663   5.828   2.003
 4341SOL    HW113922   0.719   5.782   2.072
 4341SOL    HW213923   0.718   5.899   1.958
 4342SOL     OW13924   5.729   3.627   4.269
 4342SOL    HW113925   5.816   3.670   4.248
 4342SOL    HW213926   5.716   3.547   4.211
 4343SOL     OW13927   2.648   5.826   5.655
 4343SOL    HW113928   2.592   5.762   5.708
 4343SOL    HW213929   2.696   5.776   5.583
 4344SOL     OW13930   1.244   5.108   2.454
 4344SOL    HW113931   1.167   5.160   2.491
 4344SOL    HW213932   1.248   5.120   2.355
 4345SOL     OW13933   2.945   3.225   5.362
 4345SOL    HW113934   2.987   3.255   5.448
 4345SOL    HW213935   2.924   3.127   5.368
 4346SOL     OW13936   1.959   2.712   2.196
 4346SOL    HW113937   2.052   2.740   2.169
 4346SOL    HW213938   1.922   2.781   2.258
 4347SOL     OW13939   6.103   6.967   2.977
 4347SOL    HW113940   6.199   6.952   3.003
 4347SOL    HW213941   6.051   6.992   3.059
 4348SOL     OW13942   6.958   4.407   2.751
 4348SOL    HW113943   0.020   4.416   2.811
 4348SOL    HW213944   6.962   4.321   2.702
 4349SOL     OW13945   6.971   1.617   2.661
 4349SOL    HW113946   0.048   1.605   2.630
 4349SOL    HW213947   6.967   1.690   2.729
 4350SOL     OW13948   5.051   1.484   4.112
 4350SOL    HW113949   5.061   1.443   4.203
 4350SOL    HW213950   5.106   1.568   4.108
 4351SOL     OW13951   2.207   5.703   1.403
 4351SOL    HW113952   2.174   5.780   1.348
 4351SOL    HW213953   2.293   5.669   1.365
 4352SOL     OW13954   0.622   3.182   2.569
 4352SOL    HW113955   0.540   3.222   2.528
 4352SOL    HW213956   0.622   3.083   2.555
 4353SOL     OW13957   3.337   3.586   6.765
 4353SOL    HW113958   3.384   3.498   6.760
 4353SOL    HW213959   3.294   3.597   6.854
 4354SOL     OW13960   2.368   0.156   5.641
 4354SOL    HW113961   2.421   0.228   5.596
 4354SOL    HW213962   2.313   0.108   5.573
 4355SOL     OW13963   2.968   0.199   2.311
 4355SOL    HW113964   3.063   0.198   2.280
 4355SOL    HW213965   2.951   0.282   2.364
 4356SOL     OW13966   5.424   4.113   0.615
 4356SOL    HW113967   5.353   4.182   0.603
 4356SOL    HW213968   5.444   4.103   0.713
 4357SOL     OW13969   6.634   0.770   0.383
 4357SOL    HW113970   6.561   0.743   0.447
 4357SOL    HW213971   6.712   0.804   0.434
 4358SOL     OW13972   0.440   6.408   0.107
 4358SOL    HW113973   0.444   6.332   0.041
 4358SOL    HW213974   0.368   6.390   0.174
 4359SOL     OW13975   2.261   2.055   6.581
 4359SOL    HW113976   2.350   2.100   6.588
 4359SOL    HW213977   2.250   2.017   6.489
 4360SOL     OW13978   1.343   2.119   3.920
 4360SOL    HW113979   1.312   2.024   3.931
 4360SOL    HW213980   1.334   2.167   4.007
 4361SOL     OW13981   2.370   3.071   1.118
 4361SOL    HW113982   2.280   3.080   1.160
 4361SOL    HW213983   2.362   3.026   1.029
 4362SOL     OW13984   5.837   5.545   3.067
 4362SOL    HW113985   5.839   5.611   2.992
 4362SOL    HW213986   5.889   5.464   3.041
 4363SOL     OW13987   4.980   2.886   0.668
 4363SOL    HW113988   4.910   2.857   0.603
 4363SOL    HW213989   5.057   2.927   0.619
 4364SOL     OW13990   3.197   4.107   4.753
 4364SOL    HW113991   3.283   4.103   4.702
 4364SOL    HW213992   3.215   4.134   4.847
 4365SOL     OW13993   2.178   1.610   1.732
 4365SOL    HW113994   2.259   1.626   1.789
 4365SOL    HW213995   2.104   1.670   1.763
 4366SOL     OW13996   6.595   6.940   0.012
 4366SOL    HW113997   6.515   6.975   0.061
 4366SOL    HW213998   6.622   6.852   0.051
 4367SOL     OW13999   2.335   4.520   5.079
 4367SOL    HW114000   2.312   4.472   5.164
 4367SOL    HW214001   2.428   4.554   5.084
 4368SOL     OW14002   3.881   4.052   1.310
 4368SOL    HW114003   3.837   4.090   1.228
 4368SOL    HW214004   3.976   4.028   1.288
 4369SOL     OW14005   4.302   5.286   3.125
 4369SOL    HW114006   4.302   5.227   3.044
 4369SOL    HW214007   4.297   5.382   3.096
 4370SOL     OW14008   4.509   5.230   2.524
 4370SOL    HW114009   4.510   5.148   2.581
 4370SOL    HW214010   4.596   5.237   2.476
 4371SOL     OW14011   1.047   2.185   1.393
 4371SOL    HW114012   1.125   2.224   1.442
 4371SOL    HW214013   1.057   2.086   1.387
 4372SOL     OW14014   3.482   1.620   2.928
 4372SOL    HW114015   3.543   1.541   2.938
 4372SOL    HW214016   3.421   1.625   3.007
 4373SOL     OW14017   6.816   2.483   6.400
 4373SOL    HW114018   6.781   2.559   6.456
 4373SOL    HW214019   6.902   2.450   6.439
 4374SOL     OW14020   1.487   1.952   1.897
 4374SOL    HW114021   1.521   2.031   1.948
 4374SOL    HW214022   1.395   1.929   1.929
 4375SOL     OW14023   4.293   0.103   3.053
 4375SOL    HW114024   4.291   0.157   2.969
 4375SOL    HW214025   4.312   0.162   3.131
 4376SOL     OW14026   0.151   6.389   1.153
 4376SOL    HW114027   0.167   6.486   1.135
 4376SOL    HW214028   0.152   6.338   1.067
 4377SOL     OW14029   5.315   4.230   0.979
 4377SOL    HW114030   5.221   4.207   1.003
 4377SOL    HW214031   5.318   4.316   0.929
 4378SOL     OW14032   2.440   2.065   2.952
 4378SOL    HW114033   2.494   2.096   3.031
 4378SOL    HW214034   2.353   2.114   2.949
 4379SOL     OW14035   2.245   1.577   2.433
 4379SOL    HW114036   2.268   1.668   2.468
 4379SOL    HW214037   2.187   1.530   2.499
 4380SOL     OW14038   1.102   6.972   2.250
 4380SOL    HW114039   1.005   6.954   2.267
 4380SOL    HW214040   1.157   6.913   2.308
 4381SOL     OW14041   0.508   5.637   5.104
 4381SOL    HW114042   0.429   5.580   5.128
 4381SOL    HW214043   0.492   5.731   5.134
 4382SOL     OW14044   0.353   3.346   5.236
 4382SOL    HW114045   0.368   3.445   5.231
 4382SOL    HW214046   0.392   3.302   5.156
 4383SOL     OW14047   0.799   2.817   6.478
 4383SOL    HW114048   0.706   2.842   6.503
 4383SOL    HW214049   0.851   2.900   6.456
 4384SOL     OW14050   5.529   0.480   4.657
 4384SOL    HW114051   5.497   0.487   4.752
 4384SOL    HW214052   5.629   0.473   4.656
 4385SOL     OW14053   5.864   2.475   5.163
 4385SOL    HW114054   5.805   2.428   5.228
 4385SOL    HW214055   5.810   2.507   5.085
 4386SOL     OW14056   1.738   4.086   5.744
 4386SOL    HW114057   1.796   4.050   5.671
 4386SOL    HW214058   1.647   4.108   5.706
 4387SOL     OW14059   6.876   2.117   1.569
 4387SOL    HW114060   6.969   2.093   1.597
 4387SOL    HW214061   6.874   2.212   1.539
 4388SOL     OW14062   4.545   2.602   5.875
 4388SOL    HW114063   4.619   2.547   5.839
 4388SOL    HW214064   4.582   2.669   5.940
 4389SOL     OW14065   6.182   3.171   1.458
 4389SOL    HW114066   6.102   3.195   1.403
 4389SOL    HW214067   6.243   3.250   1.462
 4390SOL     OW14068   3.787   6.977   1.513
 4390SOL    HW114069   3.768   7.014   1.422
 4390SOL    HW214070   3.885   6.972   1.528
 4391SOL     OW14071   2.050   5.707   6.820
 4391SOL    HW114072   1.973   5.694   6.757
 4391SOL    HW214073   2.122   5.641   6.798
 4392SOL     OW14074   6.659   3.158   5.257
 4392SOL    HW114075   6.697   3.142   5.348
 4392SOL    HW214076   6.729   3.197   5.198
 4393SOL     OW14077   6.146   0.818   2.295
 4393SOL    HW114078   6.186   0.885   2.357
 4393SOL    HW214079   6.057   0.852   2.264
 4394SOL     OW14080   6.635   5.386   2.174
 4394SOL    HW114081   6.659   5.481   2.155
 4394SOL    HW214082   6.537   5.381   2.194
 4395SOL     OW14083   1.855   0.018   1.855
 4395SOL    HW114084   1.817   6.996   1.939
 4395SOL    HW214085   1.782   0.063   1.803
 4396SOL     OW14086   2.262   1.877   4.368
 4396SOL    HW114087   2.322   1.848   4.442
 4396SOL    HW214088   2.288   1.831   4.283
 4397SOL     OW14089   1.480   2.435   4.340
 4397SOL    HW114090   1.389   2.411   4.376
 4397SOL    HW214091   1.516   2.513   4.391
 4398SOL     OW14092   0.645   3.861   5.341
 4398SOL    HW114093   0.717   3.820   5.284
 4398SOL    HW214094   0.674   3.951   5.371
 4399SOL     OW14095   3.052   6.940   2.658
 4399SOL    HW114096   3.024   6.853   2.699
 4399SOL    HW214097   2.971   6.987   2.622
 4400SOL     OW14098   2.331   6.382   5.427
 4400SOL    HW114099   2.346   6.407   5.331
 4400SOL    HW214100   2.372   6.450   5.487
 4401SOL     OW14101   2.723   6.833   5.680
 4401SOL    HW114102   2.693   6.775   5.603
 4401SOL    HW214103   2.650   6.896   5.705
 4402SOL     OW14104   1.861   1.237   2.436
 4402SOL    HW114105   1.806   1.320   2.442
 4402SOL    HW214106   1.860   1.205   2.341
 4403SOL     OW14107   0.840   0.951   0.406
 4403SOL    HW114108   0.826   0.874   0.467
 4403SOL    HW214109   0.752   0.980   0.369
 4404SOL     OW14110   1.472   5.965   5.749
 4404SOL    HW114111   1.434   5.946   5.839
 4404SOL    HW214112   1.478   5.880   5.696
 4405SOL     OW14113   1.890   3.998   2.020
 4405SOL    HW114114   1.870   4.086   2.063
 4405SOL    HW214115   1.808   3.940   2.024
 4406SOL     OW14116   0.777   2.793   1.070
 4406SOL    HW114117   0.843   2.751   1.008
 4406SOL    HW214118   0.815   2.879   1.105
 4407SOL     OW14119   6.670   5.469   0.783
 4407SOL    HW114120   6.623   5.457   0.696
 4407SOL    HW214121   6.719   5.556   0.783
 4408SOL     OW14122   2.753   0.024   1.155
 4408SOL    HW114123   2.673   0.025   1.096
 4408SOL    HW214124   2.746   6.967   1.222
 4409SOL     OW14125   4.329   1.510   2.196
 4409SOL    HW114126   4.416   1.553   2.171
 4409SOL    HW214127   4.336   1.474   2.289
 4410SOL     OW14128   1.235   4.830   6.972
 4410SOL    HW114129   1.160   4.765   6.984
 4410SOL    HW214130   1.210   4.897   6.902
 4411SOL     OW14131   3.654   4.266   5.351
 4411SOL    HW114132   3.694   4.181   5.386
 4411SOL    HW214133   3.686   4.282   5.257
 4412SOL     OW14134   4.406   6.106   3.943
 4412SOL    HW114135   4.468   6.174   3.902
 4412SOL    HW214136   4.458   6.025   3.968
 4413SOL     OW14137   5.738   4.344   4.361
 4413SOL    HW114138   5.729   4.273   4.292
 4413SOL    HW214139   5.816   4.323   4.420
 4414SOL     OW14140   3.545   5.559   1.313
 4414SOL    HW114141   3.554   5.619   1.393
 4414SOL    HW214142   3.618   5.492   1.313
 4415SOL     OW14143   5.176   2.551   0.477
 4415SOL    HW114144   5.211   2.598   0.396
 4415SOL    HW214145   5.213   2.593   0.559
 4416SOL     OW14146   3.740   1.946   3.845
 4416SOL    HW114147   3.775   2.028   3.799
 4416SOL    HW214148   3.645   1.960   3.871
 4417SOL     OW14149   5.476   3.813   3.910
 4417SOL    HW114150   5.389   3.766   3.926
 4417SOL    HW214151   5.491   3.879   3.983
 4418SOL     OW14152   6.089   1.816   1.996
 4418SOL    HW114153   5.993   1.841   1.986
 4418SOL    HW214154   6.146   1.877   1.941
 4419SOL     OW14155   5.961   6.937   6.290
 4419SOL    HW114156   6.054   6.973   6.282
 4419SOL    HW214157   5.939   6.924   6.386
 4420SOL     OW14158   4.033   1.462   2.213
 4420SOL    HW114159   4.004   1.374   2.176
 4420SOL    HW214160   4.133   1.467   2.214
 4421SOL     OW14161   1.763   1.574   4.706
 4421SOL    HW114162   1.725   1.496   4.756
 4421SOL    HW214163   1.815   1.631   4.769
 4422SOL     OW14164   1.282   4.180   0.014
 4422SOL    HW114165   1.351   4.197   0.084
 4422SOL    HW214166   1.193   4.170   0.057
 4423SOL     OW14167   0.092   3.422   5.230
 4423SOL    HW114168   0.176   3.387   5.272
 4423SOL    HW214169   0.067   3.509   5.273
 4424SOL     OW14170   5.401   0.549   4.267
 4424SOL    HW114171   5.427   0.471   4.324
 4424SOL    HW214172   5.483   0.589   4.227
 4425SOL     OW14173   2.557   4.319   0.373
 4425SOL    HW114174   2.603   4.408   0.370
 4425SOL    HW214175   2.625   4.247   0.386
 4426SOL     OW14176   0.728   1.113   4.201
 4426SOL    HW114177   0.668   1.048   4.154
 4426SOL    HW214178   0.822   1.101   4.169
 4427SOL     OW14179   6.410   6.086   2.227
 4427SOL    HW114180   6.486   6.030   2.261
 4427SOL    HW214181   6.411   6.175   2.274
 4428SOL     OW14182   4.016   0.936   3.441
 4428SOL    HW114183   4.051   0.979   3.357
 4428SOL    HW214184   4.092   0.893   3.490
 4429SOL     OW14185   3.233   0.004   2.235
 4429SOL    HW114186   3.259   0.022   2.141
 4429SOL    HW214187   3.151   6.965   2.237
 4430SOL     OW14188   4.629   4.887   5.511
 4430SOL    HW114189   4.647   4.914   5.416
 4430SOL    HW214190   4.709   4.907   5.567
 4431SOL     OW14191   2.732   1.368   3.121
 4431SOL    HW114192   2.636   1.363   3.148
 4431SOL    HW214193   2.776   1.444   3.168
 4432SOL     OW14194   2.584   3.485   5.824
 4432SOL    HW114195   2.544   3.567   5.864
 4432SOL    HW214196   2.680   3.502   5.801
 4433SOL     OW14197   5.654   1.758   4.244
 4433SOL    HW114198   5.682   1.766   4.340
 4433SOL    HW214199   5.727   1.716   4.191
 4434SOL     OW14200   5.866   1.208   2.661
 4434SOL    HW114201   5.944   1.256   2.621
 4434SOL    HW214202   5.821   1.268   2.728
 4435SOL     OW14203   4.445   3.849   1.061
 4435SOL    HW114204   4.421   3.865   1.156
 4435SOL    HW214205   4.379   3.786   1.020
 4436SOL     OW14206   4.386   0.682   1.487
 4436SOL    HW114207   4.367   0.588   1.512
 4436SOL    HW214208   4.385   0.691   1.387
 4437SOL     OW14209   0.855   2.907   2.910
 4437SOL    HW114210   0.914   2.986   2.925
 4437SOL    HW214211   0.876   2.865   2.822
 4438SOL     OW14212   4.939   0.101   6.571
 4438SOL    HW114213   5.025   0.081   6.525
 4438SOL    HW214214   4.927   0.040   6.648
 4439SOL     OW14215   6.874   4.027   1.546
 4439SOL    HW114216   6.912   4.120   1.542
 4439SOL    HW214217   6.807   4.016   1.473
 4440SOL     OW14218   2.737   4.397   0.763
 4440SOL    HW114219   2.769   4.477   0.814
 4440SOL    HW214220   2.815   4.341   0.734
 4441SOL     OW14221   0.841   1.588   2.277
 4441SOL    HW114222   0.743   1.606   2.271
 4441SOL    HW214223   0.889   1.640   2.205
 4442SOL     OW14224   1.832   4.957   4.211
 4442SOL    HW114225   1.855   5.043   4.166
 4442SOL    HW214226   1.860   4.960   4.306
 4443SOL     OW14227   1.655   3.599   5.656
 4443SOL    HW114228   1.583   3.628   5.719
 4443SOL    HW214229   1.700   3.680   5.618
 4444SOL     OW14230   3.463   3.979   6.146
 4444SOL    HW114231   3.544   3.922   6.143
 4444SOL    HW214232   3.385   3.928   6.109
 4445SOL     OW14233   1.979   6.356   6.817
 4445SOL    HW114234   1.915   6.340   6.891
 4445SOL    HW214235   1.972   6.451   6.786
 4446SOL     OW14236   4.925   1.854   1.300
 4446SOL    HW114237   4.997   1.794   1.266
 4446SOL    HW214238   4.964   1.922   1.362
 4447SOL     OW14239   5.177   4.625   6.039
 4447SOL    HW114240   5.085   4.614   6.001
 4447SOL    HW214241   5.189   4.720   6.069
 4448SOL     OW14242   2.473   4.717   1.250
 4448SOL    HW114243   2.411   4.687   1.323
 4448SOL    HW214244   2.499   4.813   1.266
 4449SOL     OW14245   5.253   1.296   6.236
 4449SOL    HW114246   5.301   1.240   6.304
 4449SOL    HW214247   5.200   1.237   6.175
 4450SOL     OW14248   3.905   2.449   6.118
 4450SOL    HW114249   3.952   2.402   6.043
 4450SOL    HW214250   3.848   2.383   6.167
 4451SOL     OW14251   5.014   4.603   3.725
 4451SOL    HW114252   5.029   4.599   3.824
 4451SOL    HW214253   5.020   4.511   3.687
 4452SOL     OW14254   5.885   5.888   4.322
 4452SOL    HW114255   5.881   5.790   4.345
 4452SOL    HW214256   5.860   5.901   4.226
 4453SOL     OW14257   1.416   2.546   1.501
 4453SOL    HW114258   1.411   2.448   1.520
 4453SOL    HW214259   1.472   2.561   1.419
 4454SOL     OW14260   1.629   1.559   0.241
 4454SOL    HW114261   1.663   1.653   0.248
 4454SOL    HW214262   1.606   1.525   0.332
 4455SOL     OW14263   5.112   5.672   5.731
 4455SOL    HW114264   5.061   5.594   5.696
 4455SOL    HW214265   5.055   5.754   5.729
 4456SOL     OW14266   2.381   6.134   3.091
 4456SOL    HW114267   2.388   6.080   3.175
 4456SOL    HW214268   2.308   6.201   3.101
 4457SOL     OW14269   3.538   1.378   3.068
 4457SOL    HW114270   3.585   1.295   3.037
 4457SOL    HW214271   3.573   1.405   3.158
 4458SOL     OW14272   2.370   3.053   0.613
 4458SOL    HW114273   2.373   3.004   0.526
 4458SOL    HW214274   2.290   3.114   0.614
 4459SOL     OW14275   3.943   1.927   4.613
 4459SOL    HW114276   3.914   1.975   4.530
 4459SOL    HW214277   3.955   1.993   4.687
 4460SOL     OW14278   1.520   3.108   0.102
 4460SOL    HW114279   1.472   3.153   0.177
 4460SOL    HW214280   1.522   3.168   0.022
 4461SOL     OW14281   2.037   0.799   0.995
 4461SOL    HW114282   2.067   0.734   1.065
 4461SOL    HW214283   2.112   0.862   0.974
 4462SOL     OW14284   6.458   4.611   1.833
 4462SOL    HW114285   6.454   4.529   1.891
 4462SOL    HW214286   6.551   4.649   1.836
 4463SOL     OW14287   4.767   0.850   0.560
 4463SOL    HW114288   4.809   0.932   0.598
 4463SOL    HW214289   4.804   0.769   0.606
 4464SOL     OW14290   6.843   5.490   0.451
 4464SOL    HW114291   6.748   5.472   0.478
 4464SOL    HW214292   6.845   5.560   0.380
 4465SOL     OW14293   4.125   4.959   1.280
 4465SOL    HW114294   4.029   4.932   1.277
 4465SOL    HW214295   4.152   5.001   1.193
 4466SOL     OW14296   1.271   1.838   3.061
 4466SOL    HW114297   1.350   1.801   3.108
 4466SOL    HW214298   1.301   1.900   2.988
 4467SOL     OW14299   1.579   5.822   3.139
 4467SOL    HW114300   1.625   5.734   3.126
 4467SOL    HW214301   1.488   5.818   3.098
 4468SOL     OW14302   1.334   3.979   0.496
 4468SOL    HW114303   1.427   3.958   0.466
 4468SOL    HW214304   1.337   4.043   0.572
 4469SOL     OW14305   3.232   0.813   1.670
 4469SOL    HW114306   3.240   0.729   1.723
 4469SOL    HW214307   3.322   0.856   1.663
 4470SOL     OW14308   0.658   1.919   2.224
 4470SOL    HW114309   0.669   1.823   2.250
 4470SOL    HW214310   0.569   1.952   2.257
 4471SOL     OW14311   1.166   2.410   6.497
 4471SOL    HW114312   1.086   2.439   6.444
 4471SOL    HW214313   1.226   2.355   6.439
 4472SOL     OW14314   0.619   2.717   1.763
 4472SOL    HW114315   0.676   2.798   1.776
 4472SOL    HW214316   0.635   2.679   1.672
 4473SOL     OW14317   5.692   3.036   4.302
 4473SOL    HW114318   5.608   2.986   4.281
 4473SOL    HW214319   5.684   3.078   4.392
 4474SOL     OW14320   2.431   7.002   2.480
 4474SOL    HW114321   2.474   0.061   2.434
 4474SOL    HW214322   2.360   0.018   2.541
 4475SOL     OW14323   1.122   4.247   2.091
 4475SOL    HW114324   1.143   4.273   1.996
 4475SOL    HW214325   1.179   4.301   2.153
 4476SOL     OW14326   5.892   0.860   3.215
 4476SOL    HW114327   5.970   0.816   3.169
 4476SOL    HW214328   5.896   0.958   3.201
 4477SOL     OW14329   1.425   0.489   5.552
 4477SOL    HW114330   1.388   0.568   5.600
 4477SOL    HW214331   1.453   0.420   5.619
 4478SOL     OW14332   3.172   0.364   2.229
 4478SOL    HW114333   3.192   0.378   2.132
 4478SOL    HW214334   3.245   0.401   2.285
 4479SOL     OW14335   0.548   2.256   1.309
 4479SOL    HW114336   0.620   2.287   1.370
 4479SOL    HW214337   0.460   2.258   1.357
 4480SOL     OW14338   0.279   4.385   5.166
 4480SOL    HW114339   0.280   4.431   5.078
 4480SOL    HW214340   0.228   4.299   5.158
 4481SOL     OW14341   3.048   5.165   4.781
 4481SOL    HW114342   3.082   5.170   4.875
 4481SOL    HW214343   2.961   5.214   4.774
 4482SOL     OW14344   1.728   3.074   5.109
 4482SOL    HW114345   1.748   3.043   5.017
 4482SOL    HW214346   1.629   3.068   5.126
 4483SOL     OW14347   6.379   2.433   2.351
 4483SOL    HW114348   6.329   2.493   2.288
 4483SOL    HW214349   6.314   2.373   2.397
 4484SOL     OW14350   3.506   2.167   6.833
 4484SOL    HW114351   3.484   2.265   6.833
 4484SOL    HW214352   3.519   2.136   6.927
 4485SOL     OW14353   5.665   2.608   4.582
 4485SOL    HW114354   5.725   2.687   4.571
 4485SOL    HW214355   5.717   2.530   4.615
 4486SOL     OW14356   6.181   5.784   5.522
 4486SOL    HW114357   6.269   5.827   5.540
 4486SOL    HW214358   6.181   5.691   5.559
 4487SOL     OW14359   2.984   2.837   6.395
 4487SOL    HW114360   2.955   2.907   6.460
 4487SOL    HW214361   3.026   2.881   6.315
 4488SOL     OW14362   0.656   3.642   5.512
 4488SOL    HW114363   0.651   3.734   5.472
 4488SOL    HW214364   0.647   3.649   5.611
 4489SOL     OW14365   5.397   5.392   4.864
 4489SOL    HW114366   5.320   5.430   4.812
 4489SOL    HW214367   5.475   5.380   4.803
 4490SOL     OW14368   5.322   1.753   1.871
 4490SOL    HW114369   5.388   1.695   1.823
 4490SOL    HW214370   5.231   1.739   1.833
 4491SOL     OW14371   6.888   3.414   3.642
 4491SOL    HW114372   6.886   3.426   3.543
 4491SOL    HW214373   6.979   3.437   3.676
 4492SOL     OW14374   5.898   4.598   2.511
 4492SOL    HW114375   5.880   4.505   2.480
 4492SOL    HW214376   5.991   4.605   2.545
 4493SOL     OW14377   5.059   5.752   4.522
 4493SOL    HW114378   4.965   5.783   4.510
 4493SOL    HW214379   5.060   5.654   4.543
 4494SOL     OW14380   0.236   1.227   6.582
 4494SOL    HW114381   0.263   1.132   6.564
 4494SOL    HW214382   0.311   1.275   6.628
 4495SOL     OW14383   4.191   0.033   3.835
 4495SOL    HW114384   4.104   0.001   3.797
 4495SOL    HW214385   4.181   0.129   3.861
 4496SOL     OW14386   5.717   6.430   1.047
 4496SOL    HW114387   5.634   6.374   1.055
 4496SOL    HW214388   5.700   6.505   0.982
 4497SOL     OW14389   4.288   2.084   6.828
 4497SOL    HW114390   4.259   2.035   6.746
 4497SOL    HW214391   4.277   2.025   6.908
 4498SOL     OW14392   7.017   3.802   6.898
 4498SOL    HW114393   6.965   3.859   6.834
 4498SOL    HW214394   6.959   3.728   6.931
 4499SOL     OW14395   5.982   3.355   3.737
 4499SOL    HW114396   6.034   3.406   3.669
 4499SOL    HW214397   5.978   3.407   3.822
 4500SOL     OW14398   3.379   3.369   5.086
 4500SOL    HW114399   3.457   3.306   5.085
 4500SOL    HW214400   3.328   3.360   5.001
 4501SOL     OW14401   6.914   3.898   3.026
 4501SOL    HW114402   6.907   3.997   3.023
 4501SOL    HW214403   6.832   3.857   2.986
 4502SOL     OW14404   0.694   2.725   6.953
 4502SOL    HW114405   0.771   2.778   6.918
 4502SOL    HW214406   0.667   2.656   6.886
 4503SOL     OW14407   3.531   0.005   1.652
 4503SOL    HW114408   3.479   6.953   1.701
 4503SOL    HW214409   3.609   6.979   1.605
 4504SOL     OW14410   0.615   0.676   4.607
 4504SOL    HW114411   0.582   0.743   4.541
 4504SOL    HW214412   0.548   0.603   4.617
 4505SOL     OW14413   6.026   4.690   2.106
 4505SOL    HW114414   5.953   4.734   2.054
 4505SOL    HW214415   6.112   4.698   2.057
 4506SOL     OW14416   4.840   2.899   3.191
 4506SOL    HW114417   4.882   2.817   3.152
 4506SOL    HW214418   4.839   2.972   3.123
 4507SOL     OW14419   6.490   4.224   3.879
 4507SOL    HW114420   6.456   4.164   3.806
 4507SOL    HW214421   6.493   4.318   3.846
 4508SOL     OW14422   1.545   5.036   6.551
 4508SOL    HW114423   1.596   5.094   6.615
 4508SOL    HW214424   1.517   4.952   6.598
 4509SOL     OW14425   4.671   2.313   3.163
 4509SOL    HW114426   4.721   2.312   3.076
 4509SOL    HW214427   4.587   2.366   3.153
 4510SOL     OW14428   4.222   2.048   4.049
 4510SOL    HW114429   4.299   2.112   4.046
 4510SOL    HW214430   4.136   2.099   4.041
 4511SOL     OW14431   5.936   3.663   6.548
 4511SOL    HW114432   5.895   3.575   6.571
 4511SOL    HW214433   5.868   3.723   6.507
 4512SOL     OW14434   2.925   0.976   5.887
 4512SOL    HW114435   2.978   1.046   5.934
 4512SOL    HW214436   2.851   1.018   5.835
 4513SOL     OW14437   0.375   4.916   5.893
 4513SOL    HW114438   0.445   4.929   5.963
 4513SOL    HW214439   0.386   4.826   5.850
 4514SOL     OW14440   2.927   2.746   5.995
 4514SOL    HW114441   2.903   2.737   5.899
 4514SOL    HW214442   2.945   2.656   6.034
 4515SOL     OW14443   6.037   1.978   5.453
 4515SOL    HW114444   6.030   2.072   5.487
 4515SOL    HW214445   6.118   1.969   5.396
 4516SOL     OW14446   2.347   0.102   0.257
 4516SOL    HW114447   2.411   0.069   0.188
 4516SOL    HW214448   2.292   0.025   0.291
 4517SOL     OW14449   4.591   6.506   6.781
 4517SOL    HW114450   4.647   6.522   6.700
 4517SOL    HW214451   4.496   6.492   6.754
 4518SOL     OW14452   6.977   0.037   2.230
 4518SOL    HW114453   6.987   0.121   2.176
 4518SOL    HW214454   6.945   6.981   2.170
 4519SOL     OW14455   5.425   7.016   0.891
 4519SOL    HW114456   5.387   0.084   0.855
 4519SOL    HW214457   5.477   6.970   0.819
 4520SOL     OW14458   3.902   6.286   6.258
 4520SOL    HW114459   3.930   6.235   6.176
 4520SOL    HW214460   3.809   6.319   6.247
 4521SOL     OW14461   5.973   2.217   5.555
 4521SOL    HW114462   5.882   2.182   5.533
 4521SOL    HW214463   5.973   2.254   5.648
 4522SOL     OW14464   5.672   5.355   3.627
 4522SOL    HW114465   5.587   5.368   3.678
 4522SOL    HW214466   5.728   5.438   3.632
 4523SOL     OW14467   1.163   4.512   0.289
 4523SOL    HW114468   1.103   4.514   0.209
 4523SOL    HW214469   1.258   4.500   0.260
 4524SOL     OW14470   6.234   3.105   2.341
 4524SOL    HW114471   6.309   3.155   2.385
 4524SOL    HW214472   6.264   3.072   2.251
 4525SOL     OW14473   4.394   2.534   5.635
 4525SOL    HW114474   4.437   2.607   5.688
 4525SOL    HW214475   4.361   2.571   5.548
 4526SOL     OW14476   0.037   0.216   6.466
 4526SOL    HW114477   0.066   0.270   6.386
 4526SOL    HW214478   0.118   0.181   6.513
 4527SOL     OW14479   6.757   0.509   2.728
 4527SOL    HW114480   6.714   0.458   2.654
 4527SOL    HW214481   6.808   0.586   2.690
 4528SOL     OW14482   4.958   0.387   6.560
 4528SOL    HW114483   4.918   0.435   6.482
 4528SOL    HW214484   4.942   0.289   6.550
 4529SOL     OW14485   1.706   0.645   4.950
 4529SOL    HW114486   1.724   0.723   5.010
 4529SOL    HW214487   1.668   0.570   5.004
 4530SOL     OW14488   2.367   5.821   3.999
 4530SOL    HW114489   2.426   5.740   3.998
 4530SOL    HW214490   2.313   5.822   4.084
 4531SOL     OW14491   0.734   3.205   5.370
 4531SOL    HW114492   0.741   3.160   5.459
 4531SOL    HW214493   0.723   3.304   5.384
 4532SOL     OW14494   6.685   1.825   2.227
 4532SOL    HW114495   6.769   1.814   2.173
 4532SOL    HW214496   6.702   1.791   2.320
 4533SOL     OW14497   1.860   0.996   2.613
 4533SOL    HW114498   1.778   1.026   2.661
 4533SOL    HW214499   1.884   1.063   2.543
 4534SOL     OW14500   5.563   4.072   5.357
 4534SOL    HW114501   5.572   3.974   5.343
 4534SOL    HW214502   5.533   4.090   5.450
 4535SOL     OW14503   3.501   0.703   2.218
 4535SOL    HW114504   3.412   0.685   2.260
 4535SOL    HW214505   3.565   0.738   2.287
 4536SOL     OW14506   4.015   1.686   4.967
 4536SOL    HW114507   3.974   1.595   4.967
 4536SOL    HW214508   4.003   1.727   5.058
 4537SOL     OW14509   4.035   3.324   1.133
 4537SOL    HW114510   3.966   3.268   1.180
 4537SOL    HW214511   4.075   3.272   1.058
 4538SOL     OW14512   2.446   0.519   2.119
 4538SOL    HW114513   2.522   0.550   2.062
 4538SOL    HW214514   2.360   0.549   2.078
 4539SOL     OW14515   3.511   5.787   4.966
 4539SOL    HW114516   3.550   5.828   5.048
 4539SOL    HW214517   3.568   5.810   4.887
 4540SOL     OW14518   2.497   2.227   7.014
 4540SOL    HW114519   2.582   2.227   6.960
 4540SOL    HW214520   2.471   2.321   0.019
 4541SOL     OW14521   5.433   1.881   6.325
 4541SOL    HW114522   5.413   1.790   6.361
 4541SOL    HW214523   5.387   1.893   6.237
 4542SOL     OW14524   0.344   2.599   1.640
 4542SOL    HW114525   0.407   2.553   1.578
 4542SOL    HW214526   0.363   2.572   1.734
 4543SOL     OW14527   5.168   2.293   0.629
 4543SOL    HW114528   5.139   2.388   0.628
 4543SOL    HW214529   5.112   2.240   0.566
 4544SOL     OW14530   3.348   5.963   6.753
 4544SOL    HW114531   3.428   5.951   6.812
 4544SOL    HW214532   3.299   6.046   6.781
 4545SOL     OW14533   6.075   3.071   4.414
 4545SOL    HW114534   6.164   3.062   4.370
 4545SOL    HW214535   6.021   3.141   4.368
 4546SOL     OW14536   2.537   0.185   4.240
 4546SOL    HW114537   2.594   0.168   4.160
 4546SOL    HW214538   2.483   0.268   4.225
 4547SOL     OW14539   6.329   1.751   0.686
 4547SOL    HW114540   6.371   1.665   0.656
 4547SOL    HW214541   6.244   1.732   0.734
 4548SOL     OW14542   2.059   2.270   3.364
 4548SOL    HW114543   2.044   2.359   3.408
 4548SOL    HW214544   2.154   2.261   3.336
 4549SOL     OW14545   5.326   3.787   2.568
 4549SOL    HW114546   5.400   3.854   2.561
 4549SOL    HW214547   5.287   3.772   2.477
 4550SOL     OW14548   1.061   4.731   3.188
 4550SOL    HW114549   1.069   4.635   3.163
 4550SOL    HW214550   1.087   4.743   3.284
 4551SOL     OW14551   0.640   3.652   4.443
 4551SOL    HW114552   0.728   3.699   4.454
 4551SOL    HW214553   0.597   3.683   4.358
 4552SOL     OW14554   5.610   2.049   0.793
 4552SOL    HW114555   5.619   2.095   0.881
 4552SOL    HW214556   5.613   1.950   0.806
 4553SOL     OW14557   4.818   4.159   0.125
 4553SOL    HW114558   4.876   4.080   0.144
 4553SOL    HW214559   4.799   4.163   0.027
 4554SOL     OW14560   6.702   0.126   2.095
 4554SOL    HW114561   6.637   0.147   2.023
 4554SOL    HW214562   6.768   0.201   2.104
 4555SOL     OW14563   1.919   1.478   5.522
 4555SOL    HW114564   1.833   1.468   5.572
 4555SOL    HW214565   1.995   1.446   5.579
 4556SOL     OW14566   5.752   3.997   4.756
 4556SOL    HW114567   5.672   3.965   4.808
 4556SOL    HW214568   5.794   3.920   4.708
 4557SOL     OW14569   4.617   5.450   4.156
 4557SOL    HW114570   4.613   5.393   4.238
 4557SOL    HW214571   4.706   5.442   4.112
 4558SOL     OW14572   0.152   4.704   4.575
 4558SOL    HW114573   0.232   4.739   4.623
 4558SOL    HW214574   0.126   4.616   4.615
 4559SOL     OW14575   6.606   3.517   2.758
 4559SOL    HW114576   6.689   3.540   2.706
 4559SOL    HW214577   6.526   3.550   2.709
 4560SOL     OW14578   5.645   3.708   1.026
 4560SOL    HW114579   5.660   3.777   1.096
 4560SOL    HW214580   5.567   3.651   1.051
 4561SOL     OW14581   3.207   2.127   3.467
 4561SOL    HW114582   3.222   2.131   3.368
 4561SOL    HW214583   3.124   2.177   3.490
 4562SOL     OW14584   1.864   6.790   0.141
 4562SOL    HW114585   1.824   6.792   0.049
 4562SOL    HW214586   1.809   6.730   0.199
 4563SOL     OW14587   6.990   3.233   1.223
 4563SOL    HW114588   6.973   3.301   1.151
 4563SOL    HW214589   6.928   3.156   1.211
 4564SOL     OW14590   0.231   6.376   1.927
 4564SOL    HW114591   0.306   6.442   1.934
 4564SOL    HW214592   0.200   6.351   2.019
 4565SOL     OW14593   1.316   0.443   4.353
 4565SOL    HW114594   1.366   0.365   4.317
 4565SOL    HW214595   1.317   0.518   4.286
 4566SOL     OW14596   0.270   3.352   0.800
 4566SOL    HW114597   0.311   3.387   0.716
 4566SOL    HW214598   0.333   3.288   0.844
 4567SOL     OW14599   6.407   1.566   6.779
 4567SOL    HW114600   6.357   1.652   6.773
 4567SOL    HW214601   6.343   1.492   6.800
 4568SOL     OW14602   1.635   3.807   5.378
 4568SOL    HW114603   1.669   3.713   5.387
 4568SOL    HW214604   1.691   3.857   5.312
 4569SOL     OW14605   2.604   0.517   3.157
 4569SOL    HW114606   2.528   0.492   3.217
 4569SOL    HW214607   2.681   0.549   3.213
 4570SOL     OW14608   6.588   6.298   2.077
 4570SOL    HW114609   6.584   6.352   2.161
 4570SOL    HW214610   6.537   6.345   2.005
 4571SOL     OW14611   4.551   3.648   6.371
 4571SOL    HW114612   4.624   3.691   6.423
 4571SOL    HW214613   4.463   3.667   6.414
 4572SOL     OW14614   2.172   1.067   6.299
 4572SOL    HW114615   2.266   1.102   6.301
 4572SOL    HW214616   2.173   0.968   6.314
 4573SOL     OW14617   7.008   0.157   0.715
 4573SOL    HW114618   0.013   0.112   0.628
 4573SOL    HW214619   6.930   0.218   0.701
 4574SOL     OW14620   5.919   3.861   0.455
 4574SOL    HW114621   5.940   3.848   0.552
 4574SOL    HW214622   5.827   3.900   0.446
 4575SOL     OW14623   5.810   0.250   5.533
 4575SOL    HW114624   5.796   0.343   5.568
 4575SOL    HW214625   5.741   0.190   5.573
 4576SOL     OW14626   3.857   5.661   5.436
 4576SOL    HW114627   3.825   5.753   5.461
 4576SOL    HW214628   3.950   5.647   5.471
 4577SOL     OW14629   0.971   2.510   4.367
 4577SOL    HW114630   0.924   2.594   4.393
 4577SOL    HW214631   0.912   2.456   4.307
 4578SOL     OW14632   0.950   2.243   5.205
 4578SOL    HW114633   0.894   2.161   5.189
 4578SOL    HW214634   0.950   2.300   5.123
 4579SOL     OW14635   4.298   0.330   3.198
 4579SOL    HW114636   4.383   0.280   3.215
 4579SOL    HW214637   4.260   0.362   3.285
 4580SOL     OW14638   5.656   3.617   0.567
 4580SOL    HW114639   5.659   3.561   0.484
 4580SOL    HW214640   5.630   3.711   0.543
 4581SOL     OW14641   1.651   5.984   2.239
 4581SOL    HW114642   1.694   6.029   2.317
 4581SOL    HW214643   1.698   5.899   2.219
 4582SOL     OW14644   4.502   0.397   4.441
 4582SOL    HW114645   4.538   0.399   4.348
 4582SOL    HW214646   4.454   0.483   4.460
 4583SOL     OW14647   3.188   2.031   6.915
 4583SOL    HW114648   3.179   2.121   6.958
 4583SOL    HW214649   3.098   1.997   6.889
 4584SOL     OW14650   1.686   5.104   5.207
 4584SOL    HW114651   1.660   5.087   5.112
 4584SOL    HW214652   1.786   5.101   5.215
 4585SOL     OW14653   1.184   5.492   3.146
 4585SOL    HW114654   1.222   5.430   3.078
 4585SOL    HW214655   1.255   5.518   3.211
 4586SOL     OW14656   4.014   4.377   1.147
 4586SOL    HW114657   3.955   4.360   1.068
 4586SOL    HW214658   3.971   4.446   1.206
 4587SOL     OW14659   3.618   4.052   3.317
 4587SOL    HW114660   3.691   4.027   3.380
 4587SOL    HW214661   3.541   4.089   3.369
 4588SOL     OW14662   2.505   3.090   5.584
 4588SOL    HW114663   2.516   3.166   5.520
 4588SOL    HW214664   2.508   3.124   5.678
 4589SOL     OW14665   5.686   0.793   1.843
 4589SOL    HW114666   5.697   0.867   1.909
 4589SOL    HW214667   5.664   0.832   1.753
 4590SOL     OW14668   4.564   5.303   1.517
 4590SOL    HW114669   4.641   5.244   1.540
 4590SOL    HW214670   4.498   5.303   1.592
 4591SOL     OW14671   1.444   0.407   4.846
 4591SOL    HW114672   1.489   0.443   4.764
 4591SOL    HW214673   1.454   0.307   4.848
 4592SOL     OW14674   2.830   1.559   3.277
 4592SOL    HW114675   2.858   1.651   3.308
 4592SOL    HW214676   2.856   1.492   3.347
 4593SOL     OW14677   5.218   6.288   1.977
 4593SOL    HW114678   5.224   6.213   1.912
 4593SOL    HW214679   5.289   6.278   2.046
 4594SOL     OW14680   2.913   0.967   3.383
 4594SOL    HW114681   2.907   0.923   3.293
 4594SOL    HW214682   2.823   0.967   3.426
 4595SOL     OW14683   4.762   2.814   5.842
 4595SOL    HW114684   4.789   2.855   5.929
 4595SOL    HW214685   4.823   2.738   5.821
 4596SOL     OW14686   6.845   0.761   2.634
 4596SOL    HW114687   6.798   0.844   2.664
 4596SOL    HW214688   6.927   0.786   2.583
 4597SOL     OW14689   3.238   5.616   6.618
 4597SOL    HW114690   3.309   5.628   6.687
 4597SOL    HW214691   3.150   5.598   6.663
 4598SOL     OW14692   1.202   5.668   1.069
 4598SOL    HW114693   1.225   5.576   1.101
 4598SOL    HW214694   1.132   5.662   0.998
 4599SOL     OW14695   1.201   4.844   0.768
 4599SOL    HW114696   1.175   4.787   0.846
 4599SOL    HW214697   1.136   4.828   0.693
 4600SOL     OW14698   0.323   5.983   5.540
 4600SOL    HW114699   0.233   5.943   5.555
 4600SOL    HW214700   0.389   5.910   5.521
 4601SOL     OW14701   1.440   1.475   5.083
 4601SOL    HW114702   1.431   1.568   5.046
 4601SOL    HW214703   1.353   1.445   5.121
 4602SOL     OW14704   3.390   6.398   0.276
 4602SOL    HW114705   3.474   6.392   0.330
 4602SOL    HW214706   3.336   6.477   0.307
 4603SOL     OW14707   3.793   6.219   1.127
 4603SOL    HW114708   3.831   6.262   1.209
 4603SOL    HW214709   3.693   6.223   1.130
 4604SOL     OW14710   4.616   0.210   6.935
 4604SOL    HW114711   4.707   0.172   6.951
 4604SOL    HW214712   4.562   0.146   6.881
 4605SOL     OW14713   1.300   6.263   2.311
 4605SOL    HW114714   1.302   6.197   2.387
 4605SOL    HW214715   1.252   6.222   2.233
 4606SOL     OW14716   0.628   6.725   2.291
 4606SOL    HW114717   0.562   6.650   2.288
 4606SOL    HW214718   0.581   6.812   2.273
 4607SOL     OW14719   2.077   3.292   3.078
 4607SOL    HW114720   2.163   3.244   3.060
 4607SOL    HW214721   2.095   3.373   3.134
 4608SOL     OW14722   0.232   5.213   3.841
 4608SOL    HW114723   0.262   5.133   3.892
 4608SOL    HW214724   0.308   5.277   3.832
 4609SOL     OW14725   5.114   4.909   6.699
 4609SOL    HW114726   5.165   4.846   6.640
 4609SOL    HW214727   5.172   4.935   6.776
 4610SOL     OW14728   5.105   1.668   0.338
 4610SOL    HW114729   5.156   1.726   0.402
 4610SOL    HW214730   5.015   1.708   0.323
 4611SOL     OW14731   0.851   6.817   6.179
 4611SOL    HW114732   0.775   6.780   6.124
 4611SOL    HW214733   0.938   6.784   6.141
 4612SOL     OW14734   2.100   6.459   0.713
 4612SOL    HW114735   2.025   6.395   0.696
 4612SOL    HW214736   2.063   6.547   0.743
 4613SOL     OW14737   1.213   5.498   2.299
 4613SOL    HW114738   1.148   5.422   2.290
 4613SOL    HW214739   1.270   5.503   2.216
 4614SOL     OW14740   5.731   3.361   3.605
 4614SOL    HW114741   5.823   3.343   3.638
 4614SOL    HW214742   5.667   3.361   3.682
 4615SOL     OW14743   0.831   1.382   0.731
 4615SOL    HW114744   0.896   1.457   0.721
 4615SOL    HW214745   0.803   1.349   0.641
 4616SOL     OW14746   6.470   1.397   4.402
 4616SOL    HW114747   6.548   1.335   4.411
 4616SOL    HW214748   6.385   1.344   4.409
 4617SOL     OW14749   1.014   1.943   3.059
 4617SOL    HW114750   1.103   1.904   3.079
 4617SOL    HW214751   0.953   1.873   3.022
 4618SOL     OW14752   2.513   3.245   5.369
 4618SOL    HW114753   2.463   3.315   5.317
 4618SOL    HW214754   2.514   3.159   5.317
 4619SOL     OW14755   2.937   5.978   3.503
 4619SOL    HW114756   3.033   5.949   3.497
 4619SOL    HW214757   2.890   5.925   3.574
 4620SOL     OW14758   0.794   4.965   0.758
 4620SOL    HW114759   0.759   4.964   0.852
 4620SOL    HW214760   0.752   4.892   0.705
 4621SOL     OW14761   5.008   0.517   2.175
 4621SOL    HW114762   4.955   0.510   2.260
 4621SOL    HW214763   4.945   0.522   2.097
 4622SOL     OW14764   4.172   4.517   0.613
 4622SOL    HW114765   4.162   4.616   0.603
 4622SOL    HW214766   4.226   4.498   0.695
 4623SOL     OW14767   5.266   5.981   1.595
 4623SOL    HW114768   5.224   6.021   1.514
 4623SOL    HW214769   5.195   5.937   1.650
 4624SOL     OW14770   3.476   0.005   2.842
 4624SOL    HW114771   3.525   0.041   2.921
 4624SOL    HW214772   3.389   0.053   2.833
 4625SOL     OW14773   1.551   5.384   1.768
 4625SOL    HW114774   1.466   5.414   1.724
 4625SOL    HW214775   1.618   5.359   1.697
 4626SOL     OW14776   4.554   3.778   1.665
 4626SOL    HW114777   4.459   3.791   1.692
 4626SOL    HW214778   4.568   3.685   1.632
 4627SOL     OW14779   1.944   5.276   4.804
 4627SOL    HW114780   1.944   5.207   4.876
 4627SOL    HW214781   1.860   5.330   4.810
 4628SOL     OW14782   4.619   4.379   4.920
 4628SOL    HW114783   4.527   4.398   4.956
 4628SOL    HW214784   4.624   4.408   4.825
 4629SOL     OW14785   2.417   5.318   5.519
 4629SOL    HW114786   2.391   5.363   5.604
 4629SOL    HW214787   2.432   5.221   5.536
 4630SOL     OW14788   1.992   5.646   2.237
 4630SOL    HW114789   1.893   5.652   2.244
 4630SOL    HW214790   2.021   5.673   2.145
 4631SOL     OW14791   1.290   5.949   3.262
 4631SOL    HW114792   1.306   6.030   3.318
 4631SOL    HW214793   1.291   5.867   3.320
 4632SOL     OW14794   2.267   4.076   2.364
 4632SOL    HW114795   2.364   4.100   2.370
 4632SOL    HW214796   2.212   4.149   2.407
 4633SOL     OW14797   5.653   0.701   4.268
 4633SOL    HW114798   5.718   0.750   4.325
 4633SOL    HW214799   5.701   0.629   4.217
 4634SOL     OW14800   2.838   3.890   5.081
 4634SOL    HW114801   2.902   3.873   5.006
 4634SOL    HW214802   2.752   3.925   5.045
 4635SOL     OW14803   4.465   4.070   1.597
 4635SOL    HW114804   4.547   4.013   1.585
 4635SOL    HW214805   4.462   4.106   1.690
 4636SOL     OW14806   1.734   4.123   0.656
 4636SOL    HW114807   1.731   4.211   0.610
 4636SOL    HW214808   1.718   4.050   0.589
 4637SOL     OW14809   0.982   6.688   0.933
 4637SOL    HW114810   0.959   6.778   0.972
 4637SOL    HW214811   0.932   6.676   0.847
 4638SOL     OW14812   3.963   5.447   0.337
 4638SOL    HW114813   4.019   5.527   0.360
 4638SOL    HW214814   3.867   5.473   0.334
 4639SOL     OW14815   3.295   3.229   6.370
 4639SOL    HW114816   3.391   3.243   6.395
 4639SOL    HW214817   3.281   3.256   6.275
 4640SOL     OW14818   5.333   4.096   4.561
 4640SOL    HW114819   5.353   4.194   4.557
 4640SOL    HW214820   5.414   4.045   4.533
 4641SOL     OW14821   2.475   0.825   4.589
 4641SOL    HW114822   2.516   0.740   4.619
 4641SOL    HW214823   2.452   0.819   4.492
 4642SOL     OW14824   1.370   0.176   2.886
 4642SOL    HW114825   1.363   0.108   2.959
 4642SOL    HW214826   1.385   0.129   2.799
 4643SOL     OW14827   6.646   1.678   0.324
 4643SOL    HW114828   6.555   1.657   0.290
 4643SOL    HW214829   6.689   1.747   0.266
 4644SOL     OW14830   0.691   0.253   5.256
 4644SOL    HW114831   0.593   0.273   5.247
 4644SOL    HW214832   0.739   0.281   5.174
 4645SOL     OW14833   1.453   0.608   4.517
 4645SOL    HW114834   1.364   0.642   4.546
 4645SOL    HW214835   1.441   0.526   4.462
 4646SOL     OW14836   2.127   5.940   3.683
 4646SOL    HW114837   2.074   5.998   3.745
 4646SOL    HW214838   2.134   5.848   3.722
 4647SOL     OW14839   1.765   0.588   2.842
 4647SOL    HW114840   1.694   0.523   2.816
 4647SOL    HW214841   1.724   0.675   2.866
 4648SOL     OW14842   3.698   1.003   3.229
 4648SOL    HW114843   3.645   0.999   3.314
 4648SOL    HW214844   3.725   0.910   3.203
 4649SOL     OW14845   5.729   0.967   0.451
 4649SOL    HW114846   5.712   1.063   0.473
 4649SOL    HW214847   5.644   0.915   0.466
 4650SOL     OW14848   4.813   5.572   1.725
 4650SOL    HW114849   4.755   5.562   1.644
 4650SOL    HW214850   4.855   5.663   1.725
 4651SOL     OW14851   6.383   3.365   6.211
 4651SOL    HW114852   6.459   3.302   6.229
 4651SOL    HW214853   6.399   3.411   6.124
 4652SOL     OW14854   6.795   6.186   4.505
 4652SOL    HW114855   6.810   6.233   4.592
 4652SOL    HW214856   6.837   6.096   4.508
 4653SOL     OW14857   5.493   6.214   1.351
 4653SOL    HW114858   5.582   6.261   1.357
 4653SOL    HW214859   5.445   6.245   1.270
 4654SOL     OW14860   0.422   5.891   6.019
 4654SOL    HW114861   0.360   5.913   6.093
 4654SOL    HW214862   0.511   5.934   6.036
 4655SOL     OW14863   6.147   3.459   1.145
 4655SOL    HW114864   6.127   3.371   1.189
 4655SOL    HW214865   6.062   3.498   1.108
 4656SOL     OW14866   1.296   0.991   1.663
 4656SOL    HW114867   1.312   0.960   1.756
 4656SOL    HW214868   1.381   0.986   1.611
 4657SOL     OW14869   4.703   6.126   1.522
 4657SOL    HW114870   4.765   6.201   1.499
 4657SOL    HW214871   4.613   6.144   1.484
 4658SOL     OW14872   2.943   0.702   4.684
 4658SOL    HW114873   3.038   0.726   4.664
 4658SOL    HW214874   2.936   0.603   4.698
 4659SOL     OW14875   2.829   4.526   6.193
 4659SOL    HW114876   2.741   4.531   6.145
 4659SOL    HW214877   2.895   4.586   6.148
 4660SOL     OW14878   0.991   6.090   4.490
 4660SOL    HW114879   1.014   6.050   4.402
 4660SOL    HW214880   0.894   6.079   4.509
 4661SOL     OW14881   3.173   4.976   6.801
 4661SOL    HW114882   3.082   4.983   6.841
 4661SOL    HW214883   3.237   5.033   6.852
 4662SOL     OW14884   2.565   0.292   5.516
 4662SOL    HW114885   2.593   0.374   5.566
 4662SOL    HW214886   2.646   0.247   5.477
 4663SOL     OW14887   0.354   0.902   1.664
 4663SOL    HW114888   0.422   0.973   1.683
 4663SOL    HW214889   0.362   0.830   1.734
 4664SOL     OW14890   1.057   0.692   0.202
 4664SOL    HW114891   0.963   0.681   0.169
 4664SOL    HW214892   1.055   0.719   0.298
 4665SOL     OW14893   3.390   6.977   6.277
 4665SOL    HW114894   3.396   6.952   6.374
 4665SOL    HW214895   3.343   6.905   6.227
 4666SOL     OW14896   2.205   2.902   0.201
 4666SOL    HW114897   2.238   2.886   0.108
 4666SOL    HW214898   2.110   2.933   0.199
 4667SOL     OW14899   6.435   3.848   1.625
 4667SOL    HW114900   6.455   3.894   1.712
 4667SOL    HW214901   6.362   3.781   1.638
 4668SOL     OW14902   4.815   1.341   3.752
 4668SOL    HW114903   4.770   1.252   3.751
 4668SOL    HW214904   4.801   1.385   3.841
 4669SOL     OW14905   4.976   5.940   0.052
 4669SOL    HW114906   5.011   5.873   0.117
 4669SOL    HW214907   5.051   5.999   0.022
 4670SOL     OW14908   1.107   2.617   6.217
 4670SOL    HW114909   1.063   2.663   6.140
 4670SOL    HW214910   1.203   2.645   6.223
 4671SOL     OW14911   0.856   3.097   6.526
 4671SOL    HW114912   0.900   3.113   6.615
 4671SOL    HW214913   0.922   3.110   6.453
 4672SOL     OW14914   2.915   4.978   6.592
 4672SOL    HW114915   2.975   4.899   6.606
 4672SOL    HW214916   2.964   5.048   6.540
 4673SOL     OW14917   5.015   0.186   1.242
 4673SOL    HW114918   4.922   0.214   1.262
 4673SOL    HW214919   5.071   0.192   1.324
 4674SOL     OW14920   5.173   1.445   6.974
 4674SOL    HW114921   5.125   1.480   6.893
 4674SOL    HW214922   5.108   1.398   0.016
 4675SOL     OW14923   3.197   1.110   0.553
 4675SOL    HW114924   3.204   1.121   0.454
 4675SOL    HW214925   3.210   1.013   0.577
 4676SOL     OW14926   0.009   6.604   4.119
 4676SOL    HW114927   0.035   6.533   4.184
 4676SOL    HW214928   0.068   6.684   4.132
 4677SOL     OW14929   2.926   0.977   0.192
 4677SOL    HW114930   2.867   1.011   0.119
 4677SOL    HW214931   2.926   0.877   0.190
 4678SOL     OW14932   2.185   4.641   2.497
 4678SOL    HW114933   2.164   4.623   2.594
 4678SOL    HW214934   2.284   4.645   2.485
 4679SOL     OW14935   3.877   1.247   0.137
 4679SOL    HW114936   3.957   1.258   0.196
 4679SOL    HW214937   3.799   1.294   0.177
 4680SOL     OW14938   1.842   0.434   2.212
 4680SOL    HW114939   1.882   0.433   2.121
 4680SOL    HW214940   1.758   0.487   2.212
 4681SOL     OW14941   6.002   5.343   5.854
 4681SOL    HW114942   5.914   5.385   5.830
 4681SOL    HW214943   6.056   5.407   5.908
 4682SOL     OW14944   4.235   4.001   6.198
 4682SOL    HW114945   4.302   4.073   6.219
 4682SOL    HW214946   4.150   4.021   6.247
 4683SOL     OW14947   4.654   4.661   2.407
 4683SOL    HW114948   4.676   4.575   2.452
 4683SOL    HW214949   4.555   4.675   2.410
 4684SOL     OW14950   6.834   1.755   4.292
 4684SOL    HW114951   6.884   1.731   4.375
 4684SOL    HW214952   6.759   1.817   4.315
 4685SOL     OW14953   0.204   6.303   5.294
 4685SOL    HW114954   0.242   6.218   5.256
 4685SOL    HW214955   0.242   6.381   5.246
 4686SOL     OW14956   5.406   5.623   0.457
 4686SOL    HW114957   5.358   5.708   0.477
 4686SOL    HW214958   5.478   5.640   0.390
 4687SOL     OW14959   6.946   4.829   5.399
 4687SOL    HW114960   6.929   4.890   5.322
 4687SOL    HW214961   6.973   4.739   5.365
 4688SOL     OW14962   6.480   3.360   5.396
 4688SOL    HW114963   6.538   3.371   5.477
 4688SOL    HW214964   6.519   3.289   5.337
 4689SOL     OW14965   6.311   0.355   0.027
 4689SOL    HW114966   6.255   0.357   6.961
 4689SOL    HW214967   6.319   0.447   0.064
 4690SOL     OW14968   1.448   0.858   6.993
 4690SOL    HW114969   1.403   0.947   6.996
 4690SOL    HW214970   1.387   0.789   0.015
 4691SOL     OW14971   3.113   4.894   2.137
 4691SOL    HW114972   3.026   4.892   2.186
 4691SOL    HW214973   3.184   4.854   2.194
 4692SOL     OW14974   6.614   5.932   2.378
 4692SOL    HW114975   6.567   5.923   2.466
 4692SOL    HW214976   6.645   5.842   2.348
 4693SOL     OW14977   0.721   0.990   3.520
 4693SOL    HW114978   0.704   0.899   3.483
 4693SOL    HW214979   0.639   1.025   3.564
 4694SOL     OW14980   3.218   0.779   0.345
 4694SOL    HW114981   3.294   0.717   0.324
 4694SOL    HW214982   3.245   0.873   0.325
 4695SOL     OW14983   2.690   3.108   1.726
 4695SOL    HW114984   2.609   3.151   1.684
 4695SOL    HW214985   2.675   3.010   1.734
 4696SOL     OW14986   0.359   4.396   5.655
 4696SOL    HW114987   0.384   4.334   5.581
 4696SOL    HW214988   0.360   4.490   5.621
 4697SOL     OW14989   2.026   2.815   0.952
 4697SOL    HW114990   2.038   2.853   0.860
 4697SOL    HW214991   2.030   2.715   0.947
 4698SOL     OW14992   3.556   5.926   2.794
 4698SOL    HW114993   3.461   5.898   2.807
 4698SOL    HW214994   3.613   5.889   2.868
 4699SOL     OW14995   0.881   6.049   2.184
 4699SOL    HW114996   0.971   6.088   2.163
 4699SOL    HW214997   0.811   6.097   2.132
 4700SOL     OW14998   6.548   1.639   2.702
 4700SOL    HW114999   6.597   1.674   2.622
 4700SOL    HW215000   6.538   1.540   2.693
 4701SOL     OW15001   2.061   1.881   1.348
 4701SOL    HW115002   1.989   1.848   1.409
 4701SOL    HW215003   2.024   1.952   1.288
 4702SOL     OW15004   5.868   4.613   6.582
 4702SOL    HW115005   5.941   4.560   6.539
 4702SOL    HW215006   5.839   4.568   6.666
 4703SOL     OW15007   1.395   2.734   1.905
 4703SOL    HW115008   1.436   2.752   1.816
 4703SOL    HW215009   1.305   2.693   1.893
 4704SOL     OW15010   1.378   6.720   6.961
 4704SOL    HW115011   1.443   6.645   6.971
 4704SOL    HW215012   1.325   6.706   6.877
 4705SOL     OW15013   3.660   3.264   2.536
 4705SOL    HW115014   3.710   3.223   2.459
 4705SOL    HW215015   3.669   3.205   2.617
 4706SOL     OW15016   3.558   6.584   6.414
 4706SOL    HW115017   3.579   6.594   6.511
 4706SOL    HW215018   3.459   6.589   6.400
 4707SOL     OW15019   2.360   5.728   0.701
 4707SOL    HW115020   2.326   5.735   0.795
 4707SOL    HW215021   2.458   5.745   0.700
 4708SOL     OW15022   1.629   2.625   6.574
 4708SOL    HW115023   1.556   2.661   6.516
 4708SOL    HW215024   1.634   2.679   6.658
 4709SOL     OW15025   4.094   5.520   5.172
 4709SOL    HW115026   4.060   5.552   5.084
 4709SOL    HW215027   4.191   5.498   5.165
 4710SOL     OW15028   3.886   1.331   5.943
 4710SOL    HW115029   3.891   1.294   6.035
 4710SOL    HW215030   3.820   1.406   5.941
 4711SOL     OW15031   5.472   0.637   1.783
 4711SOL    HW115032   5.553   0.675   1.828
 4711SOL    HW215033   5.425   0.574   1.846
 4712SOL     OW15034   3.093   4.167   0.289
 4712SOL    HW115035   3.155   4.203   0.220
 4712SOL    HW215036   3.061   4.076   0.261
 4713SOL     OW15037   3.100   4.064   1.281
 4713SOL    HW115038   3.184   4.033   1.324
 4713SOL    HW215039   3.057   3.987   1.233
 4714SOL     OW15040   1.618   2.427   0.228
 4714SOL    HW115041   1.699   2.461   0.180
 4714SOL    HW215042   1.580   2.348   0.179
 4715SOL     OW15043   6.605   3.020   1.853
 4715SOL    HW115044   6.610   2.960   1.773
 4715SOL    HW215045   6.685   3.004   1.911
 4716SOL     OW15046   4.175   5.980   6.218
 4716SOL    HW115047   4.094   5.957   6.271
 4716SOL    HW215048   4.163   5.948   6.124
 4717SOL     OW15049   0.238   6.912   3.384
 4717SOL    HW115050   0.142   6.908   3.357
 4717SOL    HW215051   0.266   7.008   3.391
 4718SOL     OW15052   5.325   2.109   6.690
 4718SOL    HW115053   5.234   2.100   6.731
 4718SOL    HW215054   5.333   2.199   6.648
 4719SOL     OW15055   5.121   3.260   2.427
 4719SOL    HW115056   5.144   3.348   2.468
 4719SOL    HW215057   5.183   3.242   2.351
 4720SOL     OW15058   1.923   6.056   5.632
 4720SOL    HW115059   1.888   5.991   5.565
 4720SOL    HW215060   2.019   6.035   5.652
 4721SOL     OW15061   6.743   2.544   0.903
 4721SOL    HW115062   6.794   2.531   0.818
 4721SOL    HW215063   6.766   2.470   0.967
 4722SOL     OW15064   1.071   5.382   6.824
 4722SOL    HW115065   1.159   5.404   6.782
 4722SOL    HW215066   1.002   5.447   6.793
 4723SOL     OW15067   2.077   4.706   6.034
 4723SOL    HW115068   2.034   4.672   6.117
 4723SOL    HW215069   2.013   4.699   5.957
 4724SOL     OW15070   4.819   5.877   2.915
 4724SOL    HW115071   4.749   5.873   2.986
 4724SOL    HW215072   4.875   5.959   2.928
 4725SOL     OW15073   6.580   6.494   2.299
 4725SOL    HW115074   6.668   6.540   2.295
 4725SOL    HW215075   6.537   6.511   2.388
 4726SOL     OW15076   2.311   3.265   6.366
 4726SOL    HW115077   2.378   3.197   6.338
 4726SOL    HW215078   2.236   3.268   6.300
 4727SOL     OW15079   0.387   6.411   6.748
 4727SOL    HW115080   0.482   6.407   6.717
 4727SOL    HW215081   0.352   6.504   6.735
 4728SOL     OW15082   5.102   0.586   0.290
 4728SOL    HW115083   5.103   0.665   0.352
 4728SOL    HW215084   5.154   0.511   0.331
 4729SOL     OW15085   2.614   1.472   1.802
 4729SOL    HW115086   2.536   1.409   1.809
 4729SOL    HW215087   2.611   1.536   1.879
 4730SOL     OW15088   2.690   5.544   5.124
 4730SOL    HW115089   2.638   5.583   5.048
 4730SOL    HW215090   2.774   5.596   5.137
 4731SOL     OW15091   4.192   0.283   6.022
 4731SOL    HW115092   4.106   0.236   6.040
 4731SOL    HW215093   4.240   0.300   6.108
 4732SOL     OW15094   0.286   3.947   5.548
 4732SOL    HW115095   0.339   3.975   5.468
 4732SOL    HW215096   0.339   3.963   5.631
 4733SOL     OW15097   1.313   4.209   3.540
 4733SOL    HW115098   1.290   4.133   3.600
 4733SOL    HW215099   1.246   4.282   3.551
 4734SOL     OW15100   5.188   2.855   6.716
 4734SOL    HW115101   5.144   2.838   6.804
 4734SOL    HW215102   5.178   2.776   6.656
 4735SOL     OW15103   1.192   5.854   4.091
 4735SOL    HW115104   1.188   5.891   4.184
 4735SOL    HW215105   1.279   5.808   4.077
 4736SOL     OW15106   0.154   1.651   6.081
 4736SOL    HW115107   0.168   1.556   6.051
 4736SOL    HW215108   0.110   1.651   6.171
 4737SOL     OW15109   1.171   4.742   2.412
 4737SOL    HW115110   1.125   4.797   2.482
 4737SOL    HW215111   1.233   4.677   2.456
 4738SOL     OW15112   6.995   5.770   2.923
 4738SOL    HW115113   6.897   5.779   2.936
 4738SOL    HW215114   0.026   5.807   3.002
 4739SOL     OW15115   4.924   6.662   3.356
 4739SOL    HW115116   4.902   6.650   3.260
 4739SOL    HW215117   4.892   6.583   3.408
 4740SOL     OW15118   0.504   1.567   0.792
 4740SOL    HW115119   0.494   1.547   0.695
 4740SOL    HW215120   0.491   1.483   0.845
 4741SOL     OW15121   3.470   3.101   1.447
 4741SOL    HW115122   3.544   3.036   1.466
 4741SOL    HW215123   3.487   3.185   1.499
 4742SOL     OW15124   2.410   6.436   5.146
 4742SOL    HW115125   2.353   6.354   5.137
 4742SOL    HW215126   2.357   6.516   5.119
 4743SOL     OW15127   2.281   4.186   3.150
 4743SOL    HW115128   2.230   4.100   3.153
 4743SOL    HW215129   2.324   4.197   3.060
 4744SOL     OW15130   2.146   4.996   0.969
 4744SOL    HW115131   2.144   5.041   1.059
 4744SOL    HW215132   2.128   4.898   0.981
 4745SOL     OW15133   3.161   4.504   6.467
 4745SOL    HW115134   3.193   4.416   6.431
 4745SOL    HW215135   3.202   4.521   6.557
 4746SOL     OW15136   4.365   6.694   3.893
 4746SOL    HW115137   4.404   6.750   3.966
 4746SOL    HW215138   4.351   6.601   3.926
 4747SOL     OW15139   0.975   3.724   0.358
 4747SOL    HW115140   0.930   3.808   0.328
 4747SOL    HW215141   0.978   3.722   0.458
 4748SOL     OW15142   1.759   5.791   1.078
 4748SOL    HW115143   1.766   5.802   1.177
 4748SOL    HW215144   1.730   5.877   1.037
 4749SOL     OW15145   1.998   6.314   6.534
 4749SOL    HW115146   2.021   6.312   6.631
 4749SOL    HW215147   2.040   6.395   6.492
 4750SOL     OW15148   6.816   3.390   5.138
 4750SOL    HW115149   6.845   3.393   5.042
 4750SOL    HW215150   6.866   3.460   5.190
 4751SOL     OW15151   4.529   2.541   2.837
 4751SOL    HW115152   4.591   2.616   2.812
 4751SOL    HW215153   4.507   2.487   2.755
 4752SOL     OW15154   4.534   0.973   0.074
 4752SOL    HW115155   4.471   1.039   0.035
 4752SOL    HW215156   4.586   0.929   0.001
 4753SOL     OW15157   0.585   0.493   3.847
 4753SOL    HW115158   0.570   0.431   3.924
 4753SOL    HW215159   0.498   0.520   3.807
 4754SOL     OW15160   5.251   3.833   4.729
 4754SOL    HW115161   5.323   3.831   4.660
 4754SOL    HW215162   5.229   3.739   4.756
 4755SOL     OW15163   2.995   1.298   0.367
 4755SOL    HW115164   3.005   1.324   0.463
 4755SOL    HW215165   2.900   1.270   0.349
 4756SOL     OW15166   5.597   3.666   5.698
 4756SOL    HW115167   5.604   3.568   5.684
 4756SOL    HW215168   5.657   3.694   5.774
 4757SOL     OW15169   2.229   1.967   1.537
 4757SOL    HW115170   2.188   1.919   1.460
 4757SOL    HW215171   2.157   1.998   1.599
 4758SOL     OW15172   1.640   6.471   2.840
 4758SOL    HW115173   1.689   6.550   2.878
 4758SOL    HW215174   1.648   6.394   2.903
 4759SOL     OW15175   0.927   4.747   6.193
 4759SOL    HW115176   0.980   4.812   6.138
 4759SOL    HW215177   0.931   4.773   6.289
 4760SOL     OW15178   2.504   1.591   0.408
 4760SOL    HW115179   2.544   1.671   0.452
 4760SOL    HW215180   2.441   1.619   0.336
 4761SOL     OW15181   1.337   0.352   0.667
 4761SOL    HW115182   1.259   0.344   0.728
 4761SOL    HW215183   1.419   0.372   0.721
 4762SOL     OW15184   1.322   5.741   2.665
 4762SOL    HW115185   1.287   5.697   2.748
 4762SOL    HW215186   1.246   5.787   2.618
 4763SOL     OW15187   5.605   0.673   2.594
 4763SOL    HW115188   5.569   0.581   2.575
 4763SOL    HW215189   5.537   0.741   2.568
 4764SOL     OW15190   4.451   3.535   5.302
 4764SOL    HW115191   4.523   3.553   5.235
 4764SOL    HW215192   4.367   3.509   5.255
 4765SOL     OW15193   3.579   0.851   5.291
 4765SOL    HW115194   3.568   0.837   5.192
 4765SOL    HW215195   3.636   0.932   5.307
 4766SOL     OW15196   6.146   5.941   4.285
 4766SOL    HW115197   6.175   5.866   4.344
 4766SOL    HW215198   6.046   5.943   4.281
 4767SOL     OW15199   3.308   4.776   5.193
 4767SOL    HW115200   3.260   4.690   5.213
 4767SOL    HW215201   3.264   4.820   5.115
 4768SOL     OW15202   3.486   2.739   6.068
 4768SOL    HW115203   3.428   2.777   6.140
 4768SOL    HW215204   3.467   2.642   6.057
 4769SOL     OW15205   4.774   5.757   0.542
 4769SOL    HW115206   4.734   5.849   0.540
 4769SOL    HW215207   4.708   5.694   0.584
 4770SOL     OW15208   0.512   2.249   4.346
 4770SOL    HW115209   0.579   2.201   4.402
 4770SOL    HW215210   0.494   2.339   4.386
 4771SOL     OW15211   3.003   6.584   6.413
 4771SOL    HW115212   3.017   6.495   6.369
 4771SOL    HW215213   2.933   6.575   6.483
 4772SOL     OW15214   3.630   4.676   0.404
 4772SOL    HW115215   3.698   4.699   0.474
 4772SOL    HW215216   3.642   4.736   0.325
 4773SOL     OW15217   0.465   5.391   5.635
 4773SOL    HW115218   0.562   5.372   5.617
 4773SOL    HW215219   0.433   5.462   5.572
 4774SOL     OW15220   1.718   3.741   1.248
 4774SOL    HW115221   1.679   3.649   1.239
 4774SOL    HW215222   1.657   3.798   1.302
 4775SOL     OW15223   5.118   6.172   3.335
 4775SOL    HW115224   5.044   6.137   3.392
 4775SOL    HW215225   5.141   6.265   3.364
 4776SOL     OW15226   0.852   1.184   4.980
 4776SOL    HW115227   0.829   1.213   4.887
 4776SOL    HW215228   0.951   1.182   4.991
 4777SOL     OW15229   1.801   5.352   0.903
 4777SOL    HW115230   1.832   5.430   0.850
 4777SOL    HW215231   1.733   5.381   0.970
 4778SOL     OW15232   0.201   2.589   4.540
 4778SOL    HW115233   0.194   2.680   4.501
 4778SOL    HW215234   0.230   2.595   4.635
 4779SOL     OW15235   5.197   0.202   3.396
 4779SOL    HW115236   5.226   0.110   3.368
 4779SOL    HW215237   5.156   0.249   3.318
 4780SOL     OW15238   6.017   2.595   6.726
 4780SOL    HW115239   5.996   2.542   6.643
 4780SOL    HW215240   6.022   2.692   6.703
 4781SOL     OW15241   2.766   5.278   1.789
 4781SOL    HW115242   2.667   5.270   1.807
 4781SOL    HW215243   2.812   5.311   1.872
 4782SOL     OW15244   6.020   5.790   6.461
 4782SOL    HW115245   6.064   5.704   6.435
 4782SOL    HW215246   5.938   5.770   6.515
 4783SOL     OW15247   5.536   3.363   6.866
 4783SOL    HW115248   5.557   3.446   6.814
 4783SOL    HW215249   5.607   3.294   6.849
 4784SOL     OW15250   6.205   2.336   6.412
 4784SOL    HW115251   6.292   2.379   6.388
 4784SOL    HW215252   6.196   2.332   6.511
 4785SOL     OW15253   0.117   6.234   2.741
 4785SOL    HW115254   0.180   6.281   2.802
 4785SOL    HW215255   0.025   6.235   2.780
 4786SOL     OW15256   2.560   0.083   0.064
 4786SOL    HW115257   2.652   0.042   0.062
 4786SOL    HW215258   2.566   0.176   0.102
 4787SOL     OW15259   3.503   1.795   3.158
 4787SOL    HW115260   3.503   1.876   3.217
 4787SOL    HW215261   3.432   1.731   3.189
 4788SOL     OW15262   0.016   5.953   0.976
 4788SOL    HW115263   6.951   5.986   0.929
 4788SOL    HW215264   0.071   5.899   0.912
 4789SOL     OW15265   5.206   1.764   1.513
 4789SOL    HW115266   5.153   1.765   1.598
 4789SOL    HW215267   5.204   1.673   1.473
 4790SOL     OW15268   5.786   1.793   5.765
 4790SOL    HW115269   5.770   1.788   5.666
 4790SOL    HW215270   5.880   1.822   5.782
 4791SOL     OW15271   0.217   2.843   1.663
 4791SOL    HW115272   0.271   2.761   1.682
 4791SOL    HW215273   0.131   2.839   1.714
 4792SOL     OW15274   2.354   4.411   4.614
 4792SOL    HW115275   2.348   4.381   4.709
 4792SOL    HW215276   2.339   4.332   4.554
 4793SOL     OW15277   1.860   3.870   5.256
 4793SOL    HW115278   1.860   3.863   5.156
 4793SOL    HW215279   1.927   3.806   5.294
 4794SOL     OW15280   4.471   6.858   4.634
 4794SOL    HW115281   4.538   6.788   4.607
 4794SOL    HW215282   4.391   6.813   4.673
 4795SOL     OW15283   6.784   1.216   4.196
 4795SOL    HW115284   6.834   1.303   4.193
 4795SOL    HW215285   6.736   1.209   4.284
 4796SOL     OW15286   4.320   0.488   6.220
 4796SOL    HW115287   4.307   0.456   6.314
 4796SOL    HW215288   4.250   0.556   6.198
 4797SOL     OW15289   0.567   6.569   4.267
 4797SOL    HW115290   0.530   6.621   4.190
 4797SOL    HW215291   0.652   6.611   4.298
 4798SOL     OW15292   6.898   5.106   5.657
 4798SOL    HW115293   6.810   5.072   5.689
 4798SOL    HW215294   6.972   5.065   5.711
 4799SOL     OW15295   4.607   1.293   0.823
 4799SOL    HW115296   4.701   1.288   0.789
 4799SOL    HW215297   4.544   1.280   0.746
 4800SOL     OW15298   1.574   4.192   6.757
 4800SOL    HW115299   1.529   4.125   6.815
 4800SOL    HW215300   1.534   4.190   6.665
 4801SOL     OW15301   3.180   2.469   6.742
 4801SOL    HW115302   3.225   2.551   6.705
 4801SOL    HW215303   3.184   2.471   6.842
 4802SOL     OW15304   0.321   6.574   1.585
 4802SOL    HW115305   0.335   6.596   1.489
 4802SOL    HW215306   0.229   6.602   1.613
 4803SOL     OW15307   6.987   3.999   0.843
 4803SOL    HW115308   6.973   4.087   0.890
 4803SOL    HW215309   0.039   3.946   0.892
 4804SOL     OW15310   0.005   6.742   1.248
 4804SOL    HW115311   6.990   6.689   1.327
 4804SOL    HW215312   0.082   6.693   1.205
 4805SOL     OW15313   6.392   1.318   2.276
 4805SOL    HW115314   6.486   1.343   2.298
 4805SOL    HW215315   6.335   1.400   2.275
 4806SOL     OW15316   0.864   4.010   2.935
 4806SOL    HW115317   0.789   3.959   2.976
 4806SOL    HW215318   0.854   4.107   2.955
 4807SOL     OW15319   0.597   4.412   6.139
 4807SOL    HW115320   0.697   4.411   6.147
 4807SOL    HW215321   0.561   4.321   6.159
 4808SOL     OW15322   4.219   5.457   0.926
 4808SOL    HW115323   4.201   5.511   0.844
 4808SOL    HW215324   4.318   5.447   0.938
 4809SOL     OW15325   3.853   4.879   1.218
 4809SOL    HW115326   3.852   4.910   1.313
 4809SOL    HW215327   3.824   4.783   1.214
 4810SOL     OW15328   1.680   4.332   3.267
 4810SOL    HW115329   1.752   4.353   3.201
 4810SOL    HW215330   1.698   4.380   3.352
 4811SOL     OW15331   3.775   3.482   2.839
 4811SOL    HW115332   3.764   3.461   2.742
 4811SOL    HW215333   3.821   3.570   2.850
 4812SOL     OW15334   0.640   0.779   2.379
 4812SOL    HW115335   0.579   0.855   2.402
 4812SOL    HW215336   0.588   0.707   2.333
 4813SOL     OW15337   5.947   1.811   6.759
 4813SOL    HW115338   5.935   1.715   6.737
 4813SOL    HW215339   5.895   1.868   6.695
 4814SOL     OW15340   6.834   3.248   1.696
 4814SOL    HW115341   6.902   3.319   1.714
 4814SOL    HW215342   6.879   3.159   1.690
 4815SOL     OW15343   5.492   4.306   2.939
 4815SOL    HW115344   5.421   4.290   3.008
 4815SOL    HW215345   5.504   4.404   2.926
 4816SOL     OW15346   1.998   5.570   1.410
 4816SOL    HW115347   1.986   5.529   1.320
 4816SOL    HW215348   2.089   5.613   1.416
 4817SOL     OW15349   2.674   0.841   1.469
 4817SOL    HW115350   2.680   0.923   1.412
 4817SOL    HW215351   2.747   0.843   1.538
 4818SOL     OW15352   0.801   1.506   3.910
 4818SOL    HW115353   0.830   1.438   3.977
 4818SOL    HW215354   0.731   1.466   3.850
 4819SOL     OW15355   2.554   2.533   1.599
 4819SOL    HW115356   2.579   2.497   1.689
 4819SOL    HW215357   2.592   2.473   1.528
 4820SOL     OW15358   6.737   1.910   0.196
 4820SOL    HW115359   6.696   1.913   0.105
 4820SOL    HW215360   6.825   1.957   0.195
 4821SOL     OW15361   6.997   0.259   1.181
 4821SOL    HW115362   6.913   0.267   1.235
 4821SOL    HW215363   0.058   0.289   1.236
 4822SOL     OW15364   1.900   3.066   3.716
 4822SOL    HW115365   1.983   3.097   3.762
 4822SOL    HW215366   1.918   2.981   3.667
 4823SOL     OW15367   0.350   1.806   4.188
 4823SOL    HW115368   0.391   1.814   4.097
 4823SOL    HW215369   0.337   1.897   4.227
 4824SOL     OW15370   5.693   1.999   4.129
 4824SOL    HW115371   5.643   2.051   4.198
 4824SOL    HW215372   5.713   1.907   4.164
 4825SOL     OW15373   2.032   2.868   4.344
 4825SOL    HW115374   2.121   2.894   4.381
 4825SOL    HW215375   2.039   2.779   4.299
 4826SOL     OW15376   0.333   0.468   6.476
 4826SOL    HW115377   0.306   0.380   6.437
 4826SOL    HW215378   0.251   0.525   6.489
 4827SOL     OW15379   5.822   1.268   1.393
 4827SOL    HW115380   5.736   1.234   1.433
 4827SOL    HW215381   5.825   1.367   1.401
 4828SOL     OW15382   5.794   2.936   0.901
 4828SOL    HW115383   5.719   3.003   0.904
 4828SOL    HW215384   5.777   2.865   0.969
 4829SOL     OW15385   3.937   6.513   6.932
 4829SOL    HW115386   3.986   6.507   0.002
 4829SOL    HW215387   3.840   6.527   6.948
 4830SOL     OW15388   5.362   6.192   3.616
 4830SOL    HW115389   5.438   6.249   3.646
 4830SOL    HW215390   5.285   6.204   3.680
 4831SOL     OW15391   6.891   5.150   6.089
 4831SOL    HW115392   6.860   5.185   6.177
 4831SOL    HW215393   6.889   5.224   6.021
 4832SOL     OW15394   2.429   2.685   5.520
 4832SOL    HW115395   2.523   2.653   5.508
 4832SOL    HW215396   2.403   2.741   5.441
 4833SOL     OW15397   5.019   1.115   2.804
 4833SOL    HW115398   5.025   1.016   2.793
 4833SOL    HW215399   5.107   1.156   2.784
 4834SOL     OW15400   3.825   0.725   0.517
 4834SOL    HW115401   3.771   0.655   0.563
 4834SOL    HW215402   3.859   0.791   0.584
 4835SOL     OW15403   1.031   1.308   6.298
 4835SOL    HW115404   1.019   1.210   6.313
 4835SOL    HW215405   0.981   1.335   6.215
 4836SOL     OW15406   4.903   3.420   3.624
 4836SOL    HW115407   4.932   3.353   3.556
 4836SOL    HW215408   4.979   3.483   3.642
 4837SOL     OW15409   4.714   3.272   1.455
 4837SOL    HW115410   4.806   3.285   1.419
 4837SOL    HW215411   4.714   3.198   1.521
 4838SOL     OW15412   1.510   5.165   1.971
 4838SOL    HW115413   1.567   5.092   1.934
 4838SOL    HW215414   1.522   5.247   1.916
 4839SOL     OW15415   1.328   3.514   5.508
 4839SOL    HW115416   1.413   3.561   5.532
 4839SOL    HW215417   1.265   3.579   5.466
 4840SOL     OW15418   0.931   6.531   5.314
 4840SOL    HW115419   0.957   6.574   5.400
 4840SOL    HW215420   0.860   6.585   5.269
 4841SOL     OW15421   2.752   6.043   1.569
 4841SOL    HW115422   2.847   6.044   1.537
 4841SOL    HW215423   2.694   5.997   1.502
 4842SOL     OW15424   3.279   4.783   1.913
 4842SOL    HW115425   3.228   4.830   1.984
 4842SOL    HW215426   3.373   4.768   1.943
 4843SOL     OW15427   6.073   3.494   0.489
 4843SOL    HW115428   6.088   3.415   0.430
 4843SOL    HW215429   6.079   3.578   0.435
 4844SOL     OW15430   6.572   3.470   5.806
 4844SOL    HW115431   6.612   3.436   5.721
 4844SOL    HW215432   6.612   3.422   5.884
 4845SOL     OW15433   6.709   5.883   4.538
 4845SOL    HW115434   6.625   5.922   4.574
 4845SOL    HW215435   6.693   5.788   4.509
 4846SOL     OW15436   6.862   3.444   3.383
 4846SOL    HW115437   6.788   3.507   3.361
 4846SOL    HW215438   6.898   3.403   3.299
 4847SOL     OW15439   3.535   1.284   5.502
 4847SOL    HW115440   3.620   1.321   5.538
 4847SOL    HW215441   3.502   1.211   5.562
 4848SOL     OW15442   1.334   1.024   3.862
 4848SOL    HW115443   1.251   0.969   3.848
 4848SOL    HW215444   1.317   1.118   3.833
 4849SOL     OW15445   1.115   6.360   6.241
 4849SOL    HW115446   1.209   6.395   6.237
 4849SOL    HW215447   1.104   6.286   6.175
 4850SOL     OW15448   4.041   1.361   2.767
 4850SOL    HW115449   4.139   1.358   2.783
 4850SOL    HW215450   4.014   1.455   2.743
 4851SOL     OW15451   3.907   6.009   5.010
 4851SOL    HW115452   3.810   5.999   5.034
 4851SOL    HW215453   3.914   6.048   4.918
 4852SOL     OW15454   0.831   0.422   5.415
 4852SOL    HW115455   0.763   0.377   5.356
 4852SOL    HW215456   0.803   0.414   5.510
 4853SOL     OW15457   2.948   1.230   2.994
 4853SOL    HW115458   2.852   1.257   3.003
 4853SOL    HW215459   2.998   1.302   2.945
 4854SOL     OW15460   5.439   0.151   2.545
 4854SOL    HW115461   5.348   0.110   2.554
 4854SOL    HW215462   5.480   0.160   2.636
 4855SOL     OW15463   5.991   2.734   2.527
 4855SOL    HW115464   5.979   2.833   2.516
 4855SOL    HW215465   5.940   2.703   2.607
 4856SOL     OW15466   1.805   4.129   2.510
 4856SOL    HW115467   1.818   4.106   2.607
 4856SOL    HW215468   1.797   4.045   2.456
 4857SOL     OW15469   1.778   2.687   5.980
 4857SOL    HW115470   1.764   2.762   5.915
 4857SOL    HW215471   1.814   2.607   5.933
 4858SOL     OW15472   1.039   1.512   4.751
 4858SOL    HW115473   0.960   1.552   4.703
 4858SOL    HW215474   1.020   1.417   4.773
 4859SOL     OW15475   1.532   0.848   4.391
 4859SOL    HW115476   1.579   0.820   4.307
 4859SOL    HW215477   1.506   0.767   4.443
 4860SOL     OW15478   4.016   4.715   1.742
 4860SOL    HW115479   3.943   4.649   1.723
 4860SOL    HW215480   4.053   4.749   1.656
 4861SOL     OW15481   5.228   4.491   0.192
 4861SOL    HW115482   5.154   4.469   0.129
 4861SOL    HW215483   5.275   4.407   0.219
 4862SOL     OW15484   2.907   4.847   4.893
 4862SOL    HW115485   2.859   4.776   4.944
 4862SOL    HW215486   2.897   4.934   4.941
 4863SOL     OW15487   6.106   4.178   2.305
 4863SOL    HW115488   6.112   4.236   2.224
 4863SOL    HW215489   6.124   4.083   2.279
 4864SOL     OW15490   3.870   1.315   3.275
 4864SOL    HW115491   3.851   1.217   3.283
 4864SOL    HW215492   3.877   1.340   3.179
 4865SOL     OW15493   2.284   0.749   5.448
 4865SOL    HW115494   2.267   0.846   5.431
 4865SOL    HW215495   2.233   0.719   5.528
 4866SOL     OW15496   0.053   2.170   0.760
 4866SOL    HW115497   0.142   2.178   0.804
 4866SOL    HW215498   0.011   2.260   0.753
 4867SOL     OW15499   3.896   4.819   3.030
 4867SOL    HW115500   3.961   4.770   3.089
 4867SOL    HW215501   3.946   4.878   2.967
 4868SOL     OW15502   6.532   5.081   2.514
 4868SOL    HW115503   6.443   5.123   2.496
 4868SOL    HW215504   6.544   5.001   2.456
 4869SOL     OW15505   1.450   1.706   2.167
 4869SOL    HW115506   1.523   1.773   2.180
 4869SOL    HW215507   1.379   1.720   2.237
 4870SOL     OW15508   0.750   6.237   1.668
 4870SOL    HW115509   0.683   6.310   1.661
 4870SOL    HW215510   0.758   6.190   1.580
 4871SOL     OW15511   1.585   0.948   3.847
 4871SOL    HW115512   1.596   0.882   3.773
 4871SOL    HW215513   1.488   0.974   3.854
 4872SOL     OW15514   6.158   0.094   3.681
 4872SOL    HW115515   6.154   7.012   3.692
 4872SOL    HW215516   6.206   0.116   3.596
 4873SOL     OW15517   6.403   5.243   4.331
 4873SOL    HW115518   6.381   5.227   4.427
 4873SOL    HW215519   6.390   5.339   4.309
 4874SOL     OW15520   6.160   3.875   2.223
 4874SOL    HW115521   6.126   3.787   2.255
 4874SOL    HW215522   6.150   3.882   2.124
 4875SOL     OW15523   5.796   1.777   0.727
 4875SOL    HW115524   5.741   1.752   0.647
 4875SOL    HW215525   5.839   1.866   0.712
 4876SOL     OW15526   6.104   2.379   3.025
 4876SOL    HW115527   6.193   2.339   3.045
 4876SOL    HW215528   6.044   2.310   2.984
 4877SOL     OW15529   1.433   2.041   5.983
 4877SOL    HW115530   1.460   1.964   6.040
 4877SOL    HW215531   1.439   2.015   5.886
 4878SOL     OW15532   6.156   0.768   1.940
 4878SOL    HW115533   6.085   0.822   1.894
 4878SOL    HW215534   6.120   0.678   1.964
 4879SOL     OW15535   4.625   1.368   2.905
 4879SOL    HW115536   4.636   1.450   2.962
 4879SOL    HW215537   4.528   1.353   2.888
 4880SOL     OW15538   5.312   2.966   0.062
 4880SOL    HW115539   5.224   2.993   0.022
 4880SOL    HW215540   5.382   2.962   7.009
 4881SOL     OW15541   1.394   1.404   6.867
 4881SOL    HW115542   1.338   1.483   6.841
 4881SOL    HW215543   1.410   1.347   6.787
 4882SOL     OW15544   4.720   0.350   4.631
 4882SOL    HW115545   4.708   0.250   4.638
 4882SOL    HW215546   4.646   0.388   4.577
 4883SOL     OW15547   5.135   4.640   1.416
 4883SOL    HW115548   5.221   4.671   1.377
 4883SOL    HW215549   5.084   4.588   1.347
 4884SOL     OW15550   3.028   6.275   1.646
 4884SOL    HW115551   3.067   6.185   1.625
 4884SOL    HW215552   3.018   6.327   1.561
 4885SOL     OW15553   2.077   5.285   1.415
 4885SOL    HW115554   2.065   5.257   1.510
 4885SOL    HW215555   2.016   5.362   1.395
 4886SOL     OW15556   1.430   5.917   1.536
 4886SOL    HW115557   1.520   5.928   1.578
 4886SOL    HW215558   1.423   5.979   1.458
 4887SOL     OW15559   0.539   6.997   1.439
 4887SOL    HW115560   0.488   0.064   1.453
 4887SOL    HW215561   0.550   6.949   1.526
 4888SOL     OW15562   3.023   0.278   4.555
 4888SOL    HW115563   2.934   0.235   4.542
 4888SOL    HW215564   3.021   0.337   4.635
 4889SOL     OW15565   6.706   1.586   5.273
 4889SOL    HW115566   6.637   1.613   5.207
 4889SOL    HW215567   6.744   1.497   5.248
 4890SOL     OW15568   0.142   0.974   5.783
 4890SOL    HW115569   0.197   1.012   5.858
 4890SOL    HW215570   0.198   0.968   5.700
 4891SOL     OW15571   1.739   4.706   0.232
 4891SOL    HW115572   1.745   4.805   0.217
 4891SOL    HW215573   1.820   4.676   0.282
 4892SOL     OW15574   3.295   5.565   2.282
 4892SOL    HW115575   3.375   5.505   2.288
 4892SOL    HW215576   3.304   5.639   2.348
 4893SOL     OW15577   6.507   2.569   1.701
 4893SOL    HW115578   6.579   2.501   1.693
 4893SOL    HW215579   6.425   2.536   1.654
 4894SOL     OW15580   3.228   0.623   2.800
 4894SOL    HW115581   3.157   0.652   2.863
 4894SOL    HW215582   3.256   0.700   2.743
 4895SOL     OW15583   0.784   5.256   4.391
 4895SOL    HW115584   0.786   5.276   4.293
 4895SOL    HW215585   0.690   5.238   4.420
 4896SOL     OW15586   1.979   4.375   1.812
 4896SOL    HW115587   1.953   4.464   1.848
 4896SOL    HW215588   2.044   4.331   1.875
 4897SOL     OW15589   1.883   4.528   5.733
 4897SOL    HW115590   1.946   4.452   5.718
 4897SOL    HW215591   1.896   4.597   5.661
 4898SOL     OW15592   4.369   0.622   4.574
 4898SOL    HW115593   4.406   0.628   4.667
 4898SOL    HW215594   4.322   0.708   4.552
 4899SOL     OW15595   5.555   5.647   2.859
 4899SOL    HW115596   5.549   5.710   2.782
 4899SOL    HW215597   5.526   5.695   2.943
 4900SOL     OW15598   2.955   6.078   5.303
 4900SOL    HW115599   3.045   6.057   5.342
 4900SOL    HW215600   2.903   6.135   5.367
 4901SOL     OW15601   2.805   1.262   5.367
 4901SOL    HW115602   2.865   1.343   5.366
 4901SOL    HW215603   2.860   1.180   5.349
 4902SOL     OW15604   1.923   2.075   5.148
 4902SOL    HW115605   1.950   1.995   5.202
 4902SOL    HW215606   1.832   2.059   5.109
 4903SOL     OW15607   3.731   5.755   0.406
 4903SOL    HW115608   3.717   5.806   0.321
 4903SOL    HW215609   3.660   5.780   0.472
 4904SOL     OW15610   2.482   0.514   5.156
 4904SOL    HW115611   2.578   0.502   5.178
 4904SOL    HW215612   2.473   0.577   5.079
 4905SOL     OW15613   3.378   0.768   3.214
 4905SOL    HW115614   3.392   0.864   3.191
 4905SOL    HW215615   3.419   0.710   3.144
 4906SOL     OW15616   5.261   1.625   6.620
 4906SOL    HW115617   5.314   1.568   6.682
 4906SOL    HW215618   5.300   1.717   6.618
 4907SOL     OW15619   4.127   6.644   1.991
 4907SOL    HW115620   4.129   6.550   1.955
 4907SOL    HW215621   4.128   6.641   2.091
 4908SOL     OW15622   6.029   6.282   0.376
 4908SOL    HW115623   5.969   6.252   0.302
 4908SOL    HW215624   5.980   6.276   0.463
 4909SOL     OW15625   0.329   6.537   3.846
 4909SOL    HW115626   0.242   6.492   3.863
 4909SOL    HW215627   0.349   6.537   3.748
 4910SOL     OW15628   4.987   1.147   4.688
 4910SOL    HW115629   5.033   1.229   4.721
 4910SOL    HW215630   5.047   1.098   4.624
 4911SOL     OW15631   1.678   4.072   3.196
 4911SOL    HW115632   1.742   4.025   3.257
 4911SOL    HW215633   1.682   4.170   3.211
 4912SOL     OW15634   5.598   1.012   5.778
 4912SOL    HW115635   5.589   1.111   5.782
 4912SOL    HW215636   5.563   0.978   5.690
 4913SOL     OW15637   3.877   3.217   5.220
 4913SOL    HW115638   3.894   3.315   5.216
 4913SOL    HW215639   3.847   3.184   5.130
 4914SOL     OW15640   3.762   6.983   5.056
 4914SOL    HW115641   3.704   6.903   5.044
 4914SOL    HW215642   3.756   0.023   4.975
 4915SOL     OW15643   3.060   5.941   5.702
 4915SOL    HW115644   3.101   6.032   5.705
 4915SOL    HW215645   2.980   5.938   5.763
 4916SOL     OW15646   1.298   0.400   4.018
 4916SOL    HW115647   1.229   0.464   4.051
 4916SOL    HW215648   1.269   0.362   3.930
 4917SOL     OW15649   2.303   5.410   1.283
 4917SOL    HW115650   2.388   5.376   1.323
 4917SOL    HW215651   2.226   5.385   1.343
 4918SOL     OW15652   5.058   6.329   2.379
 4918SOL    HW115653   5.078   6.237   2.347
 4918SOL    HW215654   4.959   6.341   2.385
 4919SOL     OW15655   3.637   2.375   0.760
 4919SOL    HW115656   3.630   2.470   0.793
 4919SOL    HW215657   3.546   2.343   0.733
 4920SOL     OW15658   5.317   7.007   4.588
 4920SOL    HW115659   5.227   0.028   4.565
 4920SOL    HW215660   5.307   6.945   4.666
 4921SOL     OW15661   0.783   5.082   0.370
 4921SOL    HW115662   0.763   5.174   0.404
 4921SOL    HW215663   0.856   5.087   0.302
 4922SOL     OW15664   2.867   2.116   4.964
 4922SOL    HW115665   2.802   2.164   5.023
 4922SOL    HW215666   2.955   2.108   5.011
 4923SOL     OW15667   3.679   1.537   2.443
 4923SOL    HW115668   3.653   1.634   2.439
 4923SOL    HW215669   3.652   1.492   2.358
 4924SOL     OW15670   3.694   1.252   4.904
 4924SOL    HW115671   3.704   1.201   4.819
 4924SOL    HW215672   3.647   1.338   4.885
 4925SOL     OW15673   6.278   6.886   2.257
 4925SOL    HW115674   6.216   6.845   2.325
 4925SOL    HW215675   6.336   6.814   2.218
 4926SOL     OW15676   5.204   1.001   0.777
 4926SOL    HW115677   5.212   0.902   0.790
 4926SOL    HW215678   5.109   1.024   0.757
 4927SOL     OW15679   3.310   3.797   4.678
 4927SOL    HW115680   3.341   3.822   4.770
 4927SOL    HW215681   3.234   3.732   4.685
 4928SOL     OW15682   1.920   7.007   6.876
 4928SOL    HW115683   1.997   0.024   6.824
 4928SOL    HW215684   1.922   0.028   6.968
 4929SOL     OW15685   6.562   6.923   4.662
 4929SOL    HW115686   6.475   6.967   4.681
 4929SOL    HW215687   6.547   6.841   4.607
 4930SOL     OW15688   5.673   0.950   2.898
 4930SOL    HW115689   5.650   1.002   2.816
 4930SOL    HW215690   5.654   1.006   2.979
 4931SOL     OW15691   6.923   6.974   0.883
 4931SOL    HW115692   6.993   0.015   0.842
 4931SOL    HW215693   6.837   0.008   0.887
 4932SOL     OW15694   3.733   3.081   1.780
 4932SOL    HW115695   3.801   3.092   1.707
 4932SOL    HW215696   3.710   2.985   1.789
 4933SOL     OW15697   2.209   6.446   2.201
 4933SOL    HW115698   2.293   6.487   2.167
 4933SOL    HW215699   2.162   6.511   2.261
 4934SOL     OW15700   3.054   5.522   3.173
 4934SOL    HW115701   3.013   5.463   3.104
 4934SOL    HW215702   3.000   5.606   3.180
 4935SOL     OW15703   1.547   1.951   6.427
 4935SOL    HW115704   1.500   1.975   6.512
 4935SOL    HW215705   1.630   1.898   6.448
 4936SOL     OW15706   2.994   5.095   1.334
 4936SOL    HW115707   3.070   5.155   1.311
 4936SOL    HW215708   2.983   5.025   1.264
 4937SOL     OW15709   5.620   3.136   6.071
 4937SOL    HW115710   5.693   3.106   6.009
 4937SOL    HW215711   5.632   3.233   6.092
 4938SOL     OW15712   1.893   4.998   5.737
 4938SOL    HW115713   1.914   4.999   5.835
 4938SOL    HW215714   1.832   4.922   5.716
 4939SOL     OW15715   5.785   2.343   4.610
 4939SOL    HW115716   5.827   2.352   4.520
 4939SOL    HW215717   5.715   2.272   4.608
 4940SOL     OW15718   0.413   1.233   4.746
 4940SOL    HW115719   0.350   1.211   4.671
 4940SOL    HW215720   0.450   1.148   4.784
 4941SOL     OW15721   4.608   1.884   5.956
 4941SOL    HW115722   4.685   1.947   5.961
 4941SOL    HW215723   4.591   1.860   5.860
 4942SOL     OW15724   4.968   2.637   5.832
 4942SOL    HW115725   4.996   2.571   5.762
 4942SOL    HW215726   4.975   2.594   5.922
 4943SOL     OW15727   4.565   3.490   6.878
 4943SOL    HW115728   4.579   3.394   6.853
 4943SOL    HW215729   4.654   3.537   6.877
 4944SOL     OW15730   2.135   4.243   1.999
 4944SOL    HW115731   2.221   4.256   1.950
 4944SOL    HW215732   2.107   4.147   1.991
 4945SOL     OW15733   0.805   1.131   3.869
 4945SOL    HW115734   0.862   1.100   3.945
 4945SOL    HW215735   0.831   1.082   3.786
 4946SOL     OW15736   0.598   3.295   0.489
 4946SOL    HW115737   0.521   3.271   0.548
 4946SOL    HW215738   0.565   3.331   0.403
 4947SOL     OW15739   2.063   1.119   1.576
 4947SOL    HW115740   2.062   1.027   1.536
 4947SOL    HW215741   2.156   1.155   1.574
 4948SOL     OW15742   1.924   1.578   2.612
 4948SOL    HW115743   1.971   1.500   2.572
 4948SOL    HW215744   1.894   1.555   2.705
 4949SOL     OW15745   4.333   6.419   6.728
 4949SOL    HW115746   4.349   6.354   6.654
 4949SOL    HW215747   4.235   6.441   6.733
 4950SOL     OW15748   3.074   5.279   4.356
 4950SOL    HW115749   3.103   5.231   4.273
 4950SOL    HW215750   3.008   5.223   4.405
 4951SOL     OW15751   5.081   1.399   4.760
 4951SOL    HW115752   5.125   1.453   4.688
 4951SOL    HW215753   5.073   1.453   4.843
 4952SOL     OW15754   7.011   0.809   5.018
 4952SOL    HW115755   0.046   0.856   4.948
 4952SOL    HW215756   0.050   0.797   5.100
 4953SOL     OW15757   2.032   6.422   1.983
 4953SOL    HW115758   1.944   6.466   1.996
 4953SOL    HW215759   2.092   6.444   2.059
 4954SOL     OW15760   4.256   3.956   6.630
 4954SOL    HW115761   4.210   4.029   6.579
 4954SOL    HW215762   4.190   3.884   6.652
 4955SOL     OW15763   2.658   6.320   6.718
 4955SOL    HW115764   2.602   6.398   6.746
 4955SOL    HW215765   2.599   6.241   6.702
 4956SOL     OW15766   2.661   6.633   5.174
 4956SOL    HW115767   2.630   6.702   5.109
 4956SOL    HW215768   2.643   6.542   5.138
 4957SOL     OW15769   6.572   2.003   2.541
 4957SOL    HW115770   6.491   1.947   2.523
 4957SOL    HW215771   6.653   1.957   2.503
 4958SOL     OW15772   6.700   5.977   5.176
 4958SOL    HW115773   6.797   5.954   5.186
 4958SOL    HW215774   6.648   5.935   5.251
 4959SOL     OW15775   6.611   1.909   6.708
 4959SOL    HW115776   6.687   1.960   6.667
 4959SOL    HW215777   6.555   1.869   6.636
 4960SOL     OW15778   3.358   5.656   3.492
 4960SOL    HW115779   3.352   5.743   3.443
 4960SOL    HW215780   3.454   5.628   3.498
 4961SOL     OW15781   4.791   1.612   5.739
 4961SOL    HW115782   4.729   1.613   5.660
 4961SOL    HW215783   4.827   1.703   5.755
 4962SOL     OW15784   6.294   2.878   0.811
 4962SOL    HW115785   6.195   2.870   0.825
 4962SOL    HW215786   6.342   2.828   0.883
 4963SOL     OW15787   6.613   5.773   6.823
 4963SOL    HW115788   6.660   5.831   6.756
 4963SOL    HW215789   6.545   5.716   6.776
 4964SOL     OW15790   3.635   0.113   3.796
 4964SOL    HW115791   3.562   0.176   3.824
 4964SOL    HW215792   3.595   0.026   3.767
 4965SOL     OW15793   0.115   0.577   3.423
 4965SOL    HW115794   0.085   0.553   3.516
 4965SOL    HW215795   0.126   0.494   3.369
 4966SOL     OW15796   2.093   0.401   5.466
 4966SOL    HW115797   2.083   0.497   5.495
 4966SOL    HW215798   2.190   0.376   5.465
 4967SOL     OW15799   4.105   3.270   5.946
 4967SOL    HW115800   4.196   3.244   5.980
 4967SOL    HW215801   4.099   3.370   5.943
 4968SOL     OW15802   5.357   2.540   3.481
 4968SOL    HW115803   5.417   2.582   3.413
 4968SOL    HW215804   5.317   2.456   3.444
 4969SOL     OW15805   2.171   0.964   2.301
 4969SOL    HW115806   2.114   0.980   2.220
 4969SOL    HW215807   2.266   0.983   2.279
 4970SOL     OW15808   1.664   2.233   4.305
 4970SOL    HW115809   1.606   2.312   4.325
 4970SOL    HW215810   1.638   2.157   4.364
 4971SOL     OW15811   5.949   5.936   3.279
 4971SOL    HW115812   5.859   5.969   3.251
 4971SOL    HW215813   5.939   5.850   3.329
 4972SOL     OW15814   1.767   3.185   0.235
 4972SOL    HW115815   1.843   3.123   0.217
 4972SOL    HW215816   1.684   3.150   0.192
 4973SOL     OW15817   0.265   0.553   2.145
 4973SOL    HW115818   0.173   0.587   2.166
 4973SOL    HW215819   0.267   0.454   2.159
 4974SOL     OW15820   5.989   4.734   1.296
 4974SOL    HW115821   5.981   4.766   1.390
 4974SOL    HW215822   5.905   4.757   1.246
 4975SOL     OW15823   5.412   5.367   6.089
 4975SOL    HW115824   5.444   5.453   6.129
 4975SOL    HW215825   5.416   5.295   6.158
 4976SOL     OW15826   3.031   6.907   5.037
 4976SOL    HW115827   3.073   6.980   5.092
 4976SOL    HW215828   2.966   6.947   4.972
 4977SOL     OW15829   4.787   4.067   0.397
 4977SOL    HW115830   4.828   4.092   0.309
 4977SOL    HW215831   4.759   4.151   0.445
 4978SOL     OW15832   6.467   3.770   5.320
 4978SOL    HW115833   6.527   3.711   5.375
 4978SOL    HW215834   6.418   3.714   5.254
 4979SOL     OW15835   0.427   0.860   5.101
 4979SOL    HW115836   0.347   0.812   5.138
 4979SOL    HW215837   0.498   0.794   5.078
 4980SOL     OW15838   4.592   6.702   3.431
 4980SOL    HW115839   4.595   6.681   3.528
 4980SOL    HW215840   4.683   6.689   3.391
 4981SOL     OW15841   4.945   5.309   6.235
 4981SOL    HW115842   4.853   5.278   6.213
 4981SOL    HW215843   5.003   5.230   6.255
 4982SOL     OW15844   1.925   2.223   6.902
 4982SOL    HW115845   1.923   2.253   6.807
 4982SOL    HW215846   1.978   2.138   6.909
 4983SOL     OW15847   5.344   2.556   4.300
 4983SOL    HW115848   5.262   2.505   4.273
 4983SOL    HW215849   5.332   2.595   4.390
 4984SOL     OW15850   5.964   3.933   4.389
 4984SOL    HW115851   5.946   4.025   4.426
 4984SOL    HW215852   6.062   3.920   4.379
 4985SOL     OW15853   5.951   6.373   3.117
 4985SOL    HW115854   6.047   6.390   3.093
 4985SOL    HW215855   5.894   6.444   3.076
 4986SOL     OW15856   6.253   4.263   2.910
 4986SOL    HW115857   6.156   4.252   2.928
 4986SOL    HW215858   6.303   4.184   2.946
 4987SOL     OW15859   1.056   1.718   1.046
 4987SOL    HW115860   1.052   1.629   1.002
 4987SOL    HW215861   1.097   1.785   0.984
 4988SOL     OW15862   6.066   1.762   3.773
 4988SOL    HW115863   6.112   1.850   3.765
 4988SOL    HW215864   6.132   1.689   3.756
 4989SOL     OW15865   5.143   0.477   1.281
 4989SOL    HW115866   5.047   0.506   1.282
 4989SOL    HW215867   5.148   0.381   1.256
 4990SOL     OW15868   1.551   1.523   5.611
 4990SOL    HW115869   1.633   1.493   5.661
 4990SOL    HW215870   1.470   1.506   5.668
 4991SOL     OW15871   0.521   3.687   4.203
 4991SOL    HW115872   0.492   3.739   4.122
 4991SOL    HW215873   0.565   3.602   4.174
 4992SOL     OW15874   4.735   0.769   4.574
 4992SOL    HW115875   4.655   0.804   4.526
 4992SOL    HW215876   4.742   0.812   4.664
 4993SOL     OW15877   3.764   5.135   4.233
 4993SOL    HW115878   3.670   5.169   4.223
 4993SOL    HW215879   3.775   5.053   4.178
 4994SOL     OW15880   1.339   0.545   2.638
 4994SOL    HW115881   1.368   0.639   2.619
 4994SOL    HW215882   1.383   0.483   2.573
 4995SOL     OW15883   6.757   2.611   6.166
 4995SOL    HW115884   6.659   2.629   6.172
 4995SOL    HW215885   6.782   2.542   6.234
 4996SOL     OW15886   1.576   1.170   2.713
 4996SOL    HW115887   1.482   1.205   2.720
 4996SOL    HW215888   1.640   1.246   2.714
 4997SOL     OW15889   6.105   1.975   3.118
 4997SOL    HW115890   6.160   2.037   3.062
 4997SOL    HW215891   6.155   1.889   3.132
 4998SOL     OW15892   2.154   3.579   5.183
 4998SOL    HW115893   2.171   3.609   5.278
 4998SOL    HW215894   2.061   3.603   5.157
 4999SOL     OW15895   5.514   5.034   0.989
 4999SOL    HW115896   5.609   5.050   1.013
 4999SOL    HW215897   5.492   4.937   1.001
 5000SOL     OW15898   1.573   0.377   4.330
 5000SOL    HW115899   1.595   0.365   4.233
 5000SOL    HW215900   1.639   0.325   4.386
 5001SOL     OW15901   1.645   4.669   6.454
 5001SOL    HW115902   1.657   4.579   6.496
 5001SOL    HW215903   1.689   4.738   6.512
 5002SOL     OW15904   1.604   3.006   2.589
 5002SOL    HW115905   1.557   2.922   2.561
 5002SOL    HW215906   1.549   3.085   2.563
 5003SOL     OW15907   2.350   6.724   2.890
 5003SOL    HW115908   2.252   6.704   2.891
 5003SOL    HW215909   2.397   6.655   2.835
 5004SOL     OW15910   3.049   4.756   5.762
 5004SOL    HW115911   3.113   4.681   5.778
 5004SOL    HW215912   3.029   4.762   5.664
 5005SOL     OW15913   3.494   2.540   1.082
 5005SOL    HW115914   3.410   2.545   1.027
 5005SOL    HW215915   3.557   2.612   1.053
 5006SOL     OW15916   5.387   6.386   6.833
 5006SOL    HW115917   5.401   6.483   6.817
 5006SOL    HW215918   5.476   6.340   6.840
 5007SOL     OW15919   1.962   0.379   6.574
 5007SOL    HW115920   2.033   0.398   6.507
 5007SOL    HW215921   1.914   0.464   6.597
 5008SOL     OW15922   6.310   0.549   3.181
 5008SOL    HW115923   6.381   0.554   3.112
 5008SOL    HW215924   6.254   0.467   3.167
 5009SOL     OW15925   1.871   6.318   1.792
 5009SOL    HW115926   1.948   6.336   1.854
 5009SOL    HW215927   1.906   6.306   1.699
 5010SOL     OW15928   3.134   3.068   3.218
 5010SOL    HW115929   3.188   3.060   3.302
 5010SOL    HW215930   3.189   3.038   3.140
 5011SOL     OW15931   1.913   3.355   2.201
 5011SOL    HW115932   1.870   3.281   2.252
 5011SOL    HW215933   1.991   3.320   2.150
 5012SOL     OW15934   4.700   3.354   5.736
 5012SOL    HW115935   4.718   3.452   5.739
 5012SOL    HW215936   4.601   3.338   5.736
 5013SOL     OW15937   5.115   1.872   6.968
 5013SOL    HW115938   5.203   1.917   6.952
 5013SOL    HW215939   5.074   1.908   0.034
 5014SOL     OW15940   5.649   4.315   0.523
 5014SOL    HW115941   5.743   4.287   0.541
 5014SOL    HW215942   5.586   4.242   0.549
 5015SOL     OW15943   4.567   1.955   4.104
 5015SOL    HW115944   4.647   1.973   4.162
 5015SOL    HW215945   4.535   2.041   4.064
 5016SOL     OW15946   2.636   1.590   1.058
 5016SOL    HW115947   2.566   1.609   1.127
 5016SOL    HW215948   2.712   1.653   1.068
 5017SOL     OW15949   1.944   2.531   0.271
 5017SOL    HW115950   1.906   2.463   0.208
 5017SOL    HW215951   1.992   2.484   0.345
 5018SOL     OW15952   0.711   4.350   1.414
 5018SOL    HW115953   0.717   4.448   1.398
 5018SOL    HW215954   0.755   4.301   1.338
 5019SOL     OW15955   2.267   4.334   0.387
 5019SOL    HW115956   2.276   4.314   0.289
 5019SOL    HW215957   2.352   4.313   0.433
 5020SOL     OW15958   4.711   6.625   6.078
 5020SOL    HW115959   4.645   6.558   6.112
 5020SOL    HW215960   4.801   6.582   6.068
 5021SOL     OW15961   1.637   2.041   5.681
 5021SOL    HW115962   1.734   2.015   5.681
 5021SOL    HW215963   1.582   1.963   5.713
 5022SOL     OW15964   2.074   0.328   0.521
 5022SOL    HW115965   2.053   0.312   0.424
 5022SOL    HW215966   1.990   0.343   0.572
 5023SOL     OW15967   6.637   2.623   1.343
 5023SOL    HW115968   6.625   2.718   1.317
 5023SOL    HW215969   6.724   2.612   1.391
 5024SOL     OW15970   6.905   4.422   3.044
 5024SOL    HW115971   6.885   4.435   2.947
 5024SOL    HW215972   6.878   4.504   3.095
 5025SOL     OW15973   4.359   2.130   1.935
 5025SOL    HW115974   4.348   2.095   1.842
 5025SOL    HW215975   4.274   2.118   1.986
 5026SOL     OW15976   5.838   5.638   6.641
 5026SOL    HW115977   5.842   5.698   6.721
 5026SOL    HW215978   5.882   5.551   6.662
 5027SOL     OW15979   0.230   0.264   2.071
 5027SOL    HW115980   0.256   0.199   2.143
 5027SOL    HW215981   0.306   0.275   2.007
 5028SOL     OW15982   0.315   0.122   2.764
 5028SOL    HW115983   0.302   0.116   2.665
 5028SOL    HW215984   0.388   0.186   2.784
 5029SOL     OW15985   6.361   3.534   4.060
 5029SOL    HW115986   6.396   3.594   4.132
 5029SOL    HW215987   6.415   3.450   4.058
 5030SOL     OW15988   6.966   0.137   6.960
 5030SOL    HW115989   7.007   0.206   6.900
 5030SOL    HW215990   6.922   0.066   6.904
 5031SOL     OW15991   5.458   0.905   4.710
 5031SOL    HW115992   5.439   0.823   4.657
 5031SOL    HW215993   5.553   0.933   4.696
 5032SOL     OW15994   1.310   4.030   1.423
 5032SOL    HW115995   1.217   4.013   1.388
 5032SOL    HW215996   1.308   4.105   1.489
 5033SOL     OW15997   1.448   4.554   6.761
 5033SOL    HW115998   1.376   4.493   6.728
 5033SOL    HW215999   1.537   4.510   6.750
 5034SOL     OW16000   6.745   2.821   2.928
 5034SOL    HW116001   6.771   2.913   2.957
 5034SOL    HW216002   6.818   2.757   2.954
 5035SOL     OW16003   6.189   4.276   0.798
 5035SOL    HW116004   6.236   4.188   0.802
 5035SOL    HW216005   6.093   4.264   0.824
 5036SOL     OW16006   0.034   5.002   0.105
 5036SOL    HW116007   0.126   4.997   0.144
 5036SOL    HW216008   6.991   4.940   0.155
 5037SOL     OW16009   4.816   2.181   2.508
 5037SOL    HW116010   4.718   2.163   2.500
 5037SOL    HW216011   4.861   2.103   2.551
 5038SOL     OW16012   1.888   5.249   5.580
 5038SOL    HW116013   1.889   5.184   5.656
 5038SOL    HW216014   1.976   5.297   5.577
 5039SOL     OW16015   2.040   3.738   5.418
 5039SOL    HW116016   2.078   3.828   5.398
 5039SOL    HW216017   2.109   3.681   5.462
 5040SOL     OW16018   2.093   4.415   6.183
 5040SOL    HW116019   2.153   4.490   6.212
 5040SOL    HW216020   2.133   4.370   6.103
 5041SOL     OW16021   1.495   3.181   1.378
 5041SOL    HW116022   1.509   3.130   1.463
 5041SOL    HW216023   1.457   3.271   1.399
 5042SOL     OW16024   0.177   3.080   6.752
 5042SOL    HW116025   0.230   3.005   6.794
 5042SOL    HW216026   0.090   3.090   6.800
 5043SOL     OW16027   3.318   1.074   5.596
 5043SOL    HW116028   3.331   1.137   5.672
 5043SOL    HW216029   3.272   0.992   5.627
 5044SOL     OW16030   5.960   0.186   2.863
 5044SOL    HW116031   6.043   0.134   2.884
 5044SOL    HW216032   5.969   0.279   2.899
 5045SOL     OW16033   5.437   2.644   6.961
 5045SOL    HW116034   5.465   2.586   6.884
 5045SOL    HW216035   5.372   2.713   6.930
 5046SOL     OW16036   3.850   4.006   4.876
 5046SOL    HW116037   3.779   3.941   4.851
 5046SOL    HW216038   3.928   3.958   4.916
 5047SOL     OW16039   6.853   2.272   2.414
 5047SOL    HW116040   6.757   2.252   2.396
 5047SOL    HW216041   6.897   2.306   2.331
 5048SOL     OW16042   0.003   2.158   1.080
 5048SOL    HW116043   0.040   2.128   0.992
 5048SOL    HW216044   6.945   2.222   1.064
 5049SOL     OW16045   0.129   1.634   4.171
 5049SOL    HW116046   0.210   1.683   4.202
 5049SOL    HW216047   0.151   1.537   4.162
 5050SOL     OW16048   1.119   1.335   2.127
 5050SOL    HW116049   1.154   1.428   2.114
 5050SOL    HW216050   1.083   1.326   2.220
 5051SOL     OW16051   4.422   3.587   0.486
 5051SOL    HW116052   4.356   3.660   0.472
 5051SOL    HW216053   4.476   3.606   0.568
 5052SOL     OW16054   2.769   4.764   5.948
 5052SOL    HW116055   2.703   4.786   5.877
 5052SOL    HW216056   2.749   4.817   6.030
 5053SOL     OW16057   1.843   3.923   3.418
 5053SOL    HW116058   1.797   3.855   3.475
 5053SOL    HW216059   1.942   3.909   3.422
 5054SOL     OW16060   3.704   5.465   4.803
 5054SOL    HW116061   3.776   5.417   4.753
 5054SOL    HW216062   3.616   5.451   4.757
 5055SOL     OW16063   0.397   1.135   5.092
 5055SOL    HW116064   0.458   1.161   5.018
 5055SOL    HW216065   0.400   1.036   5.106
 5056SOL     OW16066   6.261   4.263   0.325
 5056SOL    HW116067   6.213   4.175   0.325
 5056SOL    HW216068   6.357   4.249   0.301
 5057SOL     OW16069   0.819   5.867   3.726
 5057SOL    HW116070   0.801   5.824   3.638
 5057SOL    HW216071   0.886   5.941   3.714
 5058SOL     OW16072   2.351   4.068   6.250
 5058SOL    HW116073   2.396   3.991   6.295
 5058SOL    HW216074   2.395   4.084   6.161
 5059SOL     OW16075   5.422   3.303   4.095
 5059SOL    HW116076   5.344   3.358   4.066
 5059SOL    HW216077   5.416   3.212   4.054
 5060SOL     OW16078   0.032   2.384   5.388
 5060SOL    HW116079   0.113   2.369   5.445
 5060SOL    HW216080   7.008   2.471   5.411
 5061SOL     OW16081   3.121   3.079   3.819
 5061SOL    HW116082   3.057   3.007   3.793
 5061SOL    HW216083   3.105   3.160   3.762
 5062SOL     OW16084   5.635   1.411   2.257
 5062SOL    HW116085   5.688   1.492   2.284
 5062SOL    HW216086   5.680   1.367   2.178
 5063SOL     OW16087   0.826   5.951   1.815
 5063SOL    HW116088   0.782   5.964   1.727
 5063SOL    HW216089   0.865   6.037   1.847
 5064SOL     OW16090   5.246   5.046   1.364
 5064SOL    HW116091   5.154   5.023   1.397
 5064SOL    HW216092   5.297   4.962   1.346
 5065SOL     OW16093   1.711   1.345   2.974
 5065SOL    HW116094   1.756   1.257   2.961
 5065SOL    HW216095   1.614   1.336   2.955
 5066SOL     OW16096   2.865   4.247   1.700
 5066SOL    HW116097   2.898   4.252   1.606
 5066SOL    HW216098   2.845   4.339   1.733
 5067SOL     OW16099   4.401   1.137   2.765
 5067SOL    HW116100   4.329   1.068   2.767
 5067SOL    HW216101   4.362   1.227   2.783
 5068SOL     OW16102   3.310   5.624   0.330
 5068SOL    HW116103   3.296   5.672   0.416
 5068SOL    HW216104   3.359   5.539   0.346
 5069SOL     OW16105   2.147   3.027   6.140
 5069SOL    HW116106   2.099   3.085   6.074
 5069SOL    HW216107   2.099   2.940   6.149
 5070SOL     OW16108   5.599   4.592   4.959
 5070SOL    HW116109   5.589   4.555   4.867
 5070SOL    HW216110   5.635   4.686   4.954
 5071SOL     OW16111   4.158   2.248   3.405
 5071SOL    HW116112   4.163   2.253   3.505
 5071SOL    HW216113   4.249   2.266   3.367
 5072SOL     OW16114   1.580   1.267   1.652
 5072SOL    HW116115   1.532   1.247   1.737
 5072SOL    HW216116   1.679   1.259   1.667
 5073SOL     OW16117   1.669   5.070   1.095
 5073SOL    HW116118   1.759   5.039   1.064
 5073SOL    HW216119   1.598   5.028   1.037
 5074SOL     OW16120   4.122   2.292   1.849
 5074SOL    HW116121   4.185   2.342   1.909
 5074SOL    HW216122   4.060   2.357   1.805
 5075SOL     OW16123   1.102   2.270   6.996
 5075SOL    HW116124   1.041   2.349   6.987
 5075SOL    HW216125   1.131   2.240   6.905
 5076SOL     OW16126   5.833   7.016   0.548
 5076SOL    HW116127   5.924   7.000   0.508
 5076SOL    HW216128   5.800   0.089   0.522
 5077SOL     OW16129   0.352   3.612   5.744
 5077SOL    HW116130   0.416   3.537   5.760
 5077SOL    HW216131   0.303   3.633   5.830
 5078SOL     OW16132   0.469   1.154   4.312
 5078SOL    HW116133   0.458   1.213   4.232
 5078SOL    HW216134   0.556   1.105   4.306
 5079SOL     OW16135   2.219   2.874   5.258
 5079SOL    HW116136   2.296   2.916   5.209
 5079SOL    HW216137   2.202   2.925   5.342
 5080SOL     OW16138   5.393   5.680   5.702
 5080SOL    HW116139   5.294   5.695   5.702
 5080SOL    HW216140   5.427   5.680   5.608
 5081SOL     OW16141   2.994   4.671   6.048
 5081SOL    HW116142   3.071   4.697   5.990
 5081SOL    HW216143   2.908   4.699   6.004
 5082SOL     OW16144   5.507   0.273   0.439
 5082SOL    HW116145   5.409   0.253   0.436
 5082SOL    HW216146   5.549   0.250   0.351
 5083SOL     OW16147   3.190   0.554   1.816
 5083SOL    HW116148   3.190   0.469   1.764
 5083SOL    HW216149   3.102   0.564   1.864
 5084SOL     OW16150   0.918   5.109   3.969
 5084SOL    HW116151   0.831   5.143   4.003
 5084SOL    HW216152   0.904   5.061   3.883
 5085SOL     OW16153   0.170   2.830   5.412
 5085SOL    HW116154   0.268   2.811   5.417
 5085SOL    HW216155   0.138   2.813   5.318
 5086SOL     OW16156   1.079   4.422   2.958
 5086SOL    HW116157   1.088   4.405   3.056
 5086SOL    HW216158   1.164   4.463   2.924
 5087SOL     OW16159   0.144   5.445   1.308
 5087SOL    HW116160   0.208   5.384   1.263
 5087SOL    HW216161   0.194   5.516   1.357
 5088SOL     OW16162   5.159   6.952   3.176
 5088SOL    HW116163   5.157   6.883   3.104
 5088SOL    HW216164   5.206   0.016   3.142
 5089SOL     OW16165   5.914   4.656   4.213
 5089SOL    HW116166   5.973   4.737   4.215
 5089SOL    HW216167   5.953   4.590   4.148
 5090SOL     OW16168   1.945   1.842   2.341
 5090SOL    HW116169   2.004   1.917   2.311
 5090SOL    HW216170   1.968   1.818   2.435
 5091SOL     OW16171   6.735   0.910   1.531
 5091SOL    HW116172   6.733   0.828   1.588
 5091SOL    HW216173   6.645   0.924   1.489
 5092SOL     OW16174   3.464   3.154   3.806
 5092SOL    HW116175   3.527   3.084   3.772
 5092SOL    HW216176   3.372   3.114   3.816
 5093SOL     OW16177   3.545   1.203   1.122
 5093SOL    HW116178   3.598   1.260   1.059
 5093SOL    HW216179   3.451   1.195   1.088
 5094SOL     OW16180   2.298   6.150   6.459
 5094SOL    HW116181   2.345   6.190   6.380
 5094SOL    HW216182   2.208   6.117   6.431
 5095SOL     OW16183   0.181   2.289   3.083
 5095SOL    HW116184   0.120   2.316   3.157
 5095SOL    HW216185   0.260   2.241   3.120
 5096SOL     OW16186   4.687   4.792   6.654
 5096SOL    HW116187   4.681   4.692   6.646
 5096SOL    HW216188   4.750   4.827   6.585
 5097SOL     OW16189   0.471   6.656   7.004
 5097SOL    HW116190   0.425   6.654   6.914
 5097SOL    HW216191   0.440   6.579   0.041
 5098SOL     OW16192   3.019   1.147   2.097
 5098SOL    HW116193   3.082   1.135   2.174
 5098SOL    HW216194   3.014   1.244   2.074
 5099SOL     OW16195   0.781   6.623   1.737
 5099SOL    HW116196   0.706   6.557   1.743
 5099SOL    HW216197   0.823   6.633   1.827
 5100SOL     OW16198   3.232   5.411   4.531
 5100SOL    HW116199   3.156   5.376   4.475
 5100SOL    HW216200   3.309   5.347   4.526
 5101SOL     OW16201   4.298   0.084   5.844
 5101SOL    HW116202   4.372   0.144   5.876
 5101SOL    HW216203   4.210   0.131   5.855
 5102SOL     OW16204   5.589   6.142   4.272
 5102SOL    HW116205   5.595   6.238   4.245
 5102SOL    HW216206   5.652   6.125   4.348
 5103SOL     OW16207   0.471   1.477   4.135
 5103SOL    HW116208   0.478   1.467   4.035
 5103SOL    HW216209   0.499   1.569   4.161
 5104SOL     OW16210   2.779   6.732   1.957
 5104SOL    HW116211   2.681   6.723   1.939
 5104SOL    HW216212   2.806   6.664   2.026
 5105SOL     OW16213   3.173   3.024   0.173
 5105SOL    HW116214   3.218   3.017   0.263
 5105SOL    HW216215   3.243   3.021   0.101
 5106SOL     OW16216   4.407   1.315   1.646
 5106SOL    HW116217   4.382   1.395   1.591
 5106SOL    HW216218   4.492   1.276   1.611
 5107SOL     OW16219   4.672   2.502   1.586
 5107SOL    HW116220   4.621   2.417   1.598
 5107SOL    HW216221   4.753   2.485   1.530
 5108SOL     OW16222   4.036   3.800   4.996
 5108SOL    HW116223   4.120   3.804   5.051
 5108SOL    HW216224   4.043   3.724   4.931
 5109SOL     OW16225   1.030   2.059   0.561
 5109SOL    HW116226   0.968   2.016   0.495
 5109SOL    HW216227   1.099   2.113   0.513
 5110SOL     OW16228   0.636   0.459   6.256
 5110SOL    HW116229   0.615   0.550   6.290
 5110SOL    HW216230   0.715   0.463   6.195
 5111SOL     OW16231   1.693   0.758   4.175
 5111SOL    HW116232   1.767   0.818   4.141
 5111SOL    HW216233   1.655   0.706   4.099
 5112SOL     OW16234   0.934   0.485   2.836
 5112SOL    HW116235   1.023   0.504   2.794
 5112SOL    HW216236   0.893   0.571   2.866
 5113SOL     OW16237   1.312   5.481   1.258
 5113SOL    HW116238   1.391   5.519   1.307
 5113SOL    HW216239   1.343   5.435   1.175
 5114SOL     OW16240   3.950   6.953   6.816
 5114SOL    HW116241   4.025   6.913   6.764
 5114SOL    HW216242   3.863   6.935   6.769
 5115SOL     OW16243   1.350   5.071   2.982
 5115SOL    HW116244   1.416   5.038   3.050
 5115SOL    HW216245   1.341   5.170   2.989
 5116SOL     OW16246   1.089   6.295   0.618
 5116SOL    HW116247   0.991   6.303   0.604
 5116SOL    HW216248   1.108   6.267   0.712
 5117SOL     OW16249   0.775   3.982   4.092
 5117SOL    HW116250   0.873   3.996   4.078
 5117SOL    HW216251   0.729   4.071   4.098
 5118SOL     OW16252   5.326   0.820   6.995
 5118SOL    HW116253   5.302   0.774   6.909
 5118SOL    HW216254   5.424   0.839   6.997
 5119SOL     OW16255   4.620   1.132   2.599
 5119SOL    HW116256   4.554   1.159   2.668
 5119SOL    HW216257   4.633   1.206   2.533
 5120SOL     OW16258   4.097   6.725   5.120
 5120SOL    HW116259   4.189   6.740   5.158
 5120SOL    HW216260   4.105   6.699   5.024
 5121SOL     OW16261   3.491   2.843   6.946
 5121SOL    HW116262   3.432   2.902   6.891
 5121SOL    HW216263   3.547   2.785   6.887
 5122SOL     OW16264   3.217   6.021   3.568
 5122SOL    HW116265   3.191   6.115   3.546
 5122SOL    HW216266   3.180   5.996   3.657
 5123SOL     OW16267   5.076   1.834   4.536
 5123SOL    HW116268   5.097   1.931   4.524
 5123SOL    HW216269   4.984   1.815   4.501
 5124SOL     OW16270   1.557   6.022   4.888
 5124SOL    HW116271   1.521   6.102   4.841
 5124SOL    HW216272   1.567   6.042   4.985
 5125SOL     OW16273   6.527   2.868   3.446
 5125SOL    HW116274   6.532   2.773   3.416
 5125SOL    HW216275   6.613   2.893   3.492
 5126SOL     OW16276   6.806   5.920   6.597
 5126SOL    HW116277   6.886   5.940   6.542
 5126SOL    HW216278   6.746   5.857   6.548
 5127SOL     OW16279   7.004   4.009   0.066
 5127SOL    HW116280   6.906   4.012   0.087
 5127SOL    HW216281   0.006   3.932   0.006
 5128SOL     OW16282   0.438   0.496   0.184
 5128SOL    HW116283   0.516   0.442   0.213
 5128SOL    HW216284   0.353   0.454   0.217
 5129SOL     OW16285   6.474   6.742   2.953
 5129SOL    HW116286   6.509   6.711   2.864
 5129SOL    HW216287   6.402   6.681   2.984
 5130SOL     OW16288   6.854   5.713   2.554
 5130SOL    HW116289   6.862   5.681   2.459
 5130SOL    HW216290   6.940   5.755   2.583
 5131SOL     OW16291   2.141   3.776   4.086
 5131SOL    HW116292   2.114   3.713   4.013
 5131SOL    HW216293   2.060   3.805   4.137
 5132SOL     OW16294   3.987   2.880   6.609
 5132SOL    HW116295   4.007   2.903   6.514
 5132SOL    HW216296   4.048   2.807   6.639
 5133SOL     OW16297   1.766   4.991   0.182
 5133SOL    HW116298   1.720   5.077   0.203
 5133SOL    HW216299   1.863   4.998   0.207
 5134SOL     OW16300   0.240   2.885   2.008
 5134SOL    HW116301   0.273   2.870   2.101
 5134SOL    HW216302   0.157   2.941   2.011
 5135SOL     OW16303   5.947   2.724   5.303
 5135SOL    HW116304   5.900   2.656   5.247
 5135SOL    HW216305   5.969   2.804   5.247
 5136SOL     OW16306   4.783   0.455   6.168
 5136SOL    HW116307   4.788   0.450   6.069
 5136SOL    HW216308   4.693   0.421   6.199
 5137SOL     OW16309   5.246   3.374   6.128
 5137SOL    HW116310   5.310   3.375   6.052
 5137SOL    HW216311   5.168   3.316   6.105
 5138SOL     OW16312   2.654   3.097   6.013
 5138SOL    HW116313   2.659   3.111   5.914
 5138SOL    HW216314   2.564   3.064   6.038
 5139SOL     OW16315   2.079   6.963   3.110
 5139SOL    HW116316   2.069   6.883   3.050
 5139SOL    HW216317   2.064   0.029   3.057
 5140SOL     OW16318   4.005   2.361   0.271
 5140SOL    HW116319   3.918   2.326   0.238
 5140SOL    HW216320   4.076   2.344   0.203
 5141SOL     OW16321   6.580   3.663   0.395
 5141SOL    HW116322   6.678   3.679   0.405
 5141SOL    HW216323   6.553   3.581   0.446
 5142SOL     OW16324   6.021   0.430   4.060
 5142SOL    HW116325   6.074   0.415   3.976
 5142SOL    HW216326   5.983   0.343   4.092
 5143SOL     OW16327   7.018   4.527   4.172
 5143SOL    HW116328   6.988   4.452   4.112
 5143SOL    HW216329   6.981   4.513   4.264
 5144SOL     OW16330   1.322   4.869   6.131
 5144SOL    HW116331   1.323   4.827   6.222
 5144SOL    HW216332   1.237   4.919   6.118
 5145SOL     OW16333   2.462   5.042   5.519
 5145SOL    HW116334   2.363   5.028   5.522
 5145SOL    HW216335   2.502   5.019   5.608
 5146SOL     OW16336   3.781   4.104   5.148
 5146SOL    HW116337   3.771   4.110   5.048
 5146SOL    HW216338   3.815   4.013   5.172
 5147SOL     OW16339   6.637   4.837   3.219
 5147SOL    HW116340   6.620   4.902   3.144
 5147SOL    HW216341   6.577   4.858   3.296
 5148SOL     OW16342   1.022   6.065   1.139
 5148SOL    HW116343   1.051   6.145   1.192
 5148SOL    HW216344   0.935   6.032   1.175
 5149SOL     OW16345   6.338   6.113   3.637
 5149SOL    HW116346   6.402   6.179   3.598
 5149SOL    HW216347   6.370   6.083   3.727
 5150SOL     OW16348   2.211   4.939   2.419
 5150SOL    HW116349   2.155   5.016   2.448
 5150SOL    HW216350   2.165   4.853   2.442
 5151SOL     OW16351   5.614   2.379   0.645
 5151SOL    HW116352   5.577   2.445   0.579
 5151SOL    HW216353   5.676   2.316   0.598
 5152SOL     OW16354   2.079   4.565   0.109
 5152SOL    HW116355   2.015   4.510   0.056
 5152SOL    HW216356   2.030   4.614   0.181
 5153SOL     OW16357   2.345   0.366   6.916
 5153SOL    HW116358   2.333   0.439   6.983
 5153SOL    HW216359   2.256   0.338   6.880
 5154SOL     OW16360   1.082   3.110   6.376
 5154SOL    HW116361   1.151   3.039   6.388
 5154SOL    HW216362   1.097   3.157   6.289
 5155SOL     OW16363   4.250   6.959   2.501
 5155SOL    HW116364   4.253   6.980   2.403
 5155SOL    HW216365   4.207   6.870   2.515
 5156SOL     OW16366   6.611   3.207   6.192
 5156SOL    HW116367   6.644   3.280   6.133
 5156SOL    HW216368   6.669   3.127   6.182
 5157SOL     OW16369   4.184   2.227   3.683
 5157SOL    HW116370   4.208   2.137   3.720
 5157SOL    HW216371   4.215   2.298   3.746
 5158SOL     OW16372   3.479   0.888   1.686
 5158SOL    HW116373   3.532   0.972   1.697
 5158SOL    HW216374   3.533   0.810   1.720
 5159SOL     OW16375   6.931   2.994   4.104
 5159SOL    HW116376   6.936   3.054   4.024
 5159SOL    HW216377   6.866   2.921   4.087
 5160SOL     OW16378   0.030   4.403   3.592
 5160SOL    HW116379   0.084   4.319   3.594
 5160SOL    HW216380   0.037   4.445   3.502
 5161SOL     OW16381   1.639   3.609   4.738
 5161SOL    HW116382   1.604   3.648   4.823
 5161SOL    HW216383   1.734   3.581   4.751
 5162SOL     OW16384   1.419   5.558   3.305
 5162SOL    HW116385   1.510   5.599   3.295
 5162SOL    HW216386   1.422   5.463   3.275
 5163SOL     OW16387   3.754   5.927   1.052
 5163SOL    HW116388   3.800   5.855   1.104
 5163SOL    HW216389   3.808   6.011   1.056
 5164SOL     OW16390   4.525   2.759   6.542
 5164SOL    HW116391   4.514   2.843   6.489
 5164SOL    HW216392   4.474   2.685   6.498
 5165SOL     OW16393   6.025   4.548   5.320
 5165SOL    HW116394   5.965   4.575   5.396
 5165SOL    HW216395   6.045   4.629   5.264
 5166SOL     OW16396   6.876   5.464   2.777
 5166SOL    HW116397   6.939   5.473   2.855
 5166SOL    HW216398   6.902   5.530   2.706
 5167SOL     OW16399   6.449   5.891   5.884
 5167SOL    HW116400   6.387   5.814   5.898
 5167SOL    HW216401   6.440   5.955   5.960
 5168SOL     OW16402   5.242   3.788   3.164
 5168SOL    HW116403   5.316   3.787   3.231
 5168SOL    HW216404   5.263   3.854   3.092
 5169SOL     OW16405   4.193   1.869   5.611
 5169SOL    HW116406   4.188   1.965   5.584
 5169SOL    HW216407   4.100   1.832   5.619
 5170SOL     OW16408   0.179   4.070   5.185
 5170SOL    HW116409   0.109   4.109   5.244
 5170SOL    HW216410   0.160   4.095   5.090
 5171SOL     OW16411   1.615   5.713   3.830
 5171SOL    HW116412   1.628   5.638   3.766
 5171SOL    HW216413   1.704   5.748   3.859
 5172SOL     OW16414   6.897   2.604   2.570
 5172SOL    HW116415   6.837   2.530   2.600
 5172SOL    HW216416   6.853   2.692   2.587
 5173SOL     OW16417   5.823   4.608   6.231
 5173SOL    HW116418   5.778   4.693   6.203
 5173SOL    HW216419   5.922   4.616   6.215
 5174SOL     OW16420   2.481   5.029   3.157
 5174SOL    HW116421   2.485   5.129   3.156
 5174SOL    HW216422   2.500   4.995   3.249
 5175SOL     OW16423   1.943   3.824   6.811
 5175SOL    HW116424   1.884   3.895   6.774
 5175SOL    HW216425   1.997   3.784   6.737
 5176SOL     OW16426   4.449   3.293   6.618
 5176SOL    HW116427   4.538   3.340   6.619
 5176SOL    HW216428   4.458   3.204   6.660
 5177SOL     OW16429   5.236   0.350   6.333
 5177SOL    HW116430   5.155   0.302   6.297
 5177SOL    HW216431   5.255   0.430   6.276
 5178SOL     OW16432   1.055   3.670   1.395
 5178SOL    HW116433   1.101   3.716   1.319
 5178SOL    HW216434   1.122   3.616   1.446
 5179SOL     OW16435   4.070   5.864   4.808
 5179SOL    HW116436   4.010   5.852   4.887
 5179SOL    HW216437   4.141   5.931   4.830
 5180SOL     OW16438   3.101   2.666   0.208
 5180SOL    HW116439   3.055   2.622   0.285
 5180SOL    HW216440   3.037   2.726   0.161
 5181SOL     OW16441   5.028   2.058   2.233
 5181SOL    HW116442   4.987   1.983   2.285
 5181SOL    HW216443   5.128   2.050   2.237
 5182SOL     OW16444   3.655   4.868   1.611
 5182SOL    HW116445   3.618   4.793   1.666
 5182SOL    HW216446   3.592   4.945   1.613
 5183SOL     OW16447   3.635   1.290   2.686
 5183SOL    HW116448   3.563   1.311   2.620
 5183SOL    HW216449   3.675   1.376   2.720
 5184SOL     OW16450   0.333   2.378   4.120
 5184SOL    HW116451   0.416   2.360   4.171
 5184SOL    HW216452   0.333   2.472   4.087
 5185SOL     OW16453   5.504   0.905   2.236
 5185SOL    HW116454   5.427   0.871   2.182
 5185SOL    HW216455   5.494   0.875   2.331
 5186SOL     OW16456   6.002   3.250   0.943
 5186SOL    HW116457   5.941   3.329   0.946
 5186SOL    HW216458   5.979   3.186   1.016
 5187SOL     OW16459   0.226   0.751   3.893
 5187SOL    HW116460   0.140   0.744   3.944
 5187SOL    HW216461   0.254   0.847   3.886
 5188SOL     OW16462   0.472   5.486   0.507
 5188SOL    HW116463   0.379   5.469   0.475
 5188SOL    HW216464   0.470   5.522   0.600
 5189SOL     OW16465   4.849   5.033   0.962
 5189SOL    HW116466   4.848   5.025   1.062
 5189SOL    HW216467   4.872   4.945   0.922
 5190SOL     OW16468   0.079   3.099   4.294
 5190SOL    HW116469   0.141   3.159   4.242
 5190SOL    HW216470   0.001   3.074   4.236
 5191SOL     OW16471   4.442   0.539   1.786
 5191SOL    HW116472   4.486   0.629   1.789
 5191SOL    HW216473   4.356   0.543   1.836
 5192SOL     OW16474   2.776   5.707   3.022
 5192SOL    HW116475   2.751   5.791   2.973
 5192SOL    HW216476   2.827   5.730   3.104
 5193SOL     OW16477   5.352   4.410   4.546
 5193SOL    HW116478   5.265   4.430   4.590
 5193SOL    HW216479   5.370   4.477   4.474
 5194SOL     OW16480   4.212   0.721   0.145
 5194SOL    HW116481   4.155   0.756   0.071
 5194SOL    HW216482   4.158   0.658   0.201
 5195SOL     OW16483   6.706   6.023   3.990
 5195SOL    HW116484   6.781   5.992   4.049
 5195SOL    HW216485   6.743   6.059   3.905
 5196SOL     OW16486   1.425   3.835   0.785
 5196SOL    HW116487   1.331   3.801   0.781
 5196SOL    HW216488   1.425   3.934   0.796
 5197SOL     OW16489   1.545   5.812   5.284
 5197SOL    HW116490   1.603   5.788   5.206
 5197SOL    HW216491   1.540   5.734   5.347
 5198SOL     OW16492   4.074   6.662   3.747
 5198SOL    HW116493   4.047   6.566   3.740
 5198SOL    HW216494   4.169   6.667   3.780
 5199SOL     OW16495   1.132   6.547   6.814
 5199SOL    HW116496   1.106   6.486   6.739
 5199SOL    HW216497   1.187   6.623   6.779
 5200SOL     OW16498   1.502   1.775   5.474
 5200SOL    HW116499   1.434   1.777   5.401
 5200SOL    HW216500   1.499   1.687   5.521
 5201SOL     OW16501   6.141   6.190   3.945
 5201SOL    HW116502   6.097   6.166   3.859
 5201SOL    HW216503   6.216   6.254   3.928
 5202SOL     OW16504   5.610   4.383   5.814
 5202SOL    HW116505   5.533   4.448   5.818
 5202SOL    HW216506   5.575   4.290   5.826
 5203SOL     OW16507   2.407   0.614   0.048
 5203SOL    HW116508   2.339   0.598   0.120
 5203SOL    HW216509   2.451   0.702   0.063
 5204SOL     OW16510   3.713   6.501   0.174
 5204SOL    HW116511   3.703   6.568   0.248
 5204SOL    HW216512   3.804   6.460   0.178
 5205SOL     OW16513   6.786   5.890   0.117
 5205SOL    HW116514   6.813   5.924   0.027
 5205SOL    HW216515   6.734   5.961   0.165
 5206SOL     OW16516   0.238   5.331   6.393
 5206SOL    HW116517   0.209   5.261   6.328
 5206SOL    HW216518   0.157   5.379   6.428
 5207SOL     OW16519   1.194   0.282   3.498
 5207SOL    HW116520   1.139   0.199   3.492
 5207SOL    HW216521   1.188   0.332   3.411
 5208SOL     OW16522   4.471   2.485   6.851
 5208SOL    HW116523   4.449   2.439   6.937
 5208SOL    HW216524   4.446   2.425   6.775
 5209SOL     OW16525   5.399   0.846   1.352
 5209SOL    HW116526   5.495   0.821   1.352
 5209SOL    HW216527   5.387   0.935   1.397
 5210SOL     OW16528   4.747   3.585   0.809
 5210SOL    HW116529   4.721   3.549   0.899
 5210SOL    HW216530   4.664   3.609   0.758
 5211SOL     OW16531   4.235   1.736   5.240
 5211SOL    HW116532   4.287   1.664   5.194
 5211SOL    HW216533   4.138   1.714   5.238
 5212SOL     OW16534   1.711   2.951   1.607
 5212SOL    HW116535   1.800   2.996   1.613
 5212SOL    HW216536   1.691   2.930   1.511
 5213SOL     OW16537   4.283   3.672   0.918
 5213SOL    HW116538   4.262   3.624   1.003
 5213SOL    HW216539   4.234   3.629   0.842
 5214SOL     OW16540   5.674   2.853   5.764
 5214SOL    HW116541   5.698   2.865   5.668
 5214SOL    HW216542   5.597   2.913   5.786
 5215SOL     OW16543   0.706   4.617   4.519
 5215SOL    HW116544   0.682   4.596   4.614
 5215SOL    HW216545   0.624   4.645   4.470
 5216SOL     OW16546   4.845   5.076   1.246
 5216SOL    HW116547   4.824   4.979   1.230
 5216SOL    HW216548   4.904   5.085   1.326
 5217SOL     OW16549   3.373   5.617   4.401
 5217SOL    HW116550   3.321   5.541   4.441
 5217SOL    HW216551   3.471   5.595   4.404
 5218SOL     OW16552   0.667   1.361   1.451
 5218SOL    HW116553   0.671   1.283   1.388
 5218SOL    HW216554   0.667   1.446   1.398
 5219SOL     OW16555   3.606   1.657   4.670
 5219SOL    HW116556   3.641   1.597   4.598
 5219SOL    HW216557   3.683   1.704   4.713
 5220SOL     OW16558   1.680   5.346   2.887
 5220SOL    HW116559   1.672   5.283   2.964
 5220SOL    HW216560   1.614   5.322   2.817
 5221SOL     OW16561   6.365   0.902   2.784
 5221SOL    HW116562   6.343   0.900   2.881
 5221SOL    HW216563   6.402   0.813   2.757
 5222SOL     OW16564   3.790   6.590   1.971
 5222SOL    HW116565   3.746   6.588   2.060
 5222SOL    HW216566   3.880   6.634   1.979
 5223SOL     OW16567   7.001   2.778   6.951
 5223SOL    HW116568   0.075   2.761   6.913
 5223SOL    HW216569   7.011   2.813   0.027
 5224SOL     OW16570   6.716   2.826   4.358
 5224SOL    HW116571   6.732   2.922   4.333
 5224SOL    HW216572   6.762   2.807   4.445
 5225SOL     OW16573   6.367   1.114   3.241
 5225SOL    HW116574   6.338   1.072   3.327
 5225SOL    HW216575   6.465   1.130   3.243
 5226SOL     OW16576   0.377   6.681   4.056
 5226SOL    HW116577   0.451   6.746   4.037
 5226SOL    HW216578   0.351   6.635   3.971
 5227SOL     OW16579   0.309   4.252   5.872
 5227SOL    HW116580   0.229   4.205   5.835
 5227SOL    HW216581   0.336   4.326   5.810
 5228SOL     OW16582   0.818   2.343   0.102
 5228SOL    HW116583   0.881   2.266   0.112
 5228SOL    HW216584   0.737   2.328   0.159
 5229SOL     OW16585   3.209   6.609   0.368
 5229SOL    HW116586   3.152   6.537   0.407
 5229SOL    HW216587   3.261   6.653   0.440
 5230SOL     OW16588   6.817   6.025   1.903
 5230SOL    HW116589   6.823   6.017   2.002
 5230SOL    HW216590   6.748   5.962   1.868
 5231SOL     OW16591   4.624   2.606   3.504
 5231SOL    HW116592   4.717   2.643   3.502
 5231SOL    HW216593   4.586   2.607   3.411
 5232SOL     OW16594   1.076   3.938   5.802
 5232SOL    HW116595   1.063   3.984   5.890
 5232SOL    HW216596   1.016   3.858   5.797
 5233SOL     OW16597   3.501   0.941   2.923
 5233SOL    HW116598   3.420   0.995   2.898
 5233SOL    HW216599   3.474   0.845   2.935
 5234SOL     OW16600   2.533   2.630   6.452
 5234SOL    HW116601   2.563   2.691   6.378
 5234SOL    HW216602   2.527   2.536   6.417
 5235SOL     OW16603   1.859   2.291   0.865
 5235SOL    HW116604   1.901   2.275   0.955
 5235SOL    HW216605   1.760   2.278   0.872
 5236SOL     OW16606   3.518   5.686   1.951
 5236SOL    HW116607   3.475   5.596   1.959
 5236SOL    HW216608   3.612   5.675   1.916
 5237SOL     OW16609   1.282   0.749   4.958
 5237SOL    HW116610   1.318   0.811   5.028
 5237SOL    HW216611   1.335   0.761   4.873
 5238SOL     OW16612   0.324   5.237   0.362
 5238SOL    HW116613   0.405   5.229   0.304
 5238SOL    HW216614   0.253   5.289   0.314
 5239SOL     OW16615   3.754   2.444   6.625
 5239SOL    HW116616   3.799   2.501   6.555
 5239SOL    HW216617   3.747   2.350   6.591
 5240SOL     OW16618   3.457   2.245   5.292
 5240SOL    HW116619   3.475   2.195   5.207
 5240SOL    HW216620   3.370   2.295   5.284
 5241SOL     OW16621   0.838   6.025   4.212
 5241SOL    HW116622   0.786   5.939   4.209
 5241SOL    HW216623   0.886   6.038   4.126
 5242SOL     OW16624   6.125   6.597   1.320
 5242SOL    HW116625   6.038   6.610   1.273
 5242SOL    HW216626   6.160   6.686   1.351
 5243SOL     OW16627   1.969   5.472   1.876
 5243SOL    HW116628   1.882   5.519   1.863
 5243SOL    HW216629   2.021   5.518   1.948
 5244SOL     OW16630   3.526   4.658   7.006
 5244SOL    HW116631   3.483   4.568   7.010
 5244SOL    HW216632   3.610   4.653   6.952
 5245SOL     OW16633   3.757   4.376   0.493
 5245SOL    HW116634   3.847   4.333   0.502
 5245SOL    HW216635   3.757   4.464   0.540
 5246SOL     OW16636   6.554   2.705   2.194
 5246SOL    HW116637   6.475   2.717   2.254
 5246SOL    HW216638   6.638   2.715   2.249
 5247SOL     OW16639   2.720   0.383   6.304
 5247SOL    HW116640   2.735   0.309   6.370
 5247SOL    HW216641   2.747   0.352   6.213
 5248SOL     OW16642   6.404   2.317   3.277
 5248SOL    HW116643   6.465   2.246   3.311
 5248SOL    HW216644   6.339   2.342   3.349
 5249SOL     OW16645   0.617   5.624   6.326
 5249SOL    HW116646   0.520   5.643   6.316
 5249SOL    HW216647   0.663   5.705   6.363
 5250SOL     OW16648   1.085   6.014   0.177
 5250SOL    HW116649   1.174   6.045   0.210
 5250SOL    HW216650   1.051   6.078   0.108
 5251SOL     OW16651   1.090   2.998   0.076
 5251SOL    HW116652   1.148   2.930   0.122
 5251SOL    HW216653   1.130   3.089   0.088
 5252SOL     OW16654   3.050   6.344   0.804
 5252SOL    HW116655   2.982   6.382   0.868
 5252SOL    HW216656   3.014   6.260   0.763
 5253SOL     OW16657   6.883   3.849   4.915
 5253SOL    HW116658   6.817   3.795   4.968
 5253SOL    HW216659   6.845   3.939   4.895
 5254SOL     OW16660   5.184   0.962   3.120
 5254SOL    HW116661   5.249   0.917   3.058
 5254SOL    HW216662   5.092   0.924   3.105
 5255SOL     OW16663   5.639   2.112   5.250
 5255SOL    HW116664   5.565   2.044   5.254
 5255SOL    HW216665   5.677   2.125   5.341
 5256SOL     OW16666   5.140   1.853   3.998
 5256SOL    HW116667   5.172   1.781   4.059
 5256SOL    HW216668   5.123   1.815   3.907
 5257SOL     OW16669   5.007   6.939   1.611
 5257SOL    HW116670   5.055   6.859   1.645
 5257SOL    HW216671   4.909   6.921   1.608
 5258SOL     OW16672   6.034   3.250   2.061
 5258SOL    HW116673   6.112   3.188   2.055
 5258SOL    HW216674   5.952   3.204   2.025
 5259SOL     OW16675   4.859   6.112   2.617
 5259SOL    HW116676   4.909   6.025   2.622
 5259SOL    HW216677   4.924   6.187   2.603
 5260SOL     OW16678   4.872   3.621   0.585
 5260SOL    HW116679   4.856   3.532   0.542
 5260SOL    HW216680   4.844   3.617   0.681
 5261SOL     OW16681   6.612   3.966   5.733
 5261SOL    HW116682   6.584   3.877   5.697
 5261SOL    HW216683   6.697   3.957   5.783
 5262SOL     OW16684   2.181   1.488   3.587
 5262SOL    HW116685   2.265   1.443   3.618
 5262SOL    HW216686   2.117   1.495   3.663
 5263SOL     OW16687   1.837   1.104   2.999
 5263SOL    HW116688   1.899   1.057   2.937
 5263SOL    HW216689   1.859   1.080   3.094
 5264SOL     OW16690   6.340   2.120   2.054
 5264SOL    HW116691   6.365   2.211   2.021
 5264SOL    HW216692   6.310   2.063   1.978
 5265SOL     OW16693   6.318   3.589   3.786
 5265SOL    HW116694   6.347   3.500   3.751
 5265SOL    HW216695   6.323   3.588   3.886
 5266SOL     OW16696   3.445   5.766   0.106
 5266SOL    HW116697   3.404   5.703   0.172
 5266SOL    HW216698   3.406   5.857   0.119
 5267SOL     OW16699   4.800   1.939   5.066
 5267SOL    HW116700   4.890   1.899   5.047
 5267SOL    HW216701   4.751   1.880   5.130
 5268SOL     OW16702   5.886   1.061   0.063
 5268SOL    HW116703   5.966   1.034   0.117
 5268SOL    HW216704   5.807   1.007   0.093
 5269SOL     OW16705   1.068   6.526   2.380
 5269SOL    HW116706   1.010   6.603   2.354
 5269SOL    HW216707   1.023   6.473   2.452
 5270SOL     OW16708   5.345   0.890   1.741
 5270SOL    HW116709   5.363   0.793   1.749
 5270SOL    HW216710   5.275   0.917   1.808
 5271SOL     OW16711   6.218   5.058   5.356
 5271SOL    HW116712   6.253   5.010   5.437
 5271SOL    HW216713   6.140   5.115   5.382
 5272SOL     OW16714   3.446   6.339   1.681
 5272SOL    HW116715   3.536   6.358   1.720
 5272SOL    HW216716   3.378   6.399   1.723
 5273SOL     OW16717   0.640   2.901   3.555
 5273SOL    HW116718   0.728   2.858   3.532
 5273SOL    HW216719   0.627   2.983   3.500
 5274SOL     OW16720   6.425   0.377   2.791
 5274SOL    HW116721   6.493   0.312   2.756
 5274SOL    HW216722   6.333   0.341   2.773
 5275SOL     OW16723   3.807   2.201   0.543
 5275SOL    HW116724   3.731   2.255   0.579
 5275SOL    HW216725   3.774   2.146   0.466
 5276SOL     OW16726   1.843   0.388   0.651
 5276SOL    HW116727   1.808   0.478   0.676
 5276SOL    HW216728   1.774   0.318   0.672
 5277SOL     OW16729   2.162   1.571   2.093
 5277SOL    HW116730   2.149   1.587   2.191
 5277SOL    HW216731   2.080   1.529   2.054
 5278SOL     OW16732   5.385   6.058   3.370
 5278SOL    HW116733   5.378   6.065   3.470
 5278SOL    HW216734   5.293   6.060   3.331
 5279SOL     OW16735   2.218   5.357   0.172
 5279SOL    HW116736   2.287   5.325   0.236
 5279SOL    HW216737   2.247   5.445   0.133
 5280SOL     OW16738   3.220   5.747   5.047
 5280SOL    HW116739   3.311   5.708   5.035
 5280SOL    HW216740   3.215   5.835   4.999
 5281SOL     OW16741   6.635   1.493   2.123
 5281SOL    HW116742   6.697   1.461   2.051
 5281SOL    HW216743   6.586   1.574   2.091
 5282SOL     OW16744   3.641   1.761   3.502
 5282SOL    HW116745   3.730   1.780   3.543
 5282SOL    HW216746   3.618   1.833   3.437
 5283SOL     OW16747   4.201   6.260   2.086
 5283SOL    HW116748   4.289   6.307   2.091
 5283SOL    HW216749   4.182   6.235   1.991
 5284SOL     OW16750   4.702   4.236   3.296
 5284SOL    HW116751   4.723   4.162   3.361
 5284SOL    HW216752   4.689   4.198   3.205
 5285SOL     OW16753   2.485   4.524   4.076
 5285SOL    HW116754   2.440   4.440   4.104
 5285SOL    HW216755   2.451   4.600   4.131
 5286SOL     OW16756   1.972   4.637   0.369
 5286SOL    HW116757   2.057   4.689   0.381
 5286SOL    HW216758   1.979   4.551   0.419
 5287SOL     OW16759   3.251   0.847   6.980
 5287SOL    HW116760   3.167   0.867   6.930
 5287SOL    HW216761   3.275   0.750   6.969
 5288SOL     OW16762   2.694   0.017   1.713
 5288SOL    HW116763   2.711   6.937   1.700
 5288SOL    HW216764   2.667   0.058   1.626
 5289SOL     OW16765   2.067   5.147   6.281
 5289SOL    HW116766   2.034   5.239   6.257
 5289SOL    HW216767   2.012   5.111   6.356
 5290SOL     OW16768   2.948   5.387   5.526
 5290SOL    HW116769   2.864   5.442   5.529
 5290SOL    HW216770   2.965   5.358   5.432
 5291SOL     OW16771   2.178   6.003   5.643
 5291SOL    HW116772   2.232   5.930   5.684
 5291SOL    HW216773   2.237   6.082   5.626
 5292SOL     OW16774   5.792   2.634   6.865
 5292SOL    HW116775   5.767   2.569   6.937
 5292SOL    HW216776   5.870   2.598   6.813
 5293SOL     OW16777   0.501   0.993   4.865
 5293SOL    HW116778   0.587   0.956   4.831
 5293SOL    HW216779   0.456   0.924   4.923
 5294SOL     OW16780   4.873   3.598   6.017
 5294SOL    HW116781   4.795   3.655   6.041
 5294SOL    HW216782   4.873   3.581   5.918
 5295SOL     OW16783   6.692   1.265   2.873
 5295SOL    HW116784   6.711   1.178   2.827
 5295SOL    HW216785   6.600   1.263   2.912
 5296SOL     OW16786   1.827   5.751   6.619
 5296SOL    HW116787   1.738   5.795   6.605
 5296SOL    HW216788   1.837   5.674   6.556
 5297SOL     OW16789   1.594   1.814   1.356
 5297SOL    HW116790   1.511   1.795   1.409
 5297SOL    HW216791   1.633   1.901   1.386
 5298SOL     OW16792   6.751   6.089   2.197
 5298SOL    HW116793   6.694   6.047   2.268
 5298SOL    HW216794   6.696   6.153   2.144
 5299SOL     OW16795   2.747   2.056   0.971
 5299SOL    HW116796   2.692   2.120   1.023
 5299SOL    HW216797   2.687   1.994   0.920
 5300SOL     OW16798   0.083   5.854   2.678
 5300SOL    HW116799   0.042   5.832   2.767
 5300SOL    HW216800   0.145   5.780   2.651
 5301SOL     OW16801   4.550   1.418   0.403
 5301SOL    HW116802   4.616   1.479   0.358
 5301SOL    HW216803   4.462   1.423   0.355
 5302SOL     OW16804   6.060   5.178   3.272
 5302SOL    HW116805   5.979   5.178   3.331
 5302SOL    HW216806   6.072   5.087   3.232
 5303SOL     OW16807   6.830   6.889   3.843
 5303SOL    HW116808   6.732   6.876   3.837
 5303SOL    HW216809   6.850   6.960   3.911
 5304SOL     OW16810   6.418   2.426   6.179
 5304SOL    HW116811   6.447   2.418   6.084
 5304SOL    HW216812   6.433   2.519   6.211
 5305SOL     OW16813   1.220   0.258   3.787
 5305SOL    HW116814   1.203   0.299   3.698
 5305SOL    HW216815   1.254   0.165   3.774
 5306SOL     OW16816   1.963   6.713   5.072
 5306SOL    HW116817   1.991   6.778   5.142
 5306SOL    HW216818   1.864   6.699   5.077
 5307SOL     OW16819   4.189   6.307   6.335
 5307SOL    HW116820   4.103   6.266   6.305
 5307SOL    HW216821   4.214   6.270   6.424
 5308SOL     OW16822   0.401   0.538   4.075
 5308SOL    HW116823   0.401   0.612   4.008
 5308SOL    HW216824   0.456   0.564   4.154
 5309SOL     OW16825   3.927   3.891   3.335
 5309SOL    HW116826   3.905   3.797   3.359
 5309SOL    HW216827   3.908   3.950   3.414
 5310SOL     OW16828   4.916   2.292   1.931
 5310SOL    HW116829   4.922   2.264   2.027
 5310SOL    HW216830   4.911   2.391   1.925
 5311SOL     OW16831   0.440   5.779   6.971
 5311SOL    HW116832   0.351   5.813   6.940
 5311SOL    HW216833   0.506   5.785   6.897
 5312SOL     OW16834   0.257   4.980   2.305
 5312SOL    HW116835   0.277   5.053   2.370
 5312SOL    HW216836   0.203   5.017   2.229
 5313SOL     OW16837   0.542   5.098   0.154
 5313SOL    HW116838   0.605   5.026   0.184
 5313SOL    HW216839   0.592   5.185   0.148
 5314SOL     OW16840   4.856   5.289   0.890
 5314SOL    HW116841   4.831   5.273   0.795
 5314SOL    HW216842   4.871   5.202   0.936
 5315SOL     OW16843   4.639   4.441   1.838
 5315SOL    HW116844   4.616   4.397   1.751
 5315SOL    HW216845   4.616   4.380   1.914
 5316SOL     OW16846   0.201   5.578   4.289
 5316SOL    HW116847   0.299   5.562   4.279
 5316SOL    HW216848   0.185   5.648   4.359
 5317SOL     OW16849   5.569   1.239   4.049
 5317SOL    HW116850   5.502   1.170   4.078
 5317SOL    HW216851   5.524   1.328   4.042
 5318SOL     OW16852   6.767   1.999   4.651
 5318SOL    HW116853   6.670   1.976   4.645
 5318SOL    HW216854   6.799   2.034   4.563
 5319SOL     OW16855   4.836   6.689   6.776
 5319SOL    HW116856   4.915   6.666   6.833
 5319SOL    HW216857   4.866   6.740   6.695
 5320SOL     OW16858   6.224   4.992   0.275
 5320SOL    HW116859   6.296   5.060   0.261
 5320SOL    HW216860   6.221   4.929   0.197
 5321SOL     OW16861   0.620   4.966   3.408
 5321SOL    HW116862   0.534   4.924   3.377
 5321SOL    HW216863   0.643   5.041   3.347
 5322SOL     OW16864   3.665   6.627   6.696
 5322SOL    HW116865   3.674   6.579   6.783
 5322SOL    HW216866   3.674   6.725   6.710
 5323SOL     OW16867   4.540   2.915   1.142
 5323SOL    HW116868   4.475   2.990   1.128
 5323SOL    HW216869   4.533   2.882   1.236
 5324SOL     OW16870   3.711   2.553   1.669
 5324SOL    HW116871   3.672   2.538   1.578
 5324SOL    HW216872   3.693   2.474   1.727
 5325SOL     OW16873   5.759   0.306   3.188
 5325SOL    HW116874   5.745   0.360   3.105
 5325SOL    HW216875   5.811   0.361   3.254
 5326SOL     OW16876   6.261   5.008   2.763
 5326SOL    HW116877   6.175   5.058   2.754
 5326SOL    HW216878   6.330   5.049   2.703
 5327SOL     OW16879   0.496   6.237   5.667
 5327SOL    HW116880   0.431   6.308   5.642
 5327SOL    HW216881   0.457   6.147   5.647
 5328SOL     OW16882   3.302   2.278   5.893
 5328SOL    HW116883   3.327   2.182   5.880
 5328SOL    HW216884   3.265   2.314   5.807
 5329SOL     OW16885   6.620   3.762   0.751
 5329SOL    HW116886   6.630   3.815   0.666
 5329SOL    HW216887   6.701   3.705   0.765
 5330SOL     OW16888   3.826   4.328   6.803
 5330SOL    HW116889   3.901   4.275   6.765
 5330SOL    HW216890   3.782   4.277   6.877
 5331SOL     OW16891   4.870   2.038   0.729
 5331SOL    HW116892   4.795   2.057   0.792
 5331SOL    HW216893   4.869   2.105   0.655
 5332SOL     OW16894   6.573   4.793   0.174
 5332SOL    HW116895   6.634   4.714   0.174
 5332SOL    HW216896   6.584   4.844   0.259
 5333SOL     OW16897   1.815   1.072   3.618
 5333SOL    HW116898   1.913   1.061   3.632
 5333SOL    HW216899   1.773   0.982   3.604
 5334SOL     OW16900   4.843   5.243   4.646
 5334SOL    HW116901   4.808   5.184   4.719
 5334SOL    HW216902   4.780   5.320   4.633
 5335SOL     OW16903   6.809   4.292   2.073
 5335SOL    HW116904   6.777   4.201   2.099
 5335SOL    HW216905   6.737   4.360   2.092
 5336SOL     OW16906   1.883   1.944   3.783
 5336SOL    HW116907   1.831   1.862   3.756
 5336SOL    HW216908   1.953   1.918   3.849
 5337SOL     OW16909   5.854   4.732   1.894
 5337SOL    HW116910   5.866   4.658   1.828
 5337SOL    HW216911   5.764   4.774   1.880
 5338SOL     OW16912   5.635   2.670   0.118
 5338SOL    HW116913   5.547   2.656   0.071
 5338SOL    HW216914   5.632   2.757   0.168
 5339SOL     OW16915   5.726   1.985   1.482
 5339SOL    HW116916   5.776   1.935   1.553
 5339SOL    HW216917   5.628   1.983   1.502
 5340SOL     OW16918   5.250   3.813   1.621
 5340SOL    HW116919   5.333   3.863   1.645
 5340SOL    HW216920   5.243   3.731   1.678
 5341SOL     OW16921   4.339   4.763   4.231
 5341SOL    HW116922   4.417   4.804   4.280
 5341SOL    HW216923   4.257   4.769   4.289
 5342SOL     OW16924   4.881   6.534   5.428
 5342SOL    HW116925   4.963   6.591   5.423
 5342SOL    HW216926   4.802   6.591   5.448
 5343SOL     OW16927   3.709   3.586   4.643
 5343SOL    HW116928   3.793   3.599   4.590
 5343SOL    HW216929   3.720   3.508   4.704
 5344SOL     OW16930   0.124   1.487   6.529
 5344SOL    HW116931   0.077   1.401   6.546
 5344SOL    HW216932   0.129   1.540   6.613
 5345SOL     OW16933   4.980   1.320   0.105
 5345SOL    HW116934   5.015   1.334   0.197
 5345SOL    HW216935   4.945   1.227   0.097
 5346SOL     OW16936   2.753   4.989   4.098
 5346SOL    HW116937   2.737   5.051   4.175
 5346SOL    HW216938   2.730   5.035   4.012
 5347SOL     OW16939   0.177   2.912   3.451
 5347SOL    HW116940   0.115   2.930   3.375
 5347SOL    HW216941   0.261   2.965   3.440
 5348SOL     OW16942   0.160   1.136   5.214
 5348SOL    HW116943   0.084   1.108   5.155
 5348SOL    HW216944   0.247   1.121   5.166
 5349SOL     OW16945   2.228   2.896   1.953
 5349SOL    HW116946   2.300   2.936   1.896
 5349SOL    HW216947   2.141   2.941   1.933
 5350SOL     OW16948   1.722   6.615   5.616
 5350SOL    HW116949   1.701   6.623   5.518
 5350SOL    HW216950   1.640   6.636   5.669
 5351SOL     OW16951   0.341   4.270   2.206
 5351SOL    HW116952   0.291   4.354   2.225
 5351SOL    HW216953   0.437   4.282   2.230
 5352SOL     OW16954   2.482   4.443   2.735
 5352SOL    HW116955   2.433   4.530   2.726
 5352SOL    HW216956   2.548   4.434   2.660
 5353SOL     OW16957   3.672   5.369   3.415
 5353SOL    HW116958   3.748   5.333   3.469
 5353SOL    HW216959   3.607   5.296   3.396
 5354SOL     OW16960   2.734   4.436   7.004
 5354SOL    HW116961   2.648   4.386   7.000
 5354SOL    HW216962   2.780   4.433   6.915
 5355SOL     OW16963   4.547   5.330   5.479
 5355SOL    HW116964   4.456   5.357   5.511
 5355SOL    HW216965   4.602   5.301   5.558
 5356SOL     OW16966   6.769   2.960   2.042
 5356SOL    HW116967   6.850   3.013   2.018
 5356SOL    HW216968   6.797   2.872   2.080
 5357SOL     OW16969   4.096   4.810   2.006
 5357SOL    HW116970   4.195   4.818   2.020
 5357SOL    HW216971   4.077   4.793   1.910
 5358SOL     OW16972   4.735   2.012   0.137
 5358SOL    HW116973   4.769   1.942   0.201
 5358SOL    HW216974   4.635   2.007   0.133
 5359SOL     OW16975   2.302   2.467   6.606
 5359SOL    HW116976   2.395   2.447   6.576
 5359SOL    HW216977   2.238   2.403   6.564
 5360SOL     OW16978   5.315   5.973   2.832
 5360SOL    HW116979   5.351   6.054   2.879
 5360SOL    HW216980   5.262   6.001   2.752
 5361SOL     OW16981   2.968   6.599   3.121
 5361SOL    HW116982   2.943   6.686   3.079
 5361SOL    HW216983   3.028   6.548   3.059
 5362SOL     OW16984   6.379   6.584   2.495
 5362SOL    HW116985   6.409   6.570   2.589
 5362SOL    HW216986   6.306   6.653   2.493
 5363SOL     OW16987   5.369   6.096   4.681
 5363SOL    HW116988   5.335   6.037   4.608
 5363SOL    HW216989   5.348   6.055   4.770
 5364SOL     OW16990   5.284   0.813   2.128
 5364SOL    HW116991   5.303   0.721   2.161
 5364SOL    HW216992   5.201   0.812   2.073
 5365SOL     OW16993   2.911   3.702   2.195
 5365SOL    HW116994   2.819   3.740   2.208
 5365SOL    HW216995   2.973   3.740   2.264
 5366SOL     OW16996   6.515   0.153   1.903
 5366SOL    HW116997   6.462   0.235   1.884
 5366SOL    HW216998   6.500   0.086   1.831
 5367SOL     OW16999   5.863   0.320   0.735
 5367SOL    HW117000   5.862   0.359   0.828
 5367SOL    HW217001   5.770   0.295   0.709
 5368SOL     OW17002   0.141   5.678   2.338
 5368SOL    HW117003   0.165   5.773   2.319
 5368SOL    HW217004   0.155   5.659   2.435
 5369SOL     OW17005   3.044   5.999   1.599
 5369SOL    HW117006   2.979   5.965   1.667
 5369SOL    HW217007   3.101   5.923   1.566
 5370SOL     OW17008   4.116   3.114   1.872
 5370SOL    HW117009   4.204   3.084   1.834
 5370SOL    HW217010   4.053   3.135   1.798
 5371SOL     OW17011   0.219   5.143   5.322
 5371SOL    HW117012   0.133   5.098   5.299
 5371SOL    HW217013   0.279   5.143   5.242
 5372SOL     OW17014   1.037   0.257   2.505
 5372SOL    HW117015   0.997   0.259   2.597
 5372SOL    HW217016   1.118   0.199   2.505
 5373SOL     OW17017   3.728   6.697   6.243
 5373SOL    HW117018   3.789   6.617   6.237
 5373SOL    HW217019   3.669   6.688   6.323
 5374SOL     OW17020   2.427   4.331   1.128
 5374SOL    HW117021   2.497   4.399   1.108
 5374SOL    HW217022   2.337   4.372   1.114
 5375SOL     OW17023   0.799   6.161   5.228
 5375SOL    HW117024   0.733   6.229   5.259
 5375SOL    HW217025   0.891   6.190   5.254
 5376SOL     OW17026   1.213   2.317   2.183
 5376SOL    HW117027   1.234   2.235   2.237
 5376SOL    HW217028   1.287   2.384   2.195
 5377SOL     OW17029   2.286   0.983   3.228
 5377SOL    HW117030   2.363   1.029   3.274
 5377SOL    HW217031   2.280   1.016   3.134
 5378SOL     OW17032   5.896   0.590   0.558
 5378SOL    HW117033   5.821   0.526   0.541
 5378SOL    HW217034   5.859   0.674   0.599
 5379SOL     OW17035   1.072   3.165   5.602
 5379SOL    HW117036   1.096   3.213   5.687
 5379SOL    HW217037   1.148   3.107   5.574
 5380SOL     OW17038   3.260   0.044   1.196
 5380SOL    HW117039   3.277   0.054   1.294
 5380SOL    HW217040   3.314   0.112   1.146
 5381SOL     OW17041   6.196   5.606   2.272
 5381SOL    HW117042   6.151   5.553   2.345
 5381SOL    HW217043   6.204   5.701   2.301
 5382SOL     OW17044   3.473   2.037   2.332
 5382SOL    HW117045   3.416   1.997   2.403
 5382SOL    HW217046   3.426   2.117   2.292
 5383SOL     OW17047   0.994   3.080   4.688
 5383SOL    HW117048   1.067   3.140   4.722
 5383SOL    HW217049   0.937   3.051   4.765
 5384SOL     OW17050   4.474   5.387   4.978
 5384SOL    HW117051   4.569   5.412   4.997
 5384SOL    HW217052   4.426   5.370   5.064
 5385SOL     OW17053   6.814   2.365   5.858
 5385SOL    HW117054   6.773   2.336   5.771
 5385SOL    HW217055   6.906   2.401   5.841
 5386SOL     OW17056   5.441   2.306   4.068
 5386SOL    HW117057   5.415   2.209   4.062
 5386SOL    HW217058   5.359   2.363   4.059
 5387SOL     OW17059   2.949   6.944   3.181
 5387SOL    HW117060   2.881   6.940   3.108
 5387SOL    HW217061   3.035   6.905   3.148
 5388SOL     OW17062   1.446   6.523   2.653
 5388SOL    HW117063   1.526   6.506   2.711
 5388SOL    HW217064   1.462   6.485   2.562
 5389SOL     OW17065   4.106   2.123   4.374
 5389SOL    HW117066   4.009   2.121   4.350
 5389SOL    HW217067   4.156   2.062   4.313
 5390SOL     OW17068   5.248   3.616   4.287
 5390SOL    HW117069   5.342   3.635   4.313
 5390SOL    HW217070   5.194   3.596   4.368
 5391SOL     OW17071   2.855   2.383   0.019
 5391SOL    HW117072   2.861   2.482   0.002
 5391SOL    HW217073   2.846   2.367   0.117
 5392SOL     OW17074   4.736   2.812   2.524
 5392SOL    HW117075   4.827   2.831   2.486
 5392SOL    HW217076   4.674   2.887   2.501
 5393SOL     OW17077   4.475   0.341   5.344
 5393SOL    HW117078   4.406   0.388   5.288
 5393SOL    HW217079   4.433   0.311   5.429
 5394SOL     OW17080   0.825   6.132   1.448
 5394SOL    HW117081   0.771   6.135   1.364
 5394SOL    HW217082   0.905   6.192   1.437
 5395SOL     OW17083   5.024   0.867   1.282
 5395SOL    HW117084   5.056   0.958   1.258
 5395SOL    HW217085   4.924   0.868   1.289
 5396SOL     OW17086   5.388   6.021   1.853
 5396SOL    HW117087   5.445   5.957   1.904
 5396SOL    HW217088   5.383   5.992   1.757
 5397SOL     OW17089   6.641   1.836   1.877
 5397SOL    HW117090   6.661   1.889   1.795
 5397SOL    HW217091   6.710   1.855   1.947
 5398SOL     OW17092   3.889   2.151   3.392
 5398SOL    HW117093   3.903   2.071   3.449
 5398SOL    HW217094   3.970   2.209   3.395
 5399SOL     OW17095   2.238   6.593   5.983
 5399SOL    HW117096   2.258   6.554   6.073
 5399SOL    HW217097   2.144   6.571   5.957
 5400SOL     OW17098   3.482   3.153   0.946
 5400SOL    HW117099   3.564   3.108   0.979
 5400SOL    HW217100   3.402   3.116   0.994
 5401SOL     OW17101   4.850   4.445   3.370
 5401SOL    HW117102   4.893   4.402   3.449
 5401SOL    HW217103   4.784   4.382   3.330
 5402SOL     OW17104   3.546   6.458   0.779
 5402SOL    HW117105   3.485   6.532   0.809
 5402SOL    HW217106   3.504   6.410   0.702
 5403SOL     OW17107   5.164   3.013   6.323
 5403SOL    HW117108   5.216   3.062   6.393
 5403SOL    HW217109   5.093   3.074   6.286
 5404SOL     OW17110   0.606   0.631   0.932
 5404SOL    HW117111   0.701   0.610   0.957
 5404SOL    HW217112   0.579   0.574   0.854
 5405SOL     OW17113   5.742   4.822   0.145
 5405SOL    HW117114   5.675   4.787   0.079
 5405SOL    HW217115   5.778   4.746   0.199
 5406SOL     OW17116   1.852   0.914   4.734
 5406SOL    HW117117   1.843   0.938   4.831
 5406SOL    HW217118   1.783   0.964   4.681
 5407SOL     OW17119   2.813   1.200   1.517
 5407SOL    HW117120   2.825   1.287   1.565
 5407SOL    HW217121   2.899   1.174   1.473
 5408SOL     OW17122   3.810   1.780   4.810
 5408SOL    HW117123   3.877   1.762   4.882
 5408SOL    HW217124   3.849   1.840   4.742
 5409SOL     OW17125   6.251   1.975   1.820
 5409SOL    HW117126   6.296   1.895   1.781
 5409SOL    HW217127   6.262   2.053   1.758
 5410SOL     OW17128   0.477   2.807   0.675
 5410SOL    HW117129   0.454   2.713   0.702
 5410SOL    HW217130   0.551   2.805   0.607
 5411SOL     OW17131   5.726   4.228   0.102
 5411SOL    HW117132   5.727   4.317   0.147
 5411SOL    HW217133   5.677   4.162   0.159
 5412SOL     OW17134   2.034   1.464   6.199
 5412SOL    HW117135   1.997   1.395   6.262
 5412SOL    HW217136   2.104   1.422   6.142
 5413SOL     OW17137   7.002   0.330   5.882
 5413SOL    HW117138   6.991   0.334   5.783
 5413SOL    HW217139   0.066   0.382   5.908
 5414SOL     OW17140   0.103   4.545   5.773
 5414SOL    HW117141   0.068   4.546   5.680
 5414SOL    HW217142   0.145   4.457   5.793
 5415SOL     OW17143   3.090   5.684   0.166
 5415SOL    HW117144   3.027   5.613   0.200
 5415SOL    HW217145   3.183   5.663   0.196
 5416SOL     OW17146   3.175   4.941   4.668
 5416SOL    HW117147   3.103   5.004   4.697
 5416SOL    HW217148   3.179   4.938   4.568
 5417SOL     OW17149   4.085   6.580   4.104
 5417SOL    HW117150   4.075   6.667   4.153
 5417SOL    HW217151   3.994   6.542   4.085
 5418SOL     OW17152   5.626   4.733   4.691
 5418SOL    HW117153   5.531   4.711   4.716
 5418SOL    HW217154   5.678   4.649   4.679
 5419SOL     OW17155   4.078   6.621   0.131
 5419SOL    HW117156   4.161   6.643   0.079
 5419SOL    HW217157   4.003   6.679   0.100
 5420SOL     OW17158   1.479   1.548   1.716
 5420SOL    HW117159   1.529   1.478   1.664
 5420SOL    HW217160   1.399   1.507   1.758
 5421SOL     OW17161   3.094   5.526   2.475
 5421SOL    HW117162   3.141   5.515   2.388
 5421SOL    HW217163   3.015   5.587   2.463
 5422SOL     OW17164   2.262   5.691   4.289
 5422SOL    HW117165   2.361   5.691   4.275
 5422SOL    HW217166   2.235   5.613   4.345
 5423SOL     OW17167   6.191   5.452   1.806
 5423SOL    HW117168   6.127   5.466   1.731
 5423SOL    HW217169   6.148   5.479   1.892
 5424SOL     OW17170   5.156   4.003   4.927
 5424SOL    HW117171   5.200   3.934   4.869
 5424SOL    HW217172   5.121   3.960   5.010
 5425SOL     OW17173   6.303   2.966   4.904
 5425SOL    HW117174   6.380   3.026   4.925
 5425SOL    HW217175   6.228   3.020   4.865
 5426SOL     OW17176   4.769   5.237   2.029
 5426SOL    HW117177   4.736   5.144   2.039
 5426SOL    HW217178   4.708   5.300   2.078
 5427SOL     OW17179   4.630   3.042   0.435
 5427SOL    HW117180   4.585   3.105   0.498
 5427SOL    HW217181   4.569   3.020   0.360
 5428SOL     OW17182   5.314   5.778   2.311
 5428SOL    HW117183   5.320   5.858   2.251
 5428SOL    HW217184   5.386   5.712   2.286
 5429SOL     OW17185   2.837   6.915   4.536
 5429SOL    HW117186   2.853   6.974   4.457
 5429SOL    HW217187   2.830   6.820   4.506
 5430SOL     OW17188   1.898   3.326   5.885
 5430SOL    HW117189   1.926   3.234   5.912
 5430SOL    HW217190   1.977   3.387   5.890
 5431SOL     OW17191   3.413   5.190   6.352
 5431SOL    HW117192   3.351   5.112   6.341
 5431SOL    HW217193   3.444   5.220   6.262
 5432SOL     OW17194   5.555   6.114   0.580
 5432SOL    HW117195   5.598   6.053   0.647
 5432SOL    HW217196   5.626   6.166   0.532
 5433SOL     OW17197   1.243   6.849   1.185
 5433SOL    HW117198   1.332   6.871   1.225
 5433SOL    HW217199   1.172   6.902   1.231
 5434SOL     OW17200   4.570   0.943   4.742
 5434SOL    HW117201   4.626   0.964   4.822
 5434SOL    HW217202   4.601   0.998   4.664
 5435SOL     OW17203   6.297   3.563   0.702
 5435SOL    HW117204   6.276   3.528   0.793
 5435SOL    HW217205   6.227   3.532   0.638
 5436SOL     OW17206   0.394   5.612   3.493
 5436SOL    HW117207   0.415   5.612   3.591
 5436SOL    HW217208   0.375   5.519   3.463
 5437SOL     OW17209   3.251   4.990   6.283
 5437SOL    HW117210   3.333   4.958   6.236
 5437SOL    HW217211   3.190   4.913   6.300
 5438SOL     OW17212   5.435   4.752   1.748
 5438SOL    HW117213   5.472   4.769   1.840
 5438SOL    HW217214   5.392   4.662   1.746
 5439SOL     OW17215   0.869   3.920   0.191
 5439SOL    HW117216   0.938   3.992   0.203
 5439SOL    HW217217   0.875   3.884   0.097
 5440SOL     OW17218   5.684   0.075   3.321
 5440SOL    HW117219   5.751   0.035   3.384
 5440SOL    HW217220   5.721   0.159   3.281
 5441SOL     OW17221   5.622   3.157   3.397
 5441SOL    HW117222   5.527   3.179   3.375
 5441SOL    HW217223   5.647   3.204   3.482
 5442SOL     OW17224   4.659   0.556   3.711
 5442SOL    HW117225   4.744   0.595   3.674
 5442SOL    HW217226   4.679   0.509   3.797
 5443SOL     OW17227   4.729   6.830   4.237
 5443SOL    HW117228   4.726   6.730   4.242
 5443SOL    HW217229   4.814   6.864   4.278
 5444SOL     OW17230   0.046   1.987   4.495
 5444SOL    HW117231   6.980   2.008   4.445
 5444SOL    HW217232   0.122   2.041   4.459
 5445SOL     OW17233   5.225   5.194   4.910
 5445SOL    HW117234   5.286   5.271   4.926
 5445SOL    HW217235   5.152   5.222   4.847
 5446SOL     OW17236   6.644   4.757   4.676
 5446SOL    HW117237   6.612   4.744   4.769
 5446SOL    HW217238   6.566   4.773   4.615
 5447SOL     OW17239   2.548   1.261   1.501
 5447SOL    HW117240   2.642   1.233   1.520
 5447SOL    HW217241   2.542   1.361   1.507
 5448SOL     OW17242   4.303   5.602   3.816
 5448SOL    HW117243   4.324   5.545   3.895
 5448SOL    HW217244   4.263   5.688   3.847
 5449SOL     OW17245   3.027   1.260   1.752
 5449SOL    HW117246   2.988   1.323   1.819
 5449SOL    HW217247   3.084   1.192   1.798
 5450SOL     OW17248   3.338   5.958   1.706
 5450SOL    HW117249   3.368   6.029   1.642
 5450SOL    HW217250   3.398   5.958   1.786
 5451SOL     OW17251   1.461   6.848   2.875
 5451SOL    HW117252   1.438   6.900   2.958
 5451SOL    HW217253   1.397   6.772   2.865
 5452SOL     OW17254   1.785   4.606   1.136
 5452SOL    HW117255   1.813   4.512   1.156
 5452SOL    HW217256   1.686   4.612   1.136
 5453SOL     OW17257   5.041   3.993   2.199
 5453SOL    HW117258   4.950   4.036   2.198
 5453SOL    HW217259   5.071   3.977   2.105
 5454SOL     OW17260   5.852   6.415   2.302
 5454SOL    HW117261   5.831   6.486   2.235
 5454SOL    HW217262   5.935   6.440   2.352
 5455SOL     OW17263   0.821   1.761   2.916
 5455SOL    HW117264   0.834   1.713   2.829
 5455SOL    HW217265   0.749   1.830   2.906
 5456SOL     OW17266   5.035   0.689   7.004
 5456SOL    HW117267   5.029   0.601   0.034
 5456SOL    HW217268   5.098   0.749   0.036
 5457SOL     OW17269   6.271   1.904   0.191
 5457SOL    HW117270   6.265   1.957   0.106
 5457SOL    HW217271   6.179   1.874   0.217
 5458SOL     OW17272   6.413   5.202   0.990
 5458SOL    HW117273   6.477   5.278   1.000
 5458SOL    HW217274   6.454   5.118   1.023
 5459SOL     OW17275   2.194   5.126   5.522
 5459SOL    HW117276   2.207   5.171   5.611
 5459SOL    HW217277   2.200   5.195   5.450
 5460SOL     OW17278   2.040   1.584   1.472
 5460SOL    HW117279   2.106   1.583   1.547
 5460SOL    HW217280   1.974   1.659   1.487
 5461SOL     OW17281   1.283   1.506   5.714
 5461SOL    HW117282   1.230   1.465   5.788
 5461SOL    HW217283   1.233   1.495   5.628
 5462SOL     OW17284   5.568   5.968   6.999
 5462SOL    HW117285   5.562   6.016   6.911
 5462SOL    HW217286   5.552   6.033   0.056
 5463SOL     OW17287   6.231   2.041   6.220
 5463SOL    HW117288   6.152   2.071   6.273
 5463SOL    HW217289   6.205   1.965   6.161
 5464SOL     OW17290   6.466   5.705   5.323
 5464SOL    HW117291   6.367   5.715   5.329
 5464SOL    HW217292   6.490   5.608   5.331
 5465SOL     OW17293   6.314   6.919   3.126
 5465SOL    HW117294   6.294   6.839   3.183
 5465SOL    HW217295   6.357   6.890   3.041
 5466SOL     OW17296   5.329   2.994   5.616
 5466SOL    HW117297   5.247   3.016   5.563
 5466SOL    HW217298   5.384   3.077   5.629
 5467SOL     OW17299   5.754   3.673   3.625
 5467SOL    HW117300   5.776   3.639   3.716
 5467SOL    HW217301   5.823   3.641   3.560
 5468SOL     OW17302   6.952   2.586   3.467
 5468SOL    HW117303   0.031   2.586   3.440
 5468SOL    HW217304   6.898   2.632   3.397
 5469SOL     OW17305   1.916   6.746   6.084
 5469SOL    HW117306   1.948   6.771   6.175
 5469SOL    HW217307   1.869   6.824   6.043
 5470SOL     OW17308   4.125   4.995   3.897
 5470SOL    HW117309   4.207   5.049   3.878
 5470SOL    HW217310   4.152   4.902   3.922
 5471SOL     OW17311   6.140   0.263   2.340
 5471SOL    HW117312   6.103   0.197   2.406
 5471SOL    HW217313   6.075   0.338   2.327
 5472SOL     OW17314   3.171   2.901   5.763
 5472SOL    HW117315   3.226   2.912   5.679
 5472SOL    HW217316   3.155   2.804   5.779
 5473SOL     OW17317   1.758   4.652   0.576
 5473SOL    HW117318   1.751   4.744   0.616
 5473SOL    HW217319   1.776   4.660   0.478
 5474SOL     OW17320   1.174   5.916   3.678
 5474SOL    HW117321   1.199   5.865   3.596
 5474SOL    HW217322   1.106   5.986   3.655
 5475SOL     OW17323   1.714   1.700   0.843
 5475SOL    HW117324   1.629   1.657   0.814
 5475SOL    HW217325   1.707   1.727   0.939
 5476SOL     OW17326   2.791   5.038   5.102
 5476SOL    HW117327   2.706   5.052   5.154
 5476SOL    HW217328   2.869   5.059   5.161
 5477SOL     OW17329   1.481   4.420   2.829
 5477SOL    HW117330   1.528   4.380   2.908
 5477SOL    HW217331   1.410   4.483   2.862
 5478SOL     OW17332   4.936   5.533   6.080
 5478SOL    HW117333   4.939   5.461   6.149
 5478SOL    HW217334   4.876   5.506   6.005
 5479SOL     OW17335   4.314   0.781   4.208
 5479SOL    HW117336   4.346   0.803   4.300
 5479SOL    HW217337   4.365   0.836   4.141
 5480SOL     OW17338   6.105   5.297   5.020
 5480SOL    HW117339   6.084   5.389   5.052
 5480SOL    HW217340   6.021   5.243   5.016
 5481SOL     OW17341   5.126   0.598   4.664
 5481SOL    HW117342   5.078   0.540   4.598
 5481SOL    HW217343   5.077   0.598   4.751
 5482SOL     OW17344   3.332   4.055   1.983
 5482SOL    HW117345   3.285   4.105   1.911
 5482SOL    HW217346   3.270   3.989   2.024
 5483SOL     OW17347   6.111   2.664   5.511
 5483SOL    HW117348   6.027   2.674   5.457
 5483SOL    HW217349   6.164   2.587   5.476
 5484SOL     OW17350   6.024   0.226   3.433
 5484SOL    HW117351   5.999   0.322   3.438
 5484SOL    HW217352   6.123   0.217   3.435
 5485SOL     OW17353   2.867   6.983   4.793
 5485SOL    HW117354   2.811   0.047   4.803
 5485SOL    HW217355   2.855   6.945   4.701
 5486SOL     OW17356   2.288   6.767   3.740
 5486SOL    HW117357   2.272   6.818   3.824
 5486SOL    HW217358   2.213   6.785   3.675
 5487SOL     OW17359   5.709   3.970   6.830
 5487SOL    HW117360   5.667   4.045   6.880
 5487SOL    HW217361   5.654   3.887   6.842
 5488SOL     OW17362   4.774   1.582   0.880
 5488SOL    HW117363   4.858   1.529   0.886
 5488SOL    HW217364   4.720   1.551   0.801
 5489SOL     OW17365   1.378   3.870   1.760
 5489SOL    HW117366   1.424   3.782   1.750
 5489SOL    HW217367   1.279   3.856   1.760
 5490SOL     OW17368   3.839   0.290   1.000
 5490SOL    HW117369   3.752   0.248   0.973
 5490SOL    HW217370   3.887   0.322   0.918
 5491SOL     OW17371   1.304   3.873   6.152
 5491SOL    HW117372   1.288   3.848   6.247
 5491SOL    HW217373   1.222   3.917   6.114
 5492SOL     OW17374   1.434   1.891   5.723
 5492SOL    HW117375   1.426   1.863   5.627
 5492SOL    HW217376   1.366   1.843   5.778
 5493SOL     OW17377   3.444   3.472   4.502
 5493SOL    HW117378   3.505   3.541   4.542
 5493SOL    HW217379   3.458   3.384   4.547
 5494SOL     OW17380   6.549   2.254   0.285
 5494SOL    HW117381   6.522   2.161   0.311
 5494SOL    HW217382   6.640   2.273   0.319
 5495SOL     OW17383   3.055   3.036   1.885
 5495SOL    HW117384   3.004   2.962   1.841
 5495SOL    HW217385   3.017   3.124   1.856
 5496SOL     OW17386   2.673   6.459   2.574
 5496SOL    HW117387   2.661   6.361   2.558
 5496SOL    HW217388   2.738   6.472   2.649
 5497SOL     OW17389   0.098   2.111   3.430
 5497SOL    HW117390   0.060   2.195   3.391
 5497SOL    HW217391   0.172   2.078   3.370
 5498SOL     OW17392   5.282   0.668   0.623
 5498SOL    HW117393   5.372   0.700   0.653
 5498SOL    HW217394   5.264   0.702   0.530
 5499SOL     OW17395   1.040   0.898   3.924
 5499SOL    HW117396   1.013   0.938   3.837
 5499SOL    HW217397   1.020   0.800   3.923
 5500SOL     OW17398   1.474   5.880   6.897
 5500SOL    HW117399   1.452   5.859   6.992
 5500SOL    HW217400   1.460   5.799   6.841
 5501SOL     OW17401   3.399   0.016   0.854
 5501SOL    HW117402   3.332   7.009   0.784
 5501SOL    HW217403   3.403   6.960   0.922
 5502SOL     OW17404   5.647   4.444   6.123
 5502SOL    HW117405   5.688   4.359   6.091
 5502SOL    HW217406   5.715   4.518   6.118
 5503SOL     OW17407   0.240   4.159   2.841
 5503SOL    HW117408   0.171   4.182   2.772
 5503SOL    HW217409   0.227   4.064   2.871
 5504SOL     OW17410   3.031   1.382   5.611
 5504SOL    HW117411   3.028   1.405   5.708
 5504SOL    HW217412   3.125   1.390   5.577
 5505SOL     OW17413   2.763   5.313   4.743
 5505SOL    HW117414   2.783   5.380   4.815
 5505SOL    HW217415   2.750   5.360   4.656
 5506SOL     OW17416   6.633   0.655   5.593
 5506SOL    HW117417   6.637   0.591   5.670
 5506SOL    HW217418   6.556   0.630   5.533
 5507SOL     OW17419   2.287   0.048   2.695
 5507SOL    HW117420   2.316   0.015   2.784
 5507SOL    HW217421   2.252   0.141   2.703
 5508SOL     OW17422   2.531   1.282   6.851
 5508SOL    HW117423   2.564   1.341   6.777
 5508SOL    HW217424   2.601   1.277   6.923
 5509SOL     OW17425   0.880   6.531   0.128
 5509SOL    HW117426   0.890   6.614   0.182
 5509SOL    HW217427   0.971   6.494   0.106
 5510SOL     OW17428   5.296   6.050   0.733
 5510SOL    HW117429   5.377   6.005   0.771
 5510SOL    HW217430   5.317   6.146   0.717
 5511SOL     OW17431   2.811   0.123   4.005
 5511SOL    HW117432   2.783   0.204   3.954
 5511SOL    HW217433   2.803   0.042   3.947
 5512SOL     OW17434   6.332   2.054   0.785
 5512SOL    HW117435   6.400   2.054   0.712
 5512SOL    HW217436   6.312   2.148   0.813
 5513SOL     OW17437   4.233   4.379   6.345
 5513SOL    HW117438   4.167   4.412   6.277
 5513SOL    HW217439   4.323   4.416   6.325
 5514SOL     OW17440   4.937   5.533   2.461
 5514SOL    HW117441   4.978   5.595   2.394
 5514SOL    HW217442   4.916   5.584   2.545
 5515SOL     OW17443   0.502   3.979   1.632
 5515SOL    HW117444   0.527   4.073   1.610
 5515SOL    HW217445   0.554   3.917   1.574
 5516SOL     OW17446   1.052   2.602   0.301
 5516SOL    HW117447   0.970   2.658   0.289
 5516SOL    HW217448   1.120   2.628   0.233
 5517SOL     OW17449   2.729   2.263   2.520
 5517SOL    HW117450   2.665   2.339   2.507
 5517SOL    HW217451   2.685   2.191   2.574
 5518SOL     OW17452   6.328   6.438   6.159
 5518SOL    HW117453   6.367   6.379   6.229
 5518SOL    HW217454   6.323   6.388   6.072
 5519SOL     OW17455   5.338   3.439   3.001
 5519SOL    HW117456   5.308   3.527   2.965
 5519SOL    HW217457   5.431   3.420   2.969
 5520SOL     OW17458   6.958   4.911   2.839
 5520SOL    HW117459   6.863   4.885   2.819
 5520SOL    HW217460   7.003   4.938   2.754
 5521SOL     OW17461   3.909   5.974   2.729
 5521SOL    HW117462   3.820   5.943   2.697
 5521SOL    HW217463   3.897   6.041   2.803
 5522SOL     OW17464   1.264   4.325   0.531
 5522SOL    HW117465   1.359   4.357   0.523
 5522SOL    HW217466   1.203   4.404   0.540
 5523SOL     OW17467   3.174   6.823   3.067
 5523SOL    HW117468   3.227   6.742   3.041
 5523SOL    HW217469   3.218   6.904   3.029
 5524SOL     OW17470   6.952   5.417   4.625
 5524SOL    HW117471   0.019   5.402   4.573
 5524SOL    HW217472   6.910   5.329   4.646
 5525SOL     OW17473   0.043   3.646   0.229
 5525SOL    HW117474   0.085   3.649   0.138
 5525SOL    HW217475   0.114   3.645   0.298
 5526SOL     OW17476   6.081   4.140   4.993
 5526SOL    HW117477   6.150   4.116   5.061
 5526SOL    HW217478   5.990   4.122   5.030
 5527SOL     OW17479   0.665   4.034   3.662
 5527SOL    HW117480   0.758   3.999   3.646
 5527SOL    HW217481   0.659   4.128   3.629
 5528SOL     OW17482   0.954   1.941   6.474
 5528SOL    HW117483   1.053   1.959   6.479
 5528SOL    HW217484   0.939   1.850   6.435
 5529SOL     OW17485   2.382   0.164   4.551
 5529SOL    HW117486   2.391   0.201   4.458
 5529SOL    HW217487   2.473   0.138   4.585
 5530SOL     OW17488   0.092   2.731   2.749
 5530SOL    HW117489   0.094   2.824   2.713
 5530SOL    HW217490   7.017   2.693   2.739
 5531SOL     OW17491   3.788   3.571   3.165
 5531SOL    HW117492   3.777   3.634   3.088
 5531SOL    HW217493   3.884   3.570   3.194
 5532SOL     OW17494   0.992   1.182   1.314
 5532SOL    HW117495   1.025   1.200   1.407
 5532SOL    HW217496   0.971   1.268   1.268
 5533SOL     OW17497   3.293   1.093   2.872
 5533SOL    HW117498   3.298   1.191   2.893
 5533SOL    HW217499   3.238   1.079   2.790
 5534SOL     OW17500   0.676   3.049   5.839
 5534SOL    HW117501   0.668   2.965   5.891
 5534SOL    HW217502   0.747   3.039   5.769
 5535SOL     OW17503   0.557   3.239   3.517
 5535SOL    HW117504   0.533   3.165   3.454
 5535SOL    HW217505   0.540   3.327   3.474
 5536SOL     OW17506   3.714   1.428   4.062
 5536SOL    HW117507   3.751   1.520   4.074
 5536SOL    HW217508   3.766   1.379   3.992
 5537SOL     OW17509   3.184   0.806   4.640
 5537SOL    HW117510   3.216   0.874   4.574
 5537SOL    HW217511   3.220   0.716   4.615
 5538SOL     OW17512   3.127   0.478   4.998
 5538SOL    HW117513   3.122   0.419   5.078
 5538SOL    HW217514   3.199   0.546   5.010
 5539SOL     OW17515   1.363   2.692   0.623
 5539SOL    HW117516   1.446   2.660   0.669
 5539SOL    HW217517   1.334   2.779   0.663
 5540SOL     OW17518   5.857   3.669   2.385
 5540SOL    HW117519   5.873   3.675   2.287
 5540SOL    HW217520   5.836   3.574   2.410
 5541SOL     OW17521   5.332   2.145   6.344
 5541SOL    HW117522   5.369   2.179   6.258
 5541SOL    HW217523   5.365   2.052   6.361
 5542SOL     OW17524   5.582   6.152   6.201
 5542SOL    HW117525   5.630   6.206   6.270
 5542SOL    HW217526   5.483   6.169   6.208
 5543SOL     OW17527   2.461   5.086   6.456
 5543SOL    HW117528   2.511   5.094   6.370
 5543SOL    HW217529   2.513   5.129   6.529
 5544SOL     OW17530   4.943   5.629   6.586
 5544SOL    HW117531   4.922   5.693   6.513
 5544SOL    HW217532   4.978   5.544   6.547
 5545SOL     OW17533   4.370   1.279   3.316
 5545SOL    HW117534   4.441   1.217   3.350
 5545SOL    HW217535   4.280   1.244   3.340
 5546SOL     OW17536   0.962   6.958   4.205
 5546SOL    HW117537   0.955   6.864   4.237
 5546SOL    HW217538   1.018   7.011   4.269
 5547SOL     OW17539   4.012   0.407   4.832
 5547SOL    HW117540   4.055   0.424   4.743
 5547SOL    HW217541   4.042   0.319   4.868
 5548SOL     OW17542   5.616   3.135   4.915
 5548SOL    HW117543   5.600   3.234   4.915
 5548SOL    HW217544   5.704   3.116   4.958
 5549SOL     OW17545   4.320   4.467   0.853
 5549SOL    HW117546   4.297   4.491   0.947
 5549SOL    HW217547   4.310   4.369   0.840
 5550SOL     OW17548   2.304   4.372   2.243
 5550SOL    HW117549   2.362   4.391   2.164
 5550SOL    HW217550   2.213   4.346   2.211
 5551SOL     OW17551   1.698   6.259   3.020
 5551SOL    HW117552   1.687   6.166   2.986
 5551SOL    HW217553   1.622   6.282   3.080
 5552SOL     OW17554   6.778   0.249   6.538
 5552SOL    HW117555   6.767   0.312   6.615
 5552SOL    HW217556   6.874   0.222   6.530
 5553SOL     OW17557   5.234   6.007   6.760
 5553SOL    HW117558   5.176   5.926   6.772
 5553SOL    HW217559   5.206   6.056   6.677
 5554SOL     OW17560   4.317   2.344   6.682
 5554SOL    HW117561   4.324   2.249   6.714
 5554SOL    HW217562   4.242   2.351   6.616
 5555SOL     OW17563   1.213   4.162   2.912
 5555SOL    HW117564   1.141   4.092   2.905
 5555SOL    HW217565   1.175   4.251   2.889
 5556SOL     OW17566   6.520   2.111   3.385
 5556SOL    HW117567   6.547   2.020   3.355
 5556SOL    HW217568   6.537   2.121   3.483
 5557SOL     OW17569   3.863   6.723   2.961
 5557SOL    HW117570   3.846   6.787   3.036
 5557SOL    HW217571   3.939   6.757   2.906
 5558SOL     OW17572   3.593   3.538   5.664
 5558SOL    HW117573   3.625   3.461   5.720
 5558SOL    HW217574   3.497   3.523   5.640
 5559SOL     OW17575   1.788   0.314   1.309
 5559SOL    HW117576   1.802   0.231   1.363
 5559SOL    HW217577   1.874   0.343   1.268
 5560SOL     OW17578   0.771   5.071   1.902
 5560SOL    HW117579   0.844   5.045   1.966
 5560SOL    HW217580   0.712   4.993   1.886
 5561SOL     OW17581   1.852   1.477   4.236
 5561SOL    HW117582   1.825   1.566   4.199
 5561SOL    HW217583   1.800   1.460   4.320
 5562SOL     OW17584   4.183   2.702   6.646
 5562SOL    HW117585   4.243   2.673   6.572
 5562SOL    HW217586   4.235   2.707   6.731
 5563SOL     OW17587   3.830   4.922   2.466
 5563SOL    HW117588   3.752   4.883   2.516
 5563SOL    HW217589   3.868   4.999   2.517
 5564SOL     OW17590   4.817   0.060   0.949
 5564SOL    HW117591   4.737   0.008   0.980
 5564SOL    HW217592   4.806   0.156   0.973
 5565SOL     OW17593   4.264   2.230   6.089
 5565SOL    HW117594   4.308   2.154   6.042
 5565SOL    HW217595   4.299   2.237   6.183
 5566SOL     OW17596   1.357   4.102   6.570
 5566SOL    HW117597   1.365   4.063   6.662
 5566SOL    HW217598   1.435   4.071   6.514
 5567SOL     OW17599   0.064   2.475   0.845
 5567SOL    HW117600   0.012   2.560   0.840
 5567SOL    HW217601   0.131   2.481   0.919
 5568SOL     OW17602   4.681   2.120   3.789
 5568SOL    HW117603   4.629   2.054   3.735
 5568SOL    HW217604   4.623   2.157   3.861
 5569SOL     OW17605   2.232   2.108   2.695
 5569SOL    HW117606   2.281   2.131   2.612
 5569SOL    HW217607   2.135   2.131   2.684
 5570SOL     OW17608   6.389   4.004   5.212
 5570SOL    HW117609   6.453   3.946   5.263
 5570SOL    HW217610   6.410   4.100   5.231
 5571SOL     OW17611   6.624   5.892   0.553
 5571SOL    HW117612   6.691   5.964   0.537
 5571SOL    HW217613   6.665   5.819   0.608
 5572SOL     OW17614   1.263   2.568   4.886
 5572SOL    HW117615   1.230   2.527   4.972
 5572SOL    HW217616   1.255   2.668   4.892
 5573SOL     OW17617   2.079   5.458   5.492
 5573SOL    HW117618   2.130   5.382   5.451
 5573SOL    HW217619   2.021   5.501   5.424
 5574SOL     OW17620   0.005   1.966   2.300
 5574SOL    HW117621   6.982   1.976   2.391
 5574SOL    HW217622   0.050   1.877   2.294
 5575SOL     OW17623   6.489   1.065   0.673
 5575SOL    HW117624   6.420   1.127   0.710
 5575SOL    HW217625   6.454   0.972   0.674
 5576SOL     OW17626   0.890   4.540   1.647
 5576SOL    HW117627   0.832   4.501   1.719
 5576SOL    HW217628   0.832   4.568   1.570
 5577SOL     OW17629   3.032   3.304   5.605
 5577SOL    HW117630   3.073   3.230   5.658
 5577SOL    HW217631   3.016   3.383   5.665
 5578SOL     OW17632   3.189   3.675   0.923
 5578SOL    HW117633   3.191   3.643   1.018
 5578SOL    HW217634   3.115   3.630   0.874
 5579SOL     OW17635   0.649   2.911   0.484
 5579SOL    HW117636   0.639   3.008   0.506
 5579SOL    HW217637   0.718   2.900   0.412
 5580SOL     OW17638   5.401   2.718   5.586
 5580SOL    HW117639   5.373   2.811   5.611
 5580SOL    HW217640   5.495   2.702   5.617
 5581SOL     OW17641   1.491   6.506   1.478
 5581SOL    HW117642   1.409   6.507   1.535
 5581SOL    HW217643   1.554   6.435   1.512
 5582SOL     OW17644   2.853   3.438   5.210
 5582SOL    HW117645   2.864   3.345   5.245
 5582SOL    HW217646   2.941   3.473   5.179
 5583SOL     OW17647   4.911   0.594   2.591
 5583SOL    HW117648   4.860   0.551   2.517
 5583SOL    HW217649   4.879   0.559   2.679
 5584SOL     OW17650   5.782   4.993   4.067
 5584SOL    HW117651   5.778   5.068   4.001
 5584SOL    HW217652   5.808   4.909   4.020
 5585SOL     OW17653   5.327   5.705   3.516
 5585SOL    HW117654   5.374   5.710   3.604
 5585SOL    HW217655   5.253   5.637   3.521
 5586SOL     OW17656   0.582   2.245   6.613
 5586SOL    HW117657   0.666   2.292   6.584
 5586SOL    HW217658   0.502   2.298   6.584
 5587SOL     OW17659   4.334   6.661   1.799
 5587SOL    HW117660   4.237   6.661   1.823
 5587SOL    HW217661   4.372   6.570   1.818
 5588SOL     OW17662   1.904   5.842   2.986
 5588SOL    HW117663   1.914   5.869   3.082
 5588SOL    HW217664   1.901   5.743   2.979
 5589SOL     OW17665   6.344   3.718   5.598
 5589SOL    HW117666   6.410   3.782   5.561
 5589SOL    HW217667   6.316   3.653   5.527
 5590SOL     OW17668   6.937   6.261   4.071
 5590SOL    HW117669   6.863   6.304   4.020
 5590SOL    HW217670   6.957   6.314   4.153
 5591SOL     OW17671   5.307   1.567   0.182
 5591SOL    HW117672   5.241   1.613   0.242
 5591SOL    HW217673   5.258   1.517   0.111
 5592SOL     OW17674   0.036   5.337   2.203
 5592SOL    HW117675   7.012   5.399   2.136
 5592SOL    HW217676   0.017   5.370   2.295
 5593SOL     OW17677   0.738   3.311   0.048
 5593SOL    HW117678   0.715   3.335   6.972
 5593SOL    HW217679   0.822   3.358   0.075
 5594SOL     OW17680   4.202   0.751   6.218
 5594SOL    HW117681   4.245   0.789   6.136
 5594SOL    HW217682   4.201   0.821   6.290
 5595SOL     OW17683   6.767   0.730   4.551
 5595SOL    HW117684   6.726   0.640   4.534
 5595SOL    HW217685   6.754   0.755   4.647
 5596SOL     OW17686   4.828   0.653   3.145
 5596SOL    HW117687   4.862   0.729   3.200
 5596SOL    HW217688   4.819   0.572   3.202
 5597SOL     OW17689   5.263   2.558   4.992
 5597SOL    HW117690   5.358   2.558   4.962
 5597SOL    HW217691   5.213   2.631   4.946
 5598SOL     OW17692   5.979   3.642   3.460
 5598SOL    HW117693   6.025   3.727   3.487
 5598SOL    HW217694   6.045   3.568   3.455
 5599SOL     OW17695   0.762   2.324   1.468
 5599SOL    HW117696   0.808   2.410   1.445
 5599SOL    HW217697   0.825   2.247   1.455
 5600SOL     OW17698   1.607   0.859   1.785
 5600SOL    HW117699   1.610   0.863   1.685
 5600SOL    HW217700   1.557   0.778   1.814
 5601SOL     OW17701   2.401   0.825   6.563
 5601SOL    HW117702   2.423   0.918   6.593
 5601SOL    HW217703   2.394   0.765   6.642
 5602SOL     OW17704   6.851   1.790   1.495
 5602SOL    HW117705   6.763   1.810   1.452
 5602SOL    HW217706   6.925   1.831   1.442
 5603SOL     OW17707   6.006   2.303   0.439
 5603SOL    HW117708   6.039   2.385   0.393
 5603SOL    HW217709   6.084   2.253   0.478
 5604SOL     OW17710   6.084   1.868   4.572
 5604SOL    HW117711   6.165   1.860   4.630
 5604SOL    HW217712   6.004   1.887   4.629
 5605SOL     OW17713   6.126   1.323   5.235
 5605SOL    HW117714   6.110   1.261   5.312
 5605SOL    HW217715   6.097   1.278   5.150
 5606SOL     OW17716   4.993   6.261   7.012
 5606SOL    HW117717   5.043   6.344   0.022
 5606SOL    HW217718   5.047   6.180   0.020
 5607SOL     OW17719   6.157   1.223   3.050
 5607SOL    HW117720   6.063   1.188   3.050
 5607SOL    HW217721   6.221   1.149   3.068
 5608SOL     OW17722   5.492   0.516   3.923
 5608SOL    HW117723   5.520   0.441   3.865
 5608SOL    HW217724   5.405   0.552   3.892
 5609SOL     OW17725   3.301   6.019   1.251
 5609SOL    HW117726   3.321   6.054   1.343
 5609SOL    HW217727   3.332   5.924   1.245
 5610SOL     OW17728   5.061   5.439   1.272
 5610SOL    HW117729   5.042   5.411   1.367
 5610SOL    HW217730   4.976   5.437   1.220
 5611SOL     OW17731   0.573   6.060   3.125
 5611SOL    HW117732   0.629   6.057   3.042
 5611SOL    HW217733   0.546   5.967   3.149
 5612SOL     OW17734   3.988   2.142   6.000
 5612SOL    HW117735   4.085   2.165   5.993
 5612SOL    HW217736   3.971   2.093   6.086
 5613SOL     OW17737   6.741   5.274   3.999
 5613SOL    HW117738   6.818   5.215   3.973
 5613SOL    HW217739   6.655   5.227   3.982
 5614SOL     OW17740   4.313   2.124   4.574
 5614SOL    HW117741   4.246   2.174   4.628
 5614SOL    HW217742   4.269   2.086   4.493
 5615SOL     OW17743   6.772   1.599   3.816
 5615SOL    HW117744   6.821   1.522   3.774
 5615SOL    HW217745   6.689   1.566   3.860
 5616SOL     OW17746   2.610   2.402   4.706
 5616SOL    HW117747   2.528   2.355   4.673
 5616SOL    HW217748   2.690   2.345   4.689
 5617SOL     OW17749   2.637   6.100   5.609
 5617SOL    HW117750   2.573   6.116   5.534
 5617SOL    HW217751   2.634   6.003   5.636
 5618SOL     OW17752   0.180   4.181   3.594
 5618SOL    HW117753   0.182   4.095   3.645
 5618SOL    HW217754   0.264   4.233   3.614
 5619SOL     OW17755   3.712   4.191   4.672
 5619SOL    HW117756   3.754   4.158   4.757
 5619SOL    HW217757   3.750   4.142   4.594
 5620SOL     OW17758   4.124   3.166   0.915
 5620SOL    HW117759   4.103   3.175   0.818
 5620SOL    HW217760   4.108   3.071   0.944
 5621SOL     OW17761   2.409   2.867   0.387
 5621SOL    HW117762   2.338   2.859   0.318
 5621SOL    HW217763   2.487   2.917   0.349
 5622SOL     OW17764   5.060   0.567   5.855
 5622SOL    HW117765   5.122   0.494   5.884
 5622SOL    HW217766   5.111   0.636   5.803
 5623SOL     OW17767   3.944   5.697   5.015
 5623SOL    HW117768   3.978   5.770   5.074
 5623SOL    HW217769   3.877   5.643   5.066
 5624SOL     OW17770   0.728   4.627   3.508
 5624SOL    HW117771   0.709   4.718   3.545
 5624SOL    HW217772   0.741   4.633   3.409
 5625SOL     OW17773   5.799   0.023   5.125
 5625SOL    HW117774   5.883   0.076   5.132
 5625SOL    HW217775   5.779   6.997   5.212
 5626SOL     OW17776   2.427   6.029   4.821
 5626SOL    HW117777   2.385   6.109   4.778
 5626SOL    HW217778   2.365   5.989   4.888
 5627SOL     OW17779   0.442   5.280   6.547
 5627SOL    HW117780   0.413   5.289   6.642
 5627SOL    HW217781   0.364   5.296   6.487
 5628SOL     OW17782   1.683   2.336   2.669
 5628SOL    HW117783   1.699   2.309   2.574
 5628SOL    HW217784   1.701   2.257   2.729
 5629SOL     OW17785   3.793   3.660   1.924
 5629SOL    HW117786   3.725   3.708   1.980
 5629SOL    HW217787   3.833   3.723   1.858
 5630SOL     OW17788   2.075   3.627   6.460
 5630SOL    HW117789   2.104   3.711   6.506
 5630SOL    HW217790   1.976   3.628   6.449
 5631SOL     OW17791   4.705   1.871   1.672
 5631SOL    HW117792   4.670   1.813   1.745
 5631SOL    HW217793   4.777   1.931   1.708
 5632SOL     OW17794   2.629   2.413   5.831
 5632SOL    HW117795   2.642   2.408   5.930
 5632SOL    HW217796   2.535   2.388   5.809
 5633SOL     OW17797   6.253   4.681   4.543
 5633SOL    HW117798   6.292   4.605   4.595
 5633SOL    HW217799   6.160   4.657   4.514
 5634SOL     OW17800   2.344   5.079   4.047
 5634SOL    HW117801   2.298   5.058   3.961
 5634SOL    HW217802   2.318   5.012   4.117
 5635SOL     OW17803   1.906   4.986   6.065
 5635SOL    HW117804   1.904   4.887   6.053
 5635SOL    HW217805   1.991   5.012   6.111
 5636SOL     OW17806   4.742   6.727   5.051
 5636SOL    HW117807   4.730   6.809   4.995
 5636SOL    HW217808   4.662   6.668   5.042
 5637SOL     OW17809   5.229   0.579   3.042
 5637SOL    HW117810   5.316   0.543   3.077
 5637SOL    HW217811   5.215   0.546   2.949
 5638SOL     OW17812   6.256   3.782   0.558
 5638SOL    HW117813   6.212   3.746   0.476
 5638SOL    HW217814   6.263   3.710   0.627
 5639SOL     OW17815   1.146   0.918   2.839
 5639SOL    HW117816   1.130   0.828   2.801
 5639SOL    HW217817   1.138   0.987   2.767
 5640SOL     OW17818   3.756   0.483   3.756
 5640SOL    HW117819   3.682   0.520   3.811
 5640SOL    HW217820   3.735   0.492   3.659
 5641SOL     OW17821   0.968   5.362   4.964
 5641SOL    HW117822   0.899   5.425   5.000
 5641SOL    HW217823   0.932   5.269   4.966
 5642SOL     OW17824   2.170   6.647   4.642
 5642SOL    HW117825   2.207   6.737   4.618
 5642SOL    HW217826   2.245   6.583   4.657
 5643SOL     OW17827   4.202   1.328   4.736
 5643SOL    HW117828   4.192   1.425   4.754
 5643SOL    HW217829   4.166   1.307   4.644
 5644SOL     OW17830   2.927   0.203   5.055
 5644SOL    HW117831   2.867   0.243   5.124
 5644SOL    HW217832   3.022   0.229   5.073
 5645SOL     OW17833   6.288   4.786   3.880
 5645SOL    HW117834   6.326   4.761   3.791
 5645SOL    HW217835   6.215   4.721   3.904
 5646SOL     OW17836   1.868   5.253   4.149
 5646SOL    HW117837   1.851   5.342   4.190
 5646SOL    HW217838   1.935   5.203   4.204
 5647SOL     OW17839   4.817   5.345   1.144
 5647SOL    HW117840   4.837   5.352   1.047
 5647SOL    HW217841   4.818   5.249   1.172
 5648SOL     OW17842   1.906   6.873   2.807
 5648SOL    HW117843   1.979   6.834   2.864
 5648SOL    HW217844   1.939   6.881   2.713
 5649SOL     OW17845   0.820   0.786   4.299
 5649SOL    HW117846   0.772   0.834   4.372
 5649SOL    HW217847   0.915   0.768   4.327
 5650SOL     OW17848   0.093   5.473   0.878
 5650SOL    HW117849   0.038   5.415   0.938
 5650SOL    HW217850   0.160   5.524   0.932
 5651SOL     OW17851   1.584   0.408   1.587
 5651SOL    HW117852   1.562   0.439   1.495
 5651SOL    HW217853   1.636   0.478   1.635
 5652SOL     OW17854   6.167   7.011   1.750
 5652SOL    HW117855   6.171   0.035   1.659
 5652SOL    HW217856   6.131   0.060   1.815
 5653SOL     OW17857   6.356   6.119   6.447
 5653SOL    HW117858   6.437   6.158   6.490
 5653SOL    HW217859   6.360   6.020   6.452
 5654SOL     OW17860   0.378   6.072   5.229
 5654SOL    HW117861   0.394   6.052   5.325
 5654SOL    HW217862   0.462   6.056   5.177
 5655SOL     OW17863   0.966   3.818   3.908
 5655SOL    HW117864   0.975   3.917   3.915
 5655SOL    HW217865   1.000   3.788   3.819
 5656SOL     OW17866   6.969   3.491   6.190
 5656SOL    HW117867   0.046   3.498   6.222
 5656SOL    HW217868   6.963   3.422   6.119
 5657SOL     OW17869   6.447   2.359   0.052
 5657SOL    HW117870   6.458   2.299   0.131
 5657SOL    HW217871   6.359   2.406   0.058
 5658SOL     OW17872   3.760   3.692   6.696
 5658SOL    HW117873   3.745   3.778   6.744
 5658SOL    HW217874   3.768   3.618   6.762
 5659SOL     OW17875   3.569   3.133   5.156
 5659SOL    HW117876   3.485   3.081   5.171
 5659SOL    HW217877   3.618   3.143   5.242
 5660SOL     OW17878   4.431   0.025   6.835
 5660SOL    HW117879   4.426   0.078   6.750
 5660SOL    HW217880   4.492   6.965   6.822
 5661SOL     OW17881   1.353   5.841   4.855
 5661SOL    HW117882   1.293   5.919   4.872
 5661SOL    HW217883   1.444   5.861   4.892
 5662SOL     OW17884   2.774   5.833   3.679
 5662SOL    HW117885   2.800   5.817   3.775
 5662SOL    HW217886   2.678   5.807   3.666
 5663SOL     OW17887   2.088   2.409   0.451
 5663SOL    HW117888   2.164   2.446   0.397
 5663SOL    HW217889   2.122   2.334   0.509
 5664SOL     OW17890   6.543   3.493   4.823
 5664SOL    HW117891   6.523   3.437   4.904
 5664SOL    HW217892   6.561   3.432   4.745
 5665SOL     OW17893   2.401   0.839   0.505
 5665SOL    HW117894   2.431   0.744   0.510
 5665SOL    HW217895   2.317   0.850   0.557
 5666SOL     OW17896   6.435   0.182   3.228
 5666SOL    HW117897   6.445   0.084   3.214
 5666SOL    HW217898   6.520   0.228   3.203
 5667SOL     OW17899   1.544   5.448   4.420
 5667SOL    HW117900   1.639   5.459   4.392
 5667SOL    HW217901   1.492   5.529   4.393
 5668SOL     OW17902   5.157   3.033   3.417
 5668SOL    HW117903   5.204   2.952   3.382
 5668SOL    HW217904   5.058   3.016   3.417
 5669SOL     OW17905   6.913   3.624   0.722
 5669SOL    HW117906   6.929   3.525   0.726
 5669SOL    HW217907   6.912   3.661   0.815
 5670SOL     OW17908   0.613   3.804   3.955
 5670SOL    HW117909   0.662   3.725   3.993
 5670SOL    HW217910   0.669   3.886   3.968
 5671SOL     OW17911   5.995   5.802   6.014
 5671SOL    HW117912   5.910   5.854   6.016
 5671SOL    HW217913   6.055   5.839   5.944
 5672SOL     OW17914   4.261   3.764   0.016
 5672SOL    HW117915   4.215   3.853   0.010
 5672SOL    HW217916   4.355   3.773   7.002
 5673SOL     OW17917   1.742   6.693   1.198
 5673SOL    HW117918   1.709   6.695   1.103
 5673SOL    HW217919   1.698   6.618   1.247
 5674SOL     OW17920   0.533   4.449   5.247
 5674SOL    HW117921   0.435   4.447   5.226
 5674SOL    HW217922   0.547   4.485   5.339
 5675SOL     OW17923   4.081   3.008   6.096
 5675SOL    HW117924   4.032   3.082   6.050
 5675SOL    HW217925   4.116   2.944   6.028
 5676SOL     OW17926   3.036   1.924   2.766
 5676SOL    HW117927   2.940   1.895   2.769
 5676SOL    HW217928   3.049   1.987   2.689
 5677SOL     OW17929   0.586   1.055   0.603
 5677SOL    HW117930   0.640   1.098   0.530
 5677SOL    HW217931   0.648   1.014   0.670
 5678SOL     OW17932   4.138   6.673   2.816
 5678SOL    HW117933   4.191   6.758   2.812
 5678SOL    HW217934   4.184   6.608   2.875
 5679SOL     OW17935   6.742   1.246   3.912
 5679SOL    HW117936   6.669   1.190   3.873
 5679SOL    HW217937   6.780   1.200   3.992
 5680SOL     OW17938   1.584   5.559   6.341
 5680SOL    HW117939   1.678   5.587   6.360
 5680SOL    HW217940   1.579   5.516   6.251
 5681SOL     OW17941   0.651   3.461   1.432
 5681SOL    HW117942   0.710   3.381   1.445
 5681SOL    HW217943   0.684   3.536   1.490
 5682SOL     OW17944   2.145   5.453   4.741
 5682SOL    HW117945   2.169   5.541   4.783
 5682SOL    HW217946   2.085   5.402   4.803
 5683SOL     OW17947   4.015   1.290   5.704
 5683SOL    HW117948   3.969   1.292   5.793
 5683SOL    HW217949   4.106   1.250   5.716
 5684SOL     OW17950   2.308   3.731   5.798
 5684SOL    HW117951   2.250   3.754   5.877
 5684SOL    HW217952   2.295   3.634   5.776
 5685SOL     OW17953   1.814   1.496   3.198
 5685SOL    HW117954   1.751   1.437   3.147
 5685SOL    HW217955   1.835   1.453   3.286
 5686SOL     OW17956   2.887   1.678   6.293
 5686SOL    HW117957   2.969   1.673   6.236
 5686SOL    HW217958   2.880   1.768   6.334
 5687SOL     OW17959   0.301   5.268   6.819
 5687SOL    HW117960   0.204   5.255   6.837
 5687SOL    HW217961   0.330   5.356   6.855
 5688SOL     OW17962   1.090   2.644   2.180
 5688SOL    HW117963   1.160   2.707   2.212
 5688SOL    HW217964   1.130   2.553   2.169
 5689SOL     OW17965   3.246   1.500   1.235
 5689SOL    HW117966   3.168   1.451   1.275
 5689SOL    HW217967   3.313   1.434   1.203
 5690SOL     OW17968   2.104   5.958   6.909
 5690SOL    HW117969   2.175   5.966   6.979
 5690SOL    HW217970   2.097   5.863   6.880
 5691SOL     OW17971   4.088   0.401   2.250
 5691SOL    HW117972   4.174   0.354   2.231
 5691SOL    HW217973   4.016   0.362   2.192
 5692SOL     OW17974   5.654   3.903   0.532
 5692SOL    HW117975   5.680   3.910   0.629
 5692SOL    HW217976   5.583   3.971   0.512
 5693SOL     OW17977   4.891   1.445   2.841
 5693SOL    HW117978   4.896   1.436   2.741
 5693SOL    HW217979   4.800   1.417   2.872
 5694SOL     OW17980   1.068   1.454   2.944
 5694SOL    HW117981   0.989   1.477   3.002
 5694SOL    HW217982   1.115   1.374   2.982
 5695SOL     OW17983   1.733   2.107   4.083
 5695SOL    HW117984   1.663   2.042   4.053
 5695SOL    HW217985   1.693   2.171   4.149
 5696SOL     OW17986   0.923   1.293   3.533
 5696SOL    HW117987   0.985   1.237   3.589
 5696SOL    HW217988   0.931   1.266   3.437
 5697SOL     OW17989   6.239   2.524   1.591
 5697SOL    HW117990   6.220   2.577   1.674
 5697SOL    HW217991   6.162   2.463   1.572
 5698SOL     OW17992   0.966   4.710   4.106
 5698SOL    HW117993   0.905   4.665   4.171
 5698SOL    HW217994   1.030   4.768   4.155
 5699SOL     OW17995   1.138   2.351   3.392
 5699SOL    HW117996   1.204   2.364   3.466
 5699SOL    HW217997   1.086   2.266   3.408
 5700SOL     OW17998   6.311   0.200   3.459
 5700SOL    HW117999   6.349   0.200   3.367
 5700SOL    HW218000   6.347   0.278   3.510
 5701SOL     OW18001   0.699   0.126   1.146
 5701SOL    HW118002   0.612   0.077   1.146
 5701SOL    HW218003   0.695   0.202   1.210
 5702SOL     OW18004   2.727   5.418   4.225
 5702SOL    HW118005   2.822   5.449   4.216
 5702SOL    HW218006   2.691   5.392   4.136
 5703SOL     OW18007   6.506   4.726   1.061
 5703SOL    HW118008   6.516   4.729   1.160
 5703SOL    HW218009   6.535   4.636   1.027
 5704SOL     OW18010   4.864   3.910   3.040
 5704SOL    HW118011   4.840   3.852   2.962
 5704SOL    HW218012   4.834   3.867   3.125
 5705SOL     OW18013   5.063   6.696   6.973
 5705SOL    HW118014   5.126   6.774   6.979
 5705SOL    HW218015   5.108   6.614   7.007
 5706SOL     OW18016   0.023   3.070   2.062
 5706SOL    HW118017   7.013   3.048   2.156
 5706SOL    HW218018   7.003   3.159   2.036
 5707SOL     OW18019   0.009   6.588   0.647
 5707SOL    HW118020   6.960   6.660   0.665
 5707SOL    HW218021   0.095   6.629   0.616
 5708SOL     OW18022   5.171   5.871   2.008
 5708SOL    HW118023   5.221   5.941   1.957
 5708SOL    HW218024   5.174   5.785   1.958
 5709SOL     OW18025   1.149   1.103   2.628
 5709SOL    HW118026   1.088   1.177   2.599
 5709SOL    HW218027   1.185   1.056   2.548
 5710SOL     OW18028   3.245   2.896   0.917
 5710SOL    HW118029   3.237   2.796   0.918
 5710SOL    HW218030   3.257   2.930   1.010
 5711SOL     OW18031   5.481   1.207   2.885
 5711SOL    HW118032   5.501   1.301   2.912
 5711SOL    HW218033   5.498   1.145   2.961
 5712SOL     OW18034   6.569   0.319   0.249
 5712SOL    HW118035   6.608   0.374   0.322
 5712SOL    HW218036   6.542   0.378   0.173
 5713SOL     OW18037   3.093   3.606   1.662
 5713SOL    HW118038   3.078   3.512   1.631
 5713SOL    HW218039   3.173   3.644   1.616
 5714SOL     OW18040   0.291   5.307   0.753
 5714SOL    HW118041   0.203   5.350   0.733
 5714SOL    HW218042   0.283   5.251   0.836
 5715SOL     OW18043   0.784   1.074   2.493
 5715SOL    HW118044   0.820   1.160   2.529
 5715SOL    HW218045   0.847   1.038   2.424
 5716SOL     OW18046   1.570   5.198   6.340
 5716SOL    HW118047   1.559   5.129   6.411
 5716SOL    HW218048   1.631   5.164   6.269
 5717SOL     OW18049   1.780   4.569   0.840
 5717SOL    HW118050   1.743   4.607   0.755
 5717SOL    HW218051   1.760   4.631   0.916
 5718SOL     OW18052   0.502   3.107   7.009
 5718SOL    HW118053   0.584   3.143   0.037
 5718SOL    HW218054   0.462   3.178   6.952
 5719SOL     OW18055   1.808   2.662   6.909
 5719SOL    HW118056   1.725   2.717   6.896
 5719SOL    HW218057   1.884   2.704   6.861
 5720SOL     OW18058   2.419   5.903   5.176
 5720SOL    HW118059   2.360   5.870   5.250
 5720SOL    HW218060   2.435   5.829   5.111
 5721SOL     OW18061   6.318   3.464   0.951
 5721SOL    HW118062   6.379   3.385   0.951
 5721SOL    HW218063   6.239   3.445   1.008
 5722SOL     OW18064   6.914   2.123   5.058
 5722SOL    HW118065   7.004   2.152   5.026
 5722SOL    HW218066   6.843   2.162   4.998
 5723SOL     OW18067   4.382   3.359   0.327
 5723SOL    HW118068   4.391   3.454   0.355
 5723SOL    HW218069   4.351   3.355   0.232
 5724SOL     OW18070   5.138   3.048   4.098
 5724SOL    HW118071   5.235   3.074   4.097
 5724SOL    HW218072   5.112   3.014   4.008
 5725SOL     OW18073   6.100   4.853   4.227
 5725SOL    HW118074   6.069   4.886   4.315
 5725SOL    HW218075   6.143   4.928   4.176
 5726SOL     OW18076   6.999   5.732   4.162
 5726SOL    HW118077   0.030   5.653   4.199
 5726SOL    HW218078   6.984   5.719   4.064
 5727SOL     OW18079   6.437   2.273   4.231
 5727SOL    HW118080   6.429   2.365   4.193
 5727SOL    HW218081   6.348   2.228   4.229
 5728SOL     OW18082   4.425   6.803   6.080
 5728SOL    HW118083   4.456   6.710   6.061
 5728SOL    HW218084   4.328   6.811   6.054
 5729SOL     OW18085   2.232   0.662   0.261
 5729SOL    HW118086   2.296   0.620   0.326
 5729SOL    HW218087   2.138   0.639   0.288
 5730SOL     OW18088   5.278   4.557   6.371
 5730SOL    HW118089   5.225   4.479   6.338
 5730SOL    HW218090   5.318   4.606   6.293
 5731SOL     OW18091   0.779   6.956   2.932
 5731SOL    HW118092   0.762   6.935   3.028
 5731SOL    HW218093   0.877   6.973   2.918
 5732SOL     OW18094   0.114   5.508   3.859
 5732SOL    HW118095   0.167   5.438   3.906
 5732SOL    HW218096   0.074   5.470   3.776
 5733SOL     OW18097   3.380   6.492   5.735
 5733SOL    HW118098   3.407   6.504   5.831
 5733SOL    HW218099   3.422   6.408   5.699
 5734SOL     OW18100   0.804   0.286   5.009
 5734SOL    HW118101   0.768   0.326   4.925
 5734SOL    HW218102   0.823   0.189   4.994
 5735SOL     OW18103   4.153   1.887   1.600
 5735SOL    HW118104   4.055   1.880   1.618
 5735SOL    HW218105   4.178   1.829   1.523
 5736SOL     OW18106   6.108   4.035   0.351
 5736SOL    HW118107   6.157   3.990   0.276
 5736SOL    HW218108   6.033   3.977   0.382
 5737SOL     OW18109   5.764   6.254   0.826
 5737SOL    HW118110   5.691   6.219   0.886
 5737SOL    HW218111   5.777   6.351   0.844
 5738SOL     OW18112   1.922   2.505   5.804
 5738SOL    HW118113   1.881   2.508   5.713
 5738SOL    HW218114   1.940   2.410   5.830
 5739SOL     OW18115   1.634   0.582   5.878
 5739SOL    HW118116   1.598   0.495   5.847
 5739SOL    HW218117   1.565   0.628   5.935
 5740SOL     OW18118   4.529   4.435   0.696
 5740SOL    HW118119   4.444   4.451   0.746
 5740SOL    HW218120   4.602   4.409   0.760
 5741SOL     OW18121   1.295   4.911   5.040
 5741SOL    HW118122   1.327   5.004   5.017
 5741SOL    HW218123   1.261   4.867   4.957
 5742SOL     OW18124   5.296   6.768   2.505
 5742SOL    HW118125   5.213   6.716   2.487
 5742SOL    HW218126   5.375   6.718   2.472
 5743SOL     OW18127   2.626   5.991   5.017
 5743SOL    HW118128   2.568   5.992   5.098
 5743SOL    HW218129   2.569   5.995   4.935
 5744SOL     OW18130   4.732   0.372   1.976
 5744SOL    HW118131   4.690   0.297   2.027
 5744SOL    HW218132   4.766   0.338   1.889
 5745SOL     OW18133   3.280   0.758   3.943
 5745SOL    HW118134   3.204   0.709   3.986
 5745SOL    HW218135   3.293   0.723   3.850
 5746SOL     OW18136   5.666   0.137   1.485
 5746SOL    HW118137   5.742   0.171   1.430
 5746SOL    HW218138   5.603   0.086   1.427
 5747SOL     OW18139   0.012   5.053   2.558
 5747SOL    HW118140   6.966   5.114   2.605
 5747SOL    HW218141   6.980   4.971   2.528
 5748SOL     OW18142   1.348   5.443   0.725
 5748SOL    HW118143   1.293   5.416   0.645
 5748SOL    HW218144   1.390   5.532   0.708
 5749SOL     OW18145   1.868   0.414   4.617
 5749SOL    HW118146   1.784   0.464   4.636
 5749SOL    HW218147   1.868   0.328   4.669
 5750SOL     OW18148   5.803   5.390   4.292
 5750SOL    HW118149   5.746   5.330   4.348
 5750SOL    HW218150   5.861   5.334   4.232
 5751SOL     OW18151   2.184   2.658   4.613
 5751SOL    HW118152   2.208   2.663   4.710
 5751SOL    HW218153   2.099   2.605   4.602
 5752SOL     OW18154   6.686   0.504   6.720
 5752SOL    HW118155   6.647   0.432   6.778
 5752SOL    HW218156   6.783   0.516   6.743
 5753SOL     OW18157   2.979   3.875   5.644
 5753SOL    HW118158   2.888   3.834   5.636
 5753SOL    HW218159   3.019   3.884   5.553
 5754SOL     OW18160   5.976   4.299   1.382
 5754SOL    HW118161   6.061   4.352   1.380
 5754SOL    HW218162   5.942   4.286   1.289
 5755SOL     OW18163   2.797   3.532   5.662
 5755SOL    HW118164   2.779   3.630   5.649
 5755SOL    HW218165   2.754   3.480   5.588
 5756SOL     OW18166   6.208   6.456   3.082
 5756SOL    HW118167   6.203   6.535   3.143
 5756SOL    HW218168   6.246   6.378   3.132
 5757SOL     OW18169   6.637   6.776   2.565
 5757SOL    HW118170   6.598   6.716   2.634
 5757SOL    HW218171   6.594   6.756   2.476
 5758SOL     OW18172   3.313   1.225   4.007
 5758SOL    HW118173   3.375   1.278   3.950
 5758SOL    HW218174   3.349   1.133   4.019
 5759SOL     OW18175   4.434   1.795   6.632
 5759SOL    HW118176   4.487   1.821   6.713
 5759SOL    HW218177   4.349   1.849   6.629
 5760SOL     OW18178   1.169   5.198   1.474
 5760SOL    HW118179   1.261   5.160   1.484
 5760SOL    HW218180   1.144   5.201   1.378
 5761SOL     OW18181   5.670   7.000   6.248
 5761SOL    HW118182   5.626   6.994   6.159
 5761SOL    HW218183   5.765   6.969   6.241
 5762SOL     OW18184   4.955   6.598   0.458
 5762SOL    HW118185   4.970   6.524   0.523
 5762SOL    HW218186   4.997   6.682   0.494
 5763SOL     OW18187   0.343   0.178   0.181
 5763SOL    HW118188   0.368   0.155   0.087
 5763SOL    HW218189   0.249   0.151   0.198
 5764SOL     OW18190   5.464   4.390   6.504
 5764SOL    HW118191   5.430   4.468   6.453
 5764SOL    HW218192   5.391   4.355   6.563
 5765SOL     OW18193   6.561   3.994   6.309
 5765SOL    HW118194   6.582   4.045   6.392
 5765SOL    HW218195   6.486   3.931   6.326
 5766SOL     OW18196   2.144   2.072   0.570
 5766SOL    HW118197   2.191   2.151   0.610
 5766SOL    HW218198   2.193   2.042   0.488
 5767SOL     OW18199   2.236   0.145   0.711
 5767SOL    HW118200   2.237   0.053   0.671
 5767SOL    HW218201   2.198   0.210   0.645
 5768SOL     OW18202   0.148   6.663   2.963
 5768SOL    HW118203   0.227   6.714   2.928
 5768SOL    HW218204   0.101   6.719   3.032
 5769SOL     OW18205   3.085   6.949   3.855
 5769SOL    HW118206   2.986   6.946   3.866
 5769SOL    HW218207   3.126   7.000   3.930
 5770SOL     OW18208   0.291   6.590   0.571
 5770SOL    HW118209   0.362   6.625   0.510
 5770SOL    HW218210   0.324   6.509   0.619
 5771SOL     OW18211   0.947   5.832   2.299
 5771SOL    HW118212   0.939   5.761   2.229
 5771SOL    HW218213   0.905   5.916   2.265
 5772SOL     OW18214   5.860   2.626   0.601
 5772SOL    HW118215   5.765   2.623   0.572
 5772SOL    HW218216   5.875   2.559   0.674
 5773SOL     OW18217   5.010   0.652   3.874
 5773SOL    HW118218   4.975   0.634   3.782
 5773SOL    HW218219   5.108   0.630   3.877
 5774SOL     OW18220   2.733   5.103   3.821
 5774SOL    HW118221   2.803   5.033   3.811
 5774SOL    HW218222   2.718   5.149   3.734
 5775SOL     OW18223   1.466   6.760   1.582
 5775SOL    HW118224   1.471   6.677   1.526
 5775SOL    HW218225   1.418   6.740   1.667
 5776SOL     OW18226   6.708   0.927   5.675
 5776SOL    HW118227   6.625   0.963   5.717
 5776SOL    HW218228   6.685   0.846   5.621
 5777SOL     OW18229   6.044   0.347   4.428
 5777SOL    HW118230   5.952   0.355   4.389
 5777SOL    HW218231   6.043   0.280   4.502
 5778SOL     OW18232   2.077   6.980   1.083
 5778SOL    HW118233   2.142   0.037   1.070
 5778SOL    HW218234   1.986   7.009   1.055
 5779SOL     OW18235   4.012   1.161   1.049
 5779SOL    HW118236   4.111   1.149   1.050
 5779SOL    HW218237   3.990   1.256   1.071
 5780SOL     OW18238   5.718   5.594   2.641
 5780SOL    HW118239   5.657   5.589   2.721
 5780SOL    HW218240   5.797   5.535   2.656
 5781SOL     OW18241   1.427   4.597   4.557
 5781SOL    HW118242   1.454   4.670   4.495
 5781SOL    HW218243   1.378   4.526   4.506
 5782SOL     OW18244   1.542   0.999   1.065
 5782SOL    HW118245   1.583   1.086   1.037
 5782SOL    HW218246   1.614   0.930   1.076
 5783SOL     OW18247   1.932   1.526   1.190
 5783SOL    HW118248   1.948   1.429   1.170
 5783SOL    HW218249   1.971   1.549   1.279
 5784SOL     OW18250   0.503   6.640   0.443
 5784SOL    HW118251   0.567   6.565   0.428
 5784SOL    HW218252   0.552   6.720   0.478
 5785SOL     OW18253   1.705   2.109   1.356
 5785SOL    HW118254   1.618   2.153   1.333
 5785SOL    HW218255   1.767   2.176   1.395
 5786SOL     OW18256   1.112   3.973   0.857
 5786SOL    HW118257   1.103   3.875   0.839
 5786SOL    HW218258   1.152   3.986   0.947
 5787SOL     OW18259   4.894   2.180   4.535
 5787SOL    HW118260   4.881   2.144   4.443
 5787SOL    HW218261   4.806   2.212   4.571
 5788SOL     OW18262   2.926   0.398   1.471
 5788SOL    HW118263   2.920   0.372   1.567
 5788SOL    HW218264   2.955   0.318   1.417
 5789SOL     OW18265   3.305   2.729   6.322
 5789SOL    HW118266   3.262   2.662   6.261
 5789SOL    HW218267   3.247   2.810   6.328
 5790SOL     OW18268   6.687   5.851   5.433
 5790SOL    HW118269   6.610   5.788   5.422
 5790SOL    HW218270   6.771   5.799   5.451
 5791SOL     OW18271   2.981   1.655   2.852
 5791SOL    HW118272   3.031   1.726   2.804
 5791SOL    HW218273   2.883   1.674   2.849
 5792SOL     OW18274   4.847   3.836   3.310
 5792SOL    HW118275   4.923   3.854   3.372
 5792SOL    HW218276   4.763   3.877   3.346
 5793SOL     OW18277   5.895   1.204   5.741
 5793SOL    HW118278   5.993   1.209   5.722
 5793SOL    HW218279   5.859   1.116   5.709
 5794SOL     OW18280   3.745   0.203   6.716
 5794SOL    HW118281   3.721   0.190   6.812
 5794SOL    HW218282   3.778   0.297   6.702
 5795SOL     OW18283   0.433   6.291   1.258
 5795SOL    HW118284   0.385   6.264   1.175
 5795SOL    HW218285   0.414   6.387   1.279
 5796SOL     OW18286   4.623   0.608   6.795
 5796SOL    HW118287   4.690   0.551   6.841
 5796SOL    HW218288   4.533   0.594   6.837
 5797SOL     OW18289   5.604   1.287   0.200
 5797SOL    HW118290   5.570   1.296   0.107
 5797SOL    HW218291   5.703   1.277   0.199
 5798SOL     OW18292   0.813   4.013   4.622
 5798SOL    HW118293   0.765   4.086   4.573
 5798SOL    HW218294   0.864   4.052   4.698
 5799SOL     OW18295   0.448   0.476   2.783
 5799SOL    HW118296   0.411   0.469   2.691
 5799SOL    HW218297   0.542   0.443   2.784
 5800SOL     OW18298   0.823   0.356   1.639
 5800SOL    HW118299   0.795   0.260   1.634
 5800SOL    HW218300   0.857   0.376   1.731
 5801SOL     OW18301   2.182   2.627   3.865
 5801SOL    HW118302   2.124   2.564   3.814
 5801SOL    HW218303   2.131   2.666   3.940
 5802SOL     OW18304   5.802   3.416   2.477
 5802SOL    HW118305   5.873   3.377   2.418
 5802SOL    HW218306   5.833   3.412   2.572
 5803SOL     OW18307   1.146   5.087   3.608
 5803SOL    HW118308   1.220   5.086   3.675
 5803SOL    HW218309   1.059   5.070   3.655
 5804SOL     OW18310   6.441   6.513   3.606
 5804SOL    HW118311   6.472   6.481   3.695
 5804SOL    HW218312   6.512   6.495   3.537
 5805SOL     OW18313   1.622   2.978   0.932
 5805SOL    HW118314   1.558   3.051   0.910
 5805SOL    HW218315   1.624   2.911   0.857
 5806SOL     OW18316   0.238   4.529   4.950
 5806SOL    HW118317   0.216   4.626   4.965
 5806SOL    HW218318   0.197   4.498   4.864
 5807SOL     OW18319   1.390   6.000   0.938
 5807SOL    HW118320   1.424   5.963   1.025
 5807SOL    HW218321   1.445   6.080   0.913
 5808SOL     OW18322   6.645   6.921   5.314
 5808SOL    HW118323   6.591   6.889   5.392
 5808SOL    HW218324   6.611   6.880   5.230
 5809SOL     OW18325   0.076   2.244   5.732
 5809SOL    HW118326   0.054   2.339   5.754
 5809SOL    HW218327   7.011   2.196   5.703
 5810SOL     OW18328   4.124   0.176   4.934
 5810SOL    HW118329   4.108   0.110   5.007
 5810SOL    HW218330   4.186   0.136   4.867
 5811SOL     OW18331   2.562   2.094   5.457
 5811SOL    HW118332   2.627   2.076   5.383
 5811SOL    HW218333   2.605   2.073   5.545
 5812SOL     OW18334   5.488   3.675   6.364
 5812SOL    HW118335   5.518   3.685   6.269
 5812SOL    HW218336   5.440   3.588   6.375
 5813SOL     OW18337   3.223   6.284   1.221
 5813SOL    HW118338   3.233   6.184   1.224
 5813SOL    HW218339   3.217   6.314   1.126
 5814SOL     OW18340   7.017   2.032   1.909
 5814SOL    HW118341   6.998   1.962   1.839
 5814SOL    HW218342   0.099   2.042   1.920
 5815SOL     OW18343   5.328   1.847   4.335
 5815SOL    HW118344   5.380   1.767   4.364
 5815SOL    HW218345   5.389   1.926   4.329
 5816SOL     OW18346   6.593   4.996   2.140
 5816SOL    HW118347   6.501   5.024   2.116
 5816SOL    HW218348   6.593   4.954   2.230
 5817SOL     OW18349   5.830   4.669   5.494
 5817SOL    HW118350   5.787   4.760   5.488
 5817SOL    HW218351   5.808   4.628   5.583
 5818SOL     OW18352   0.421   5.909   4.942
 5818SOL    HW118353   0.428   5.858   4.857
 5818SOL    HW218354   0.494   5.978   4.946
 5819SOL     OW18355   2.912   5.295   6.584
 5819SOL    HW118356   2.949   5.278   6.675
 5819SOL    HW218357   2.987   5.300   6.518
 5820SOL     OW18358   4.610   4.717   2.086
 5820SOL    HW118359   4.664   4.683   2.163
 5820SOL    HW218360   4.558   4.642   2.046
 5821SOL     OW18361   6.218   1.127   1.796
 5821SOL    HW118362   6.198   1.197   1.864
 5821SOL    HW218363   6.172   1.042   1.821
 5822SOL     OW18364   1.440   2.473   2.522
 5822SOL    HW118365   1.534   2.449   2.546
 5822SOL    HW218366   1.379   2.398   2.546
 5823SOL     OW18367   2.313   6.259   4.714
 5823SOL    HW118368   2.256   6.221   4.787
 5823SOL    HW218369   2.268   6.247   4.626
 5824SOL     OW18370   1.062   6.992   2.988
 5824SOL    HW118371   1.052   0.061   2.939
 5824SOL    HW218372   1.157   6.979   3.015
 5825SOL     OW18373   0.285   5.613   4.790
 5825SOL    HW118374   0.344   5.646   4.717
 5825SOL    HW218375   0.189   5.631   4.766
 5826SOL     OW18376   0.300   6.824   5.943
 5826SOL    HW118377   0.361   6.763   5.891
 5826SOL    HW218378   0.282   6.784   6.033
 5827SOL     OW18379   1.197   3.579   4.709
 5827SOL    HW118380   1.274   3.517   4.725
 5827SOL    HW218381   1.174   3.578   4.611
 5828SOL     OW18382   4.421   0.868   3.397
 5828SOL    HW118383   4.386   0.795   3.338
 5828SOL    HW218384   4.497   0.914   3.351
 5829SOL     OW18385   1.654   0.540   4.693
 5829SOL    HW118386   1.590   0.580   4.627
 5829SOL    HW218387   1.673   0.607   4.765
 5830SOL     OW18388   4.547   5.962   5.735
 5830SOL    HW118389   4.547   6.041   5.797
 5830SOL    HW218390   4.560   5.993   5.641
 5831SOL     OW18391   1.244   1.809   5.341
 5831SOL    HW118392   1.267   1.810   5.244
 5831SOL    HW218393   1.184   1.887   5.362
 5832SOL     OW18394   3.505   4.570   1.319
 5832SOL    HW118395   3.416   4.617   1.318
 5832SOL    HW218396   3.515   4.518   1.234
 5833SOL     OW18397   4.001   3.150   5.724
 5833SOL    HW118398   4.034   3.172   5.816
 5833SOL    HW218399   3.976   3.234   5.676
 5834SOL     OW18400   6.584   3.434   6.683
 5834SOL    HW118401   6.557   3.379   6.604
 5834SOL    HW218402   6.624   3.376   6.753
 5835SOL     OW18403   6.197   2.133   2.324
 5835SOL    HW118404   6.282   2.137   2.271
 5835SOL    HW218405   6.162   2.040   2.322
 5836SOL     OW18406   2.790   6.775   1.665
 5836SOL    HW118407   2.836   6.790   1.753
 5836SOL    HW218408   2.826   6.691   1.623
 5837SOL     OW18409   3.911   3.819   6.923
 5837SOL    HW118410   3.944   3.902   6.966
 5837SOL    HW218411   3.985   3.775   6.872
 5838SOL     OW18412   2.394   1.412   1.029
 5838SOL    HW118413   2.489   1.446   1.031
 5838SOL    HW218414   2.371   1.373   1.118
 5839SOL     OW18415   0.605   2.595   1.259
 5839SOL    HW118416   0.659   2.666   1.215
 5839SOL    HW218417   0.595   2.517   1.196
 5840SOL     OW18418   0.151   3.855   0.971
 5840SOL    HW118419   0.136   3.763   0.935
 5840SOL    HW218420   0.228   3.854   1.034
 5841SOL     OW18421   5.229   0.640   1.478
 5841SOL    HW118422   5.273   0.719   1.435
 5841SOL    HW218423   5.199   0.575   1.408
 5842SOL     OW18424   4.261   1.809   1.380
 5842SOL    HW118425   4.272   1.907   1.361
 5842SOL    HW218426   4.337   1.759   1.339
 5843SOL     OW18427   1.988   3.511   1.056
 5843SOL    HW118428   2.000   3.555   1.145
 5843SOL    HW218429   2.045   3.557   0.988
 5844SOL     OW18430   1.118   6.360   5.218
 5844SOL    HW118431   1.168   6.291   5.271
 5844SOL    HW218432   1.080   6.428   5.279
 5845SOL     OW18433   0.686   0.321   2.108
 5845SOL    HW118434   0.694   0.419   2.124
 5845SOL    HW218435   0.621   0.282   2.173
 5846SOL     OW18436   5.857   3.441   5.659
 5846SOL    HW118437   5.846   3.356   5.606
 5846SOL    HW218438   5.838   3.519   5.600
 5847SOL     OW18439   2.654   2.479   1.864
 5847SOL    HW118440   2.624   2.384   1.853
 5847SOL    HW218441   2.753   2.481   1.875
 5848SOL     OW18442   1.783   6.168   4.185
 5848SOL    HW118443   1.730   6.166   4.270
 5848SOL    HW218444   1.724   6.145   4.108
 5849SOL     OW18445   2.234   6.635   5.036
 5849SOL    HW118446   2.289   6.711   5.069
 5849SOL    HW218447   2.137   6.654   5.054
 5850SOL     OW18448   0.756   3.191   1.645
 5850SOL    HW118449   0.812   3.223   1.569
 5850SOL    HW218450   0.814   3.169   1.723
 5851SOL     OW18451   5.488   3.718   3.644
 5851SOL    HW118452   5.485   3.753   3.738
 5851SOL    HW218453   5.583   3.696   3.619
 5852SOL     OW18454   4.495   6.146   2.884
 5852SOL    HW118455   4.552   6.065   2.874
 5852SOL    HW218456   4.526   6.199   2.964
 5853SOL     OW18457   4.413   5.671   5.415
 5853SOL    HW118458   4.495   5.618   5.395
 5853SOL    HW218459   4.410   5.693   5.513
 5854SOL     OW18460   4.241   4.740   5.569
 5854SOL    HW118461   4.153   4.782   5.588
 5854SOL    HW218462   4.235   4.685   5.486
 5855SOL     OW18463   1.596   2.864   4.310
 5855SOL    HW118464   1.516   2.888   4.255
 5855SOL    HW218465   1.573   2.789   4.372
 5856SOL     OW18466   1.154   6.964   2.697
 5856SOL    HW118467   1.231   6.927   2.645
 5856SOL    HW218468   1.128   6.899   2.768
 5857SOL     OW18469   6.420   3.188   5.068
 5857SOL    HW118470   6.327   3.202   5.103
 5857SOL    HW218471   6.486   3.213   5.139
 5858SOL     OW18472   2.303   2.480   2.733
 5858SOL    HW118473   2.248   2.443   2.808
 5858SOL    HW218474   2.348   2.404   2.685
 5859SOL     OW18475   6.237   6.159   1.654
 5859SOL    HW118476   6.207   6.233   1.593
 5859SOL    HW218477   6.335   6.146   1.644
 5860SOL     OW18478   0.666   4.888   3.665
 5860SOL    HW118479   0.639   4.951   3.737
 5860SOL    HW218480   0.656   4.933   3.576
 5861SOL     OW18481   5.307   0.516   4.999
 5861SOL    HW118482   5.255   0.437   4.966
 5861SOL    HW218483   5.404   0.503   4.977
 5862SOL     OW18484   6.406   5.649   1.730
 5862SOL    HW118485   6.360   5.641   1.642
 5862SOL    HW218486   6.434   5.559   1.762
 5863SOL     OW18487   3.300   1.146   4.491
 5863SOL    HW118488   3.331   1.232   4.531
 5863SOL    HW218489   3.377   1.083   4.483
 5864SOL     OW18490   3.567   3.728   2.541
 5864SOL    HW118491   3.613   3.714   2.453
 5864SOL    HW218492   3.593   3.655   2.604
 5865SOL     OW18493   5.281   0.188   5.561
 5865SOL    HW118494   5.372   0.227   5.570
 5865SOL    HW218495   5.263   0.167   5.465
 5866SOL     OW18496   3.252   2.714   0.459
 5866SOL    HW118497   3.200   2.696   0.376
 5866SOL    HW218498   3.276   2.811   0.464
 5867SOL     OW18499   1.858   2.383   1.952
 5867SOL    HW118500   1.872   2.398   2.050
 5867SOL    HW218501   1.946   2.391   1.905
 5868SOL     OW18502   1.171   2.222   5.777
 5868SOL    HW118503   1.110   2.157   5.821
 5868SOL    HW218504   1.179   2.305   5.833
 5869SOL     OW18505   1.836   4.219   3.501
 5869SOL    HW118506   1.899   4.210   3.423
 5869SOL    HW218507   1.775   4.140   3.504
 5870SOL     OW18508   4.239   5.954   5.711
 5870SOL    HW118509   4.187   5.969   5.627
 5870SOL    HW218510   4.319   5.896   5.691
 5871SOL     OW18511   3.996   3.630   2.439
 5871SOL    HW118512   3.943   3.669   2.514
 5871SOL    HW218513   4.077   3.585   2.476
 5872SOL     OW18514   4.174   6.535   1.170
 5872SOL    HW118515   4.196   6.507   1.263
 5872SOL    HW218516   4.084   6.500   1.144
 5873SOL     OW18517   3.071   6.180   2.508
 5873SOL    HW118518   2.992   6.197   2.449
 5873SOL    HW218519   3.152   6.163   2.451
 5874SOL     OW18520   2.098   4.646   5.129
 5874SOL    HW118521   2.163   4.573   5.107
 5874SOL    HW218522   2.039   4.617   5.204
 5875SOL     OW18523   3.758   1.685   0.346
 5875SOL    HW118524   3.845   1.667   0.391
 5875SOL    HW218525   3.683   1.652   0.404
 5876SOL     OW18526   3.816   3.396   2.154
 5876SOL    HW118527   3.881   3.342   2.208
 5876SOL    HW218528   3.723   3.372   2.180
 5877SOL     OW18529   6.282   6.154   0.430
 5877SOL    HW118530   6.228   6.216   0.373
 5877SOL    HW218531   6.228   6.128   0.511
 5878SOL     OW18532   0.859   6.142   3.937
 5878SOL    HW118533   0.842   6.240   3.950
 5878SOL    HW218534   0.933   6.130   3.871
 5879SOL     OW18535   0.960   3.343   0.421
 5879SOL    HW118536   0.939   3.404   0.345
 5879SOL    HW218537   1.052   3.305   0.410
 5880SOL     OW18538   2.861   4.262   0.436
 5880SOL    HW118539   2.933   4.256   0.367
 5880SOL    HW218540   2.839   4.170   0.469
 5881SOL     OW18541   0.115   5.063   3.281
 5881SOL    HW118542   0.015   5.061   3.286
 5881SOL    HW218543   0.144   5.068   3.186
 5882SOL     OW18544   6.586   6.245   1.339
 5882SOL    HW118545   6.616   6.174   1.402
 5882SOL    HW218546   6.665   6.281   1.289
 5883SOL     OW18547   0.989   1.791   6.811
 5883SOL    HW118548   1.062   1.859   6.813
 5883SOL    HW218549   0.903   1.834   6.840
 5884SOL     OW18550   2.767   1.334   4.015
 5884SOL    HW118551   2.833   1.360   3.945
 5884SOL    HW218552   2.794   1.374   4.103
 5885SOL     OW18553   0.122   0.284   2.588
 5885SOL    HW118554   0.096   0.351   2.519
 5885SOL    HW218555   0.100   0.319   2.679
 5886SOL     OW18556   0.535   1.855   5.100
 5886SOL    HW118557   0.487   1.930   5.055
 5886SOL    HW218558   0.526   1.771   5.046
 5887SOL     OW18559   3.454   1.171   3.701
 5887SOL    HW118560   3.400   1.139   3.779
 5887SOL    HW218561   3.400   1.163   3.618
 5888SOL     OW18562   2.587   0.686   2.769
 5888SOL    HW118563   2.636   0.672   2.682
 5888SOL    HW218564   2.593   0.782   2.795
 5889SOL     OW18565   1.389   6.086   1.314
 5889SOL    HW118566   1.393   6.001   1.261
 5889SOL    HW218567   1.441   6.157   1.266
 5890SOL     OW18568   1.104   0.260   5.111
 5890SOL    HW118569   1.118   0.189   5.043
 5890SOL    HW218570   1.133   0.349   5.075
 5891SOL     OW18571   2.898   2.979   6.119
 5891SOL    HW118572   2.865   3.044   6.050
 5891SOL    HW218573   2.928   2.895   6.074
 5892SOL     OW18574   0.780   5.487   1.422
 5892SOL    HW118575   0.748   5.393   1.408
 5892SOL    HW218576   0.872   5.498   1.385
 5893SOL     OW18577   1.645   3.978   4.091
 5893SOL    HW118578   1.607   4.045   4.028
 5893SOL    HW218579   1.734   3.947   4.057
 5894SOL     OW18580   0.686   5.968   3.447
 5894SOL    HW118581   0.624   5.966   3.368
 5894SOL    HW218582   0.637   5.999   3.528
 5895SOL     OW18583   4.879   3.212   4.089
 5895SOL    HW118584   4.963   3.159   4.101
 5895SOL    HW218585   4.862   3.226   3.991
 5896SOL     OW18586   4.363   1.478   0.866
 5896SOL    HW118587   4.302   1.466   0.788
 5896SOL    HW218588   4.455   1.447   0.842
 5897SOL     OW18589   3.644   0.575   1.710
 5897SOL    HW118590   3.701   0.598   1.631
 5897SOL    HW218591   3.581   0.502   1.686
 5898SOL     OW18592   2.099   6.635   3.217
 5898SOL    HW118593   2.025   6.643   3.284
 5898SOL    HW218594   2.187   6.650   3.261
 5899SOL     OW18595   4.961   6.656   5.755
 5899SOL    HW118596   5.027   6.731   5.757
 5899SOL    HW218597   4.868   6.693   5.757
 5900SOL     OW18598   4.881   5.512   3.431
 5900SOL    HW118599   4.792   5.557   3.423
 5900SOL    HW218600   4.886   5.437   3.364
 5901SOL     OW18601   2.978   0.702   0.227
 5901SOL    HW118602   2.927   0.658   0.301
 5901SOL    HW218603   3.073   0.716   0.256
 5902SOL     OW18604   6.966   2.090   6.759
 5902SOL    HW118605   6.999   2.088   6.665
 5902SOL    HW218606   0.020   2.060   6.821
 5903SOL     OW18607   4.116   4.028   0.480
 5903SOL    HW118608   4.171   4.037   0.564
 5903SOL    HW218609   4.176   4.038   0.400
 5904SOL     OW18610   1.126   3.345   1.748
 5904SOL    HW118611   1.148   3.289   1.667
 5904SOL    HW218612   1.078   3.290   1.815
 5905SOL     OW18613   6.395   6.390   2.898
 5905SOL    HW118614   6.353   6.306   2.863
 5905SOL    HW218615   6.334   6.433   2.964
 5906SOL     OW18616   4.648   1.602   4.185
 5906SOL    HW118617   4.549   1.605   4.191
 5906SOL    HW218618   4.684   1.549   4.262
 5907SOL     OW18619   1.471   5.689   1.967
 5907SOL    HW118620   1.445   5.754   2.038
 5907SOL    HW218621   1.423   5.711   1.882
 5908SOL     OW18622   0.781   2.364   6.465
 5908SOL    HW118623   0.857   2.426   6.443
 5908SOL    HW218624   0.804   2.272   6.433
 5909SOL     OW18625   6.924   4.930   1.108
 5909SOL    HW118626   6.990   4.982   1.054
 5909SOL    HW218627   6.912   4.839   1.068
 5910SOL     OW18628   0.845   2.758   3.441
 5910SOL    HW118629   0.811   2.743   3.348
 5910SOL    HW218630   0.910   2.834   3.441
 5911SOL     OW18631   6.637   6.261   6.412
 5911SOL    HW118632   6.676   6.282   6.502
 5911SOL    HW218633   6.628   6.346   6.359
 5912SOL     OW18634   6.691   0.388   5.429
 5912SOL    HW118635   6.736   0.477   5.437
 5912SOL    HW218636   6.745   0.329   5.370
 5913SOL     OW18637   4.683   3.053   6.587
 5913SOL    HW118638   4.642   3.018   6.503
 5913SOL    HW218639   4.775   3.015   6.597
 5914SOL     OW18640   0.988   5.976   6.804
 5914SOL    HW118641   1.068   6.024   6.840
 5914SOL    HW218642   0.975   5.891   6.854
 5915SOL     OW18643   4.611   6.256   1.255
 5915SOL    HW118644   4.559   6.176   1.283
 5915SOL    HW218645   4.557   6.311   1.191
 5916SOL     OW18646   6.665   6.156   2.909
 5916SOL    HW118647   6.717   6.203   2.838
 5916SOL    HW218648   6.675   6.206   2.996
 5917SOL     OW18649   3.055   4.017   4.538
 5917SOL    HW118650   3.115   4.051   4.611
 5917SOL    HW218651   3.019   3.927   4.565
 5918SOL     OW18652   2.190   5.035   5.903
 5918SOL    HW118653   2.279   5.011   5.941
 5918SOL    HW218654   2.158   4.961   5.844
 5919SOL     OW18655   3.094   3.414   2.581
 5919SOL    HW118656   3.082   3.319   2.555
 5919SOL    HW218657   3.058   3.428   2.673
 5920SOL     OW18658   5.391   0.769   6.063
 5920SOL    HW118659   5.323   0.800   5.995
 5920SOL    HW218660   5.420   0.847   6.118
 5921SOL     OW18661   4.073   5.226   6.455
 5921SOL    HW118662   4.114   5.313   6.425
 5921SOL    HW218663   4.117   5.196   6.539
 5922SOL     OW18664   6.460   4.056   4.259
 5922SOL    HW118665   6.543   4.110   4.245
 5922SOL    HW218666   6.407   4.054   4.174
 5923SOL     OW18667   6.699   1.291   2.315
 5923SOL    HW118668   6.758   1.231   2.261
 5923SOL    HW218669   6.681   1.375   2.264
 5924SOL     OW18670   6.021   0.132   2.566
 5924SOL    HW118671   5.956   0.060   2.545
 5924SOL    HW218672   5.988   0.186   2.644
 5925SOL     OW18673   3.310   6.523   1.850
 5925SOL    HW118674   3.269   6.506   1.940
 5925SOL    HW218675   3.367   6.605   1.853
 5926SOL     OW18676   4.035   4.746   2.378
 5926SOL    HW118677   4.017   4.705   2.288
 5926SOL    HW218678   3.964   4.814   2.399
 5927SOL     OW18679   0.991   4.577   2.197
 5927SOL    HW118680   0.937   4.620   2.125
 5927SOL    HW218681   1.006   4.643   2.271
 5928SOL     OW18682   3.685   0.007   1.189
 5928SOL    HW118683   3.617   6.952   1.190
 5928SOL    HW218684   3.741   7.017   1.107
 5929SOL     OW18685   5.836   0.502   5.616
 5929SOL    HW118686   5.923   0.537   5.583
 5929SOL    HW218687   5.840   0.487   5.714
 5930SOL     OW18688   0.593   3.135   3.124
 5930SOL    HW118689   0.579   3.157   3.027
 5930SOL    HW218690   0.597   3.036   3.135
 5931SOL     OW18691   6.801   6.522   2.620
 5931SOL    HW118692   6.878   6.534   2.684
 5931SOL    HW218693   6.818   6.576   2.538
 5932SOL     OW18694   3.686   0.099   0.320
 5932SOL    HW118695   3.606   0.159   0.330
 5932SOL    HW218696   3.656   0.008   0.290
 5933SOL     OW18697   6.657   5.155   4.283
 5933SOL    HW118698   6.566   5.194   4.297
 5933SOL    HW218699   6.725   5.229   4.289
 5934SOL     OW18700   3.677   2.738   5.339
 5934SOL    HW118701   3.752   2.673   5.352
 5934SOL    HW218702   3.710   2.831   5.360
 5935SOL     OW18703   0.550   5.133   6.340
 5935SOL    HW118704   0.494   5.143   6.258
 5935SOL    HW218705   0.514   5.192   6.412
 5936SOL     OW18706   3.118   3.308   1.677
 5936SOL    HW118707   3.177   3.228   1.668
 5936SOL    HW218708   3.100   3.325   1.774
 5937SOL     OW18709   6.212   2.981   2.055
 5937SOL    HW118710   6.246   2.890   2.030
 5937SOL    HW218711   6.289   3.045   2.059
 5938SOL     OW18712   6.151   5.729   3.947
 5938SOL    HW118713   6.158   5.823   3.981
 5938SOL    HW218714   6.149   5.666   4.025
 5939SOL     OW18715   2.534   6.032   3.869
 5939SOL    HW118716   2.558   6.031   3.772
 5939SOL    HW218717   2.497   5.943   3.896
 5940SOL     OW18718   4.165   5.075   3.451
 5940SOL    HW118719   4.242   5.027   3.410
 5940SOL    HW218720   4.098   5.098   3.380
 5941SOL     OW18721   5.336   3.450   2.630
 5941SOL    HW118722   5.375   3.387   2.697
 5941SOL    HW218723   5.392   3.448   2.547
 5942SOL     OW18724   5.591   3.727   6.940
 5942SOL    HW118725   5.603   3.628   6.940
 5942SOL    HW218726   5.494   3.749   6.951
 5943SOL     OW18727   3.390   3.553   6.149
 5943SOL    HW118728   3.358   3.642   6.183
 5943SOL    HW218729   3.345   3.533   6.062
 5944SOL     OW18730   0.471   2.378   0.146
 5944SOL    HW118731   0.475   2.284   0.180
 5944SOL    HW218732   0.474   2.441   0.223
 5945SOL     OW18733   6.993   5.081   5.202
 5945SOL    HW118734   6.939   5.132   5.269
 5945SOL    HW218735   6.934   5.016   5.154
 5946SOL     OW18736   3.239   4.006   6.625
 5946SOL    HW118737   3.313   3.958   6.672
 5946SOL    HW218738   3.277   4.061   6.550
 5947SOL     OW18739   3.196   3.457   2.987
 5947SOL    HW118740   3.192   3.548   3.030
 5947SOL    HW218741   3.291   3.434   2.968
 5948SOL     OW18742   4.303   4.717   2.463
 5948SOL    HW118743   4.342   4.633   2.425
 5948SOL    HW218744   4.211   4.730   2.426
 5949SOL     OW18745   5.394   4.795   1.316
 5949SOL    HW118746   5.417   4.718   1.376
 5949SOL    HW218747   5.454   4.794   1.236
 5950SOL     OW18748   5.810   1.967   4.710
 5950SOL    HW118749   5.817   1.972   4.810
 5950SOL    HW218750   5.729   2.019   4.680
 5951SOL     OW18751   1.094   5.701   4.596
 5951SOL    HW118752   1.031   5.736   4.665
 5951SOL    HW218753   1.158   5.773   4.570
 5952SOL     OW18754   4.712   5.748   3.334
 5952SOL    HW118755   4.695   5.823   3.270
 5952SOL    HW218756   4.787   5.773   3.396
 5953SOL     OW18757   6.747   4.354   5.064
 5953SOL    HW118758   6.655   4.327   5.038
 5953SOL    HW218759   6.789   4.405   4.989
 5954SOL     OW18760   6.571   5.258   5.132
 5954SOL    HW118761   6.490   5.267   5.073
 5954SOL    HW218762   6.589   5.162   5.149
 5955SOL     OW18763   4.930   5.304   1.823
 5955SOL    HW118764   4.867   5.270   1.894
 5955SOL    HW218765   4.908   5.399   1.801
 5956SOL     OW18766   5.369   2.060   3.999
 5956SOL    HW118767   5.427   2.012   3.933
 5956SOL    HW218768   5.310   1.994   4.045
 5957SOL     OW18769   3.365   1.766   4.549
 5957SOL    HW118770   3.452   1.732   4.587
 5957SOL    HW218771   3.333   1.702   4.479
 5958SOL     OW18772   4.218   0.230   2.819
 5958SOL    HW118773   4.288   0.298   2.796
 5958SOL    HW218774   4.131   0.256   2.777
 5959SOL     OW18775   4.341   2.913   5.693
 5959SOL    HW118776   4.316   2.990   5.635
 5959SOL    HW218777   4.411   2.858   5.646
 5960SOL     OW18778   3.477   5.938   4.455
 5960SOL    HW118779   3.402   5.891   4.501
 5960SOL    HW218780   3.564   5.914   4.498
 5961SOL     OW18781   4.818   1.567   2.498
 5961SOL    HW118782   4.814   1.654   2.448
 5961SOL    HW218783   4.913   1.542   2.514
 5962SOL     OW18784   5.409   5.835   6.640
 5962SOL    HW118785   5.428   5.787   6.726
 5962SOL    HW218786   5.334   5.900   6.655
 5963SOL     OW18787   2.993   4.060   6.358
 5963SOL    HW118788   2.976   3.974   6.309
 5963SOL    HW218789   2.951   4.055   6.448
 5964SOL     OW18790   1.542   6.673   4.670
 5964SOL    HW118791   1.459   6.689   4.724
 5964SOL    HW218792   1.615   6.639   4.730
 5965SOL     OW18793   2.472   1.455   0.077
 5965SOL    HW118794   2.496   1.404   7.012
 5965SOL    HW218795   2.408   1.529   0.053
 5966SOL     OW18796   2.106   6.522   6.410
 5966SOL    HW118797   2.170   6.476   6.349
 5966SOL    HW218798   2.093   6.616   6.380
 5967SOL     OW18799   2.576   0.577   5.821
 5967SOL    HW118800   2.625   0.628   5.892
 5967SOL    HW218801   2.536   0.641   5.756
 5968SOL     OW18802   5.075   2.178   6.819
 5968SOL    HW118803   5.070   2.271   6.783
 5968SOL    HW218804   4.986   2.150   6.855
 5969SOL     OW18805   6.240   0.597   6.580
 5969SOL    HW118806   6.265   0.533   6.507
 5969SOL    HW218807   6.241   0.690   6.545
 5970SOL     OW18808   6.920   4.973   1.644
 5970SOL    HW118809   6.977   5.006   1.569
 5970SOL    HW218810   6.975   4.913   1.703
 5971SOL     OW18811   7.007   0.704   1.280
 5971SOL    HW118812   6.989   0.775   1.348
 5971SOL    HW218813   0.002   0.746   1.190
 5972SOL     OW18814   4.762   5.646   6.263
 5972SOL    HW118815   4.809   5.704   6.329
 5972SOL    HW218816   4.829   5.604   6.201
 5973SOL     OW18817   1.588   2.729   3.010
 5973SOL    HW118818   1.605   2.792   2.935
 5973SOL    HW218819   1.607   2.635   2.980
 5974SOL     OW18820   5.422   6.442   0.308
 5974SOL    HW118821   5.337   6.428   0.360
 5974SOL    HW218822   5.428   6.538   0.280
 5975SOL     OW18823   4.366   6.855   0.807
 5975SOL    HW118824   4.397   6.774   0.856
 5975SOL    HW218825   4.270   6.843   0.781
 5976SOL     OW18826   3.850   2.970   5.402
 5976SOL    HW118827   3.889   3.046   5.350
 5976SOL    HW218828   3.898   2.962   5.490
 5977SOL     OW18829   1.222   5.461   0.464
 5977SOL    HW118830   1.204   5.381   0.408
 5977SOL    HW218831   1.190   5.544   0.417
 5978SOL     OW18832   3.388   5.441   1.602
 5978SOL    HW118833   3.323   5.485   1.663
 5978SOL    HW218834   3.448   5.510   1.562
 5979SOL     OW18835   6.428   0.411   2.121
 5979SOL    HW118836   6.505   0.439   2.178
 5979SOL    HW218837   6.387   0.328   2.158
 5980SOL     OW18838   4.036   3.720   1.293
 5980SOL    HW118839   4.012   3.668   1.211
 5980SOL    HW218840   4.064   3.812   1.267
 5981SOL     OW18841   4.843   1.782   0.345
 5981SOL    HW118842   4.804   1.812   0.432
 5981SOL    HW218843   4.775   1.727   0.295
 5982SOL     OW18844   6.000   2.049   2.697
 5982SOL    HW118845   6.009   1.954   2.729
 5982SOL    HW218846   5.958   2.049   2.606
 5983SOL     OW18847   1.092   1.286   4.308
 5983SOL    HW118848   1.133   1.330   4.388
 5983SOL    HW218849   1.160   1.280   4.235
 5984SOL     OW18850   5.188   6.768   3.373
 5984SOL    HW118851   5.184   6.839   3.302
 5984SOL    HW218852   5.103   6.715   3.371
 5985SOL     OW18853   6.971   2.968   3.268
 5985SOL    HW118854   0.003   3.043   3.225
 5985SOL    HW218855   6.884   3.001   3.304
 5986SOL     OW18856   3.146   3.787   5.112
 5986SOL    HW118857   3.132   3.829   5.022
 5986SOL    HW218858   3.240   3.801   5.141
 5987SOL     OW18859   4.951   0.392   4.226
 5987SOL    HW118860   4.911   0.317   4.172
 5987SOL    HW218861   4.889   0.471   4.223
 5988SOL     OW18862   4.526   0.380   5.868
 5988SOL    HW118863   4.574   0.293   5.862
 5988SOL    HW218864   4.566   0.446   5.805
 5989SOL     OW18865   2.165   5.506   6.024
 5989SOL    HW118866   2.126   5.549   5.942
 5989SOL    HW218867   2.106   5.430   6.053
 5990SOL     OW18868   3.483   3.619   0.618
 5990SOL    HW118869   3.501   3.604   0.715
 5990SOL    HW218870   3.384   3.618   0.602
 5991SOL     OW18871   4.139   5.878   6.687
 5991SOL    HW118872   4.223   5.907   6.734
 5991SOL    HW218873   4.063   5.937   6.716
 5992SOL     OW18874   3.458   0.242   1.925
 5992SOL    HW118875   3.476   0.260   1.828
 5992SOL    HW218876   3.452   0.329   1.974
 5993SOL     OW18877   4.182   4.018   5.939
 5993SOL    HW118878   4.244   3.970   5.877
 5993SOL    HW218879   4.219   4.016   6.032
 5994SOL     OW18880   6.765   2.206   6.879
 5994SOL    HW118881   6.840   2.174   6.821
 5994SOL    HW218882   6.801   2.272   6.946
 5995SOL     OW18883   4.822   3.083   2.300
 5995SOL    HW118884   4.895   3.146   2.272
 5995SOL    HW218885   4.771   3.053   2.219
 5996SOL     OW18886   0.771   5.994   1.202
 5996SOL    HW118887   0.722   5.968   1.118
 5996SOL    HW218888   0.728   5.949   1.280
 5997SOL     OW18889   0.768   5.778   2.716
 5997SOL    HW118890   0.677   5.820   2.713
 5997SOL    HW218891   0.789   5.737   2.627
 5998SOL     OW18892   6.442   1.719   2.109
 5998SOL    HW118893   6.443   1.738   2.011
 5998SOL    HW218894   6.525   1.756   2.150
 5999SOL     OW18895   2.781   3.188   1.417
 5999SOL    HW118896   2.692   3.186   1.372
 5999SOL    HW218897   2.796   3.103   1.467
 6000SOL     OW18898   1.371   6.083   0.104
 6000SOL    HW118899   1.357   6.169   0.154
 6000SOL    HW218900   1.317   6.083   0.020
 6001SOL     OW18901   7.001   5.197   6.580
 6001SOL    HW118902   0.044   5.135   6.630
 6001SOL    HW218903   6.960   5.262   6.644
 6002SOL     OW18904   5.967   6.800   6.566
 6002SOL    HW118905   6.066   6.814   6.557
 6002SOL    HW218906   5.926   6.879   6.611
 6003SOL     OW18907   5.851   1.902   5.100
 6003SOL    HW118908   5.836   1.923   5.196
 6003SOL    HW218909   5.775   1.847   5.065
 6004SOL     OW18910   6.734   3.559   3.822
 6004SOL    HW118911   6.646   3.590   3.786
 6004SOL    HW218912   6.773   3.490   3.761
 6005SOL     OW18913   5.612   5.167   4.786
 6005SOL    HW118914   5.673   5.088   4.789
 6005SOL    HW218915   5.533   5.146   4.728
 6006SOL     OW18916   2.268   0.821   4.786
 6006SOL    HW118917   2.330   0.791   4.714
 6006SOL    HW218918   2.309   0.804   4.876
 6007SOL     OW18919   6.514   3.042   5.833
 6007SOL    HW118920   6.482   3.121   5.781
 6007SOL    HW218921   6.455   2.963   5.813
 6008SOL     OW18922   2.737   4.924   6.197
 6008SOL    HW118923   2.831   4.956   6.195
 6008SOL    HW218924   2.676   5.000   6.217
 6009SOL     OW18925   3.856   0.325   3.961
 6009SOL    HW118926   3.848   0.377   3.876
 6009SOL    HW218927   3.802   0.241   3.954
 6010SOL     OW18928   0.775   4.593   3.772
 6010SOL    HW118929   0.854   4.653   3.783
 6010SOL    HW218930   0.766   4.566   3.676
 6011SOL     OW18931   5.992   3.229   3.406
 6011SOL    HW118932   5.913   3.289   3.416
 6011SOL    HW218933   5.962   3.134   3.401
 6012SOL     OW18934   5.795   0.829   0.675
 6012SOL    HW118935   5.801   0.862   0.581
 6012SOL    HW218936   5.822   0.902   0.738
 6013SOL     OW18937   4.741   1.081   2.859
 6013SOL    HW118938   4.693   1.119   2.780
 6013SOL    HW218939   4.840   1.090   2.846
 6014SOL     OW18940   3.780   4.058   3.533
 6014SOL    HW118941   3.859   4.093   3.582
 6014SOL    HW218942   3.699   4.111   3.558
 6015SOL     OW18943   6.028   4.096   4.703
 6015SOL    HW118944   5.940   4.053   4.720
 6015SOL    HW218945   6.074   4.114   4.790
 6016SOL     OW18946   6.490   1.385   6.359
 6016SOL    HW118947   6.488   1.480   6.391
 6016SOL    HW218948   6.398   1.347   6.363
 6017SOL     OW18949   6.424   4.841   4.217
 6017SOL    HW118950   6.470   4.850   4.128
 6017SOL    HW218951   6.343   4.900   4.218
 6018SOL     OW18952   3.346   1.197   5.832
 6018SOL    HW118953   3.441   1.166   5.845
 6018SOL    HW218954   3.343   1.297   5.838
 6019SOL     OW18955   0.711   3.104   4.851
 6019SOL    HW118956   0.614   3.125   4.858
 6019SOL    HW218957   0.756   3.123   4.938
 6020SOL     OW18958   0.667   4.848   0.209
 6020SOL    HW118959   0.710   4.789   0.141
 6020SOL    HW218960   0.689   4.815   0.301
 6021SOL     OW18961   4.493   0.773   3.033
 6021SOL    HW118962   4.494   0.873   3.042
 6021SOL    HW218963   4.583   0.737   3.059
 6022SOL     OW18964   6.944   1.817   3.447
 6022SOL    HW118965   6.866   1.844   3.504
 6022SOL    HW218966   0.007   1.870   3.474
 6023SOL     OW18967   4.952   1.109   1.634
 6023SOL    HW118968   4.870   1.093   1.688
 6023SOL    HW218969   4.995   1.022   1.611
 6024SOL     OW18970   1.155   4.700   1.411
 6024SOL    HW118971   1.163   4.648   1.326
 6024SOL    HW218972   1.066   4.745   1.414
 6025SOL     OW18973   2.920   2.245   3.519
 6025SOL    HW118974   2.885   2.201   3.436
 6025SOL    HW218975   2.935   2.177   3.590
 6026SOL     OW18976   0.185   5.755   5.011
 6026SOL    HW118977   0.206   5.688   4.939
 6026SOL    HW218978   0.245   5.834   5.001
 6027SOL     OW18979   6.915   3.376   5.940
 6027SOL    HW118980   6.919   3.293   5.884
 6027SOL    HW218981   7.005   3.420   5.941
 6028SOL     OW18982   5.652   4.360   1.241
 6028SOL    HW118983   5.747   4.334   1.223
 6028SOL    HW218984   5.597   4.340   1.160
 6029SOL     OW18985   2.884   6.476   3.819
 6029SOL    HW118986   2.793   6.494   3.857
 6029SOL    HW218987   2.952   6.531   3.868
 6030SOL     OW18988   4.485   4.925   3.757
 6030SOL    HW118989   4.415   4.995   3.771
 6030SOL    HW218990   4.510   4.885   3.845
 6031SOL     OW18991   3.199   5.716   4.094
 6031SOL    HW118992   3.124   5.673   4.144
 6031SOL    HW218993   3.225   5.659   4.017
 6032SOL     OW18994   2.429   4.988   2.638
 6032SOL    HW118995   2.426   5.013   2.542
 6032SOL    HW218996   2.524   4.970   2.665
 6033SOL     OW18997   2.225   3.091   2.986
 6033SOL    HW118998   2.252   2.998   2.961
 6033SOL    HW218999   2.158   3.126   2.921
 6034SOL     OW19000   1.353   0.984   5.444
 6034SOL    HW119001   1.450   0.960   5.440
 6034SOL    HW219002   1.343   1.080   5.469
 6035SOL     OW19003   1.429   1.225   1.889
 6035SOL    HW119004   1.390   1.133   1.898
 6035SOL    HW219005   1.356   1.290   1.868
 6036SOL     OW19006   5.087   5.170   2.130
 6036SOL    HW119007   5.114   5.247   2.188
 6036SOL    HW219008   4.999   5.135   2.161
 6037SOL     OW19009   3.861   0.352   0.709
 6037SOL    HW119010   3.809   0.275   0.672
 6037SOL    HW219011   3.799   0.429   0.727
 6038SOL     OW19012   1.672   2.703   6.216
 6038SOL    HW119013   1.687   2.663   6.126
 6038SOL    HW219014   1.683   2.802   6.211
 6039SOL     OW19015   3.721   3.262   2.998
 6039SOL    HW119016   3.706   3.360   2.987
 6039SOL    HW219017   3.699   3.215   2.912
 6040SOL     OW19018   1.421   1.432   1.292
 6040SOL    HW119019   1.392   1.338   1.275
 6040SOL    HW219020   1.512   1.432   1.332
 6041SOL     OW19021   2.847   1.833   5.156
 6041SOL    HW119022   2.912   1.855   5.084
 6041SOL    HW219023   2.786   1.910   5.171
 6042SOL     OW19024   4.238   6.925   2.858
 6042SOL    HW119025   4.232   0.001   2.822
 6042SOL    HW219026   4.243   6.928   2.958
 6043SOL     OW19027   0.576   6.815   4.929
 6043SOL    HW119028   0.546   6.901   4.888
 6043SOL    HW219029   0.497   6.762   4.958
 6044SOL     OW19030   2.105   2.447   1.458
 6044SOL    HW119031   2.195   2.490   1.465
 6044SOL    HW219032   2.052   2.492   1.386
 6045SOL     OW19033   5.450   3.798   3.380
 6045SOL    HW119034   5.503   3.738   3.321
 6045SOL    HW219035   5.452   3.763   3.474
 6046SOL     OW19036   3.218   2.458   1.314
 6046SOL    HW119037   3.118   2.451   1.317
 6046SOL    HW219038   3.258   2.368   1.334
 6047SOL     OW19039   5.077   2.016   1.498
 6047SOL    HW119040   5.127   2.090   1.543
 6047SOL    HW219041   5.108   1.928   1.533
 6048SOL     OW19042   4.626   5.210   5.231
 6048SOL    HW119043   4.547   5.268   5.250
 6048SOL    HW219044   4.645   5.153   5.311
 6049SOL     OW19045   4.385   4.136   6.794
 6049SOL    HW119046   4.365   4.041   6.772
 6049SOL    HW219047   4.320   4.196   6.747
 6050SOL     OW19048   2.273   5.374   6.441
 6050SOL    HW119049   2.180   5.339   6.435
 6050SOL    HW219050   2.338   5.298   6.434
 6051SOL     OW19051   2.102   0.195   2.985
 6051SOL    HW119052   2.124   0.255   3.062
 6051SOL    HW219053   2.096   0.248   2.901
 6052SOL     OW19054   4.979   1.430   1.264
 6052SOL    HW119055   4.995   1.516   1.216
 6052SOL    HW219056   4.886   1.430   1.301
 6053SOL     OW19057   4.376   0.879   6.025
 6053SOL    HW119058   4.403   0.806   5.962
 6053SOL    HW219059   4.452   0.901   6.085
 6054SOL     OW19060   2.337   3.539   0.111
 6054SOL    HW119061   2.365   3.487   0.031
 6054SOL    HW219062   2.263   3.601   0.086
 6055SOL     OW19063   5.139   6.051   5.120
 6055SOL    HW119064   5.122   5.997   5.203
 6055SOL    HW219065   5.105   6.144   5.134
 6056SOL     OW19066   4.727   3.324   5.267
 6056SOL    HW119067   4.762   3.348   5.357
 6056SOL    HW219068   4.697   3.407   5.220
 6057SOL     OW19069   7.013   0.985   2.260
 6057SOL    HW119070   6.982   1.074   2.227
 6057SOL    HW219071   0.080   0.960   2.212
 6058SOL     OW19072   5.100   3.437   0.708
 6058SOL    HW119073   5.146   3.488   0.635
 6058SOL    HW219074   5.073   3.501   0.781
 6059SOL     OW19075   4.698   5.207   6.159
 6059SOL    HW119076   4.689   5.134   6.091
 6059SOL    HW219077   4.627   5.196   6.229
 6060SOL     OW19078   2.735   3.343   6.070
 6060SOL    HW119079   2.711   3.420   6.011
 6060SOL    HW219080   2.685   3.262   6.042
 6061SOL     OW19081   5.267   3.657   0.087
 6061SOL    HW119082   5.283   3.625   0.180
 6061SOL    HW219083   5.171   3.684   0.077
 6062SOL     OW19084   2.621   1.409   5.876
 6062SOL    HW119085   2.612   1.445   5.783
 6062SOL    HW219086   2.569   1.467   5.939
 6063SOL     OW19087   4.771   2.627   6.090
 6063SOL    HW119088   4.842   2.557   6.079
 6063SOL    HW219089   4.807   2.701   6.148
 6064SOL     OW19090   1.742   0.560   1.089
 6064SOL    HW119091   1.668   0.623   1.115
 6064SOL    HW219092   1.806   0.551   1.165
 6065SOL     OW19093   0.989   5.958   2.857
 6065SOL    HW119094   1.010   5.911   2.771
 6065SOL    HW219095   1.062   6.023   2.878
 6066SOL     OW19096   5.514   1.317   5.559
 6066SOL    HW119097   5.477   1.314   5.652
 6066SOL    HW219098   5.478   1.398   5.512
 6067SOL     OW19099   5.005   0.680   5.509
 6067SOL    HW119100   5.008   0.716   5.416
 6067SOL    HW219101   5.045   0.747   5.572
 6068SOL     OW19102   4.674   2.694   4.652
 6068SOL    HW119103   4.705   2.777   4.605
 6068SOL    HW219104   4.598   2.654   4.600
 6069SOL     OW19105   5.770   3.319   5.208
 6069SOL    HW119106   5.760   3.221   5.190
 6069SOL    HW219107   5.699   3.348   5.272
 6070SOL     OW19108   2.794   2.657   1.378
 6070SOL    HW119109   2.709   2.706   1.399
 6070SOL    HW219110   2.872   2.720   1.386
 6071SOL     OW19111   6.824   6.050   4.851
 6071SOL    HW119112   6.836   5.959   4.811
 6071SOL    HW219113   6.760   6.103   4.795
 6072SOL     OW19114   0.375   0.174   1.720
 6072SOL    HW119115   0.301   0.241   1.716
 6072SOL    HW219116   0.449   0.210   1.776
 6073SOL     OW19117   5.261   2.685   0.701
 6073SOL    HW119118   5.191   2.755   0.711
 6073SOL    HW219119   5.272   2.635   0.787
 6074SOL     OW19120   1.061   5.611   2.523
 6074SOL    HW119121   1.079   5.597   2.425
 6074SOL    HW219122   1.043   5.523   2.566
 6075SOL     OW19123   4.653   6.759   5.829
 6075SOL    HW119124   4.674   6.700   5.907
 6075SOL    HW219125   4.707   6.843   5.835
 6076SOL     OW19126   3.183   4.963   3.280
 6076SOL    HW119127   3.126   4.901   3.226
 6076SOL    HW219128   3.276   4.927   3.286
 6077SOL     OW19129   6.213   5.469   1.425
 6077SOL    HW119130   6.259   5.524   1.355
 6077SOL    HW219131   6.210   5.374   1.396
 6078SOL     OW19132   5.253   5.001   6.990
 6078SOL    HW119133   5.336   5.050   7.014
 6078SOL    HW219134   5.194   5.059   6.934
 6079SOL     OW19135   4.920   3.905   5.542
 6079SOL    HW119136   4.869   3.836   5.491
 6079SOL    HW219137   4.885   3.911   5.635
 6080SOL     OW19138   0.247   5.656   1.059
 6080SOL    HW119139   0.176   5.716   1.096
 6080SOL    HW219140   0.309   5.627   1.132
 6081SOL     OW19141   0.023   2.499   5.808
 6081SOL    HW119142   0.078   2.562   5.753
 6081SOL    HW219143   0.030   2.524   5.905
 6082SOL     OW19144   2.851   0.186   2.947
 6082SOL    HW119145   2.792   0.178   2.866
 6082SOL    HW219146   2.947   0.172   2.920
 6083SOL     OW19147   6.357   5.846   0.430
 6083SOL    HW119148   6.450   5.854   0.394
 6083SOL    HW219149   6.304   5.927   0.404
 6084SOL     OW19150   1.108   0.202   2.782
 6084SOL    HW119151   1.128   0.112   2.742
 6084SOL    HW219152   1.189   0.260   2.777
 6085SOL     OW19153   0.552   6.887   0.099
 6085SOL    HW119154   0.526   6.975   0.057
 6085SOL    HW219155   0.527   6.812   0.037
 6086SOL     OW19156   2.806   1.897   5.763
 6086SOL    HW119157   2.870   1.860   5.831
 6086SOL    HW219158   2.715   1.861   5.780
 6087SOL     OW19159   3.407   6.131   1.499
 6087SOL    HW119160   3.419   6.212   1.557
 6087SOL    HW219161   3.496   6.101   1.465
 6088SOL     OW19162   5.570   6.492   4.504
 6088SOL    HW119163   5.504   6.482   4.430
 6088SOL    HW219164   5.662   6.476   4.470
 6089SOL     OW19165   5.604   2.434   2.599
 6089SOL    HW119166   5.522   2.413   2.545
 6089SOL    HW219167   5.681   2.450   2.537
 6090SOL     OW19168   2.353   5.229   4.462
 6090SOL    HW119169   2.366   5.132   4.446
 6090SOL    HW219170   2.394   5.255   4.550
 6091SOL     OW19171   2.586   1.472   6.665
 6091SOL    HW119172   2.516   1.533   6.705
 6091SOL    HW219173   2.640   1.523   6.598
 6092SOL     OW19174   4.197   0.957   2.849
 6092SOL    HW119175   4.219   0.876   2.904
 6092SOL    HW219176   4.112   0.997   2.881
 6093SOL     OW19177   2.389   2.587   2.186
 6093SOL    HW119178   2.471   2.535   2.162
 6093SOL    HW219179   2.315   2.564   2.122
 6094SOL     OW19180   1.222   6.108   2.919
 6094SOL    HW119181   1.320   6.086   2.911
 6094SOL    HW219182   1.199   6.179   2.852
 6095SOL     OW19183   4.812   4.805   0.251
 6095SOL    HW119184   4.911   4.809   0.239
 6095SOL    HW219185   4.772   4.893   0.226
 6096SOL     OW19186   6.156   0.327   3.157
 6096SOL    HW119187   6.102   0.298   3.236
 6096SOL    HW219188   6.207   0.249   3.120
 6097SOL     OW19189   1.628   5.460   2.215
 6097SOL    HW119190   1.693   5.390   2.186
 6097SOL    HW219191   1.535   5.425   2.209
 6098SOL     OW19192   0.220   1.383   5.365
 6098SOL    HW119193   0.319   1.395   5.357
 6098SOL    HW219194   0.193   1.296   5.323
 6099SOL     OW19195   5.210   5.612   5.999
 6099SOL    HW119196   5.142   5.567   6.057
 6099SOL    HW219197   5.171   5.628   5.908
 6100SOL     OW19198   5.482   6.257   1.757
 6100SOL    HW119199   5.564   6.216   1.716
 6100SOL    HW219200   5.423   6.185   1.794
 6101SOL     OW19201   0.203   3.046   2.964
 6101SOL    HW119202   0.240   2.955   2.980
 6101SOL    HW219203   0.255   3.113   3.018
 6102SOL     OW19204   3.482   5.750   3.187
 6102SOL    HW119205   3.462   5.820   3.256
 6102SOL    HW219206   3.564   5.777   3.137
 6103SOL     OW19207   5.540   1.653   1.738
 6103SOL    HW119208   5.611   1.700   1.792
 6103SOL    HW219209   5.566   1.557   1.726
 6104SOL     OW19210   5.293   6.947   5.415
 6104SOL    HW119211   5.217   6.922   5.475
 6104SOL    HW219212   5.375   6.896   5.443
 6105SOL     OW19213   2.470   5.506   6.614
 6105SOL    HW119214   2.554   5.467   6.574
 6105SOL    HW219215   2.413   5.544   6.541
 6106SOL     OW19216   1.802   4.761   5.886
 6106SOL    HW119217   1.771   4.708   5.808
 6106SOL    HW219218   1.730   4.763   5.956
 6107SOL     OW19219   4.750   6.070   4.965
 6107SOL    HW119220   4.771   6.115   5.052
 6107SOL    HW219221   4.694   5.990   4.982
 6108SOL     OW19222   2.360   2.748   2.660
 6108SOL    HW119223   2.317   2.658   2.666
 6108SOL    HW219224   2.458   2.737   2.643
 6109SOL     OW19225   5.412   1.466   4.971
 6109SOL    HW119226   5.485   1.419   4.921
 6109SOL    HW219227   5.379   1.407   5.044
 6110SOL     OW19228   2.566   3.834   0.874
 6110SOL    HW119229   2.576   3.740   0.844
 6110SOL    HW219230   2.505   3.838   0.953
 6111SOL     OW19231   1.308   3.202   2.256
 6111SOL    HW119232   1.265   3.251   2.180
 6111SOL    HW219233   1.386   3.150   2.222
 6112SOL     OW19234   3.385   0.401   2.485
 6112SOL    HW119235   3.468   0.452   2.465
 6112SOL    HW219236   3.394   0.308   2.450
 6113SOL     OW19237   2.688   2.009   6.124
 6113SOL    HW119238   2.779   1.967   6.114
 6113SOL    HW219239   2.637   1.998   6.039
 6114SOL     OW19240   5.371   4.484   2.497
 6114SOL    HW119241   5.378   4.434   2.411
 6114SOL    HW219242   5.279   4.521   2.507
 6115SOL     OW19243   6.321   0.258   4.358
 6115SOL    HW119244   6.357   0.285   4.447
 6115SOL    HW219245   6.222   0.244   4.364
 6116SOL     OW19246   3.794   1.827   6.132
 6116SOL    HW119247   3.712   1.884   6.144
 6116SOL    HW219248   3.875   1.879   6.157
 6117SOL     OW19249   1.808   1.344   3.678
 6117SOL    HW119250   1.804   1.244   3.676
 6117SOL    HW219251   1.719   1.382   3.655
 6118SOL     OW19252   5.858   0.690   1.145
 6118SOL    HW119253   5.899   0.780   1.131
 6118SOL    HW219254   5.917   0.634   1.203
 6119SOL     OW19255   0.918   3.523   0.196
 6119SOL    HW119256   0.924   3.610   0.244
 6119SOL    HW219257   0.967   3.529   0.109
 6120SOL     OW19258   2.563   6.352   5.682
 6120SOL    HW119259   2.571   6.261   5.642
 6120SOL    HW219260   2.649   6.401   5.670
 6121SOL     OW19261   0.893   3.500   5.064
 6121SOL    HW119262   0.801   3.484   5.027
 6121SOL    HW219263   0.890   3.499   5.163
 6122SOL     OW19264   3.722   5.101   0.486
 6122SOL    HW119265   3.787   5.151   0.543
 6122SOL    HW219266   3.734   5.003   0.499
 6123SOL     OW19267   5.078   6.627   6.436
 6123SOL    HW119268   5.074   6.582   6.526
 6123SOL    HW219269   5.008   6.699   6.432
 6124SOL     OW19270   1.399   6.657   5.893
 6124SOL    HW119271   1.491   6.620   5.909
 6124SOL    HW219272   1.394   6.750   5.931
 6125SOL     OW19273   1.601   4.007   0.428
 6125SOL    HW119274   1.561   3.941   0.365
 6125SOL    HW219275   1.680   4.051   0.384
 6126SOL     OW19276   0.034   0.908   4.195
 6126SOL    HW119277   6.990   0.981   4.165
 6126SOL    HW219278   0.030   0.832   4.129
 6127SOL     OW19279   3.128   6.856   0.871
 6127SOL    HW119280   3.068   6.861   0.791
 6127SOL    HW219281   3.121   6.941   0.923
 6128SOL     OW19282   6.421   5.250   0.491
 6128SOL    HW119283   6.447   5.232   0.396
 6128SOL    HW219284   6.348   5.319   0.493
 6129SOL     OW19285   0.209   3.053   2.405
 6129SOL    HW119286   0.233   3.042   2.502
 6129SOL    HW219287   0.280   3.014   2.348
 6130SOL     OW19288   4.907   2.296   2.242
 6130SOL    HW119289   4.966   2.215   2.242
 6130SOL    HW219290   4.917   2.345   2.328
 6131SOL     OW19291   0.721   1.746   3.850
 6131SOL    HW119292   0.759   1.653   3.858
 6131SOL    HW219293   0.751   1.787   3.764
 6132SOL     OW19294   4.183   1.915   7.011
 6132SOL    HW119295   4.154   1.864   6.930
 6132SOL    HW219296   4.127   1.886   0.072
 6133SOL     OW19297   2.115   3.464   3.283
 6133SOL    HW119298   2.146   3.438   3.374
 6133SOL    HW219299   2.112   3.564   3.276
 6134SOL     OW19300   4.330   6.077   6.801
 6134SOL    HW119301   4.249   6.129   6.827
 6134SOL    HW219302   4.412   6.123   6.835
 6135SOL     OW19303   0.557   6.039   0.819
 6135SOL    HW119304   0.508   5.952   0.817
 6135SOL    HW219305   0.643   6.030   0.769
 6136SOL     OW19306   1.507   2.769   1.667
 6136SOL    HW119307   1.486   2.703   1.595
 6136SOL    HW219308   1.579   2.831   1.634
 6137SOL     OW19309   6.843   3.974   2.039
 6137SOL    HW119310   6.796   3.986   1.952
 6137SOL    HW219311   6.941   3.986   2.026
 6138SOL     OW19312   3.957   6.925   2.784
 6138SOL    HW119313   3.935   6.895   2.691
 6138SOL    HW219314   4.056   6.924   2.797
 6139SOL     OW19315   1.091   6.987   5.808
 6139SOL    HW119316   1.073   6.996   5.710
 6139SOL    HW219317   1.010   7.016   5.859
 6140SOL     OW19318   1.192   0.461   2.009
 6140SOL    HW119319   1.205   0.430   1.915
 6140SOL    HW219320   1.156   0.386   2.064
 6141SOL     OW19321   0.801   6.966   5.891
 6141SOL    HW119322   0.703   6.972   5.904
 6141SOL    HW219323   0.823   6.881   5.843
 6142SOL     OW19324   0.033   6.193   6.052
 6142SOL    HW119325   0.109   6.227   6.106
 6142SOL    HW219326   0.069   6.136   5.977
 6143SOL     OW19327   6.682   3.224   1.475
 6143SOL    HW119328   6.735   3.212   1.559
 6143SOL    HW219329   6.602   3.165   1.477
 6144SOL     OW19330   5.298   4.875   4.367
 6144SOL    HW119331   5.276   4.900   4.461
 6144SOL    HW219332   5.396   4.859   4.358
 6145SOL     OW19333   5.393   5.064   4.183
 6145SOL    HW119334   5.327   4.994   4.210
 6145SOL    HW219335   5.419   5.118   4.263
 6146SOL     OW19336   3.617   5.503   3.805
 6146SOL    HW119337   3.636   5.413   3.842
 6146SOL    HW219338   3.581   5.562   3.877
 6147SOL     OW19339   2.308   2.367   4.981
 6147SOL    HW119340   2.342   2.461   4.974
 6147SOL    HW219341   2.215   2.368   5.018
 6148SOL     OW19342   4.148   6.606   4.871
 6148SOL    HW119343   4.229   6.550   4.887
 6148SOL    HW219344   4.066   6.555   4.897
 6149SOL     OW19345   2.281   6.702   1.328
 6149SOL    HW119346   2.183   6.684   1.329
 6149SOL    HW219347   2.326   6.652   1.402
 6150SOL     OW19348   6.074   4.658   0.479
 6150SOL    HW119349   6.136   4.736   0.489
 6150SOL    HW219350   6.120   4.575   0.509
 6151SOL     OW19351   6.278   4.798   6.436
 6151SOL    HW119352   6.308   4.717   6.485
 6151SOL    HW219353   6.182   4.816   6.455
 6152SOL     OW19354   0.633   5.766   4.470
 6152SOL    HW119355   0.685   5.690   4.432
 6152SOL    HW219356   0.590   5.818   4.397
 6153SOL     OW19357   5.447   4.113   1.301
 6153SOL    HW119358   5.427   4.210   1.292
 6153SOL    HW219359   5.362   4.062   1.313
 6154SOL     OW19360   6.241   2.641   2.543
 6154SOL    HW119361   6.215   2.546   2.563
 6154SOL    HW219362   6.168   2.703   2.572
 6155SOL     OW19363   1.596   1.143   3.473
 6155SOL    HW119364   1.568   1.228   3.518
 6155SOL    HW219365   1.691   1.122   3.495
 6156SOL     OW19366   4.947   4.554   2.117
 6156SOL    HW119367   4.933   4.647   2.083
 6156SOL    HW219368   5.027   4.552   2.177
 6157SOL     OW19369   6.751   1.955   3.615
 6157SOL    HW119370   6.681   2.026   3.611
 6157SOL    HW219371   6.794   1.954   3.705
 6158SOL     OW19372   3.993   2.203   6.780
 6158SOL    HW119373   4.014   2.300   6.770
 6158SOL    HW219374   4.072   2.149   6.750
 6159SOL     OW19375   4.341   1.764   0.932
 6159SOL    HW119376   4.396   1.847   0.925
 6159SOL    HW219377   4.344   1.730   1.026
 6160SOL     OW19378   5.516   0.369   6.925
 6160SOL    HW119379   5.491   0.324   7.011
 6160SOL    HW219380   5.488   0.312   6.848
 6161SOL     OW19381   5.795   2.302   6.415
 6161SOL    HW119382   5.772   2.263   6.504
 6161SOL    HW219383   5.752   2.392   6.406
 6162SOL     OW19384   6.166   6.569   3.787
 6162SOL    HW119385   6.078   6.525   3.769
 6162SOL    HW219386   6.209   6.594   3.701
 6163SOL     OW19387   5.685   6.166   1.603
 6163SOL    HW119388   5.690   6.226   1.523
 6163SOL    HW219389   5.667   6.072   1.574
 6164SOL     OW19390   3.585   3.918   3.745
 6164SOL    HW119391   3.565   4.012   3.717
 6164SOL    HW219392   3.634   3.919   3.833
 6165SOL     OW19393   3.773   1.363   6.388
 6165SOL    HW119394   3.836   1.440   6.374
 6165SOL    HW219395   3.764   1.345   6.486
 6166SOL     OW19396   5.746   1.607   6.817
 6166SOL    HW119397   5.672   1.673   6.797
 6166SOL    HW219398   5.784   1.574   6.731
 6167SOL     OW19399   0.720   5.162   2.957
 6167SOL    HW119400   0.745   5.145   3.052
 6167SOL    HW219401   0.641   5.106   2.933
 6168SOL     OW19402   1.808   3.357   3.209
 6168SOL    HW119403   1.773   3.281   3.264
 6168SOL    HW219404   1.900   3.334   3.176
 6169SOL     OW19405   1.320   1.684   0.448
 6169SOL    HW119406   1.273   1.644   0.369
 6169SOL    HW219407   1.251   1.720   0.512
 6170SOL     OW19408   2.744   3.791   5.560
 6170SOL    HW119409   2.752   3.774   5.461
 6170SOL    HW219410   2.666   3.850   5.577
 6171SOL     OW19411   1.721   3.591   0.972
 6171SOL    HW119412   1.738   3.690   0.975
 6171SOL    HW219413   1.805   3.542   0.993
 6172SOL     OW19414   1.450   1.538   3.921
 6172SOL    HW119415   1.409   1.563   4.009
 6172SOL    HW219416   1.547   1.517   3.935
 6173SOL     OW19417   6.289   5.317   2.601
 6173SOL    HW119418   6.210   5.331   2.542
 6173SOL    HW219419   6.359   5.385   2.581
 6174SOL     OW19420   5.775   5.590   3.336
 6174SOL    HW119421   5.691   5.645   3.335
 6174SOL    HW219422   5.794   5.557   3.244
 6175SOL     OW19423   4.704   0.710   3.429
 6175SOL    HW119424   4.617   0.744   3.464
 6175SOL    HW219425   4.696   0.612   3.410
 6176SOL     OW19426   6.062   3.124   6.863
 6176SOL    HW119427   6.155   3.104   6.895
 6176SOL    HW219428   5.998   3.057   6.901
 6177SOL     OW19429   5.052   1.157   1.138
 6177SOL    HW119430   5.027   1.208   1.220
 6177SOL    HW219431   5.134   1.198   1.097
 6178SOL     OW19432   4.944   4.675   3.236
 6178SOL    HW119433   4.894   4.619   3.303
 6178SOL    HW219434   4.924   4.772   3.253
 6179SOL     OW19435   6.475   4.818   4.483
 6179SOL    HW119436   6.477   4.849   4.388
 6179SOL    HW219437   6.386   4.778   4.503
 6180SOL     OW19438   3.711   5.469   0.311
 6180SOL    HW119439   3.683   5.561   0.340
 6180SOL    HW219440   3.637   5.426   0.259
 6181SOL     OW19441   4.116   6.668   0.747
 6181SOL    HW119442   4.162   6.623   0.824
 6181SOL    HW219443   4.104   6.603   0.672
 6182SOL     OW19444   5.685   3.406   6.142
 6182SOL    HW119445   5.648   3.493   6.110
 6182SOL    HW219446   5.757   3.375   6.079
 6183SOL     OW19447   2.049   0.523   3.224
 6183SOL    HW119448   2.068   0.537   3.321
 6183SOL    HW219449   2.129   0.480   3.181
 6184SOL     OW19450   1.651   6.704   6.158
 6184SOL    HW119451   1.723   6.715   6.089
 6184SOL    HW219452   1.584   6.778   6.149
 6185SOL     OW19453   6.749   3.667   6.568
 6185SOL    HW119454   6.812   3.632   6.637
 6185SOL    HW219455   6.666   3.611   6.567
 6186SOL     OW19456   6.317   6.748   5.879
 6186SOL    HW119457   6.310   6.708   5.971
 6186SOL    HW219458   6.288   6.844   5.883
 6187SOL     OW19459   4.354   4.877   3.322
 6187SOL    HW119460   4.453   4.864   3.326
 6187SOL    HW219461   4.309   4.788   3.324
 6188SOL     OW19462   2.523   6.991   1.040
 6188SOL    HW119463   2.528   6.907   0.986
 6188SOL    HW219464   2.430   7.003   1.075
 6189SOL     OW19465   4.821   4.110   4.202
 6189SOL    HW119466   4.776   4.140   4.287
 6189SOL    HW219467   4.897   4.050   4.225
 6190SOL     OW19468   6.990   3.731   5.762
 6190SOL    HW119469   0.024   3.802   5.713
 6190SOL    HW219470   6.905   3.771   5.798
 6191SOL     OW19471   4.041   2.482   6.829
 6191SOL    HW119472   4.092   2.465   6.913
 6191SOL    HW219473   4.089   2.550   6.773
 6192SOL     OW19474   3.293   3.176   6.646
 6192SOL    HW119475   3.197   3.176   6.677
 6192SOL    HW219476   3.296   3.185   6.547
 6193SOL     OW19477   5.397   1.233   2.204
 6193SOL    HW119478   5.476   1.280   2.165
 6193SOL    HW219479   5.420   1.137   2.219
 6194SOL     OW19480   1.527   6.940   0.772
 6194SOL    HW119481   1.561   6.886   0.849
 6194SOL    HW219482   1.432   6.965   0.788
 6195SOL     OW19483   4.307   6.519   5.630
 6195SOL    HW119484   4.404   6.537   5.615
 6195SOL    HW219485   4.252   6.584   5.577
 6196SOL     OW19486   6.031   2.365   1.567
 6196SOL    HW119487   6.064   2.280   1.524
 6196SOL    HW219488   5.938   2.385   1.534
 6197SOL     OW19489   4.738   4.493   1.089
 6197SOL    HW119490   4.664   4.490   1.156
 6197SOL    HW219491   4.718   4.428   1.016
 6198SOL     OW19492   3.452   5.912   2.256
 6198SOL    HW119493   3.368   5.901   2.202
 6198SOL    HW219494   3.518   5.843   2.228
 6199SOL     OW19495   1.186   0.735   0.771
 6199SOL    HW119496   1.226   0.797   0.838
 6199SOL    HW219497   1.133   0.665   0.817
 6200SOL     OW19498   1.706   1.564   5.127
 6200SOL    HW119499   1.752   1.484   5.166
 6200SOL    HW219500   1.611   1.567   5.159
 6201SOL     OW19501   1.315   3.806   4.818
 6201SOL    HW119502   1.250   3.736   4.789
 6201SOL    HW219503   1.388   3.764   4.872
 6202SOL     OW19504   3.941   1.595   2.451
 6202SOL    HW119505   3.987   1.534   2.387
 6202SOL    HW219506   3.842   1.580   2.448
 6203SOL     OW19507   6.464   6.943   3.535
 6203SOL    HW119508   6.539   6.899   3.486
 6203SOL    HW219509   6.447   0.016   3.496
 6204SOL     OW19510   1.385   5.639   4.317
 6204SOL    HW119511   1.368   5.668   4.223
 6204SOL    HW219512   1.301   5.600   4.356
 6205SOL     OW19513   6.387   5.926   0.154
 6205SOL    HW119514   6.291   5.950   0.160
 6205SOL    HW219515   6.422   5.950   0.063
 6206SOL     OW19516   0.024   0.893   2.507
 6206SOL    HW119517   7.006   0.918   2.417
 6206SOL    HW219518   0.051   0.977   2.556
 6207SOL     OW19519   1.672   5.377   4.647
 6207SOL    HW119520   1.597   5.383   4.713
 6207SOL    HW219521   1.640   5.406   4.557
 6208SOL     OW19522   5.826   1.961   6.564
 6208SOL    HW119523   5.748   2.009   6.525
 6208SOL    HW219524   5.905   2.022   6.567
 6209SOL     OW19525   4.758   5.441   0.137
 6209SOL    HW119526   4.730   5.496   0.058
 6209SOL    HW219527   4.857   5.428   0.135
 6210SOL     OW19528   5.229   3.955   3.489
 6210SOL    HW119529   5.300   3.894   3.453
 6210SOL    HW219530   5.212   4.029   3.424
 6211SOL     OW19531   3.139   6.200   5.637
 6211SOL    HW119532   3.217   6.196   5.575
 6211SOL    HW219533   3.054   6.188   5.584
 6212SOL     OW19534   2.068   4.891   3.327
 6212SOL    HW119535   2.139   4.960   3.337
 6212SOL    HW219536   1.982   4.935   3.302
 6213SOL     OW19537   5.878   7.016   6.961
 6213SOL    HW119538   5.871   0.096   6.981
 6213SOL    HW219539   5.787   6.978   6.948
 6214SOL     OW19540   4.530   4.963   4.960
 6214SOL    HW119541   4.466   5.008   4.897
 6214SOL    HW219542   4.495   4.872   4.984
 6215SOL     OW19543   4.511   1.037   1.457
 6215SOL    HW119544   4.425   0.997   1.426
 6215SOL    HW219545   4.508   1.136   1.449
 6216SOL     OW19546   5.909   1.445   1.955
 6216SOL    HW119547   5.991   1.401   1.917
 6216SOL    HW219548   5.922   1.461   2.052
 6217SOL     OW19549   0.703   2.954   1.858
 6217SOL    HW119550   0.776   3.015   1.825
 6217SOL    HW219551   0.614   2.996   1.841
 6218SOL     OW19552   4.250   5.579   5.903
 6218SOL    HW119553   4.173   5.533   5.861
 6218SOL    HW219554   4.300   5.515   5.961
 6219SOL     OW19555   0.523   2.526   4.436
 6219SOL    HW119556   0.434   2.546   4.477
 6219SOL    HW219557   0.543   2.594   4.365
 6220SOL     OW19558   1.615   2.563   5.205
 6220SOL    HW119559   1.538   2.537   5.264
 6220SOL    HW219560   1.666   2.481   5.178
 6221SOL     OW19561   5.820   5.692   0.176
 6221SOL    HW119562   5.788   5.710   0.083
 6221SOL    HW219563   5.903   5.745   0.193
 6222SOL     OW19564   0.717   6.390   0.918
 6222SOL    HW119565   0.742   6.310   0.862
 6222SOL    HW219566   0.690   6.465   0.857
 6223SOL     OW19567   0.341   5.165   4.163
 6223SOL    HW119568   0.381   5.083   4.205
 6223SOL    HW219569   0.260   5.192   4.215
 6224SOL     OW19570   2.325   1.767   6.007
 6224SOL    HW119571   2.308   1.864   6.025
 6224SOL    HW219572   2.244   1.726   5.965
 6225SOL     OW19573   3.446   3.842   6.785
 6225SOL    HW119574   3.403   3.753   6.769
 6225SOL    HW219575   3.528   3.830   6.841
 6226SOL     OW19576   6.036   1.564   4.988
 6226SOL    HW119577   6.025   1.467   4.965
 6226SOL    HW219578   5.985   1.584   5.072
 6227SOL     OW19579   3.872   6.183   5.736
 6227SOL    HW119580   3.799   6.124   5.704
 6227SOL    HW219581   3.857   6.277   5.703
 6228SOL     OW19582   1.291   2.420   3.592
 6228SOL    HW119583   1.359   2.349   3.609
 6228SOL    HW219584   1.287   2.482   3.671
 6229SOL     OW19585   0.018   2.108   2.940
 6229SOL    HW119586   0.086   2.160   2.992
 6229SOL    HW219587   6.963   2.077   3.002
 6230SOL     OW19588   1.272   1.333   3.802
 6230SOL    HW119589   1.182   1.373   3.785
 6230SOL    HW219590   1.331   1.402   3.844
 6231SOL     OW19591   5.924   5.109   1.220
 6231SOL    HW119592   5.845   5.113   1.159
 6231SOL    HW219593   6.007   5.097   1.166
 6232SOL     OW19594   0.081   0.860   0.722
 6232SOL    HW119595   0.089   0.928   0.649
 6232SOL    HW219596   0.077   0.769   0.682
 6233SOL     OW19597   6.367   0.747   0.503
 6233SOL    HW119598   6.351   0.846   0.510
 6233SOL    HW219599   6.315   0.711   0.425
 6234SOL     OW19600   6.156   1.529   5.536
 6234SOL    HW119601   6.093   1.564   5.467
 6234SOL    HW219602   6.110   1.522   5.624
 6235SOL     OW19603   1.474   0.015   1.515
 6235SOL    HW119604   1.544   6.999   1.453
 6235SOL    HW219605   1.419   6.956   1.549
 6236SOL     OW19606   0.817   3.997   0.547
 6236SOL    HW119607   0.873   3.930   0.597
 6236SOL    HW219608   0.875   4.050   0.485
 6237SOL     OW19609   3.453   6.791   0.018
 6237SOL    HW119610   3.495   6.703   7.012
 6237SOL    HW219611   3.382   6.777   0.087
 6238SOL     OW19612   4.384   4.951   2.536
 6238SOL    HW119613   4.381   5.010   2.455
 6238SOL    HW219614   4.357   4.858   2.510
 6239SOL     OW19615   2.692   0.094   2.328
 6239SOL    HW119616   2.639   0.104   2.244
 6239SOL    HW219617   2.765   0.162   2.331
 6240SOL     OW19618   2.429   3.366   6.084
 6240SOL    HW119619   2.341   3.337   6.121
 6240SOL    HW219620   2.489   3.395   6.159
 6241SOL     OW19621   3.882   0.016   1.957
 6241SOL    HW119622   3.921   0.095   1.909
 6241SOL    HW219623   3.800   0.044   2.007
 6242SOL     OW19624   5.218   1.180   3.306
 6242SOL    HW119625   5.147   1.240   3.341
 6242SOL    HW219626   5.183   1.128   3.228
 6243SOL     OW19627   6.159   6.793   4.167
 6243SOL    HW119628   6.098   6.714   4.166
 6243SOL    HW219629   6.204   6.799   4.257
 6244SOL     OW19630   0.444   2.679   2.405
 6244SOL    HW119631   0.531   2.648   2.443
 6244SOL    HW219632   0.369   2.650   2.465
 6245SOL     OW19633   1.496   3.844   0.261
 6245SOL    HW119634   1.401   3.857   0.234
 6245SOL    HW219635   1.520   3.747   0.254
 6246SOL     OW19636   2.142   1.941   5.634
 6246SOL    HW119637   2.140   2.010   5.561
 6246SOL    HW219638   2.134   1.850   5.593
 6247SOL     OW19639   1.234   6.223   4.556
 6247SOL    HW119640   1.157   6.160   4.562
 6247SOL    HW219641   1.237   6.263   4.464
 6248SOL     OW19642   3.509   3.196   0.350
 6248SOL    HW119643   3.578   3.261   0.319
 6248SOL    HW219644   3.485   3.135   0.275
 6249SOL     OW19645   0.336   3.909   0.644
 6249SOL    HW119646   0.248   3.882   0.683
 6249SOL    HW219647   0.408   3.849   0.678
 6250SOL     OW19648   6.813   6.259   7.003
 6250SOL    HW119649   6.894   6.307   0.019
 6250SOL    HW219650   6.835   6.162   6.990
 6251SOL     OW19651   4.304   5.265   0.015
 6251SOL    HW119652   4.246   5.334   0.058
 6251SOL    HW219653   4.336   5.298   6.944
 6252SOL     OW19654   1.446   6.638   5.355
 6252SOL    HW119655   1.542   6.652   5.377
 6252SOL    HW219656   1.391   6.652   5.438
 6253SOL     OW19657   2.084   3.850   2.838
 6253SOL    HW119658   2.008   3.790   2.815
 6253SOL    HW219659   2.141   3.806   2.907
 6254SOL     OW19660   5.303   1.671   0.919
 6254SOL    HW119661   5.348   1.728   0.988
 6254SOL    HW219662   5.204   1.672   0.935
 6255SOL     OW19663   3.171   0.328   0.702
 6255SOL    HW119664   3.208   0.260   0.639
 6255SOL    HW219665   3.071   0.326   0.700
 6256SOL     OW19666   3.589   5.203   2.018
 6256SOL    HW119667   3.588   5.197   1.918
 6256SOL    HW219668   3.544   5.122   2.057
 6257SOL     OW19669   4.901   2.381   0.033
 6257SOL    HW119670   4.966   2.310   0.061
 6257SOL    HW219671   4.847   2.410   0.112
 6258SOL     OW19672   3.948   6.895   3.741
 6258SOL    HW119673   3.856   6.864   3.765
 6258SOL    HW219674   4.007   6.815   3.730
 6259SOL     OW19675   2.368   2.498   0.556
 6259SOL    HW119676   2.378   2.469   0.461
 6259SOL    HW219677   2.414   2.586   0.569
 6260SOL     OW19678   3.115   5.646   0.669
 6260SOL    HW119679   3.192   5.703   0.641
 6260SOL    HW219680   3.118   5.559   0.618
 6261SOL     OW19681   4.017   0.922   6.599
 6261SOL    HW119682   4.091   0.871   6.643
 6261SOL    HW219683   3.936   0.864   6.591
 6262SOL     OW19684   1.983   6.082   0.292
 6262SOL    HW119685   1.906   6.089   0.229
 6262SOL    HW219686   1.957   6.025   0.371
 6263SOL     OW19687   6.712   0.431   5.008
 6263SOL    HW119688   6.682   0.522   5.036
 6263SOL    HW219689   6.805   0.415   5.041
 6264SOL     OW19690   1.510   6.691   2.159
 6264SOL    HW119691   1.432   6.639   2.192
 6264SOL    HW219692   1.515   6.778   2.208
 6265SOL     OW19693   3.234   3.976   0.066
 6265SOL    HW119694   3.292   4.051   0.096
 6265SOL    HW219695   3.189   3.935   0.146
 6266SOL     OW19696   3.921   0.856   4.768
 6266SOL    HW119697   3.936   0.792   4.843
 6266SOL    HW219698   3.831   0.840   4.728
 6267SOL     OW19699   2.464   0.499   6.684
 6267SOL    HW119700   2.402   0.465   6.755
 6267SOL    HW219701   2.527   0.565   6.724
 6268SOL     OW19702   3.357   6.945   3.447
 6268SOL    HW119703   3.348   0.011   3.393
 6268SOL    HW219704   3.270   6.896   3.445
 6269SOL     OW19705   0.099   6.394   1.693
 6269SOL    HW119706   0.135   6.388   1.786
 6269SOL    HW219707   0.162   6.350   1.630
 6270SOL     OW19708   1.814   0.465   5.240
 6270SOL    HW119709   1.800   0.564   5.232
 6270SOL    HW219710   1.906   0.447   5.276
 6271SOL     OW19711   6.497   2.166   6.769
 6271SOL    HW119712   6.575   2.190   6.827
 6271SOL    HW219713   6.529   2.112   6.691
 6272SOL     OW19714   0.150   2.017   6.937
 6272SOL    HW119715   0.228   1.954   6.942
 6272SOL    HW219716   0.181   2.106   6.904
 6273SOL     OW19717   1.528   6.404   2.399
 6273SOL    HW119718   1.600   6.370   2.339
 6273SOL    HW219719   1.442   6.357   2.378
 6274SOL     OW19720   2.807   5.437   6.116
 6274SOL    HW119721   2.782   5.419   6.212
 6274SOL    HW219722   2.898   5.401   6.098
 6275SOL     OW19723   2.107   6.605   5.452
 6275SOL    HW119724   2.054   6.580   5.371
 6275SOL    HW219725   2.054   6.586   5.534
 6276SOL     OW19726   2.490   4.404   3.288
 6276SOL    HW119727   2.442   4.372   3.370
 6276SOL    HW219728   2.451   4.359   3.207
 6277SOL     OW19729   5.582   3.323   2.110
 6277SOL    HW119730   5.489   3.309   2.076
 6277SOL    HW219731   5.592   3.277   2.198
 6278SOL     OW19732   5.231   6.258   4.508
 6278SOL    HW119733   5.276   6.204   4.579
 6278SOL    HW219734   5.146   6.213   4.482
 6279SOL     OW19735   3.918   0.102   0.016
 6279SOL    HW119736   3.970   0.069   0.094
 6279SOL    HW219737   3.941   0.048   6.952
 6280SOL     OW19738   1.117   2.043   5.354
 6280SOL    HW119739   1.094   2.054   5.451
 6280SOL    HW219740   1.064   2.107   5.299
 6281SOL     OW19741   1.191   5.222   3.340
 6281SOL    HW119742   1.198   5.169   3.425
 6281SOL    HW219743   1.131   5.174   3.276
 6282SOL     OW19744   1.359   6.553   4.907
 6282SOL    HW119745   1.438   6.522   4.960
 6282SOL    HW219746   1.342   6.650   4.927
 6283SOL     OW19747   6.747   3.083   5.519
 6283SOL    HW119748   6.703   2.994   5.514
 6283SOL    HW219749   6.829   3.077   5.576
 6284SOL     OW19750   1.696   5.787   4.593
 6284SOL    HW119751   1.768   5.734   4.547
 6284SOL    HW219752   1.641   5.835   4.525
 6285SOL     OW19753   6.916   3.535   4.410
 6285SOL    HW119754   6.884   3.561   4.500
 6285SOL    HW219755   7.005   3.490   4.418
 6286SOL     OW19756   5.839   1.648   3.854
 6286SOL    HW119757   5.873   1.629   3.947
 6286SOL    HW219758   5.903   1.708   3.807
 6287SOL     OW19759   3.607   4.948   3.851
 6287SOL    HW119760   3.562   4.977   3.767
 6287SOL    HW219761   3.706   4.949   3.838
 6288SOL     OW19762   4.758   4.451   2.576
 6288SOL    HW119763   4.724   4.373   2.523
 6288SOL    HW219764   4.841   4.423   2.625
 6289SOL     OW19765   1.872   4.526   1.441
 6289SOL    HW119766   1.905   4.476   1.361
 6289SOL    HW219767   1.931   4.605   1.459
 6290SOL     OW19768   6.887   4.676   5.128
 6290SOL    HW119769   6.807   4.631   5.166
 6290SOL    HW219770   6.966   4.659   5.187
 6291SOL     OW19771   3.725   3.291   4.771
 6291SOL    HW119772   3.787   3.213   4.783
 6291SOL    HW219773   3.742   3.359   4.843
 6292SOL     OW19774   1.565   2.648   4.479
 6292SOL    HW119775   1.665   2.643   4.490
 6292SOL    HW219776   1.521   2.623   4.565
 6293SOL     OW19777   3.554   1.232   6.993
 6293SOL    HW119778   3.615   1.213   6.916
 6293SOL    HW219779   3.518   1.145   0.011
 6294SOL     OW19780   3.939   4.958   4.677
 6294SOL    HW119781   3.869   4.980   4.609
 6294SOL    HW219782   3.898   4.949   4.767
 6295SOL     OW19783   5.645   4.789   6.116
 6295SOL    HW119784   5.557   4.743   6.124
 6295SOL    HW219785   5.635   4.875   6.067
 6296SOL     OW19786   0.526   7.009   5.947
 6296SOL    HW119787   0.520   0.085   5.980
 6296SOL    HW219788   0.435   6.966   5.951
 6297SOL     OW19789   4.606   6.569   4.289
 6297SOL    HW119790   4.621   6.499   4.219
 6297SOL    HW219791   4.514   6.607   4.279
 6298SOL     OW19792   1.369   2.739   6.522
 6298SOL    HW119793   1.327   2.697   6.602
 6298SOL    HW219794   1.366   2.838   6.530
 6299SOL     OW19795   5.576   1.838   6.845
 6299SOL    HW119796   5.668   1.868   6.823
 6299SOL    HW219797   5.575   1.793   6.935
 6300SOL     OW19798   6.195   0.436   0.675
 6300SOL    HW119799   6.201   0.474   0.583
 6300SOL    HW219800   6.105   0.396   0.689
 6301SOL     OW19801   4.027   0.541   0.278
 6301SOL    HW119802   3.942   0.580   0.313
 6301SOL    HW219803   4.055   0.464   0.336
 6302SOL     OW19804   2.282   0.719   3.265
 6302SOL    HW119805   2.272   0.819   3.261
 6302SOL    HW219806   2.321   0.687   3.179
 6303SOL     OW19807   1.416   1.603   4.475
 6303SOL    HW119808   1.514   1.598   4.453
 6303SOL    HW219809   1.393   1.697   4.502
 6304SOL     OW19810   2.400   0.879   1.559
 6304SOL    HW119811   2.402   0.876   1.659
 6304SOL    HW219812   2.485   0.838   1.523
 6305SOL     OW19813   6.189   6.839   1.433
 6305SOL    HW119814   6.264   6.867   1.494
 6305SOL    HW219815   6.179   6.906   1.360
 6306SOL     OW19816   0.453   4.502   4.217
 6306SOL    HW119817   0.378   4.454   4.172
 6306SOL    HW219818   0.539   4.455   4.199
 6307SOL     OW19819   4.217   4.097   5.365
 6307SOL    HW119820   4.152   4.167   5.335
 6307SOL    HW219821   4.178   4.046   5.442
 6308SOL     OW19822   1.844   2.705   4.504
 6308SOL    HW119823   1.891   2.776   4.452
 6308SOL    HW219824   1.902   2.625   4.511
 6309SOL     OW19825   5.056   4.864   5.705
 6309SOL    HW119826   5.121   4.940   5.696
 6309SOL    HW219827   5.034   4.829   5.614
 6310SOL     OW19828   1.702   6.024   2.882
 6310SOL    HW119829   1.626   5.966   2.851
 6310SOL    HW219830   1.780   5.966   2.906
 6311SOL     OW19831   4.476   1.022   5.734
 6311SOL    HW119832   4.386   1.066   5.734
 6311SOL    HW219833   4.483   0.961   5.813
 6312SOL     OW19834   6.298   5.632   5.883
 6312SOL    HW119835   6.226   5.594   5.942
 6312SOL    HW219836   6.281   5.604   5.789
 6313SOL     OW19837   1.386   6.611   4.405
 6313SOL    HW119838   1.365   6.581   4.498
 6313SOL    HW219839   1.374   6.535   4.342
 6314SOL     OW19840   3.395   6.457   1.388
 6314SOL    HW119841   3.345   6.519   1.448
 6314SOL    HW219842   3.340   6.375   1.370
 6315SOL     OW19843   1.780   2.764   5.537
 6315SOL    HW119844   1.771   2.667   5.516
 6315SOL    HW219845   1.852   2.804   5.481
 6316SOL     OW19846   4.351   1.217   6.640
 6316SOL    HW119847   4.366   1.170   6.553
 6316SOL    HW219848   4.431   1.273   6.662
 6317SOL     OW19849   4.628   5.933   2.463
 6317SOL    HW119850   4.703   5.905   2.404
 6317SOL    HW219851   4.563   5.857   2.474
 6318SOL     OW19852   3.950   1.417   4.907
 6318SOL    HW119853   3.866   1.364   4.914
 6318SOL    HW219854   3.996   1.396   4.821
 6319SOL     OW19855   6.534   1.633   4.193
 6319SOL    HW119856   6.606   1.641   4.262
 6319SOL    HW219857   6.444   1.640   4.236
 6320SOL     OW19858   5.509   5.693   5.449
 6320SOL    HW119859   5.516   5.789   5.423
 6320SOL    HW219860   5.430   5.652   5.403
 6321SOL     OW19861   3.181   3.306   0.632
 6321SOL    HW119862   3.101   3.337   0.684
 6321SOL    HW219863   3.202   3.374   0.561
 6322SOL     OW19864   1.634   2.192   0.060
 6322SOL    HW119865   1.560   2.125   0.062
 6322SOL    HW219866   1.697   2.176   0.136
 6323SOL     OW19867   3.338   2.690   1.841
 6323SOL    HW119868   3.377   2.748   1.770
 6323SOL    HW219869   3.359   2.594   1.822
 6324SOL     OW19870   5.230   7.006   6.708
 6324SOL    HW119871   5.293   6.947   6.657
 6324SOL    HW219872   5.244   0.084   6.682
 6325SOL     OW19873   2.288   1.847   2.487
 6325SOL    HW119874   2.383   1.867   2.511
 6325SOL    HW219875   2.262   1.904   2.408
 6326SOL     OW19876   4.788   4.750   1.857
 6326SOL    HW119877   4.720   4.736   1.929
 6326SOL    HW219878   4.872   4.701   1.881
 6327SOL     OW19879   6.946   0.205   4.784
 6327SOL    HW119880   6.922   0.265   4.861
 6327SOL    HW219881   6.960   0.112   4.818
 6328SOL     OW19882   2.942   2.667   0.671
 6328SOL    HW119883   3.041   2.666   0.659
 6328SOL    HW219884   2.902   2.743   0.619
 6329SOL     OW19885   2.003   2.822   3.985
 6329SOL    HW119886   2.050   2.907   4.009
 6329SOL    HW219887   1.918   2.816   4.037
 6330SOL     OW19888   4.571   0.617   1.036
 6330SOL    HW119889   4.531   0.608   0.945
 6330SOL    HW219890   4.509   0.580   1.105
 6331SOL     OW19891   6.515   2.683   6.222
 6331SOL    HW119892   6.459   2.734   6.157
 6331SOL    HW219893   6.552   2.745   6.291
 6332SOL     OW19894   6.376   3.388   1.524
 6332SOL    HW119895   6.443   3.352   1.588
 6332SOL    HW219896   6.409   3.376   1.430
 6333SOL     OW19897   4.644   5.847   5.459
 6333SOL    HW119898   4.574   5.794   5.410
 6333SOL    HW219899   4.623   5.944   5.453
 6334SOL     OW19900   3.193   0.511   1.479
 6334SOL    HW119901   3.098   0.485   1.493
 6334SOL    HW219902   3.197   0.601   1.437
 6335SOL     OW19903   4.371   1.013   0.556
 6335SOL    HW119904   4.346   1.009   0.460
 6335SOL    HW219905   4.409   0.925   0.585
 6336SOL     OW19906   0.855   2.350   5.696
 6336SOL    HW119907   0.899   2.394   5.774
 6336SOL    HW219908   0.778   2.407   5.665
 6337SOL     OW19909   5.146   4.176   6.150
 6337SOL    HW119910   5.113   4.110   6.082
 6337SOL    HW219911   5.231   4.142   6.190
 6338SOL     OW19912   3.858   1.744   4.423
 6338SOL    HW119913   3.786   1.790   4.371
 6338SOL    HW219914   3.901   1.810   4.485
 6339SOL     OW19915   1.658   4.070   2.813
 6339SOL    HW119916   1.747   4.115   2.810
 6339SOL    HW219917   1.612   4.094   2.899
 6340SOL     OW19918   1.345   5.281   2.687
 6340SOL    HW119919   1.432   5.292   2.638
 6340SOL    HW219920   1.273   5.255   2.622
 6341SOL     OW19921   1.146   4.039   4.593
 6341SOL    HW119922   1.167   4.136   4.606
 6341SOL    HW219923   1.107   4.001   4.677
 6342SOL     OW19924   2.029   1.401   1.835
 6342SOL    HW119925   2.093   1.351   1.893
 6342SOL    HW219926   2.079   1.471   1.783
 6343SOL     OW19927   4.639   1.893   6.491
 6343SOL    HW119928   4.563   1.854   6.542
 6343SOL    HW219929   4.725   1.870   6.536
 6344SOL     OW19930   5.613   2.834   5.200
 6344SOL    HW119931   5.580   2.859   5.109
 6344SOL    HW219932   5.589   2.739   5.220
 6345SOL     OW19933   5.561   2.758   2.567
 6345SOL    HW119934   5.609   2.690   2.622
 6345SOL    HW219935   5.512   2.712   2.492
 6346SOL     OW19936   6.722   4.799   3.678
 6346SOL    HW119937   6.802   4.809   3.619
 6346SOL    HW219938   6.747   4.744   3.758
 6347SOL     OW19939   2.335   0.396   0.732
 6347SOL    HW119940   2.327   0.297   0.741
 6347SOL    HW219941   2.341   0.420   0.635
 6348SOL     OW19942   0.826   4.060   5.464
 6348SOL    HW119943   0.920   4.026   5.460
 6348SOL    HW219944   0.817   4.124   5.540
 6349SOL     OW19945   2.406   0.206   1.998
 6349SOL    HW119946   2.429   0.293   2.041
 6349SOL    HW219947   2.365   0.146   2.066
 6350SOL     OW19948   1.969   5.226   3.885
 6350SOL    HW119949   1.897   5.261   3.945
 6350SOL    HW219950   1.970   5.126   3.889
 6351SOL     OW19951   6.404   3.610   3.479
 6351SOL    HW119952   6.414   3.561   3.565
 6351SOL    HW219953   6.412   3.708   3.495
 6352SOL     OW19954   3.751   5.746   4.817
 6352SOL    HW119955   3.813   5.758   4.895
 6352SOL    HW219956   3.737   5.649   4.801
 6353SOL     OW19957   0.479   0.275   6.066
 6353SOL    HW119958   0.545   0.330   6.117
 6353SOL    HW219959   0.458   0.320   5.979
 6354SOL     OW19960   1.807   5.910   3.271
 6354SOL    HW119961   1.836   5.841   3.337
 6354SOL    HW219962   1.719   5.884   3.232
 6355SOL     OW19963   0.777   5.026   6.279
 6355SOL    HW119964   0.792   4.954   6.347
 6355SOL    HW219965   0.690   5.071   6.296
 6356SOL     OW19966   4.154   5.452   2.047
 6356SOL    HW119967   4.178   5.514   1.972
 6356SOL    HW219968   4.054   5.446   2.053
 6357SOL     OW19969   5.549   3.519   2.474
 6357SOL    HW119970   5.515   3.572   2.397
 6357SOL    HW219971   5.634   3.473   2.448
 6358SOL     OW19972   0.562   1.999   6.176
 6358SOL    HW119973   0.603   1.926   6.122
 6358SOL    HW219974   0.625   2.025   6.250
 6359SOL     OW19975   5.803   6.635   6.395
 6359SOL    HW119976   5.843   6.720   6.429
 6359SOL    HW219977   5.876   6.569   6.376
 6360SOL     OW19978   1.247   3.995   3.722
 6360SOL    HW119979   1.155   3.956   3.709
 6360SOL    HW219980   1.293   3.946   3.796
 6361SOL     OW19981   6.504   0.257   1.090
 6361SOL    HW119982   6.437   0.232   1.020
 6361SOL    HW219983   6.501   0.356   1.104
 6362SOL     OW19984   0.223   6.417   0.292
 6362SOL    HW119985   0.169   6.358   0.353
 6362SOL    HW219986   0.270   6.487   0.346
 6363SOL     OW19987   2.733   4.819   3.542
 6363SOL    HW119988   2.795   4.829   3.620
 6363SOL    HW219989   2.656   4.761   3.568
 6364SOL     OW19990   3.227   1.097   6.045
 6364SOL    HW119991   3.268   1.133   5.962
 6364SOL    HW219992   3.278   1.016   6.075
 6365SOL     OW19993   5.288   6.971   3.974
 6365SOL    HW119994   5.380   7.006   3.956
 6365SOL    HW219995   5.235   6.971   3.889
 6366SOL     OW19996   0.919   6.298   5.847
 6366SOL    HW119997   0.921   6.219   5.908
 6366SOL    HW219998   0.857   6.280   5.771
 6367SOL     OW19999   4.048   0.808   5.152
 6367SOL    HW120000   4.113   0.814   5.077
 6367SOL    HW220001   3.971   0.750   5.125
 6368SOL     OW20002   3.710   4.886   3.418
 6368SOL    HW120003   3.793   4.839   3.448
 6368SOL    HW220004   3.732   4.949   3.344
 6369SOL     OW20005   2.194   5.364   3.825
 6369SOL    HW120006   2.169   5.456   3.853
 6369SOL    HW220007   2.121   5.300   3.850
 6370SOL     OW20008   0.543   3.557   3.237
 6370SOL    HW120009   0.455   3.553   3.189
 6370SOL    HW220010   0.540   3.496   3.316
 6371SOL     OW20011   5.298   4.044   4.254
 6371SOL    HW120012   5.296   4.144   4.263
 6371SOL    HW220013   5.276   4.002   4.342
 6372SOL     OW20014   2.127   0.035   2.394
 6372SOL    HW120015   2.032   0.059   2.375
 6372SOL    HW220016   2.130   6.969   2.450
 6373SOL     OW20017   5.019   4.138   3.096
 6373SOL    HW120018   4.944   4.202   3.083
 6373SOL    HW220019   4.992   4.048   3.060
 6374SOL     OW20020   3.177   4.078   3.633
 6374SOL    HW120021   3.098   4.033   3.673
 6374SOL    HW220022   3.243   4.101   3.704
 6375SOL     OW20023   6.363   2.026   3.979
 6375SOL    HW120024   6.442   2.073   3.940
 6375SOL    HW220025   6.282   2.046   3.924
 6376SOL     OW20026   6.105   2.415   5.079
 6376SOL    HW120027   6.010   2.440   5.098
 6376SOL    HW220028   6.107   2.346   5.006
 6377SOL     OW20029   6.127   1.855   5.702
 6377SOL    HW120030   6.188   1.784   5.667
 6377SOL    HW220031   6.099   1.915   5.627
 6378SOL     OW20032   4.619   5.205   3.987
 6378SOL    HW120033   4.707   5.234   4.025
 6378SOL    HW220034   4.609   5.243   3.895
 6379SOL     OW20035   1.607   3.697   3.904
 6379SOL    HW120036   1.634   3.658   3.992
 6379SOL    HW220037   1.657   3.782   3.889
 6380SOL     OW20038   0.432   1.879   5.637
 6380SOL    HW120039   0.357   1.828   5.681
 6380SOL    HW220040   0.496   1.814   5.596
 6381SOL     OW20041   3.548   3.259   1.639
 6381SOL    HW120042   3.563   3.352   1.674
 6381SOL    HW220043   3.618   3.198   1.677
 6382SOL     OW20044   1.210   1.310   1.078
 6382SOL    HW120045   1.282   1.274   1.137
 6382SOL    HW220046   1.121   1.283   1.114
 6383SOL     OW20047   1.391   1.707   2.861
 6383SOL    HW120048   1.483   1.709   2.901
 6383SOL    HW220049   1.323   1.716   2.934
 6384SOL     OW20050   5.929   3.816   1.642
 6384SOL    HW120051   5.985   3.885   1.595
 6384SOL    HW220052   5.834   3.847   1.645
 6385SOL     OW20053   7.008   4.634   3.740
 6385SOL    HW120054   0.008   4.701   3.668
 6385SOL    HW220055   0.024   4.545   3.712
 6386SOL     OW20056   2.242   4.294   5.984
 6386SOL    HW120057   2.218   4.209   5.937
 6386SOL    HW220058   2.308   4.345   5.928
 6387SOL     OW20059   0.681   1.294   6.417
 6387SOL    HW120060   0.758   1.281   6.479
 6387SOL    HW220061   0.697   1.376   6.361
 6388SOL     OW20062   4.159   4.752   0.977
 6388SOL    HW120063   4.071   4.798   0.968
 6388SOL    HW220064   4.225   4.795   0.916
 6389SOL     OW20065   0.658   6.069   2.630
 6389SOL    HW120066   0.594   6.007   2.586
 6389SOL    HW220067   0.712   6.117   2.561
 6390SOL     OW20068   0.280   1.722   5.284
 6390SOL    HW120069   0.337   1.673   5.350
 6390SOL    HW220070   0.332   1.741   5.201
 6391SOL     OW20071   2.197   0.218   5.908
 6391SOL    HW120072   2.137   0.185   5.981
 6391SOL    HW220073   2.212   0.144   5.842
 6392SOL     OW20074   2.790   6.327   3.219
 6392SOL    HW120075   2.848   6.407   3.200
 6392SOL    HW220076   2.761   6.330   3.315
 6393SOL     OW20077   6.828   6.950   1.967
 6393SOL    HW120078   6.787   0.014   2.008
 6393SOL    HW220079   6.762   6.908   1.905
 6394SOL     OW20080   2.177   4.772   0.733
 6394SOL    HW120081   2.079   4.761   0.751
 6394SOL    HW220082   2.225   4.687   0.753
 6395SOL     OW20083   6.777   2.313   1.075
 6395SOL    HW120084   6.716   2.257   1.019
 6395SOL    HW220085   6.725   2.354   1.150
 6396SOL     OW20086   4.909   3.295   5.917
 6396SOL    HW120087   4.898   3.301   6.016
 6396SOL    HW220088   4.823   3.318   5.871
 6397SOL     OW20089   5.476   2.752   6.487
 6397SOL    HW120090   5.524   2.754   6.575
 6397SOL    HW220091   5.544   2.754   6.413
 6398SOL     OW20092   3.220   0.070   0.603
 6398SOL    HW120093   3.295   0.026   0.555
 6398SOL    HW220094   3.139   0.010   0.602
 6399SOL     OW20095   0.949   5.995   6.441
 6399SOL    HW120096   1.019   6.019   6.509
 6399SOL    HW220097   0.941   6.070   6.376
 6400SOL     OW20098   2.410   6.019   1.815
 6400SOL    HW120099   2.382   5.985   1.725
 6400SOL    HW220100   2.379   6.113   1.827
 6401SOL     OW20101   6.985   5.149   3.990
 6401SOL    HW120102   0.064   5.161   3.966
 6401SOL    HW220103   6.955   5.059   3.960
 6402SOL     OW20104   4.082   1.638   2.677
 6402SOL    HW120105   4.032   1.626   2.591
 6402SOL    HW220106   4.027   1.693   2.740
 6403SOL     OW20107   6.939   6.652   6.382
 6403SOL    HW120108   6.939   6.595   6.300
 6403SOL    HW220109   6.989   6.737   6.364
 6404SOL     OW20110   4.552   1.785   2.081
 6404SOL    HW120111   4.564   1.884   2.087
 6404SOL    HW220112   4.564   1.756   1.986
 6405SOL     OW20113   2.915   0.572   3.662
 6405SOL    HW120114   2.995   0.513   3.673
 6405SOL    HW220115   2.944   0.661   3.628
 6406SOL     OW20116   1.235   2.395   3.142
 6406SOL    HW120117   1.249   2.492   3.118
 6406SOL    HW220118   1.195   2.389   3.233
 6407SOL     OW20119   2.762   5.988   4.039
 6407SOL    HW120120   2.846   6.030   4.005
 6407SOL    HW220121   2.684   6.023   3.987
 6408SOL     OW20122   5.647   2.373   0.926
 6408SOL    HW120123   5.623   2.391   0.830
 6408SOL    HW220124   5.590   2.299   0.961
 6409SOL     OW20125   6.915   4.856   3.309
 6409SOL    HW120126   6.969   4.829   3.229
 6409SOL    HW220127   6.819   4.835   3.293
 6410SOL     OW20128   1.561   1.464   0.606
 6410SOL    HW120129   1.512   1.525   0.669
 6410SOL    HW220130   1.648   1.507   0.581
 6411SOL     OW20131   0.902   2.504   3.303
 6411SOL    HW120132   0.989   2.459   3.327
 6411SOL    HW220133   0.885   2.580   3.366
 6412SOL     OW20134   0.439   2.290   5.136
 6412SOL    HW120135   0.506   2.237   5.188
 6412SOL    HW220136   0.403   2.235   5.061
 6413SOL     OW20137   4.472   4.630   3.689
 6413SOL    HW120138   4.458   4.728   3.698
 6413SOL    HW220139   4.514   4.610   3.600
 6414SOL     OW20140   5.999   1.083   0.428
 6414SOL    HW120141   5.910   1.055   0.391
 6414SOL    HW220142   5.985   1.149   0.502
 6415SOL     OW20143   1.732   3.062   3.242
 6415SOL    HW120144   1.648   3.062   3.186
 6415SOL    HW220145   1.760   2.968   3.260
 6416SOL     OW20146   1.270   1.442   6.287
 6416SOL    HW120147   1.307   1.392   6.209
 6416SOL    HW220148   1.179   1.408   6.310
 6417SOL     OW20149   6.221   5.086   2.144
 6417SOL    HW120150   6.259   5.004   2.101
 6417SOL    HW220151   6.237   5.082   2.243
 6418SOL     OW20152   4.942   4.398   1.704
 6418SOL    HW120153   4.854   4.430   1.671
 6418SOL    HW220154   4.933   4.367   1.799
 6419SOL     OW20155   2.413   4.725   3.046
 6419SOL    HW120156   2.457   4.711   3.135
 6419SOL    HW220157   2.388   4.821   3.036
 6420SOL     OW20158   3.582   4.715   5.519
 6420SOL    HW120159   3.514   4.775   5.561
 6420SOL    HW220160   3.625   4.658   5.589
 6421SOL     OW20161   5.304   0.810   2.850
 6421SOL    HW120162   5.401   0.820   2.825
 6421SOL    HW220163   5.296   0.754   2.932
 6422SOL     OW20164   0.288   1.015   3.916
 6422SOL    HW120165   0.272   1.101   3.867
 6422SOL    HW220166   0.260   1.025   4.012
 6423SOL     OW20167   4.754   5.348   2.403
 6423SOL    HW120168   4.818   5.417   2.437
 6423SOL    HW220169   4.715   5.379   2.316
 6424SOL     OW20170   6.827   6.321   5.903
 6424SOL    HW120171   6.891   6.245   5.896
 6424SOL    HW220172   6.872   6.405   5.873
 6425SOL     OW20173   6.462   5.975   2.784
 6425SOL    HW120174   6.370   6.001   2.811
 6425SOL    HW220175   6.528   6.022   2.842
 6426SOL     OW20176   0.775   4.866   2.860
 6426SOL    HW120177   0.780   4.845   2.763
 6426SOL    HW220178   0.865   4.854   2.902
 6427SOL     OW20179   3.136   2.993   5.481
 6427SOL    HW120180   3.204   2.942   5.429
 6427SOL    HW220181   3.168   3.087   5.496
 6428SOL     OW20182   6.032   3.325   6.663
 6428SOL    HW120183   6.073   3.253   6.720
 6428SOL    HW220184   6.098   3.354   6.595
 6429SOL     OW20185   2.048   2.008   5.881
 6429SOL    HW120186   2.009   1.926   5.923
 6429SOL    HW220187   2.055   1.995   5.783
 6430SOL     OW20188   5.705   0.961   2.042
 6430SOL    HW120189   5.625   0.929   2.093
 6430SOL    HW220190   5.708   1.061   2.043
 6431SOL     OW20191   5.018   6.483   4.145
 6431SOL    HW120192   4.990   6.522   4.233
 6431SOL    HW220193   5.074   6.402   4.161
 6432SOL     OW20194   3.868   4.327   6.370
 6432SOL    HW120195   3.954   4.319   6.319
 6432SOL    HW220196   3.833   4.420   6.360
 6433SOL     OW20197   2.467   4.277   0.001
 6433SOL    HW120198   2.392   4.337   0.027
 6433SOL    HW220199   2.435   4.212   6.949
 6434SOL     OW20200   1.888   3.806   0.217
 6434SOL    HW120201   1.885   3.898   0.257
 6434SOL    HW220202   1.840   3.807   0.129
 6435SOL     OW20203   4.280   6.336   7.006
 6435SOL    HW120204   4.364   6.326   6.952
 6435SOL    HW220205   4.201   6.315   6.949
 6436SOL     OW20206   1.789   3.504   3.594
 6436SOL    HW120207   1.845   3.422   3.609
 6436SOL    HW220208   1.775   3.516   3.496
 6437SOL     OW20209   2.300   1.380   0.779
 6437SOL    HW120210   2.333   1.367   0.873
 6437SOL    HW220211   2.361   1.332   0.715
 6438SOL     OW20212   0.152   3.911   6.495
 6438SOL    HW120213   0.066   3.962   6.500
 6438SOL    HW220214   0.220   3.953   6.555
 6439SOL     OW20215   5.065   0.862   1.589
 6439SOL    HW120216   5.086   0.872   1.492
 6439SOL    HW220217   5.103   0.776   1.623
 6440SOL     OW20218   2.374   1.585   6.772
 6440SOL    HW120219   2.316   1.506   6.750
 6440SOL    HW220220   2.358   1.613   6.867
 6441SOL     OW20221   0.881   6.306   1.994
 6441SOL    HW120222   0.788   6.272   1.982
 6441SOL    HW220223   0.943   6.258   1.931
 6442SOL     OW20224   2.264   0.522   4.461
 6442SOL    HW120225   2.337   0.581   4.428
 6442SOL    HW220226   2.287   0.488   4.552
 6443SOL     OW20227   3.664   2.497   5.760
 6443SOL    HW120228   3.620   2.548   5.686
 6443SOL    HW220229   3.644   2.400   5.749
 6444SOL     OW20230   6.637   2.551   3.780
 6444SOL    HW120231   6.556   2.555   3.839
 6444SOL    HW220232   6.626   2.616   3.704
 6445SOL     OW20233   4.263   3.394   5.531
 6445SOL    HW120234   4.281   3.458   5.456
 6445SOL    HW220235   4.277   3.300   5.498
 6446SOL     OW20236   1.995   1.243   5.888
 6446SOL    HW120237   2.052   1.161   5.886
 6446SOL    HW220238   1.930   1.236   5.963
 6447SOL     OW20239   6.807   4.652   3.124
 6447SOL    HW120240   6.732   4.710   3.156
 6447SOL    HW220241   6.885   4.708   3.099
 6448SOL     OW20242   4.817   5.850   2.285
 6448SOL    HW120243   4.891   5.783   2.291
 6448SOL    HW220244   4.762   5.831   2.204
 6449SOL     OW20245   2.692   4.703   0.742
 6449SOL    HW120246   2.615   4.724   0.803
 6449SOL    HW220247   2.672   4.737   0.650
 6450SOL     OW20248   0.492   3.541   0.971
 6450SOL    HW120249   0.397   3.569   0.962
 6450SOL    HW220250   0.506   3.495   1.059
 6451SOL     OW20251   2.204   0.352   4.920
 6451SOL    HW120252   2.162   0.278   4.867
 6451SOL    HW220253   2.134   0.400   4.972
 6452SOL     OW20254   3.587   6.628   4.627
 6452SOL    HW120255   3.583   6.584   4.717
 6452SOL    HW220256   3.495   6.649   4.596
 6453SOL     OW20257   2.485   6.236   1.085
 6453SOL    HW120258   2.521   6.298   1.154
 6453SOL    HW220259   2.443   6.289   1.011
 6454SOL     OW20260   2.372   2.178   3.715
 6454SOL    HW120261   2.429   2.176   3.633
 6454SOL    HW220262   2.288   2.228   3.696
 6455SOL     OW20263   0.157   2.422   3.681
 6455SOL    HW120264   0.170   2.329   3.647
 6455SOL    HW220265   0.093   2.421   3.758
 6456SOL     OW20266   1.887   0.425   3.636
 6456SOL    HW120267   1.852   0.361   3.568
 6456SOL    HW220268   1.987   0.421   3.638
 6457SOL     OW20269   5.046   1.777   1.013
 6457SOL    HW120270   4.955   1.777   0.973
 6457SOL    HW220271   5.106   1.838   0.961
 6458SOL     OW20272   0.802   6.920   3.478
 6458SOL    HW120273   0.782   6.839   3.533
 6458SOL    HW220274   0.789   7.002   3.533
 6459SOL     OW20275   6.183   4.466   0.094
 6459SOL    HW120276   6.098   4.416   0.113
 6459SOL    HW220277   6.161   4.561   0.070
 6460SOL     OW20278   4.901   5.952   5.783
 6460SOL    HW120279   4.900   5.896   5.865
 6460SOL    HW220280   4.854   6.038   5.801
 6461SOL     OW20281   2.640   4.962   5.711
 6461SOL    HW120282   2.705   5.033   5.737
 6461SOL    HW220283   2.683   4.901   5.643
 6462SOL     OW20284   2.478   2.633   4.826
 6462SOL    HW120285   2.469   2.639   4.925
 6462SOL    HW220286   2.561   2.582   4.803
 6463SOL     OW20287   6.815   3.553   0.099
 6463SOL    HW120288   6.777   3.639   0.065
 6463SOL    HW220289   6.890   3.573   0.162
 6464SOL     OW20290   1.432   5.192   4.385
 6464SOL    HW120291   1.436   5.185   4.285
 6464SOL    HW220292   1.475   5.278   4.414
 6465SOL     OW20293   6.597   2.697   3.108
 6465SOL    HW120294   6.660   2.742   3.045
 6465SOL    HW220295   6.521   2.759   3.129
 6466SOL     OW20296   1.802   1.195   6.086
 6466SOL    HW120297   1.885   1.182   6.140
 6466SOL    HW220298   1.764   1.105   6.062
 6467SOL     OW20299   3.229   0.927   6.602
 6467SOL    HW120300   3.245   0.976   6.687
 6467SOL    HW220301   3.232   0.829   6.618
 6468SOL     OW20302   3.917   6.271   0.891
 6468SOL    HW120303   3.869   6.265   0.978
 6468SOL    HW220304   3.890   6.355   0.844
 6469SOL     OW20305   4.897   0.470   4.805
 6469SOL    HW120306   4.825   0.445   4.741
 6469SOL    HW220307   4.857   0.486   4.896
 6470SOL     OW20308   6.376   4.525   0.311
 6470SOL    HW120309   6.379   4.596   0.240
 6470SOL    HW220310   6.323   4.447   0.278
 6471SOL     OW20311   6.300   6.268   5.878
 6471SOL    HW120312   6.362   6.333   5.835
 6471SOL    HW220313   6.245   6.223   5.807
 6472SOL     OW20314   0.854   5.396   1.147
 6472SOL    HW120315   0.831   5.483   1.104
 6472SOL    HW220316   0.948   5.399   1.182
 6473SOL     OW20317   3.303   1.503   4.164
 6473SOL    HW120318   3.361   1.441   4.111
 6473SOL    HW220319   3.240   1.450   4.221
 6474SOL     OW20320   2.540   4.232   5.627
 6474SOL    HW120321   2.629   4.187   5.637
 6474SOL    HW220322   2.482   4.176   5.568
 6475SOL     OW20323   6.518   5.489   4.656
 6475SOL    HW120324   6.488   5.535   4.740
 6475SOL    HW220325   6.457   5.413   4.635
 6476SOL     OW20326   4.389   3.146   1.064
 6476SOL    HW120327   4.292   3.151   1.039
 6476SOL    HW220328   4.410   3.218   1.130
 6477SOL     OW20329   6.256   4.857   1.210
 6477SOL    HW120330   6.219   4.918   1.139
 6477SOL    HW220331   6.186   4.790   1.236
 6478SOL     OW20332   3.682   6.380   1.819
 6478SOL    HW120333   3.717   6.448   1.885
 6478SOL    HW220334   3.681   6.290   1.862
 6479SOL     OW20335   3.850   5.633   3.714
 6479SOL    HW120336   3.762   5.592   3.737
 6479SOL    HW220337   3.914   5.561   3.687
 6480SOL     OW20338   3.149   2.578   5.809
 6480SOL    HW120339   3.061   2.532   5.800
 6480SOL    HW220340   3.171   2.588   5.906
 6481SOL     OW20341   3.588   2.148   1.696
 6481SOL    HW120342   3.604   2.163   1.793
 6481SOL    HW220343   3.537   2.226   1.658
 6482SOL     OW20344   6.850   0.676   5.381
 6482SOL    HW120345   6.837   0.730   5.299
 6482SOL    HW220346   6.775   0.693   5.445
 6483SOL     OW20347   1.119   6.220   0.880
 6483SOL    HW120348   1.047   6.201   0.946
 6483SOL    HW220349   1.188   6.147   0.883
 6484SOL     OW20350   3.566   0.264   1.684
 6484SOL    HW120351   3.537   0.306   1.598
 6484SOL    HW220352   3.548   0.166   1.681
 6485SOL     OW20353   1.920   4.651   3.344
 6485SOL    HW120354   1.982   4.729   3.356
 6485SOL    HW220355   1.867   4.663   3.259
 6486SOL     OW20356   1.995   4.596   4.438
 6486SOL    HW120357   2.077   4.630   4.484
 6486SOL    HW220358   2.009   4.501   4.412
 6487SOL     OW20359   7.014   6.405   5.088
 6487SOL    HW120360   0.042   6.353   5.161
 6487SOL    HW220361   6.919   6.374   5.081
 6488SOL     OW20362   3.627   6.045   5.169
 6488SOL    HW120363   3.649   6.122   5.228
 6488SOL    HW220364   3.613   5.963   5.225
 6489SOL     OW20365   2.868   2.599   6.430
 6489SOL    HW120366   2.881   2.577   6.526
 6489SOL    HW220367   2.918   2.683   6.408
 6490SOL     OW20368   3.961   1.571   6.274
 6490SOL    HW120369   4.060   1.572   6.261
 6490SOL    HW220370   3.919   1.641   6.216
 6491SOL     OW20371   4.044   1.317   0.369
 6491SOL    HW120372   4.060   1.219   0.378
 6491SOL    HW220373   3.953   1.339   0.403
 6492SOL     OW20374   5.662   5.152   0.583
 6492SOL    HW120375   5.755   5.189   0.587
 6492SOL    HW220376   5.660   5.076   0.519
 6493SOL     OW20377   1.481   5.334   4.829
 6493SOL    HW120378   1.428   5.250   4.841
 6493SOL    HW220379   1.419   5.409   4.804
 6494SOL     OW20380   0.190   1.266   3.409
 6494SOL    HW120381   0.136   1.236   3.488
 6494SOL    HW220382   0.251   1.340   3.437
 6495SOL     OW20383   5.265   6.321   4.212
 6495SOL    HW120384   5.314   6.383   4.274
 6495SOL    HW220385   5.255   6.232   4.255
 6496SOL     OW20386   6.747   0.340   2.507
 6496SOL    HW120387   6.663   0.305   2.466
 6496SOL    HW220388   6.825   0.288   2.472
 6497SOL     OW20389   2.469   2.678   1.237
 6497SOL    HW120390   2.527   2.708   1.162
 6497SOL    HW220391   2.377   2.716   1.226
 6498SOL     OW20392   2.079   3.885   4.519
 6498SOL    HW120393   2.134   3.916   4.597
 6498SOL    HW220394   2.022   3.808   4.548
 6499SOL     OW20395   5.563   2.271   5.030
 6499SOL    HW120396   5.579   2.208   5.107
 6499SOL    HW220397   5.477   2.319   5.045
 6500SOL     OW20398   6.857   4.312   3.764
 6500SOL    HW120399   6.883   4.338   3.857
 6500SOL    HW220400   6.938   4.312   3.705
 6501SOL     OW20401   6.122   2.835   6.667
 6501SOL    HW120402   6.201   2.824   6.607
 6501SOL    HW220403   6.148   2.886   6.749
 6502SOL     OW20404   6.506   3.004   1.566
 6502SOL    HW120405   6.409   2.983   1.578
 6502SOL    HW220406   6.557   2.919   1.555
 6503SOL     OW20407   4.398   1.467   3.535
 6503SOL    HW120408   4.393   1.392   3.470
 6503SOL    HW220409   4.343   1.444   3.616
 6504SOL     OW20410   4.863   5.839   6.410
 6504SOL    HW120411   4.775   5.876   6.439
 6504SOL    HW220412   4.929   5.913   6.398
 6505SOL     OW20413   5.113   5.563   1.608
 6505SOL    HW120414   5.195   5.571   1.551
 6505SOL    HW220415   5.056   5.488   1.574
 6506SOL     OW20416   6.447   3.137   2.081
 6506SOL    HW120417   6.520   3.136   2.149
 6506SOL    HW220418   6.479   3.092   1.997
 6507SOL     OW20419   2.418   4.943   6.015
 6507SOL    HW120420   2.410   4.851   5.977
 6507SOL    HW220421   2.374   4.946   6.105
 6508SOL     OW20422   2.207   0.775   2.723
 6508SOL    HW120423   2.184   0.729   2.809
 6508SOL    HW220424   2.150   0.738   2.649
 6509SOL     OW20425   3.101   1.762   4.715
 6509SOL    HW120426   3.080   1.792   4.808
 6509SOL    HW220427   3.201   1.761   4.703
 6510SOL     OW20428   0.330   4.490   6.756
 6510SOL    HW120429   0.295   4.468   6.847
 6510SOL    HW220430   0.274   4.564   6.716
 6511SOL     OW20431   4.554   1.415   4.675
 6511SOL    HW120432   4.504   1.351   4.734
 6511SOL    HW220433   4.489   1.468   4.621
 6512SOL     OW20434   5.063   6.871   2.270
 6512SOL    HW120435   5.009   6.924   2.336
 6512SOL    HW220436   5.156   6.908   2.267
 6513SOL     OW20437   3.048   4.815   2.762
 6513SOL    HW120438   3.056   4.908   2.727
 6513SOL    HW220439   3.035   4.751   2.686
 6514SOL     OW20440   5.330   1.019   3.983
 6514SOL    HW120441   5.279   0.936   4.006
 6514SOL    HW220442   5.342   1.024   3.884
 6515SOL     OW20443   0.520   5.346   4.048
 6515SOL    HW120444   0.493   5.387   3.961
 6515SOL    HW220445   0.446   5.288   4.082
 6516SOL     OW20446   0.325   3.084   1.627
 6516SOL    HW120447   0.309   2.988   1.651
 6516SOL    HW220448   0.245   3.120   1.579
 6517SOL     OW20449   6.801   0.529   0.434
 6517SOL    HW120450   6.796   0.537   0.533
 6517SOL    HW220451   6.787   0.618   0.392
 6518SOL     OW20452   0.041   6.887   6.675
 6518SOL    HW120453   6.977   6.830   6.683
 6518SOL    HW220454   0.082   6.873   6.584
 6519SOL     OW20455   2.423   1.774   3.503
 6519SOL    HW120456   2.507   1.817   3.536
 6519SOL    HW220457   2.378   1.835   3.439
 6520SOL     OW20458   5.665   5.120   2.024
 6520SOL    HW120459   5.566   5.133   2.032
 6520SOL    HW220460   5.711   5.162   2.102
 6521SOL     OW20461   1.887   3.259   4.475
 6521SOL    HW120462   1.846   3.227   4.560
 6521SOL    HW220463   1.883   3.186   4.406
 6522SOL     OW20464   3.754   4.880   0.205
 6522SOL    HW120465   3.760   4.978   0.222
 6522SOL    HW220466   3.723   4.864   0.111
 6523SOL     OW20467   3.679   0.951   6.822
 6523SOL    HW120468   3.647   0.938   6.916
 6523SOL    HW220469   3.753   1.018   6.821
 6524SOL     OW20470   2.835   3.557   1.869
 6524SOL    HW120471   2.852   3.533   1.774
 6524SOL    HW220472   2.855   3.478   1.928
 6525SOL     OW20473   1.089   4.409   3.246
 6525SOL    HW120474   1.176   4.393   3.292
 6525SOL    HW220475   1.017   4.356   3.292
 6526SOL     OW20476   2.043   0.115   6.385
 6526SOL    HW120477   1.956   0.144   6.426
 6526SOL    HW220478   2.092   0.055   6.448
 6527SOL     OW20479   0.396   2.759   5.009
 6527SOL    HW120480   0.483   2.755   4.961
 6527SOL    HW220481   0.366   2.854   5.017
 6528SOL     OW20482   0.215   1.094   4.175
 6528SOL    HW120483   0.302   1.074   4.218
 6528SOL    HW220484   0.156   1.013   4.179
 6529SOL     OW20485   0.700   1.684   2.586
 6529SOL    HW120486   0.790   1.729   2.588
 6529SOL    HW220487   0.629   1.752   2.602
 6530SOL     OW20488   7.003   3.565   1.343
 6530SOL    HW120489   0.069   3.604   1.380
 6530SOL    HW220490   6.929   3.576   1.409
 6531SOL     OW20491   5.553   3.641   4.842
 6531SOL    HW120492   5.569   3.654   4.744
 6531SOL    HW220493   5.613   3.702   4.893
 6532SOL     OW20494   6.164   0.555   6.846
 6532SOL    HW120495   6.186   0.595   6.757
 6532SOL    HW220496   6.117   0.468   6.832
 6533SOL     OW20497   4.620   5.966   0.580
 6533SOL    HW120498   4.553   5.961   0.654
 6533SOL    HW220499   4.607   6.051   0.529
 6534SOL     OW20500   3.248   4.258   0.991
 6534SOL    HW120501   3.149   4.243   0.993
 6534SOL    HW220502   3.289   4.203   0.918
 6535SOL     OW20503   6.153   4.043   3.832
 6535SOL    HW120504   6.119   4.133   3.861
 6535SOL    HW220505   6.223   4.055   3.762
 6536SOL     OW20506   1.023   2.036   5.909
 6536SOL    HW120507   1.027   1.944   5.869
 6536SOL    HW220508   0.975   2.032   5.996
 6537SOL     OW20509   6.664   5.442   6.794
 6537SOL    HW120510   6.647   5.451   6.696
 6537SOL    HW220511   6.599   5.378   6.834
 6538SOL     OW20512   3.094   4.259   6.728
 6538SOL    HW120513   3.167   4.286   6.791
 6538SOL    HW220514   3.130   4.191   6.663
 6539SOL     OW20515   3.659   0.432   6.185
 6539SOL    HW120516   3.580   0.409   6.242
 6539SOL    HW220517   3.739   0.444   6.244
 6540SOL     OW20518   5.204   1.306   5.452
 6540SOL    HW120519   5.105   1.299   5.463
 6540SOL    HW220520   5.244   1.214   5.459
 6541SOL     OW20521   4.424   1.159   5.217
 6541SOL    HW120522   4.461   1.086   5.275
 6541SOL    HW220523   4.325   1.167   5.233
 6542SOL     OW20524   6.634   4.377   4.598
 6542SOL    HW120525   6.622   4.281   4.573
 6542SOL    HW220526   6.547   4.413   4.633
 6543SOL     OW20527   5.900   3.353   5.979
 6543SOL    HW120528   5.964   3.429   5.988
 6543SOL    HW220529   5.896   3.323   5.884
 6544SOL     OW20530   0.236   6.399   2.922
 6544SOL    HW120531   0.199   6.488   2.948
 6544SOL    HW220532   0.336   6.401   2.931
 6545SOL     OW20533   5.598   2.143   6.678
 6545SOL    HW120534   5.510   2.122   6.720
 6545SOL    HW220535   5.593   2.123   6.580
 6546SOL     OW20536   3.629   4.730   6.668
 6546SOL    HW120537   3.659   4.636   6.679
 6546SOL    HW220538   3.694   4.791   6.714
 6547SOL     OW20539   4.879   1.199   5.910
 6547SOL    HW120540   4.800   1.247   5.873
 6547SOL    HW220541   4.915   1.250   5.989
 6548SOL     OW20542   1.051   3.472   6.973
 6548SOL    HW120543   1.136   3.525   6.969
 6548SOL    HW220544   1.001   3.483   6.887
 6549SOL     OW20545   4.537   1.177   1.055
 6549SOL    HW120546   4.561   1.208   0.962
 6549SOL    HW220547   4.593   1.098   1.079
 6550SOL     OW20548   0.741   6.696   3.618
 6550SOL    HW120549   0.757   6.614   3.673
 6550SOL    HW220550   0.644   6.703   3.595
 6551SOL     OW20551   1.847   4.840   2.793
 6551SOL    HW120552   1.796   4.843   2.707
 6551SOL    HW220553   1.878   4.747   2.810
 6552SOL     OW20554   2.430   6.919   5.291
 6552SOL    HW120555   2.371   6.997   5.312
 6552SOL    HW220556   2.429   6.855   5.368
 6553SOL     OW20557   0.404   1.449   3.152
 6553SOL    HW120558   0.372   1.423   3.243
 6553SOL    HW220559   0.488   1.504   3.161
 6554SOL     OW20560   5.829   1.234   5.291
 6554SOL    HW120561   5.874   1.145   5.294
 6554SOL    HW220562   5.833   1.277   5.381
 6555SOL     OW20563   0.261   1.839   2.116
 6555SOL    HW120564   0.319   1.882   2.185
 6555SOL    HW220565   0.281   1.877   2.026
 6556SOL     OW20566   4.470   4.700   5.260
 6556SOL    HW120567   4.538   4.697   5.333
 6556SOL    HW220568   4.421   4.787   5.264
 6557SOL     OW20569   3.087   5.855   1.143
 6557SOL    HW120570   3.148   5.923   1.183
 6557SOL    HW220571   3.049   5.798   1.216
 6558SOL     OW20572   6.299   4.838   0.488
 6558SOL    HW120573   6.293   4.891   0.404
 6558SOL    HW220574   6.379   4.868   0.540
 6559SOL     OW20575   6.984   4.108   6.535
 6559SOL    HW120576   0.051   4.147   6.571
 6559SOL    HW220577   6.946   4.169   6.465
 6560SOL     OW20578   4.352   4.196   0.839
 6560SOL    HW120579   4.320   4.117   0.786
 6560SOL    HW220580   4.427   4.168   0.899
 6561SOL     OW20581   3.519   4.058   2.351
 6561SOL    HW120582   3.576   3.976   2.349
 6561SOL    HW220583   3.530   4.108   2.265
 6562SOL     OW20584   5.461   3.803   0.300
 6562SOL    HW120585   5.423   3.716   0.334
 6562SOL    HW220586   5.545   3.824   0.350
 6563SOL     OW20587   6.599   6.082   0.233
 6563SOL    HW120588   6.510   6.040   0.221
 6563SOL    HW220589   6.588   6.181   0.243
 6564SOL     OW20590   6.767   4.137   2.674
 6564SOL    HW120591   6.733   4.111   2.764
 6564SOL    HW220592   6.866   4.148   2.677
 6565SOL     OW20593   6.729   2.576   4.102
 6565SOL    HW120594   6.731   2.478   4.084
 6565SOL    HW220595   6.715   2.591   4.200
 6566SOL     OW20596   3.376   6.341   2.617
 6566SOL    HW120597   3.348   6.431   2.585
 6566SOL    HW220598   3.446   6.304   2.556
 6567SOL     OW20599   4.056   1.819   1.006
 6567SOL    HW120600   4.032   1.782   1.096
 6567SOL    HW220601   4.153   1.801   0.988
 6568SOL     OW20602   4.995   0.183   3.678
 6568SOL    HW120603   5.064   0.111   3.670
 6568SOL    HW220604   4.967   0.213   3.586
 6569SOL     OW20605   2.641   3.872   6.497
 6569SOL    HW120606   2.638   3.820   6.583
 6569SOL    HW220607   2.689   3.959   6.512
 6570SOL     OW20608   4.116   6.692   2.526
 6570SOL    HW120609   4.017   6.704   2.521
 6570SOL    HW220610   4.140   6.651   2.614
 6571SOL     OW20611   2.721   5.315   2.182
 6571SOL    HW120612   2.675   5.313   2.093
 6571SOL    HW220613   2.686   5.391   2.237
 6572SOL     OW20614   6.715   5.890   5.840
 6572SOL    HW120615   6.783   5.874   5.911
 6572SOL    HW220616   6.624   5.869   5.876
 6573SOL     OW20617   3.034   1.420   2.016
 6573SOL    HW120618   2.983   1.443   2.099
 6573SOL    HW220619   3.090   1.497   1.988
 6574SOL     OW20620   3.160   6.217   2.766
 6574SOL    HW120621   3.257   6.224   2.745
 6574SOL    HW220622   3.107   6.230   2.682
 6575SOL     OW20623   1.266   0.710   2.037
 6575SOL    HW120624   1.219   0.624   2.020
 6575SOL    HW220625   1.225   0.756   2.116
 6576SOL     OW20626   2.166   5.985   6.240
 6576SOL    HW120627   2.163   6.039   6.157
 6576SOL    HW220628   2.090   6.011   6.300
 6577SOL     OW20629   1.034   2.025   3.996
 6577SOL    HW120630   1.052   1.928   3.981
 6577SOL    HW220631   1.119   2.077   3.984
 6578SOL     OW20632   0.629   4.431   3.172
 6578SOL    HW120633   0.681   4.514   3.190
 6578SOL    HW220634   0.544   4.432   3.225
 6579SOL     OW20635   0.200   3.929   4.649
 6579SOL    HW120636   0.157   3.840   4.663
 6579SOL    HW220637   0.149   3.979   4.578
 6580SOL     OW20638   6.591   1.494   1.076
 6580SOL    HW120639   6.575   1.435   0.997
 6580SOL    HW220640   6.684   1.530   1.072
 6581SOL     OW20641   3.068   1.208   6.950
 6581SOL    HW120642   3.159   1.233   6.981
 6581SOL    HW220643   3.014   1.290   6.935
 6582SOL     OW20644   1.500   1.078   1.471
 6582SOL    HW120645   1.586   1.027   1.461
 6582SOL    HW220646   1.519   1.167   1.512
 6583SOL     OW20647   4.366   0.104   4.783
 6583SOL    HW120648   4.398   0.122   4.690
 6583SOL    HW220649   4.316   0.017   4.784
 6584SOL     OW20650   5.097   1.892   6.468
 6584SOL    HW120651   5.194   1.878   6.487
 6584SOL    HW220652   5.075   1.989   6.475
 6585SOL     OW20653   0.078   0.116   0.194
 6585SOL    HW120654   7.016   0.109   0.254
 6585SOL    HW220655   0.047   0.121   0.099
 6586SOL     OW20656   6.181   1.578   6.155
 6586SOL    HW120657   6.081   1.577   6.151
 6586SOL    HW220658   6.217   1.642   6.087
 6587SOL     OW20659   2.496   6.136   5.379
 6587SOL    HW120660   2.433   6.214   5.377
 6587SOL    HW220661   2.466   6.068   5.312
 6588SOL     OW20662   1.482   3.619   1.686
 6588SOL    HW120663   1.390   3.583   1.672
 6588SOL    HW220664   1.544   3.543   1.707
 6589SOL     OW20665   4.604   0.373   0.494
 6589SOL    HW120666   4.534   0.438   0.463
 6589SOL    HW220667   4.681   0.375   0.431
 6590SOL     OW20668   1.042   1.236   5.569
 6590SOL    HW120669   1.021   1.145   5.603
 6590SOL    HW220670   1.133   1.237   5.528
 6591SOL     OW20671   5.472   6.184   2.602
 6591SOL    HW120672   5.493   6.090   2.631
 6591SOL    HW220673   5.552   6.242   2.617
 6592SOL     OW20674   5.761   6.641   3.974
 6592SOL    HW120675   5.810   6.722   3.942
 6592SOL    HW220676   5.825   6.565   3.986
 6593SOL     OW20677   2.453   1.899   4.018
 6593SOL    HW120678   2.452   1.810   4.064
 6593SOL    HW220679   2.388   1.898   3.942
 6594SOL     OW20680   3.856   1.460   6.959
 6594SOL    HW120681   3.893   1.383   7.010
 6594SOL    HW220682   3.756   1.450   6.951
 6595SOL     OW20683   0.808   2.491   0.680
 6595SOL    HW120684   0.785   2.586   0.701
 6595SOL    HW220685   0.855   2.488   0.591
 6596SOL     OW20686   3.327   6.678   4.615
 6596SOL    HW120687   3.290   6.657   4.706
 6596SOL    HW220688   3.274   6.751   4.574
 6597SOL     OW20689   2.375   5.854   2.475
 6597SOL    HW120690   2.311   5.837   2.401
 6597SOL    HW220691   2.356   5.943   2.517
 6598SOL     OW20692   0.741   0.251   4.352
 6598SOL    HW120693   0.816   0.309   4.322
 6598SOL    HW220694   0.764   0.207   4.439
 6599SOL     OW20695   4.604   6.561   5.653
 6599SOL    HW120696   4.623   6.644   5.705
 6599SOL    HW220697   4.585   6.584   5.558
 6600SOL     OW20698   5.139   5.117   6.259
 6600SOL    HW120699   5.162   5.028   6.297
 6600SOL    HW220700   5.177   5.124   6.166
 6601SOL     OW20701   1.153   1.565   5.458
 6601SOL    HW120702   1.055   1.556   5.477
 6601SOL    HW220703   1.173   1.658   5.427
 6602SOL     OW20704   0.592   1.648   1.779
 6602SOL    HW120705   0.671   1.593   1.806
 6602SOL    HW220706   0.566   1.708   1.855
 6603SOL     OW20707   0.237   2.737   3.667
 6603SOL    HW120708   0.233   2.778   3.576
 6603SOL    HW220709   0.332   2.735   3.698
 6604SOL     OW20710   2.519   6.516   0.689
 6604SOL    HW120711   2.565   6.449   0.747
 6604SOL    HW220712   2.467   6.470   0.617
 6605SOL     OW20713   5.666   3.945   1.607
 6605SOL    HW120714   5.595   3.945   1.678
 6605SOL    HW220715   5.636   3.885   1.532
 6606SOL     OW20716   6.733   6.761   2.213
 6606SOL    HW120717   6.796   6.802   2.147
 6606SOL    HW220718   6.661   6.712   2.164
 6607SOL     OW20719   1.604   2.445   2.097
 6607SOL    HW120720   1.627   2.533   2.056
 6607SOL    HW220721   1.682   2.383   2.088
 6608SOL     OW20722   5.401   6.012   2.221
 6608SOL    HW120723   5.411   6.102   2.178
 6608SOL    HW220724   5.446   5.944   2.164
 6609SOL     OW20725   4.760   0.769   6.075
 6609SOL    HW120726   4.810   0.703   6.130
 6609SOL    HW220727   4.738   0.729   5.986
 6610SOL     OW20728   2.777   1.205   6.218
 6610SOL    HW120729   2.726   1.170   6.140
 6610SOL    HW220730   2.724   1.277   6.263
 6611SOL     OW20731   5.923   2.834   4.309
 6611SOL    HW120732   6.004   2.889   4.328
 6611SOL    HW220733   5.841   2.891   4.316
 6612SOL     OW20734   6.245   2.321   6.688
 6612SOL    HW120735   6.327   2.267   6.709
 6612SOL    HW220736   6.262   2.417   6.710
 6613SOL     OW20737   6.302   0.089   5.051
 6613SOL    HW120738   6.361   0.153   5.003
 6613SOL    HW220739   6.304   0.109   5.149
 6614SOL     OW20740   5.333   6.089   0.393
 6614SOL    HW120741   5.241   6.126   0.410
 6614SOL    HW220742   5.383   6.082   0.479
 6615SOL     OW20743   0.565   4.780   3.029
 6615SOL    HW120744   0.493   4.715   3.003
 6615SOL    HW220745   0.626   4.794   2.952
 6616SOL     OW20746   4.208   1.091   5.942
 6616SOL    HW120747   4.121   1.093   5.992
 6616SOL    HW220748   4.268   1.022   5.982
 6617SOL     OW20749   3.524   5.133   2.693
 6617SOL    HW120750   3.565   5.054   2.738
 6617SOL    HW220751   3.559   5.217   2.735
 6618SOL     OW20752   1.434   3.430   2.900
 6618SOL    HW120753   1.360   3.365   2.914
 6618SOL    HW220754   1.428   3.503   2.968
 6619SOL     OW20755   6.439   0.656   4.277
 6619SOL    HW120756   6.340   0.645   4.265
 6619SOL    HW220757   6.487   0.579   4.235
 6620SOL     OW20758   1.824   2.633   4.991
 6620SOL    HW120759   1.770   2.651   5.073
 6620SOL    HW220760   1.913   2.678   4.999
 6621SOL     OW20761   1.893   3.878   6.480
 6621SOL    HW120762   1.798   3.861   6.509
 6621SOL    HW220763   1.916   3.974   6.497
 6622SOL     OW20764   5.753   0.044   1.895
 6622SOL    HW120765   5.747   0.141   1.870
 6622SOL    HW220766   5.723   7.005   1.818
 6623SOL     OW20767   2.539   3.446   6.666
 6623SOL    HW120768   2.443   3.451   6.641
 6623SOL    HW220769   2.579   3.362   6.628
 6624SOL     OW20770   1.628   6.518   4.001
 6624SOL    HW120771   1.693   6.494   4.072
 6624SOL    HW220772   1.609   6.437   3.945
 6625SOL     OW20773   5.339   2.032   5.744
 6625SOL    HW120774   5.314   2.080   5.828
 6625SOL    HW220775   5.395   1.953   5.766
 6626SOL     OW20776   4.250   5.349   5.505
 6626SOL    HW120777   4.271   5.253   5.523
 6626SOL    HW220778   4.163   5.355   5.456
 6627SOL     OW20779   2.530   0.770   5.629
 6627SOL    HW120780   2.467   0.777   5.551
 6627SOL    HW220781   2.619   0.807   5.603
 6628SOL     OW20782   4.620   4.480   4.678
 6628SOL    HW120783   4.644   4.573   4.649
 6628SOL    HW220784   4.636   4.417   4.602
 6629SOL     OW20785   4.061   6.204   0.238
 6629SOL    HW120786   4.074   6.120   0.185
 6629SOL    HW220787   4.142   6.261   0.230
 6630SOL     OW20788   3.719   1.309   1.915
 6630SOL    HW120789   3.753   1.218   1.937
 6630SOL    HW220790   3.783   1.355   1.853
 6631SOL     OW20791   2.858   0.193   2.627
 6631SOL    HW120792   2.807   0.120   2.582
 6631SOL    HW220793   2.807   0.279   2.621
 6632SOL     OW20794   0.679   5.724   1.378
 6632SOL    HW120795   0.692   5.628   1.404
 6632SOL    HW220796   0.593   5.733   1.327
 6633SOL     OW20797   0.676   3.970   6.278
 6633SOL    HW120798   0.584   3.940   6.301
 6633SOL    HW220799   0.700   4.050   6.332
 6634SOL     OW20800   5.984   2.669   4.639
 6634SOL    HW120801   6.073   2.712   4.621
 6634SOL    HW220802   5.999   2.579   4.681
 6635SOL     OW20803   4.343   4.836   2.979
 6635SOL    HW120804   4.312   4.827   2.884
 6635SOL    HW220805   4.270   4.808   3.041
 6636SOL     OW20806   4.513   1.792   5.697
 6636SOL    HW120807   4.445   1.758   5.762
 6636SOL    HW220808   4.475   1.786   5.604
 6637SOL     OW20809   1.455   6.842   6.455
 6637SOL    HW120810   1.519   6.797   6.517
 6637SOL    HW220811   1.438   6.935   6.486
 6638SOL     OW20812   3.344   4.135   3.838
 6638SOL    HW120813   3.303   4.214   3.884
 6638SOL    HW220814   3.412   4.093   3.898
 6639SOL     OW20815   6.097   5.176   6.643
 6639SOL    HW120816   6.093   5.076   6.653
 6639SOL    HW220817   6.026   5.205   6.579
 6640SOL     OW20818   1.196   1.431   5.197
 6640SOL    HW120819   1.124   1.470   5.138
 6640SOL    HW220820   1.182   1.463   5.291
 6641SOL     OW20821   2.708   2.211   6.864
 6641SOL    HW120822   2.769   2.274   6.911
 6641SOL    HW220823   2.687   2.247   6.773
 6642SOL     OW20824   2.988   5.258   6.852
 6642SOL    HW120825   3.059   5.302   6.907
 6642SOL    HW220826   3.012   5.162   6.837
 6643SOL     OW20827   0.063   5.602   6.620
 6643SOL    HW120828   0.011   5.535   6.672
 6643SOL    HW220829   0.065   5.575   6.523
 6644SOL     OW20830   2.808   4.696   2.246
 6644SOL    HW120831   2.844   4.673   2.155
 6644SOL    HW220832   2.750   4.621   2.279
 6645SOL     OW20833   6.678   4.696   0.735
 6645SOL    HW120834   6.651   4.792   0.728
 6645SOL    HW220835   6.629   4.643   0.666
 6646SOL     OW20836   3.680   6.731   4.962
 6646SOL    HW120837   3.654   6.635   4.954
 6646SOL    HW220838   3.742   6.755   4.887
 6647SOL     OW20839   4.214   0.948   2.209
 6647SOL    HW120840   4.307   0.966   2.242
 6647SOL    HW220841   4.192   0.851   2.224
 6648SOL     OW20842   3.681   6.303   2.659
 6648SOL    HW120843   3.714   6.278   2.750
 6648SOL    HW220844   3.648   6.398   2.661
 6649SOL     OW20845   5.581   0.946   6.900
 6649SOL    HW120846   5.596   0.968   6.996
 6649SOL    HW220847   5.645   0.875   6.872
 6650SOL     OW20848   2.820   1.694   4.748
 6650SOL    HW120849   2.918   1.701   4.731
 6650SOL    HW220850   2.792   1.598   4.747
 6651SOL     OW20851   2.031   1.767   6.620
 6651SOL    HW120852   2.073   1.740   6.707
 6651SOL    HW220853   2.085   1.729   6.545
 6652SOL     OW20854   6.854   4.170   0.615
 6652SOL    HW120855   6.862   4.137   0.709
 6652SOL    HW220856   6.827   4.094   0.555
 6653SOL     OW20857   3.557   2.862   2.307
 6653SOL    HW120858   3.518   2.778   2.346
 6653SOL    HW220859   3.511   2.883   2.220
 6654SOL     OW20860   1.657   3.366   1.593
 6654SOL    HW120861   1.719   3.333   1.522
 6654SOL    HW220862   1.708   3.418   1.660
 6655SOL     OW20863   2.396   6.864   1.637
 6655SOL    HW120864   2.395   6.897   1.543
 6655SOL    HW220865   2.372   6.939   1.699
 6656SOL     OW20866   5.897   1.717   1.637
 6656SOL    HW120867   5.993   1.693   1.654
 6656SOL    HW220868   5.845   1.708   1.722
 6657SOL     OW20869   5.624   6.022   6.706
 6657SOL    HW120870   5.720   6.002   6.690
 6657SOL    HW220871   5.567   5.952   6.663
 6658SOL     OW20872   6.007   1.245   4.986
 6658SOL    HW120873   5.947   1.176   5.027
 6658SOL    HW220874   6.064   1.202   4.916
 6659SOL     OW20875   1.907   2.087   0.673
 6659SOL    HW120876   1.901   2.160   0.741
 6659SOL    HW220877   2.002   2.064   0.656
 6660SOL     OW20878   0.720   5.366   0.482
 6660SOL    HW120879   0.771   5.408   0.407
 6660SOL    HW220880   0.635   5.417   0.498
 6661SOL     OW20881   1.303   6.478   4.640
 6661SOL    HW120882   1.260   6.388   4.642
 6661SOL    HW220883   1.287   6.524   4.728
 6662SOL     OW20884   1.265   1.267   0.212
 6662SOL    HW120885   1.341   1.205   0.196
 6662SOL    HW220886   1.193   1.220   0.263
 6663SOL     OW20887   0.164   5.376   3.377
 6663SOL    HW120888   0.157   5.287   3.331
 6663SOL    HW220889   0.108   5.443   3.328
 6664SOL     OW20890   2.387   6.312   0.064
 6664SOL    HW120891   2.362   6.295   0.160
 6664SOL    HW220892   2.360   6.234   0.008
 6665SOL     OW20893   1.641   0.171   3.059
 6665SOL    HW120894   1.643   0.098   3.127
 6665SOL    HW220895   1.714   0.236   3.078
 6666SOL     OW20896   5.383   6.820   6.563
 6666SOL    HW120897   5.381   6.743   6.499
 6666SOL    HW220898   5.464   6.875   6.544
 6667SOL     OW20899   6.914   5.781   6.330
 6667SOL    HW120900   6.822   5.757   6.360
 6667SOL    HW220901   6.910   5.859   6.267
 6668SOL     OW20902   6.419   5.762   2.127
 6668SOL    HW120903   6.350   5.783   2.058
 6668SOL    HW220904   6.377   5.766   2.218
 6669SOL     OW20905   1.667   2.814   3.719
 6669SOL    HW120906   1.603   2.850   3.651
 6669SOL    HW220907   1.750   2.782   3.673
 6670SOL     OW20908   3.570   2.229   5.726
 6670SOL    HW120909   3.485   2.181   5.750
 6670SOL    HW220910   3.575   2.241   5.627
 6671SOL     OW20911   5.881   5.311   1.384
 6671SOL    HW120912   5.832   5.360   1.311
 6671SOL    HW220913   5.921   5.227   1.347
 6672SOL     OW20914   0.485   2.139   5.609
 6672SOL    HW120915   0.459   2.046   5.633
 6672SOL    HW220916   0.553   2.173   5.674
 6673SOL     OW20917   5.068   6.134   3.896
 6673SOL    HW120918   4.975   6.131   3.932
 6673SOL    HW220919   5.132   6.100   3.965
 6674SOL     OW20920   1.109   5.222   5.457
 6674SOL    HW120921   1.116   5.165   5.538
 6674SOL    HW220922   1.179   5.194   5.390
 6675SOL     OW20923   4.304   3.777   1.742
 6675SOL    HW120924   4.235   3.714   1.778
 6675SOL    HW220925   4.261   3.841   1.679
 6676SOL     OW20926   6.721   4.758   5.538
 6676SOL    HW120927   6.734   4.660   5.551
 6676SOL    HW220928   6.797   4.795   5.484
 6677SOL     OW20929   0.875   1.942   6.124
 6677SOL    HW120930   0.944   1.875   6.149
 6677SOL    HW220931   0.798   1.896   6.079
 6678SOL     OW20932   2.360   3.148   7.005
 6678SOL    HW120933   2.369   3.179   0.082
 6678SOL    HW220934   2.435   3.086   6.983
 6679SOL     OW20935   2.693   2.065   3.924
 6679SOL    HW120936   2.714   2.049   4.020
 6679SOL    HW220937   2.597   2.041   3.906
 6680SOL     OW20938   4.367   0.192   6.295
 6680SOL    HW120939   4.327   0.257   6.360
 6680SOL    HW220940   4.426   0.241   6.231
 6681SOL     OW20941   4.598   5.581   0.651
 6681SOL    HW120942   4.539   5.623   0.582
 6681SOL    HW220943   4.542   5.545   0.726
 6682SOL     OW20944   1.903   4.570   2.825
 6682SOL    HW120945   1.832   4.549   2.758
 6682SOL    HW220946   1.975   4.501   2.820
 6683SOL     OW20947   5.577   3.126   5.416
 6683SOL    HW120948   5.513   3.160   5.347
 6683SOL    HW220949   5.591   3.028   5.403
 6684SOL     OW20950   2.820   6.160   1.133
 6684SOL    HW120951   2.880   6.115   1.067
 6684SOL    HW220952   2.793   6.250   1.098
 6685SOL     OW20953   5.734   3.246   6.368
 6685SOL    HW120954   5.725   3.312   6.293
 6685SOL    HW220955   5.783   3.165   6.334
 6686SOL     OW20956   5.452   5.771   4.635
 6686SOL    HW120957   5.395   5.852   4.630
 6686SOL    HW220958   5.399   5.694   4.668
 6687SOL     OW20959   0.469   2.536   0.827
 6687SOL    HW120960   0.438   2.457   0.774
 6687SOL    HW220961   0.559   2.517   0.866
 6688SOL     OW20962   7.001   4.460   2.014
 6688SOL    HW120963   0.043   4.468   2.094
 6688SOL    HW220964   6.947   4.376   2.021
 6689SOL     OW20965   4.235   3.491   0.110
 6689SOL    HW120966   4.135   3.479   0.110
 6689SOL    HW220967   4.257   3.586   0.092
 6690SOL     OW20968   2.376   1.269   1.277
 6690SOL    HW120969   2.433   1.280   1.358
 6690SOL    HW220970   2.349   1.173   1.268
 6691SOL     OW20971   3.235   6.553   1.093
 6691SOL    HW120972   3.279   6.581   1.178
 6691SOL    HW220973   3.140   6.584   1.093
 6692SOL     OW20974   4.062   4.014   5.609
 6692SOL    HW120975   3.979   4.068   5.622
 6692SOL    HW220976   4.095   3.982   5.698
 6693SOL     OW20977   4.488   3.501   5.990
 6693SOL    HW120978   4.446   3.415   6.020
 6693SOL    HW220979   4.416   3.570   5.978
 6694SOL     OW20980   5.045   5.068   0.370
 6694SOL    HW120981   5.095   5.056   0.455
 6694SOL    HW220982   4.967   5.129   0.386
 6695SOL     OW20983   2.655   1.776   6.655
 6695SOL    HW120984   2.596   1.792   6.734
 6695SOL    HW220985   2.600   1.769   6.572
 6696SOL     OW20986   1.332   2.769   6.945
 6696SOL    HW120987   1.256   2.730   6.893
 6696SOL    HW220988   1.299   2.802   0.015
 6697SOL     OW20989   4.935   3.023   2.787
 6697SOL    HW120990   4.946   2.924   2.782
 6697SOL    HW220991   4.951   3.063   2.696
 6698SOL     OW20992   3.042   2.481   0.902
 6698SOL    HW120993   2.981   2.545   0.948
 6698SOL    HW220994   2.997   2.446   0.820
 6699SOL     OW20995   3.531   5.516   6.367
 6699SOL    HW120996   3.578   5.548   6.285
 6699SOL    HW220997   3.432   5.523   6.354
 6700SOL     OW20998   0.147   6.200   0.937
 6700SOL    HW120999   0.096   6.118   0.960
 6700SOL    HW221000   0.085   6.269   0.901
 6701SOL     OW21001   5.632   2.894   1.325
 6701SOL    HW121002   5.601   2.964   1.390
 6701SOL    HW221003   5.598   2.805   1.355
 6702SOL     OW21004   3.090   2.679   1.654
 6702SOL    HW121005   3.072   2.581   1.655
 6702SOL    HW221006   3.153   2.702   1.728
 6703SOL     OW21007   6.186   2.201   0.187
 6703SOL    HW121008   6.111   2.252   0.143
 6703SOL    HW221009   6.240   2.155   0.116
 6704SOL     OW21010   4.283   1.730   2.531
 6704SOL    HW121011   4.239   1.765   2.448
 6704SOL    HW221012   4.213   1.707   2.599
 6705SOL     OW21013   6.854   2.365   1.404
 6705SOL    HW121014   6.766   2.340   1.364
 6705SOL    HW221015   6.919   2.385   1.331
 6706SOL     OW21016   0.631   4.185   1.909
 6706SOL    HW121017   0.545   4.235   1.916
 6706SOL    HW221018   0.612   4.089   1.887
 6707SOL     OW21019   0.116   6.625   3.577
 6707SOL    HW121020   0.074   6.556   3.636
 6707SOL    HW221021   0.154   6.582   3.496
 6708SOL     OW21022   0.568   5.401   2.558
 6708SOL    HW121023   0.630   5.480   2.563
 6708SOL    HW221024   0.538   5.377   2.651
 6709SOL     OW21025   3.097   6.749   1.874
 6709SOL    HW121026   3.065   6.710   1.788
 6709SOL    HW221027   3.031   6.729   1.947
 6710SOL     OW21028   2.803   0.896   5.617
 6710SOL    HW121029   2.798   0.995   5.629
 6710SOL    HW221030   2.896   0.865   5.636
 6711SOL     OW21031   5.508   4.832   0.011
 6711SOL    HW121032   5.427   4.849   0.066
 6711SOL    HW221033   5.517   4.734   7.012
 6712SOL     OW21034   4.826   5.228   0.409
 6712SOL    HW121035   4.856   5.304   0.466
 6712SOL    HW221036   4.734   5.199   0.438
 6713SOL     OW21037   2.415   1.641   2.041
 6713SOL    HW121038   2.481   1.604   2.107
 6713SOL    HW221039   2.322   1.618   2.069
 6714SOL     OW21040   5.773   0.727   6.846
 6714SOL    HW121041   5.817   0.670   6.916
 6714SOL    HW221042   5.740   0.668   6.772
 6715SOL     OW21043   0.703   0.145   6.601
 6715SOL    HW121044   0.683   0.135   6.504
 6715SOL    HW221045   0.725   0.056   6.640
 6716SOL     OW21046   0.324   5.536   2.104
 6716SOL    HW121047   0.353   5.443   2.129
 6716SOL    HW221048   0.225   5.540   2.101
 6717SOL     OW21049   4.527   3.217   0.842
 6717SOL    HW121050   4.453   3.196   0.906
 6717SOL    HW221051   4.589   3.139   0.837
 6718SOL     OW21052   4.799   6.842   6.248
 6718SOL    HW121053   4.759   6.756   6.216
 6718SOL    HW221054   4.729   6.912   6.256
 6719SOL     OW21055   1.257   6.876   6.016
 6719SOL    HW121056   1.176   6.831   6.054
 6719SOL    HW221057   1.240   6.900   5.920
 6720SOL     OW21058   0.550   5.430   3.249
 6720SOL    HW121059   0.554   5.517   3.199
 6720SOL    HW221060   0.479   5.434   3.318
 6721SOL     OW21061   6.215   0.180   5.292
 6721SOL    HW121062   6.147   0.137   5.351
 6721SOL    HW221063   6.306   0.169   5.334
 6722SOL     OW21064   6.543   3.308   1.740
 6722SOL    HW121065   6.566   3.214   1.767
 6722SOL    HW221066   6.626   3.359   1.720
 6723SOL     OW21067   2.137   6.635   2.687
 6723SOL    HW121068   2.069   6.593   2.747
 6723SOL    HW221069   2.227   6.593   2.704
 6724SOL     OW21070   0.907   3.457   6.017
 6724SOL    HW121071   0.865   3.537   5.973
 6724SOL    HW221072   0.882   3.374   5.967
 6725SOL     OW21073   0.762   4.209   1.102
 6725SOL    HW121074   0.859   4.227   1.116
 6725SOL    HW221075   0.735   4.238   1.010
 6726SOL     OW21076   0.992   2.090   4.833
 6726SOL    HW121077   0.903   2.132   4.813
 6726SOL    HW221078   0.981   1.991   4.840
 6727SOL     OW21079   6.244   3.948   5.751
 6727SOL    HW121080   6.153   3.977   5.723
 6727SOL    HW221081   6.269   3.865   5.701
 6728SOL     OW21082   4.755   1.494   4.404
 6728SOL    HW121083   4.803   1.408   4.422
 6728SOL    HW221084   4.724   1.533   4.490
 6729SOL     OW21085   7.001   1.512   2.116
 6729SOL    HW121086   6.933   1.478   2.051
 6729SOL    HW221087   0.057   1.446   2.125
 6730SOL     OW21088   2.815   6.395   6.496
 6730SOL    HW121089   2.791   6.487   6.466
 6730SOL    HW221090   2.758   6.370   6.575
 6731SOL     OW21091   1.513   4.602   1.124
 6731SOL    HW121092   1.461   4.613   1.039
 6731SOL    HW221093   1.478   4.523   1.174
 6732SOL     OW21094   4.257   5.428   6.369
 6732SOL    HW121095   4.215   5.499   6.312
 6732SOL    HW221096   4.357   5.436   6.363
 6733SOL     OW21097   3.706   5.383   0.723
 6733SOL    HW121098   3.619   5.348   0.689
 6733SOL    HW221099   3.781   5.336   0.676
 6734SOL     OW21100   6.825   2.727   4.844
 6734SOL    HW121101   6.766   2.736   4.924
 6734SOL    HW221102   6.904   2.670   4.866
 6735SOL     OW21103   0.081   5.374   5.269
 6735SOL    HW121104   0.031   5.376   5.183
 6735SOL    HW221105   0.155   5.307   5.263
 6736SOL     OW21106   2.351   3.259   0.221
 6736SOL    HW121107   2.351   3.352   0.184
 6736SOL    HW221108   2.260   3.237   0.257
 6737SOL     OW21109   1.968   2.568   1.229
 6737SOL    HW121110   1.967   2.473   1.200
 6737SOL    HW221111   1.881   2.611   1.207
 6738SOL     OW21112   2.043   3.931   2.339
 6738SOL    HW121113   2.123   3.991   2.342
 6738SOL    HW221114   2.063   3.847   2.389
 6739SOL     OW21115   3.779   4.976   6.224
 6739SOL    HW121116   3.797   5.069   6.191
 6739SOL    HW221117   3.719   4.929   6.159
 6740SOL     OW21118   1.537   1.300   4.676
 6740SOL    HW121119   1.568   1.348   4.594
 6740SOL    HW221120   1.589   1.331   4.755
 6741SOL     OW21121   4.582   0.927   6.195
 6741SOL    HW121122   4.648   0.864   6.155
 6741SOL    HW221123   4.617   1.021   6.185
 6742SOL     OW21124   6.816   5.193   2.691
 6742SOL    HW121125   6.844   5.282   2.728
 6742SOL    HW221126   6.749   5.207   2.618
 6743SOL     OW21127   4.159   4.470   0.342
 6743SOL    HW121128   4.172   4.466   0.441
 6743SOL    HW221129   4.102   4.549   0.319
 6744SOL     OW21130   4.979   5.504   5.422
 6744SOL    HW121131   4.918   5.564   5.369
 6744SOL    HW221132   4.925   5.433   5.466
 6745SOL     OW21133   0.932   6.564   1.958
 6745SOL    HW121134   1.013   6.601   2.004
 6745SOL    HW221135   0.933   6.464   1.964
 6746SOL     OW21136   0.905   1.231   3.263
 6746SOL    HW121137   0.813   1.216   3.228
 6746SOL    HW221138   0.954   1.144   3.267
 6747SOL     OW21139   5.341   6.663   4.972
 6747SOL    HW121140   5.343   6.609   4.888
 6747SOL    HW221141   5.405   6.625   5.038
 6748SOL     OW21142   1.476   0.793   3.058
 6748SOL    HW121143   1.490   0.820   2.963
 6748SOL    HW221144   1.509   0.866   3.118
 6749SOL     OW21145   2.824   5.548   0.225
 6749SOL    HW121146   2.742   5.593   0.189
 6749SOL    HW221147   2.825   5.453   0.195
 6750SOL     OW21148   4.255   0.923   5.004
 6750SOL    HW121149   4.239   0.984   5.081
 6750SOL    HW221150   4.251   0.974   4.918
 6751SOL     OW21151   3.779   1.499   3.690
 6751SOL    HW121152   3.816   1.447   3.768
 6751SOL    HW221153   3.803   1.595   3.700
 6752SOL     OW21154   6.474   3.446   2.448
 6752SOL    HW121155   6.378   3.475   2.443
 6752SOL    HW221156   6.529   3.500   2.384
 6753SOL     OW21157   4.712   0.995   6.583
 6753SOL    HW121158   4.782   0.930   6.553
 6753SOL    HW221159   4.639   1.000   6.515
 6754SOL     OW21160   6.120   1.574   6.408
 6754SOL    HW121161   6.168   1.645   6.460
 6754SOL    HW221162   6.148   1.578   6.312
 6755SOL     OW21163   4.502   2.005   3.418
 6755SOL    HW121164   4.511   1.977   3.514
 6755SOL    HW221165   4.406   2.023   3.398
 6756SOL     OW21166   4.731   4.313   4.458
 6756SOL    HW121167   4.712   4.362   4.373
 6756SOL    HW221168   4.830   4.308   4.471
 6757SOL     OW21169   5.074   6.586   1.064
 6757SOL    HW121170   5.166   6.560   1.035
 6757SOL    HW221171   5.064   6.685   1.058
 6758SOL     OW21172   6.282   3.596   1.369
 6758SOL    HW121173   6.235   3.543   1.298
 6758SOL    HW221174   6.309   3.535   1.443
 6759SOL     OW21175   1.494   3.691   4.522
 6759SOL    HW121176   1.558   3.673   4.596
 6759SOL    HW221177   1.432   3.765   4.548
 6760SOL     OW21178   6.492   5.045   4.696
 6760SOL    HW121179   6.415   5.022   4.755
 6760SOL    HW221180   6.530   4.962   4.656
 6761SOL     OW21181   5.701   2.569   6.389
 6761SOL    HW121182   5.738   2.638   6.451
 6761SOL    HW221183   5.719   2.595   6.294
 6762SOL     OW21184   6.972   5.816   3.646
 6762SOL    HW121185   6.898   5.785   3.586
 6762SOL    HW221186   0.042   5.799   3.602
 6763SOL     OW21187   6.669   5.959   3.650
 6763SOL    HW121188   6.725   6.041   3.638
 6763SOL    HW221189   6.579   5.985   3.685
 6764SOL     OW21190   2.923   4.974   6.877
 6764SOL    HW121191   2.893   4.965   6.782
 6764SOL    HW221192   2.845   4.961   6.938
 6765SOL     OW21193   5.194   5.469   3.508
 6765SOL    HW121194   5.242   5.425   3.432
 6765SOL    HW221195   5.095   5.456   3.496
 6766SOL     OW21196   3.446   0.012   6.895
 6766SOL    HW121197   3.398   6.957   6.944
 6766SOL    HW221198   3.385   0.089   6.879
 6767SOL     OW21199   0.727   2.288   0.826
 6767SOL    HW121200   0.657   2.230   0.785
 6767SOL    HW221201   0.755   2.358   0.760
 6768SOL     OW21202   1.029   6.859   3.738
 6768SOL    HW121203   0.931   6.841   3.748
 6768SOL    HW221204   1.067   6.886   3.827
 6769SOL     OW21205   3.013   1.018   5.189
 6769SOL    HW121206   3.064   1.083   5.133
 6769SOL    HW221207   3.036   1.032   5.286
 6770SOL     OW21208   6.594   2.190   3.634
 6770SOL    HW121209   6.506   2.231   3.657
 6770SOL    HW221210   6.663   2.262   3.625
 6771SOL     OW21211   3.731   2.136   3.147
 6771SOL    HW121212   3.696   2.229   3.135
 6771SOL    HW221213   3.795   2.134   3.224
 6772SOL     OW21214   5.637   1.316   2.508
 6772SOL    HW121215   5.722   1.276   2.543
 6772SOL    HW221216   5.647   1.333   2.410
 6773SOL     OW21217   0.181   6.683   1.059
 6773SOL    HW121218   0.261   6.628   1.036
 6773SOL    HW221219   0.208   6.779   1.071
 6774SOL     OW21220   1.685   2.140   4.721
 6774SOL    HW121221   1.749   2.063   4.720
 6774SOL    HW221222   1.710   2.203   4.794
 6775SOL     OW21223   0.639   2.518   3.508
 6775SOL    HW121224   0.691   2.466   3.439
 6775SOL    HW221225   0.612   2.456   3.582
 6776SOL     OW21226   4.072   3.643   1.808
 6776SOL    HW121227   4.008   3.718   1.825
 6776SOL    HW221228   4.061   3.610   1.715
 6777SOL     OW21229   4.521   5.478   0.908
 6777SOL    HW121230   4.540   5.382   0.890
 6777SOL    HW221231   4.543   5.499   1.004
 6778SOL     OW21232   5.874   3.129   2.728
 6778SOL    HW121233   5.940   3.121   2.653
 6778SOL    HW221234   5.922   3.159   2.811
 6779SOL     OW21235   5.077   4.342   6.362
 6779SOL    HW121236   5.103   4.307   6.452
 6779SOL    HW221237   5.088   4.269   6.294
 6780SOL     OW21238   2.082   3.723   2.527
 6780SOL    HW121239   2.008   3.658   2.546
 6780SOL    HW221240   2.146   3.722   2.603
 6781SOL     OW21241   6.604   1.273   3.519
 6781SOL    HW121242   6.605   1.346   3.451
 6781SOL    HW221243   6.591   1.185   3.474
 6782SOL     OW21244   0.950   0.981   3.648
 6782SOL    HW121245   1.016   0.936   3.588
 6782SOL    HW221246   0.861   0.985   3.602
 6783SOL     OW21247   0.887   4.103   4.851
 6783SOL    HW121248   0.818   4.058   4.908
 6783SOL    HW221249   0.978   4.073   4.879
 6784SOL     OW21250   2.512   4.144   1.622
 6784SOL    HW121251   2.595   4.088   1.624
 6784SOL    HW221252   2.512   4.200   1.539
 6785SOL     OW21253   5.787   4.714   5.857
 6785SOL    HW121254   5.776   4.615   5.860
 6785SOL    HW221255   5.749   4.755   5.941
 6786SOL     OW21256   6.509   2.669   0.161
 6786SOL    HW121257   6.473   2.596   0.219
 6786SOL    HW221258   6.580   2.633   0.102
 6787SOL     OW21259   2.941   2.431   1.395
 6787SOL    HW121260   2.965   2.393   1.484
 6787SOL    HW221261   2.886   2.513   1.408
 6788SOL     OW21262   0.433   3.671   2.425
 6788SOL    HW121263   0.380   3.723   2.491
 6788SOL    HW221264   0.528   3.665   2.456
 6789SOL     OW21265   0.117   5.060   4.679
 6789SOL    HW121266   0.051   4.997   4.719
 6789SOL    HW221267   0.167   5.014   4.605
 6790SOL     OW21268   0.227   4.291   6.262
 6790SOL    HW121269   0.181   4.336   6.339
 6790SOL    HW221270   0.261   4.361   6.199
 6791SOL     OW21271   4.660   1.899   3.088
 6791SOL    HW121272   4.656   1.959   3.008
 6791SOL    HW221273   4.603   1.937   3.161
 6792SOL     OW21274   4.128   6.679   5.486
 6792SOL    HW121275   4.188   6.759   5.489
 6792SOL    HW221276   4.041   6.701   5.530
 6793SOL     OW21277   3.037   1.834   0.157
 6793SOL    HW121278   3.047   1.745   0.200
 6793SOL    HW221279   3.014   1.822   0.060
 6794SOL     OW21280   4.983   1.029   5.748
 6794SOL    HW121281   4.949   1.106   5.802
 6794SOL    HW221282   4.908   0.966   5.728
 6795SOL     OW21283   1.237   6.907   0.815
 6795SOL    HW121284   1.212   6.951   0.901
 6795SOL    HW221285   1.170   6.930   0.745
 6796SOL     OW21286   5.361   1.236   1.879
 6796SOL    HW121287   5.313   1.319   1.849
 6796SOL    HW221288   5.296   1.176   1.925
 6797SOL     OW21289   6.611   2.287   1.291
 6797SOL    HW121290   6.525   2.325   1.325
 6797SOL    HW221291   6.602   2.188   1.282
 6798SOL     OW21292   5.603   6.954   1.683
 6798SOL    HW121293   5.525   6.933   1.624
 6798SOL    HW221294   5.662   0.002   1.637
 6799SOL     OW21295   5.597   0.687   2.863
 6799SOL    HW121296   5.614   0.777   2.903
 6799SOL    HW221297   5.612   0.691   2.764
 6800SOL     OW21298   2.168   2.410   1.728
 6800SOL    HW121299   2.137   2.453   1.643
 6800SOL    HW221300   2.242   2.346   1.708
 6801SOL     OW21301   1.235   6.677   4.032
 6801SOL    HW121302   1.206   6.772   4.041
 6801SOL    HW221303   1.156   6.619   4.013
 6802SOL     OW21304   3.434   6.264   0.594
 6802SOL    HW121305   3.457   6.229   0.685
 6802SOL    HW221306   3.375   6.198   0.547
 6803SOL     OW21307   5.338   3.889   6.989
 6803SOL    HW121308   5.317   3.796   0.003
 6803SOL    HW221309   5.252   3.938   6.974
 6804SOL     OW21310   3.035   5.249   2.898
 6804SOL    HW121311   3.003   5.341   2.877
 6804SOL    HW221312   2.956   5.188   2.911
 6805SOL     OW21313   0.515   4.962   6.565
 6805SOL    HW121314   0.527   5.020   6.484
 6805SOL    HW221315   0.524   5.017   6.648
 6806SOL     OW21316   6.625   1.184   4.428
 6806SOL    HW121317   6.574   1.100   4.407
 6806SOL    HW221318   6.678   1.171   4.511
 6807SOL     OW21319   3.546   3.163   3.473
 6807SOL    HW121320   3.597   3.108   3.540
 6807SOL    HW221321   3.549   3.116   3.385
 6808SOL     OW21322   5.321   1.269   5.128
 6808SOL    HW121323   5.240   1.255   5.072
 6808SOL    HW221324   5.352   1.181   5.165
 6809SOL     OW21325   6.420   3.740   0.970
 6809SOL    HW121326   6.371   3.654   0.957
 6809SOL    HW221327   6.481   3.757   0.892
 6810SOL     OW21328   3.305   1.004   3.461
 6810SOL    HW121329   3.211   1.036   3.447
 6810SOL    HW221330   3.351   0.997   3.372
 6811SOL     OW21331   6.771   2.841   2.618
 6811SOL    HW121332   6.687   2.865   2.570
 6811SOL    HW221333   6.811   2.923   2.657
 6812SOL     OW21334   3.147   3.546   4.320
 6812SOL    HW121335   3.177   3.495   4.401
 6812SOL    HW221336   3.216   3.616   4.298
 6813SOL     OW21337   5.499   3.736   2.295
 6813SOL    HW121338   5.399   3.735   2.296
 6813SOL    HW221339   5.531   3.746   2.201
 6814SOL     OW21340   4.424   1.634   6.411
 6814SOL    HW121341   4.406   1.694   6.488
 6814SOL    HW221342   4.503   1.576   6.431
 6815SOL     OW21343   1.523   5.375   6.547
 6815SOL    HW121344   1.527   5.467   6.508
 6815SOL    HW221345   1.535   5.307   6.475
 6816SOL     OW21346   6.579   1.884   4.359
 6816SOL    HW121347   6.501   1.924   4.312
 6816SOL    HW221348   6.552   1.796   4.399
 6817SOL     OW21349   2.376   2.747   4.259
 6817SOL    HW121350   2.415   2.719   4.346
 6817SOL    HW221351   2.277   2.730   4.259
 6818SOL     OW21352   1.918   6.113   5.907
 6818SOL    HW121353   1.821   6.124   5.930
 6818SOL    HW221354   1.927   6.092   5.810
 6819SOL     OW21355   4.633   6.259   2.682
 6819SOL    HW121356   4.563   6.215   2.739
 6819SOL    HW221357   4.697   6.189   2.651
 6820SOL     OW21358   1.651   6.280   1.596
 6820SOL    HW121359   1.725   6.329   1.644
 6820SOL    HW221360   1.690   6.222   1.525
 6821SOL     OW21361   4.664   2.488   5.601
 6821SOL    HW121362   4.698   2.569   5.554
 6821SOL    HW221363   4.564   2.490   5.602
 6822SOL     OW21364   0.051   2.393   6.499
 6822SOL    HW121365   0.053   2.387   6.399
 6822SOL    HW221366   0.072   2.487   6.527
 6823SOL     OW21367   5.720   4.053   6.566
 6823SOL    HW121368   5.704   4.150   6.548
 6823SOL    HW221369   5.707   4.035   6.664
 6824SOL     OW21370   1.403   1.737   6.994
 6824SOL    HW121371   1.460   1.697   0.048
 6824SOL    HW221372   1.319   1.773   0.018
 6825SOL     OW21373   6.925   6.097   0.713
 6825SOL    HW121374   6.930   6.195   0.698
 6825SOL    HW221375   6.902   6.050   0.628
 6826SOL     OW21376   0.894   3.206   3.242
 6826SOL    HW121377   0.905   3.278   3.311
 6826SOL    HW221378   0.797   3.193   3.223
 6827SOL     OW21379   4.792   4.917   5.728
 6827SOL    HW121380   4.892   4.910   5.731
 6827SOL    HW221381   4.753   4.861   5.801
 6828SOL     OW21382   3.363   1.344   2.853
 6828SOL    HW121383   3.425   1.372   2.779
 6828SOL    HW221384   3.400   1.375   2.941
 6829SOL     OW21385   5.301   0.172   5.248
 6829SOL    HW121386   5.260   0.158   5.158
 6829SOL    HW221387   5.273   0.097   5.309
 6830SOL     OW21388   6.230   1.558   3.719
 6830SOL    HW121389   6.314   1.518   3.756
 6830SOL    HW221390   6.176   1.486   3.675
 6831SOL     OW21391   0.913   1.490   5.839
 6831SOL    HW121392   0.944   1.584   5.824
 6831SOL    HW221393   0.911   1.441   5.751
 6832SOL     OW21394   2.805   3.088   0.083
 6832SOL    HW121395   2.736   3.126   0.021
 6832SOL    HW221396   2.881   3.050   0.030
 6833SOL     OW21397   3.393   5.549   5.982
 6833SOL    HW121398   3.481   5.558   6.030
 6833SOL    HW221399   3.320   5.582   6.042
 6834SOL     OW21400   4.980   0.118   0.725
 6834SOL    HW121401   4.970   0.211   0.690
 6834SOL    HW221402   4.933   0.110   0.813
 6835SOL     OW21403   3.684   1.585   5.269
 6835SOL    HW121404   3.699   1.489   5.244
 6835SOL    HW221405   3.684   1.641   5.186
 6836SOL     OW21406   1.707   4.413   6.573
 6836SOL    HW121407   1.705   4.401   6.672
 6836SOL    HW221408   1.802   4.409   6.540
 6837SOL     OW21409   1.355   1.302   2.686
 6837SOL    HW121410   1.283   1.232   2.692
 6837SOL    HW221411   1.334   1.364   2.611
 6838SOL     OW21412   3.007   4.238   5.281
 6838SOL    HW121413   3.105   4.221   5.272
 6838SOL    HW221414   2.982   4.320   5.230
 6839SOL     OW21415   5.469   2.029   3.523
 6839SOL    HW121416   5.411   1.976   3.585
 6839SOL    HW221417   5.533   2.085   3.576
 6840SOL     OW21418   2.371   6.532   4.799
 6840SOL    HW121419   2.331   6.565   4.885
 6840SOL    HW221420   2.370   6.432   4.798
 6841SOL     OW21421   4.333   4.895   1.633
 6841SOL    HW121422   4.384   4.942   1.705
 6841SOL    HW221423   4.366   4.801   1.624
 6842SOL     OW21424   1.319   2.250   6.341
 6842SOL    HW121425   1.418   2.264   6.354
 6842SOL    HW221426   1.300   2.237   6.243
 6843SOL     OW21427   4.532   0.809   1.719
 6843SOL    HW121428   4.619   0.803   1.670
 6843SOL    HW221429   4.456   0.793   1.656
 6844SOL     OW21430   5.410   5.944   3.970
 6844SOL    HW121431   5.470   5.877   4.014
 6844SOL    HW221432   5.351   5.987   4.038
 6845SOL     OW21433   4.980   3.892   1.918
 6845SOL    HW121434   4.900   3.945   1.890
 6845SOL    HW221435   4.961   3.795   1.908
 6846SOL     OW21436   3.829   3.203   0.827
 6846SOL    HW121437   3.792   3.130   0.886
 6846SOL    HW221438   3.756   3.237   0.768
 6847SOL     OW21439   5.373   4.056   2.254
 6847SOL    HW121440   5.326   4.103   2.328
 6847SOL    HW221441   5.472   4.057   2.270
 6848SOL     OW21442   1.838   5.291   3.649
 6848SOL    HW121443   1.897   5.279   3.569
 6848SOL    HW221444   1.886   5.259   3.731
 6849SOL     OW21445   3.079   5.775   4.443
 6849SOL    HW121446   3.165   5.725   4.428
 6849SOL    HW221447   3.062   5.784   4.541
 6850SOL     OW21448   5.595   2.573   2.952
 6850SOL    HW121449   5.501   2.594   2.925
 6850SOL    HW221450   5.656   2.646   2.920
 6851SOL     OW21451   1.734   4.790   4.754
 6851SOL    HW121452   1.816   4.769   4.808
 6851SOL    HW221453   1.751   4.766   4.658
 6852SOL     OW21454   1.047   4.350   1.066
 6852SOL    HW121455   1.080   4.282   1.001
 6852SOL    HW221456   0.995   4.420   1.017
 6853SOL     OW21457   6.586   4.397   0.006
 6853SOL    HW121458   6.512   4.448   6.979
 6853SOL    HW221459   6.553   4.355   0.089
 6854SOL     OW21460   5.671   0.879   5.995
 6854SOL    HW121461   5.616   0.924   6.065
 6854SOL    HW221462   5.659   0.926   5.907
 6855SOL     OW21463   3.409   6.727   2.929
 6855SOL    HW121464   3.505   6.700   2.923
 6855SOL    HW221465   3.397   6.817   2.887
 6856SOL     OW21466   4.983   4.755   5.463
 6856SOL    HW121467   4.883   4.758   5.450
 6856SOL    HW221468   5.023   4.837   5.421
 6857SOL     OW21469   3.420   1.014   6.398
 6857SOL    HW121470   3.367   0.973   6.472
 6857SOL    HW221471   3.448   1.106   6.424
 6858SOL     OW21472   4.107   3.255   4.850
 6858SOL    HW121473   4.153   3.223   4.767
 6858SOL    HW221474   4.029   3.197   4.870
 6859SOL     OW21475   1.450   6.420   0.775
 6859SOL    HW121476   1.411   6.412   0.683
 6859SOL    HW221477   1.387   6.470   0.834
 6860SOL     OW21478   5.971   4.873   2.312
 6860SOL    HW121479   5.889   4.924   2.286
 6860SOL    HW221480   5.984   4.795   2.250
 6861SOL     OW21481   5.884   3.989   1.095
 6861SOL    HW121482   5.939   3.906   1.089
 6861SOL    HW221483   5.789   3.965   1.114
 6862SOL     OW21484   2.553   4.594   4.559
 6862SOL    HW121485   2.479   4.528   4.573
 6862SOL    HW221486   2.605   4.603   4.644
 6863SOL     OW21487   5.796   1.465   5.127
 6863SOL    HW121488   5.804   1.377   5.173
 6863SOL    HW221489   5.788   1.451   5.029
 6864SOL     OW21490   3.439   5.857   4.192
 6864SOL    HW121491   3.362   5.795   4.178
 6864SOL    HW221492   3.444   5.883   4.289
 6865SOL     OW21493   6.241   4.927   3.429
 6865SOL    HW121494   6.272   4.969   3.344
 6865SOL    HW221495   6.282   4.975   3.507
 6866SOL     OW21496   6.069   4.324   1.827
 6866SOL    HW121497   6.110   4.407   1.788
 6866SOL    HW221498   5.969   4.331   1.823
 6867SOL     OW21499   1.196   4.538   1.179
 6867SOL    HW121500   1.279   4.520   1.231
 6867SOL    HW221501   1.156   4.452   1.147
 6868SOL     OW21502   1.710   5.736   5.100
 6868SOL    HW121503   1.712   5.638   5.079
 6868SOL    HW221504   1.727   5.788   5.016
 6869SOL     OW21505   5.681   2.833   5.483
 6869SOL    HW121506   5.689   2.734   5.486
 6869SOL    HW221507   5.644   2.861   5.394
 6870SOL     OW21508   6.216   4.034   2.710
 6870SOL    HW121509   6.118   4.053   2.720
 6870SOL    HW221510   6.268   4.097   2.767
 6871SOL     OW21511   6.253   4.739   1.964
 6871SOL    HW121512   6.328   4.681   1.934
 6871SOL    HW221513   6.215   4.788   1.885
 6872SOL     OW21514   2.112   3.209   1.187
 6872SOL    HW121515   2.148   3.206   1.094
 6872SOL    HW221516   2.155   3.285   1.236
 6873SOL     OW21517   5.822   3.232   5.501
 6873SOL    HW121518   5.886   3.155   5.496
 6873SOL    HW221519   5.729   3.199   5.480
 6874SOL     OW21520   0.554   4.267   3.432
 6874SOL    HW121521   0.530   4.186   3.379
 6874SOL    HW221522   0.648   4.295   3.410
 6875SOL     OW21523   1.877   2.209   3.724
 6875SOL    HW121524   1.829   2.247   3.644
 6875SOL    HW221525   1.876   2.110   3.719
 6876SOL     OW21526   3.779   5.159   6.702
 6876SOL    HW121527   3.684   5.187   6.693
 6876SOL    HW221528   3.791   5.068   6.661
 6877SOL     OW21529   2.383   4.012   6.906
 6877SOL    HW121530   2.324   4.014   6.986
 6877SOL    HW221531   2.453   3.941   6.918
 6878SOL     OW21532   2.363   2.005   5.278
 6878SOL    HW121533   2.415   2.052   5.350
 6878SOL    HW221534   2.266   2.027   5.288
 6879SOL     OW21535   1.150   1.823   0.063
 6879SOL    HW121536   1.056   1.789   0.073
 6879SOL    HW221537   1.162   1.905   0.119
 6880SOL     OW21538   2.316   3.348   5.214
 6880SOL    HW121539   2.235   3.373   5.161
 6880SOL    HW221540   2.294   3.273   5.276
 6881SOL     OW21541   6.617   4.487   2.181
 6881SOL    HW121542   6.573   4.489   2.271
 6881SOL    HW221543   6.547   4.474   2.110
 6882SOL     OW21544   2.022   0.420   5.865
 6882SOL    HW121545   2.045   0.515   5.844
 6882SOL    HW221546   2.104   0.371   5.893
 6883SOL     OW21547   3.667   0.895   0.917
 6883SOL    HW121548   3.711   0.809   0.946
 6883SOL    HW221549   3.703   0.971   0.971
 6884SOL     OW21550   1.946   3.844   4.262
 6884SOL    HW121551   1.981   3.910   4.328
 6884SOL    HW221552   1.847   3.836   4.271
 6885SOL     OW21553   3.283   5.362   3.998
 6885SOL    HW121554   3.251   5.322   3.912
 6885SOL    HW221555   3.282   5.292   4.070
 6886SOL     OW21556   6.699   1.153   2.545
 6886SOL    HW121557   6.795   1.146   2.573
 6886SOL    HW221558   6.691   1.218   2.469
 6887SOL     OW21559   5.086   6.833   5.577
 6887SOL    HW121560   5.029   6.883   5.512
 6887SOL    HW221561   5.120   6.749   5.534
 6888SOL     OW21562   5.680   6.344   6.408
 6888SOL    HW121563   5.693   6.439   6.435
 6888SOL    HW221564   5.607   6.304   6.464
 6889SOL     OW21565   0.906   2.779   5.510
 6889SOL    HW121566   0.859   2.696   5.539
 6889SOL    HW221567   1.001   2.757   5.487
 6890SOL     OW21568   2.481   6.007   0.794
 6890SOL    HW121569   2.407   5.973   0.735
 6890SOL    HW221570   2.447   6.019   0.887
 6891SOL     OW21571   2.186   3.880   4.802
 6891SOL    HW121572   2.175   3.786   4.834
 6891SOL    HW221573   2.244   3.930   4.867
 6892SOL     OW21574   3.727   0.824   3.868
 6892SOL    HW121575   3.765   0.798   3.780
 6892SOL    HW221576   3.684   0.745   3.911
 6893SOL     OW21577   5.730   6.362   1.325
 6893SOL    HW121578   5.758   6.436   1.386
 6893SOL    HW221579   5.732   6.394   1.230
 6894SOL     OW21580   6.440   5.660   0.088
 6894SOL    HW121581   6.411   5.749   0.123
 6894SOL    HW221582   6.495   5.673   0.006
 6895SOL     OW21583   2.747   5.293   0.157
 6895SOL    HW121584   2.754   5.196   0.184
 6895SOL    HW221585   2.700   5.300   0.069
 6896SOL     OW21586   3.336   6.998   3.984
 6896SOL    HW121587   3.416   0.002   4.040
 6896SOL    HW221588   3.344   6.904   3.950
 6897SOL     OW21589   2.794   4.090   6.843
 6897SOL    HW121590   2.853   4.153   6.893
 6897SOL    HW221591   2.699   4.109   6.866
 6898SOL     OW21592   3.447   1.921   1.762
 6898SOL    HW121593   3.482   2.003   1.716
 6898SOL    HW221594   3.436   1.940   1.860
 6899SOL     OW21595   4.751   6.934   0.151
 6899SOL    HW121596   4.668   6.882   0.127
 6899SOL    HW221597   4.818   6.872   0.192
 6900SOL     OW21598   6.024   0.693   6.248
 6900SOL    HW121599   6.041   0.602   6.285
 6900SOL    HW221600   5.982   0.685   6.158
 6901SOL     OW21601   0.650   0.192   6.322
 6901SOL    HW121602   0.567   0.147   6.288
 6901SOL    HW221603   0.635   0.291   6.326
 6902SOL     OW21604   0.285   5.927   0.556
 6902SOL    HW121605   0.349   5.889   0.623
 6902SOL    HW221606   0.223   5.991   0.602
 6903SOL     OW21607   3.789   4.252   6.011
 6903SOL    HW121608   3.814   4.166   6.055
 6903SOL    HW221609   3.692   4.249   5.987
 6904SOL     OW21610   0.055   1.422   3.908
 6904SOL    HW121611   7.009   1.413   3.985
 6904SOL    HW221612   0.034   1.506   3.857
 6905SOL     OW21613   6.766   6.501   6.803
 6905SOL    HW121614   6.817   6.416   6.796
 6905SOL    HW221615   6.670   6.484   6.784
 6906SOL     OW21616   4.366   1.253   4.096
 6906SOL    HW121617   4.455   1.210   4.083
 6906SOL    HW221618   4.352   1.273   4.193
 6907SOL     OW21619   4.513   1.438   1.149
 6907SOL    HW121620   4.528   1.341   1.127
 6907SOL    HW221621   4.417   1.461   1.132
 6908SOL     OW21622   1.215   7.002   5.479
 6908SOL    HW121623   1.138   0.048   5.483
 6908SOL    HW221624   1.200   6.936   5.405
 6909SOL     OW21625   5.170   4.644   1.089
 6909SOL    HW121626   5.223   4.718   1.131
 6909SOL    HW221627   5.232   4.580   1.044
 6910SOL     OW21628   6.584   2.394   2.783
 6910SOL    HW121629   6.546   2.405   2.875
 6910SOL    HW221630   6.554   2.471   2.726
 6911SOL     OW21631   3.931   0.042   3.039
 6911SOL    HW121632   3.923   0.024   2.941
 6911SOL    HW221633   3.843   0.025   3.083
 6912SOL     OW21634   4.751   4.927   1.639
 6912SOL    HW121635   4.662   4.885   1.624
 6912SOL    HW221636   4.796   4.884   1.717
 6913SOL     OW21637   5.111   4.946   5.103
 6913SOL    HW121638   5.088   5.016   5.034
 6913SOL    HW221639   5.116   4.857   5.059
 6914SOL     OW21640   6.411   4.939   0.009
 6914SOL    HW121641   6.436   4.857   6.975
 6914SOL    HW221642   6.453   4.936   0.100
 6915SOL     OW21643   6.903   4.626   1.807
 6915SOL    HW121644   6.813   4.663   1.833
 6915SOL    HW221645   6.935   4.564   1.879
 6916SOL     OW21646   6.237   3.922   0.152
 6916SOL    HW121647   6.329   3.905   0.186
 6916SOL    HW221648   6.239   3.933   0.053
 6917SOL     OW21649   3.412   5.373   0.328
 6917SOL    HW121650   3.457   5.362   0.416
 6917SOL    HW221651   3.402   5.283   0.285
 6918SOL     OW21652   1.124   4.079   4.187
 6918SOL    HW121653   1.106   3.983   4.205
 6918SOL    HW221654   1.222   4.097   4.193
 6919SOL     OW21655   0.514   5.674   3.149
 6919SOL    HW121656   0.577   5.718   3.084
 6919SOL    HW221657   0.467   5.745   3.202
 6920SOL     OW21658   4.042   5.470   5.701
 6920SOL    HW121659   3.961   5.526   5.722
 6920SOL    HW221660   4.077   5.495   5.611
 6921SOL     OW21661   5.049   5.686   3.214
 6921SOL    HW121662   5.039   5.784   3.195
 6921SOL    HW221663   4.982   5.658   3.282
 6922SOL     OW21664   1.599   5.871   6.572
 6922SOL    HW121665   1.499   5.870   6.581
 6922SOL    HW221666   1.623   5.908   6.482
 6923SOL     OW21667   5.441   0.005   3.465
 6923SOL    HW121668   5.508   0.033   3.397
 6923SOL    HW221669   5.460   6.929   3.495
 6924SOL     OW21670   0.363   4.304   6.530
 6924SOL    HW121671   0.345   4.347   6.619
 6924SOL    HW221672   0.382   4.375   6.463
 6925SOL     OW21673   3.723   6.038   4.250
 6925SOL    HW121674   3.732   6.106   4.323
 6925SOL    HW221675   3.628   6.009   4.243
 6926SOL     OW21676   3.318   3.115   2.239
 6926SOL    HW121677   3.260   3.044   2.198
 6926SOL    HW221678   3.354   3.082   2.326
 6927SOL     OW21679   6.063   3.569   6.042
 6927SOL    HW121680   6.069   3.605   6.135
 6927SOL    HW221681   6.154   3.540   6.011
 6928SOL     OW21682   6.371   6.757   1.119
 6928SOL    HW121683   6.294   6.701   1.087
 6928SOL    HW221684   6.337   6.828   1.180
 6929SOL     OW21685   4.972   5.534   0.938
 6929SOL    HW121686   4.920   5.615   0.913
 6929SOL    HW221687   4.945   5.458   0.879
 6930SOL     OW21688   0.422   6.826   1.690
 6930SOL    HW121689   0.393   6.761   1.619
 6930SOL    HW221690   0.348   6.891   1.707
 6931SOL     OW21691   0.715   0.632   2.089
 6931SOL    HW121692   0.758   0.666   2.005
 6931SOL    HW221693   0.783   0.628   2.162
 6932SOL     OW21694   4.221   1.385   0.656
 6932SOL    HW121695   4.312   1.352   0.631
 6932SOL    HW221696   4.201   1.468   0.605
 6933SOL     OW21697   3.486   6.401   5.374
 6933SOL    HW121698   3.494   6.488   5.422
 6933SOL    HW221699   3.417   6.408   5.302
 6934SOL     OW21700   4.659   4.226   5.950
 6934SOL    HW121701   4.736   4.289   5.952
 6934SOL    HW221702   4.680   4.145   6.005
 6935SOL     OW21703   4.287   6.171   3.230
 6935SOL    HW121704   4.299   6.269   3.248
 6935SOL    HW221705   4.277   6.123   3.317
 6936SOL     OW21706   6.605   2.251   2.310
 6936SOL    HW121707   6.530   2.317   2.309
 6936SOL    HW221708   6.569   2.158   2.300
 6937SOL     OW21709   6.477   6.564   6.813
 6937SOL    HW121710   6.503   6.485   6.869
 6937SOL    HW221711   6.417   6.534   6.738
 6938SOL     OW21712   5.054   4.123   5.388
 6938SOL    HW121713   5.118   4.145   5.461
 6938SOL    HW221714   4.985   4.059   5.423
 6939SOL     OW21715   6.854   4.583   2.316
 6939SOL    HW121716   6.765   4.566   2.274
 6939SOL    HW221717   6.905   4.649   2.260
 6940SOL     OW21718   4.957   1.484   0.519
 6940SOL    HW121719   4.986   1.432   0.438
 6940SOL    HW221720   4.973   1.582   0.503
 6941SOL     OW21721   3.938   3.009   3.118
 6941SOL    HW121722   4.005   2.993   3.045
 6941SOL    HW221723   3.946   3.104   3.149
 6942SOL     OW21724   6.547   2.904   0.709
 6942SOL    HW121725   6.594   2.893   0.797
 6942SOL    HW221726   6.449   2.917   0.725
 6943SOL     OW21727   4.740   6.218   0.063
 6943SOL    HW121728   4.732   6.144   0.130
 6943SOL    HW221729   4.836   6.235   0.043
 6944SOL     OW21730   1.489   4.662   5.569
 6944SOL    HW121731   1.498   4.581   5.627
 6944SOL    HW221732   1.558   4.729   5.595
 6945SOL     OW21733   5.884   2.912   6.566
 6945SOL    HW121734   5.908   2.968   6.487
 6945SOL    HW221735   5.964   2.905   6.627
 6946SOL     OW21736   6.190   5.887   2.276
 6946SOL    HW121737   6.118   5.956   2.285
 6946SOL    HW221738   6.279   5.932   2.267
 6947SOL     OW21739   3.430   6.845   5.048
 6947SOL    HW121740   3.493   6.769   5.064
 6947SOL    HW221741   3.434   6.872   4.952
 6948SOL     OW21742   6.165   0.531   0.388
 6948SOL    HW121743   6.188   0.521   0.291
 6948SOL    HW221744   6.084   0.588   0.398
 6949SOL     OW21745   5.608   0.067   4.215
 6949SOL    HW121746   5.590   0.072   4.313
 6949SOL    HW221747   5.539   0.120   4.166
 6950SOL     OW21748   2.417   0.066   2.956
 6950SOL    HW121749   2.477   0.144   2.972
 6950SOL    HW221750   2.368   0.044   3.040
 6951SOL     OW21751   5.506   5.924   5.905
 6951SOL    HW121752   5.596   5.886   5.926
 6951SOL    HW221753   5.457   5.863   5.842
 6952SOL     OW21754   6.754   6.208   3.523
 6952SOL    HW121755   6.710   6.183   3.437
 6952SOL    HW221756   6.744   6.307   3.538
 6953SOL     OW21757   5.212   6.909   6.975
 6953SOL    HW121758   5.216   6.949   6.884
 6953SOL    HW221759   5.181   6.979   0.023
 6954SOL     OW21760   0.838   3.683   4.107
 6954SOL    HW121761   0.885   3.743   4.042
 6954SOL    HW221762   0.824   3.731   4.193
 6955SOL     OW21763   6.575   0.185   2.340
 6955SOL    HW121764   6.485   0.166   2.299
 6955SOL    HW221765   6.646   0.140   2.286
 6956SOL     OW21766   4.283   6.177   2.683
 6956SOL    HW121767   4.345   6.155   2.759
 6956SOL    HW221768   4.321   6.142   2.597
 6957SOL     OW21769   6.178   4.889   1.741
 6957SOL    HW121770   6.114   4.862   1.669
 6957SOL    HW221771   6.268   4.905   1.700
 6958SOL     OW21772   3.121   3.820   5.408
 6958SOL    HW121773   3.116   3.720   5.405
 6958SOL    HW221774   3.117   3.856   5.314
 6959SOL     OW21775   2.698   1.099   4.564
 6959SOL    HW121776   2.733   1.060   4.479
 6959SOL    HW221777   2.599   1.087   4.568
 6960SOL     OW21778   0.896   5.184   0.666
 6960SOL    HW121779   0.849   5.256   0.614
 6960SOL    HW221780   0.834   5.107   0.679
 6961SOL     OW21781   0.158   2.838   4.384
 6961SOL    HW121782   0.123   2.925   4.348
 6961SOL    HW221783   0.133   2.764   4.322
 6962SOL     OW21784   5.136   5.361   2.339
 6962SOL    HW121785   5.065   5.423   2.370
 6962SOL    HW221786   5.152   5.290   2.408
 6963SOL     OW21787   7.003   5.624   0.668
 6963SOL    HW121788   0.028   5.564   0.736
 6963SOL    HW221789   6.979   5.570   0.587
 6964SOL     OW21790   4.771   4.836   4.210
 6964SOL    HW121791   4.862   4.801   4.233
 6964SOL    HW221792   4.764   4.845   4.110
 6965SOL     OW21793   0.919   3.746   5.706
 6965SOL    HW121794   0.949   3.730   5.611
 6965SOL    HW221795   0.841   3.687   5.725
 6966SOL     OW21796   6.514   2.438   3.044
 6966SOL    HW121797   6.522   2.536   3.063
 6966SOL    HW221798   6.453   2.396   3.112
 6967SOL     OW21799   1.849   1.362   5.282
 6967SOL    HW121800   1.757   1.341   5.313
 6967SOL    HW221801   1.897   1.414   5.353
 6968SOL     OW21802   3.509   6.810   2.650
 6968SOL    HW121803   3.503   6.874   2.726
 6968SOL    HW221804   3.437   6.741   2.658
 6969SOL     OW21805   3.403   2.183   1.414
 6969SOL    HW121806   3.360   2.112   1.469
 6969SOL    HW221807   3.436   2.144   1.328
 6970SOL     OW21808   4.667   3.620   0.306
 6970SOL    HW121809   4.680   3.543   0.242
 6970SOL    HW221810   4.597   3.596   0.373
 6971SOL     OW21811   6.450   4.181   2.138
 6971SOL    HW121812   6.474   4.133   2.223
 6971SOL    HW221813   6.455   4.117   2.061
 6972SOL     OW21814   5.648   5.244   4.465
 6972SOL    HW121815   5.684   5.165   4.416
 6972SOL    HW221816   5.560   5.221   4.505
 6973SOL     OW21817   0.884   3.768   5.151
 6973SOL    HW121818   0.912   3.700   5.083
 6973SOL    HW221819   0.854   3.851   5.105
 6974SOL     OW21820   3.203   2.964   2.969
 6974SOL    HW121821   3.174   2.868   2.972
 6974SOL    HW221822   3.138   3.016   2.913
 6975SOL     OW21823   2.988   6.966   6.156
 6975SOL    HW121824   2.916   6.922   6.102
 6975SOL    HW221825   2.974   6.946   6.253
 6976SOL     OW21826   4.097   4.633   6.029
 6976SOL    HW121827   4.090   4.536   6.008
 6976SOL    HW221828   4.066   4.687   5.950
 6977SOL     OW21829   5.266   2.216   1.540
 6977SOL    HW121830   5.233   2.295   1.591
 6977SOL    HW221831   5.363   2.228   1.517
 6978SOL     OW21832   6.281   2.283   1.196
 6978SOL    HW121833   6.230   2.215   1.249
 6978SOL    HW221834   6.314   2.354   1.257
 6979SOL     OW21835   1.328   5.152   0.755
 6979SOL    HW121836   1.335   5.252   0.750
 6979SOL    HW221837   1.411   5.115   0.795
 6980SOL     OW21838   1.980   0.746   3.590
 6980SOL    HW121839   1.952   0.773   3.498
 6980SOL    HW221840   1.903   0.703   3.637
 6981SOL     OW21841   2.308   3.134   6.626
 6981SOL    HW121842   2.263   3.181   6.701
 6981SOL    HW221843   2.306   3.192   6.544
 6982SOL     OW21844   0.879   1.404   4.186
 6982SOL    HW121845   0.793   1.354   4.195
 6982SOL    HW221846   0.952   1.352   4.231
 6983SOL     OW21847   5.552   2.491   3.664
 6983SOL    HW121848   5.556   2.483   3.763
 6983SOL    HW221849   5.459   2.517   3.636
 6984SOL     OW21850   2.001   2.466   4.530
 6984SOL    HW121851   1.917   2.417   4.554
 6984SOL    HW221852   2.069   2.400   4.498
 6985SOL     OW21853   3.840   5.304   1.831
 6985SOL    HW121854   3.756   5.254   1.813
 6985SOL    HW221855   3.911   5.241   1.863
 6986SOL     OW21856   1.741   6.359   6.462
 6986SOL    HW121857   1.824   6.335   6.512
 6986SOL    HW221858   1.766   6.398   6.373
 6987SOL     OW21859   1.106   1.682   6.069
 6987SOL    HW121860   1.182   1.705   6.129
 6987SOL    HW221861   1.125   1.715   5.977
 6988SOL     OW21862   6.087   0.915   5.325
 6988SOL    HW121863   5.996   0.945   5.297
 6988SOL    HW221864   6.088   0.815   5.333
 6989SOL     OW21865   0.139   3.500   3.675
 6989SOL    HW121866   0.201   3.572   3.643
 6989SOL    HW221867   0.187   3.440   3.739
 6990SOL     OW21868   5.557   1.985   0.199
 6990SOL    HW121869   5.500   2.053   0.244
 6990SOL    HW221870   5.631   2.032   0.149
 6991SOL     OW21871   2.368   4.525   3.837
 6991SOL    HW121872   2.418   4.511   3.922
 6991SOL    HW221873   2.310   4.606   3.846
 6992SOL     OW21874   6.009   6.229   4.756
 6992SOL    HW121875   5.977   6.148   4.806
 6992SOL    HW221876   5.938   6.300   4.761
 6993SOL     OW21877   6.741   0.769   2.098
 6993SOL    HW121878   6.710   0.819   2.179
 6993SOL    HW221879   6.670   0.705   2.069
 6994SOL     OW21880   0.700   2.832   4.890
 6994SOL    HW121881   0.726   2.927   4.874
 6994SOL    HW221882   0.770   2.787   4.946
 6995SOL     OW21883   6.232   5.475   5.670
 6995SOL    HW121884   6.193   5.405   5.731
 6995SOL    HW221885   6.226   5.443   5.575
 6996SOL     OW21886   2.099   0.940   5.020
 6996SOL    HW121887   2.110   1.031   4.980
 6996SOL    HW221888   2.144   0.872   4.961
 6997SOL     OW21889   5.869   5.800   5.141
 6997SOL    HW121890   5.857   5.810   5.239
 6997SOL    HW221891   5.960   5.763   5.122
 6998SOL     OW21892   1.851   2.089   2.151
 6998SOL    HW121893   1.889   2.041   2.072
 6998SOL    HW221894   1.925   2.134   2.201
 6999SOL     OW21895   2.095   2.013   6.881
 6999SOL    HW121896   2.078   1.968   6.793
 6999SOL    HW221897   2.109   1.944   6.952
 7000SOL     OW21898   6.611   5.433   2.853
 7000SOL    HW121899   6.606   5.511   2.917
 7000SOL    HW221900   6.701   5.432   2.810
 7001SOL     OW21901   2.606   2.908   5.386
 7001SOL    HW121902   2.561   2.937   5.301
 7001SOL    HW221903   2.580   2.970   5.460
 7002SOL     OW21904   2.052   5.016   2.791
 7002SOL    HW121905   2.145   4.980   2.791
 7002SOL    HW221906   1.987   4.941   2.806
 7003SOL     OW21907   3.721   5.896   0.156
 7003SOL    HW121908   3.635   5.888   0.106
 7003SOL    HW221909   3.737   5.991   0.181
 7004SOL     OW21910   2.079   5.069   1.814
 7004SOL    HW121911   2.040   4.976   1.814
 7004SOL    HW221912   2.106   5.094   1.907
 7005SOL     OW21913   0.487   6.199   6.187
 7005SOL    HW121914   0.516   6.121   6.131
 7005SOL    HW221915   0.543   6.204   6.269
 7006SOL     OW21916   5.354   4.967   4.905
 7006SOL    HW121917   5.401   4.946   4.991
 7006SOL    HW221918   5.312   5.058   4.911
 7007SOL     OW21919   4.878   6.997   3.203
 7007SOL    HW121920   4.976   6.975   3.200
 7007SOL    HW221921   4.828   6.921   3.243
 7008SOL     OW21922   1.822   5.437   4.379
 7008SOL    HW121923   1.885   5.363   4.399
 7008SOL    HW221924   1.861   5.524   4.410
 7009SOL     OW21925   5.735   5.678   2.398
 7009SOL    HW121926   5.834   5.672   2.381
 7009SOL    HW221927   5.713   5.637   2.486
 7010SOL     OW21928   4.358   3.631   5.673
 7010SOL    HW121929   4.300   3.556   5.641
 7010SOL    HW221930   4.439   3.637   5.615
 7011SOL     OW21931   2.067   0.804   6.648
 7011SOL    HW121932   2.127   0.781   6.724
 7011SOL    HW221933   2.112   0.779   6.562
 7012SOL     OW21934   2.038   0.753   2.440
 7012SOL    HW121935   2.099   0.829   2.418
 7012SOL    HW221936   2.070   0.670   2.395
 7013SOL     OW21937   0.397   6.525   0.979
 7013SOL    HW121938   0.413   6.436   1.022
 7013SOL    HW221939   0.391   6.514   0.880
 7014SOL     OW21940   4.851   2.840   1.469
 7014SOL    HW121941   4.888   2.874   1.382
 7014SOL    HW221942   4.814   2.748   1.455
 7015SOL     OW21943   5.721   5.023   2.479
 7015SOL    HW121944   5.685   4.947   2.425
 7015SOL    HW221945   5.732   4.994   2.574
 7016SOL     OW21946   3.855   4.847   2.123
 7016SOL    HW121947   3.948   4.812   2.112
 7016SOL    HW221948   3.815   4.866   2.034
 7017SOL     OW21949   1.868   6.629   2.308
 7017SOL    HW121950   1.933   6.642   2.232
 7017SOL    HW221951   1.815   6.713   2.320
 7018SOL     OW21952   6.262   4.441   5.029
 7018SOL    HW121953   6.199   4.517   5.045
 7018SOL    HW221954   6.231   4.361   5.081
 7019SOL     OW21955   3.147   4.537   6.881
 7019SOL    HW121956   3.198   4.532   6.795
 7019SOL    HW221957   3.056   4.575   6.863
 7020SOL     OW21958   6.235   6.799   6.591
 7020SOL    HW121959   6.269   6.781   6.684
 7020SOL    HW221960   6.289   6.747   6.525
 7021SOL     OW21961   2.275   1.049   5.355
 7021SOL    HW121962   2.361   1.008   5.325
 7021SOL    HW221963   2.269   1.143   5.323
 7022SOL     OW21964   4.560   5.203   0.997
 7022SOL    HW121965   4.512   5.225   1.082
 7022SOL    HW221966   4.655   5.181   1.017
 7023SOL     OW21967   0.583   2.296   3.721
 7023SOL    HW121968   0.520   2.360   3.765
 7023SOL    HW221969   0.643   2.256   3.789
 7024SOL     OW21970   1.723   5.180   6.064
 7024SOL    HW121971   1.630   5.149   6.046
 7024SOL    HW221972   1.787   5.104   6.053
 7025SOL     OW21973   2.838   1.071   6.952
 7025SOL    HW121974   2.937   1.080   6.954
 7025SOL    HW221975   2.796   1.158   6.978
 7026SOL     OW21976   2.849   1.463   2.287
 7026SOL    HW121977   2.852   1.521   2.369
 7026SOL    HW221978   2.761   1.477   2.240
 7027SOL     OW21979   2.778   4.879   3.056
 7027SOL    HW121980   2.746   4.810   2.991
 7027SOL    HW221981   2.720   4.879   3.137
 7028SOL     OW21982   6.265   6.936   4.399
 7028SOL    HW121983   6.347   6.945   4.343
 7028SOL    HW221984   6.269   7.002   4.475
 7029SOL     OW21985   4.058   6.474   6.685
 7029SOL    HW121986   4.000   6.498   6.763
 7029SOL    HW221987   4.028   6.525   6.604
 7030SOL     OW21988   6.586   2.329   5.653
 7030SOL    HW121989   6.521   2.358   5.583
 7030SOL    HW221990   6.555   2.243   5.694
 7031SOL     OW21991   2.104   6.107   4.541
 7031SOL    HW121992   2.195   6.123   4.503
 7031SOL    HW221993   2.047   6.063   4.473
 7032SOL     OW21994   3.686   6.461   3.881
 7032SOL    HW121995   3.694   6.448   3.782
 7032SOL    HW221996   3.621   6.396   3.918
 7033SOL     OW21997   0.148   2.120   3.693
 7033SOL    HW121998   0.136   2.102   3.595
 7033SOL    HW221999   0.067   2.088   3.743
 7034SOL     OW22000   6.422   0.649   2.702
 7034SOL    HW122001   6.440   0.558   2.741
 7034SOL    HW222002   6.415   0.641   2.603
 7035SOL     OW22003   1.246   6.712   1.816
 7035SOL    HW122004   1.235   6.795   1.761
 7035SOL    HW222005   1.198   6.723   1.903
 7036SOL     OW22006   6.949   0.622   1.803
 7036SOL    HW122007   6.977   0.597   1.710
 7036SOL    HW222008   0.010   0.661   1.851
 7037SOL     OW22009   1.217   0.763   6.316
 7037SOL    HW122010   1.263   0.675   6.328
 7037SOL    HW222011   1.154   0.779   6.392
 7038SOL     OW22012   1.571   3.299   4.225
 7038SOL    HW122013   1.535   3.315   4.317
 7038SOL    HW222014   1.604   3.385   4.187
 7039SOL     OW22015   2.904   5.437   1.177
 7039SOL    HW122016   2.829   5.423   1.242
 7039SOL    HW222017   2.878   5.401   1.087
 7040SOL     OW22018   5.667   1.731   5.015
 7040SOL    HW122019   5.572   1.747   4.988
 7040SOL    HW222020   5.674   1.643   5.062
 7041SOL     OW22021   0.381   2.064   2.928
 7041SOL    HW122022   0.367   2.144   2.870
 7041SOL    HW222023   0.311   1.995   2.908
 7042SOL     OW22024   5.674   5.246   6.741
 7042SOL    HW122025   5.625   5.184   6.803
 7042SOL    HW222026   5.685   5.335   6.785
 7043SOL     OW22027   2.186   3.080   3.489
 7043SOL    HW122028   2.212   3.021   3.565
 7043SOL    HW222029   2.202   3.033   3.402
 7044SOL     OW22030   4.914   4.772   2.484
 7044SOL    HW122031   4.916   4.798   2.581
 7044SOL    HW222032   4.820   4.753   2.457
 7045SOL     OW22033   5.041   5.692   2.267
 7045SOL    HW122034   5.124   5.747   2.266
 7045SOL    HW222035   5.041   5.628   2.190
 7046SOL     OW22036   3.594   1.967   3.344
 7046SOL    HW122037   3.615   2.035   3.274
 7046SOL    HW222038   3.530   2.006   3.411
 7047SOL     OW22039   0.822   2.283   2.750
 7047SOL    HW122040   0.797   2.244   2.839
 7047SOL    HW222041   0.824   2.383   2.756
 7048SOL     OW22042   0.315   5.340   1.776
 7048SOL    HW122043   0.312   5.440   1.784
 7048SOL    HW222044   0.247   5.311   1.708
 7049SOL     OW22045   2.277   1.697   1.287
 7049SOL    HW122046   2.227   1.782   1.269
 7049SOL    HW222047   2.214   1.629   1.325
 7050SOL     OW22048   3.888   3.725   2.841
 7050SOL    HW122049   3.855   3.788   2.912
 7050SOL    HW222050   3.916   3.777   2.761
 7051SOL     OW22051   0.287   1.082   0.842
 7051SOL    HW122052   0.296   0.984   0.857
 7051SOL    HW222053   0.251   1.126   0.925
 7052SOL     OW22054   6.106   3.001   3.921
 7052SOL    HW122055   6.115   2.903   3.942
 7052SOL    HW222056   6.044   3.012   3.843
 7053SOL     OW22057   0.766   3.311   4.646
 7053SOL    HW122058   0.849   3.365   4.659
 7053SOL    HW222059   0.762   3.238   4.715
 7054SOL     OW22060   1.124   5.783   1.318
 7054SOL    HW122061   1.124   5.737   1.228
 7054SOL    HW222062   1.161   5.875   1.308
 7055SOL     OW22063   3.698   6.257   5.338
 7055SOL    HW122064   3.774   6.290   5.393
 7055SOL    HW222065   3.618   6.315   5.354
 7056SOL     OW22066   5.997   5.985   2.506
 7056SOL    HW122067   5.902   5.984   2.476
 7056SOL    HW222068   6.015   6.070   2.557
 7057SOL     OW22069   1.324   5.749   3.517
 7057SOL    HW122070   1.259   5.675   3.536
 7057SOL    HW222071   1.384   5.722   3.441
 7058SOL     OW22072   6.323   5.843   6.488
 7058SOL    HW122073   6.230   5.832   6.453
 7058SOL    HW222074   6.322   5.837   6.588
 7059SOL     OW22075   0.242   0.879   3.046
 7059SOL    HW122076   0.269   0.973   3.066
 7059SOL    HW222077   0.302   0.816   3.095
 7060SOL     OW22078   3.851   0.170   1.681
 7060SOL    HW122079   3.807   0.092   1.639
 7060SOL    HW222080   3.782   0.232   1.718
 7061SOL     OW22081   0.070   2.968   3.724
 7061SOL    HW122082   0.101   2.961   3.629
 7061SOL    HW222083   0.124   2.906   3.781
 7062SOL     OW22084   5.466   1.284   5.859
 7062SOL    HW122085   5.530   1.318   5.927
 7062SOL    HW222086   5.389   1.239   5.905
 7063SOL     OW22087   0.326   0.190   0.915
 7063SOL    HW122088   0.308   0.215   0.820
 7063SOL    HW222089   0.270   0.246   0.976
 7064SOL     OW22090   4.046   1.897   2.033
 7064SOL    HW122091   4.024   1.978   1.978
 7064SOL    HW222092   4.134   1.860   2.003
 7065SOL     OW22093   4.020   3.375   6.696
 7065SOL    HW122094   4.085   3.410   6.763
 7065SOL    HW222095   4.056   3.290   6.657
 7066SOL     OW22096   4.352   0.529   0.830
 7066SOL    HW122097   4.269   0.498   0.875
 7066SOL    HW222098   4.343   0.626   0.806
 7067SOL     OW22099   1.934   1.804   5.252
 7067SOL    HW122100   1.920   1.725   5.193
 7067SOL    HW222101   1.846   1.849   5.270
 7068SOL     OW22102   0.904   4.278   4.317
 7068SOL    HW122103   0.950   4.300   4.403
 7068SOL    HW222104   0.960   4.215   4.264
 7069SOL     OW22105   5.883   2.556   4.254
 7069SOL    HW122106   5.786   2.535   4.268
 7069SOL    HW222107   5.898   2.654   4.268
 7070SOL     OW22108   0.000   6.675   4.998
 7070SOL    HW122109   0.023   6.579   4.980
 7070SOL    HW222110   0.059   6.734   4.943
 7071SOL     OW22111   1.441   6.252   6.083
 7071SOL    HW122112   1.388   6.192   6.142
 7071SOL    HW222113   1.423   6.348   6.107
 7072SOL     OW22114   0.230   6.298   6.192
 7072SOL    HW122115   0.213   6.301   6.291
 7072SOL    HW222116   0.328   6.284   6.176
 7073SOL     OW22117   5.527   6.329   4.708
 7073SOL    HW122118   5.553   6.375   4.624
 7073SOL    HW222119   5.470   6.250   4.687
 7074SOL     OW22120   4.147   2.334   1.384
 7074SOL    HW122121   4.239   2.309   1.353
 7074SOL    HW222122   4.079   2.281   1.332
 7075SOL     OW22123   1.167   5.657   5.539
 7075SOL    HW122124   1.105   5.731   5.566
 7075SOL    HW222125   1.182   5.660   5.441
 7076SOL     OW22126   4.662   2.127   6.710
 7076SOL    HW122127   4.643   2.144   6.614
 7076SOL    HW222128   4.701   2.209   6.751
 7077SOL     OW22129   2.310   4.319   4.869
 7077SOL    HW122130   2.333   4.391   4.934
 7077SOL    HW222131   2.312   4.230   4.916
 7078SOL     OW22132   6.372   0.648   1.179
 7078SOL    HW122133   6.388   0.634   1.277
 7078SOL    HW222134   6.378   0.745   1.158
 7079SOL     OW22135   6.447   6.795   5.486
 7079SOL    HW122136   6.350   6.819   5.489
 7079SOL    HW222137   6.457   6.697   5.472
 7080SOL     OW22138   3.146   2.151   4.576
 7080SOL    HW122139   3.139   2.244   4.539
 7080SOL    HW222140   3.058   2.104   4.564
 7081SOL     OW22141   2.995   1.600   6.720
 7081SOL    HW122142   3.094   1.608   6.715
 7081SOL    HW222143   2.960   1.561   6.635
 7082SOL     OW22144   6.372   4.516   6.896
 7082SOL    HW122145   6.294   4.480   6.948
 7082SOL    HW222146   6.343   4.596   6.844
 7083SOL     OW22147   3.381   1.007   0.128
 7083SOL    HW122148   3.332   0.937   0.076
 7083SOL    HW222149   3.316   1.070   0.169
 7084SOL     OW22150   0.169   6.809   5.617
 7084SOL    HW122151   0.124   6.759   5.543
 7084SOL    HW222152   0.104   6.872   5.659
 7085SOL     OW22153   1.880   1.589   2.171
 7085SOL    HW122154   1.902   1.671   2.223
 7085SOL    HW222155   1.783   1.566   2.182
 7086SOL     OW22156   4.737   0.916   5.675
 7086SOL    HW122157   4.668   0.966   5.727
 7086SOL    HW222158   4.738   0.948   5.580
 7087SOL     OW22159   5.612   4.162   3.940
 7087SOL    HW122160   5.680   4.233   3.922
 7087SOL    HW222161   5.623   4.087   3.875
 7088SOL     OW22162   5.221   2.515   3.741
 7088SOL    HW122163   5.152   2.458   3.695
 7088SOL    HW222164   5.266   2.573   3.674
 7089SOL     OW22165   3.640   2.340   5.460
 7089SOL    HW122166   3.681   2.424   5.425
 7089SOL    HW222167   3.567   2.310   5.398
 7090SOL     OW22168   2.142   1.598   6.406
 7090SOL    HW122169   2.105   1.556   6.323
 7090SOL    HW222170   2.188   1.528   6.461
 7091SOL     OW22171   0.237   1.689   0.005
 7091SOL    HW122172   0.159   1.742   6.988
 7091SOL    HW222173   0.253   1.611   6.962
 7092SOL     OW22174   4.342   2.592   6.435
 7092SOL    HW122175   4.292   2.634   6.359
 7092SOL    HW222176   4.406   2.524   6.400
 7093SOL     OW22177   2.934   3.672   3.179
 7093SOL    HW122178   2.927   3.656   3.278
 7093SOL    HW222179   2.853   3.634   3.134
 7094SOL     OW22180   0.855   5.257   5.301
 7094SOL    HW122181   0.930   5.241   5.366
 7094SOL    HW222182   0.875   5.213   5.214
 7095SOL     OW22183   3.424   4.120   6.378
 7095SOL    HW122184   3.518   4.147   6.398
 7095SOL    HW222185   3.422   4.070   6.291
 7096SOL     OW22186   6.159   0.566   3.617
 7096SOL    HW122187   6.161   0.650   3.563
 7096SOL    HW222188   6.066   0.549   3.648
 7097SOL     OW22189   6.029   1.146   1.282
 7097SOL    HW122190   6.042   1.153   1.183
 7097SOL    HW222191   5.942   1.186   1.308
 7098SOL     OW22192   0.646   0.615   4.172
 7098SOL    HW122193   0.682   0.541   4.116
 7098SOL    HW222194   0.722   0.668   4.211
 7099SOL     OW22195   2.926   0.789   5.064
 7099SOL    HW122196   2.953   0.783   4.968
 7099SOL    HW222197   2.991   0.848   5.113
 7100SOL     OW22198   5.620   3.303   1.106
 7100SOL    HW122199   5.624   3.215   1.059
 7100SOL    HW222200   5.525   3.333   1.113
 7101SOL     OW22201   1.961   0.527   4.909
 7101SOL    HW122202   1.875   0.562   4.947
 7101SOL    HW222203   1.955   0.527   4.809
 7102SOL     OW22204   4.762   0.345   0.893
 7102SOL    HW122205   4.708   0.398   0.828
 7102SOL    HW222206   4.730   0.364   0.986
 7103SOL     OW22207   4.564   4.743   1.494
 7103SOL    HW122208   4.516   4.782   1.415
 7103SOL    HW222209   4.654   4.710   1.465
 7104SOL     OW22210   1.154   3.443   5.051
 7104SOL    HW122211   1.061   3.476   5.069
 7104SOL    HW222212   1.152   3.379   4.974
 7105SOL     OW22213   2.968   2.738   5.464
 7105SOL    HW122214   3.012   2.825   5.486
 7105SOL    HW222215   3.021   2.692   5.392
 7106SOL     OW22216   2.858   3.650   2.825
 7106SOL    HW122217   2.792   3.725   2.824
 7106SOL    HW222218   2.938   3.676   2.772
 7107SOL     OW22219   3.023   1.637   0.936
 7107SOL    HW122220   2.990   1.703   1.003
 7107SOL    HW222221   2.960   1.634   0.858
 7108SOL     OW22222   3.907   6.545   2.707
 7108SOL    HW122223   3.964   6.463   2.700
 7108SOL    HW222224   3.950   6.609   2.771
 7109SOL     OW22225   3.805   0.150   6.406
 7109SOL    HW122226   3.869   0.074   6.390
 7109SOL    HW222227   3.718   0.114   6.439
 7110SOL     OW22228   3.686   6.049   3.663
 7110SOL    HW122229   3.616   5.986   3.695
 7110SOL    HW222230   3.726   6.097   3.741
 7111SOL     OW22231   2.244   2.392   4.269
 7111SOL    HW122232   2.251   2.344   4.181
 7111SOL    HW222233   2.186   2.339   4.331
 7112SOL     OW22234   2.030   5.845   4.255
 7112SOL    HW122235   2.122   5.807   4.261
 7112SOL    HW222236   2.034   5.943   4.274
 7113SOL     OW22237   3.453   3.883   4.922
 7113SOL    HW122238   3.477   3.848   5.012
 7113SOL    HW222239   3.432   3.980   4.928
 7114SOL     OW22240   3.664   6.360   1.492
 7114SOL    HW122241   3.679   6.362   1.591
 7114SOL    HW222242   3.584   6.416   1.470
 7115SOL     OW22243   5.311   3.325   2.225
 7115SOL    HW122244   5.276   3.263   2.155
 7115SOL    HW222245   5.393   3.286   2.266
 7116SOL     OW22246   5.304   4.292   3.726
 7116SOL    HW122247   5.331   4.195   3.727
 7116SOL    HW222248   5.292   4.322   3.631
 7117SOL     OW22249   6.772   6.418   4.702
 7117SOL    HW122250   6.869   6.406   4.722
 7117SOL    HW222251   6.760   6.485   4.629
 7118SOL     OW22252   2.410   4.159   0.663
 7118SOL    HW122253   2.332   4.116   0.707
 7118SOL    HW222254   2.491   4.149   0.721
 7119SOL     OW22255   5.030   1.562   3.177
 7119SOL    HW122256   4.942   1.598   3.206
 7119SOL    HW222257   5.022   1.463   3.159
 7120SOL     OW22258   4.110   1.814   2.317
 7120SOL    HW122259   4.114   1.836   2.219
 7120SOL    HW222260   4.046   1.738   2.331
 7121SOL     OW22261   2.121   6.631   2.412
 7121SOL    HW122262   2.022   6.629   2.393
 7121SOL    HW222263   2.136   6.610   2.509
 7122SOL     OW22264   0.456   0.388   5.810
 7122SOL    HW122265   0.492   0.357   5.722
 7122SOL    HW222266   0.487   0.482   5.827
 7123SOL     OW22267   2.069   4.711   2.179
 7123SOL    HW122268   2.000   4.776   2.212
 7123SOL    HW222269   2.157   4.732   2.220
 7124SOL     OW22270   0.093   2.442   0.323
 7124SOL    HW122271   0.131   2.456   0.414
 7124SOL    HW222272   0.007   2.492   0.315
 7125SOL     OW22273   6.546   6.842   0.926
 7125SOL    HW122274   6.585   6.768   0.871
 7125SOL    HW222275   6.489   6.803   0.998
 7126SOL     OW22276   3.522   4.410   0.341
 7126SOL    HW122277   3.603   4.372   0.387
 7126SOL    HW222278   3.547   4.496   0.296
 7127SOL     OW22279   2.051   6.429   4.805
 7127SOL    HW122280   1.979   6.400   4.741
 7127SOL    HW222281   2.061   6.528   4.801
 7128SOL     OW22282   2.929   5.190   0.555
 7128SOL    HW122283   2.887   5.120   0.611
 7128SOL    HW222284   2.884   5.193   0.465
 7129SOL     OW22285   2.427   1.314   0.317
 7129SOL    HW122286   2.451   1.368   0.236
 7129SOL    HW222287   2.329   1.325   0.337
 7130SOL     OW22288   3.856   4.727   5.392
 7130SOL    HW122289   3.761   4.705   5.368
 7130SOL    HW222290   3.909   4.643   5.401
 7131SOL     OW22291   2.705   1.367   0.364
 7131SOL    HW122292   2.719   1.354   0.462
 7131SOL    HW222293   2.607   1.370   0.343
 7132SOL     OW22294   3.632   3.517   0.020
 7132SOL    HW122295   3.689   3.481   6.964
 7132SOL    HW222296   3.614   3.614   0.005
 7133SOL     OW22297   5.257   5.925   4.517
 7133SOL    HW122298   5.175   5.868   4.521
 7133SOL    HW222299   5.281   5.945   4.422
 7134SOL     OW22300   5.930   5.886   1.815
 7134SOL    HW122301   5.977   5.974   1.814
 7134SOL    HW222302   5.959   5.831   1.737
 7135SOL     OW22303   1.247   2.651   2.720
 7135SOL    HW122304   1.320   2.649   2.652
 7135SOL    HW222305   1.283   2.627   2.809
 7136SOL     OW22306   1.486   2.262   1.093
 7136SOL    HW122307   1.539   2.223   1.019
 7136SOL    HW222308   1.391   2.275   1.064
 7137SOL     OW22309   4.622   0.360   0.145
 7137SOL    HW122310   4.537   0.413   0.153
 7137SOL    HW222311   4.633   0.328   0.051
 7138SOL     OW22312   1.682   2.875   0.372
 7138SOL    HW122313   1.704   2.783   0.404
 7138SOL    HW222314   1.656   2.872   0.276
 7139SOL     OW22315   5.063   4.115   2.680
 7139SOL    HW122316   5.070   4.022   2.716
 7139SOL    HW222317   4.978   4.124   2.628
 7140SOL     OW22318   5.795   3.899   4.163
 7140SOL    HW122319   5.700   3.869   4.176
 7140SOL    HW222320   5.845   3.889   4.249
 7141SOL     OW22321   3.227   5.776   1.550
 7141SOL    HW122322   3.201   5.701   1.610
 7141SOL    HW222323   3.281   5.843   1.601
 7142SOL     OW22324   4.579   0.100   3.907
 7142SOL    HW122325   4.484   0.081   3.881
 7142SOL    HW222326   4.639   0.077   3.830
 7143SOL     OW22327   1.434   3.266   6.001
 7143SOL    HW122328   1.487   3.347   6.025
 7143SOL    HW222329   1.472   3.225   5.918
 7144SOL     OW22330   1.492   1.620   3.451
 7144SOL    HW122331   1.573   1.674   3.428
 7144SOL    HW222332   1.449   1.586   3.367
 7145SOL     OW22333   4.135   6.813   6.675
 7145SOL    HW122334   4.199   6.842   6.604
 7145SOL    HW222335   4.094   6.725   6.649
 7146SOL     OW22336   2.260   0.923   0.184
 7146SOL    HW122337   2.256   0.936   0.085
 7146SOL    HW222338   2.256   0.825   0.205
 7147SOL     OW22339   6.638   6.423   3.065
 7147SOL    HW122340   6.611   6.493   3.131
 7147SOL    HW222341   6.565   6.409   2.998
 7148SOL     OW22342   0.757   6.999   0.252
 7148SOL    HW122343   0.798   0.047   0.189
 7148SOL    HW222344   0.683   6.950   0.206
 7149SOL     OW22345   6.548   6.556   2.729
 7149SOL    HW122346   6.501   6.485   2.779
 7149SOL    HW222347   6.644   6.530   2.715
 7150SOL     OW22348   3.631   1.817   2.399
 7150SOL    HW122349   3.688   1.828   2.318
 7150SOL    HW222350   3.595   1.907   2.426
 7151SOL     OW22351   1.622   6.348   0.385
 7151SOL    HW122352   1.554   6.398   0.439
 7151SOL    HW222353   1.608   6.249   0.397
 7152SOL     OW22354   1.015   1.570   5.012
 7152SOL    HW122355   1.049   1.568   4.919
 7152SOL    HW222356   0.924   1.610   5.014
 7153SOL     OW22357   3.172   5.527   2.724
 7153SOL    HW122358   3.167   5.545   2.626
 7153SOL    HW222359   3.087   5.483   2.754
 7154SOL     OW22360   3.795   0.522   4.193
 7154SOL    HW122361   3.829   0.462   4.120
 7154SOL    HW222362   3.698   0.504   4.208
 7155SOL     OW22363   2.319   4.607   1.448
 7155SOL    HW122364   2.246   4.545   1.477
 7155SOL    HW222365   2.408   4.563   1.464
 7156SOL     OW22366   0.407   4.717   4.716
 7156SOL    HW122367   0.417   4.797   4.776
 7156SOL    HW222368   0.461   4.641   4.753
 7157SOL     OW22369   6.221   4.706   0.916
 7157SOL    HW122370   6.288   4.760   0.966
 7157SOL    HW222371   6.256   4.685   0.824
 7158SOL     OW22372   1.451   0.412   2.879
 7158SOL    HW122373   1.400   0.462   2.809
 7158SOL    HW222374   1.417   0.318   2.884
 7159SOL     OW22375   0.395   4.077   2.598
 7159SOL    HW122376   0.369   4.170   2.573
 7159SOL    HW222377   0.420   4.074   2.695
 7160SOL     OW22378   5.556   1.100   3.131
 7160SOL    HW122379   5.492   1.048   3.188
 7160SOL    HW222380   5.625   1.142   3.189
 7161SOL     OW22381   2.962   3.758   4.611
 7161SOL    HW122382   2.917   3.703   4.540
 7161SOL    HW222383   3.036   3.705   4.652
 7162SOL     OW22384   2.412   5.687   5.751
 7162SOL    HW122385   2.354   5.716   5.828
 7162SOL    HW222386   2.462   5.604   5.776
 7163SOL     OW22387   3.009   6.300   2.963
 7163SOL    HW122388   3.061   6.252   2.892
 7163SOL    HW222389   2.911   6.290   2.945
 7164SOL     OW22390   1.796   1.097   3.917
 7164SOL    HW122391   1.769   1.151   3.997
 7164SOL    HW222392   1.716   1.049   3.882
 7165SOL     OW22393   6.941   1.480   1.426
 7165SOL    HW122394   6.940   1.493   1.327
 7165SOL    HW222395   6.913   1.565   1.471
 7166SOL     OW22396   5.777   3.101   0.066
 7166SOL    HW122397   5.777   3.178   0.002
 7166SOL    HW222398   5.804   3.018   0.018
 7167SOL     OW22399   4.919   3.703   4.538
 7167SOL    HW122400   4.918   3.629   4.605
 7167SOL    HW222401   4.910   3.665   4.446
 7168SOL     OW22402   1.452   2.994   3.650
 7168SOL    HW122403   1.360   2.984   3.689
 7168SOL    HW222404   1.512   3.034   3.719
 7169SOL     OW22405   0.313   3.725   5.055
 7169SOL    HW122406   0.344   3.685   5.141
 7169SOL    HW222407   0.217   3.750   5.063
 7170SOL     OW22408   5.140   6.309   3.082
 7170SOL    HW122409   5.193   6.391   3.101
 7170SOL    HW222410   5.136   6.252   3.164
 7171SOL     OW22411   5.745   4.317   6.487
 7171SOL    HW122412   5.646   4.332   6.485
 7171SOL    HW222413   5.789   4.393   6.535
 7172SOL     OW22414   1.780   0.738   5.231
 7172SOL    HW122415   1.704   0.801   5.246
 7172SOL    HW222416   1.864   0.790   5.216
 7173SOL     OW22417   6.846   4.648   5.855
 7173SOL    HW122418   6.842   4.739   5.897
 7173SOL    HW222419   6.941   4.622   5.841
 7174SOL     OW22420   0.835   4.329   0.256
 7174SOL    HW122421   0.763   4.398   0.251
 7174SOL    HW222422   0.883   4.336   0.343
 7175SOL     OW22423   5.282   3.198   6.817
 7175SOL    HW122424   5.360   3.255   6.843
 7175SOL    HW222425   5.310   3.102   6.818
 7176SOL     OW22426   1.020   6.068   3.110
 7176SOL    HW122427   1.104   6.101   3.066
 7176SOL    HW222428   1.005   5.973   3.085
 7177SOL     OW22429   2.335   6.618   4.358
 7177SOL    HW122430   2.299   6.711   4.359
 7177SOL    HW222431   2.261   6.554   4.341
 7178SOL     OW22432   2.295   3.346   5.575
 7178SOL    HW122433   2.390   3.331   5.549
 7178SOL    HW222434   2.237   3.275   5.534
 7179SOL     OW22435   1.830   3.986   4.597
 7179SOL    HW122436   1.747   3.952   4.552
 7179SOL    HW222437   1.908   3.929   4.570
 7180SOL     OW22438   1.475   4.333   6.427
 7180SOL    HW122439   1.560   4.364   6.468
 7180SOL    HW222440   1.484   4.237   6.398
 7181SOL     OW22441   1.962   5.686   0.330
 7181SOL    HW122442   1.954   5.689   0.230
 7181SOL    HW222443   2.047   5.730   0.358
 7182SOL     OW22444   1.557   2.944   5.474
 7182SOL    HW122445   1.571   2.852   5.509
 7182SOL    HW222446   1.646   2.988   5.458
 7183SOL     OW22447   1.744   6.159   0.135
 7183SOL    HW122448   1.767   6.236   0.194
 7183SOL    HW222449   1.672   6.186   0.071
 7184SOL     OW22450   0.596   0.854   2.815
 7184SOL    HW122451   0.685   0.838   2.773
 7184SOL    HW222452   0.609   0.890   2.908
 7185SOL     OW22453   5.682   0.520   5.159
 7185SOL    HW122454   5.618   0.465   5.105
 7185SOL    HW222455   5.740   0.458   5.212
 7186SOL     OW22456   6.591   0.019   6.525
 7186SOL    HW122457   6.682   0.060   6.532
 7186SOL    HW222458   6.599   6.944   6.486
 7187SOL     OW22459   3.400   4.214   0.163
 7187SOL    HW122460   3.454   4.267   0.229
 7187SOL    HW222461   3.334   4.275   0.118
 7188SOL     OW22462   6.275   6.688   0.380
 7188SOL    HW122463   6.353   6.670   0.440
 7188SOL    HW222464   6.241   6.602   0.342
 7189SOL     OW22465   6.892   0.965   5.864
 7189SOL    HW122466   6.834   0.948   5.785
 7189SOL    HW222467   6.988   0.969   5.835
 7190SOL     OW22468   6.627   4.060   3.194
 7190SOL    HW122469   6.656   3.979   3.244
 7190SOL    HW222470   6.572   4.119   3.253
 7191SOL     OW22471   0.268   4.243   3.314
 7191SOL    HW122472   0.177   4.275   3.288
 7191SOL    HW222473   0.259   4.178   3.390
 7192SOL     OW22474   3.235   5.141   5.985
 7192SOL    HW122475   3.303   5.200   5.940
 7192SOL    HW222476   3.250   5.046   5.957
 7193SOL     OW22477   2.181   2.478   2.458
 7193SOL    HW122478   2.194   2.577   2.447
 7193SOL    HW222479   2.129   2.460   2.541
 7194SOL     OW22480   2.519   2.119   0.716
 7194SOL    HW122481   2.512   2.062   0.634
 7194SOL    HW222482   2.494   2.065   0.796
 7195SOL     OW22483   0.143   5.004   6.713
 7195SOL    HW122484   0.109   4.932   6.773
 7195SOL    HW222485   0.204   5.064   6.764
 7196SOL     OW22486   3.223   4.257   1.537
 7196SOL    HW122487   3.193   4.163   1.554
 7196SOL    HW222488   3.302   4.256   1.476
 7197SOL     OW22489   6.729   1.937   5.791
 7197SOL    HW122490   6.749   1.995   5.870
 7197SOL    HW222491   6.777   1.849   5.802
 7198SOL     OW22492   0.714   1.028   6.284
 7198SOL    HW122493   0.695   1.050   6.188
 7198SOL    HW222494   0.669   1.094   6.343
 7199SOL     OW22495   2.113   0.502   2.350
 7199SOL    HW122496   2.054   0.496   2.270
 7199SOL    HW222497   2.189   0.437   2.341
 7200SOL     OW22498   2.457   1.867   0.071
 7200SOL    HW122499   2.412   1.884   7.001
 7200SOL    HW222500   2.476   1.954   0.116
 7201SOL     OW22501   1.424   5.712   4.071
 7201SOL    HW122502   1.510   5.669   4.100
 7201SOL    HW222503   1.418   5.711   3.971
 7202SOL     OW22504   4.514   0.703   5.874
 7202SOL    HW122505   4.517   0.688   5.775
 7202SOL    HW222506   4.492   0.617   5.920
 7203SOL     OW22507   0.291   2.281   1.418
 7203SOL    HW122508   0.235   2.353   1.377
 7203SOL    HW222509   0.285   2.287   1.517
 7204SOL     OW22510   6.913   0.061   5.535
 7204SOL    HW122511   6.867   0.134   5.585
 7204SOL    HW222512   6.941   7.006   5.598
 7205SOL     OW22513   0.733   5.469   2.996
 7205SOL    HW122514   0.754   5.387   2.944
 7205SOL    HW222515   0.719   5.445   3.092
 7206SOL     OW22516   1.765   0.591   0.826
 7206SOL    HW122517   1.806   0.681   0.810
 7206SOL    HW222518   1.768   0.570   0.924
 7207SOL     OW22519   3.628   0.098   2.104
 7207SOL    HW122520   3.613   0.002   2.127
 7207SOL    HW222521   3.566   0.125   2.030
 7208SOL     OW22522   4.294   6.452   3.995
 7208SOL    HW122523   4.211   6.508   3.989
 7208SOL    HW222524   4.293   6.400   4.080
 7209SOL     OW22525   3.383   3.757   2.223
 7209SOL    HW122526   3.337   3.784   2.308
 7209SOL    HW222527   3.342   3.672   2.189
 7210SOL     OW22528   4.482   6.802   4.109
 7210SOL    HW122529   4.457   6.898   4.098
 7210SOL    HW222530   4.559   6.795   4.173
 7211SOL     OW22531   2.533   5.670   4.265
 7211SOL    HW122532   2.590   5.588   4.266
 7211SOL    HW222533   2.592   5.750   4.254
 7212SOL     OW22534   0.832   6.613   3.861
 7212SOL    HW122535   0.915   6.570   3.897
 7212SOL    HW222536   0.805   6.689   3.920
 7213SOL     OW22537   6.068   0.157   6.468
 7213SOL    HW122538   6.097   0.099   6.392
 7213SOL    HW222539   6.143   0.168   6.533
 7214SOL     OW22540   1.246   6.323   4.997
 7214SOL    HW122541   1.206   6.330   5.088
 7214SOL    HW222542   1.289   6.410   4.973
 7215SOL     OW22543   0.140   3.117   4.568
 7215SOL    HW122544   0.111   3.086   4.477
 7215SOL    HW222545   0.122   3.045   4.635
 7216SOL     OW22546   2.303   6.039   0.043
 7216SOL    HW122547   2.397   6.029   0.013
 7216SOL    HW222548   2.301   6.063   0.140
 7217SOL     OW22549   2.223   4.054   2.739
 7217SOL    HW122550   2.186   4.099   2.658
 7217SOL    HW222551   2.158   3.984   2.770
 7218SOL     OW22552   4.994   2.493   5.371
 7218SOL    HW122553   4.920   2.510   5.305
 7218SOL    HW222554   5.058   2.569   5.369
 7219SOL     OW22555   4.576   6.207   4.358
 7219SOL    HW122556   4.635   6.284   4.334
 7219SOL    HW222557   4.607   6.167   4.444
 7220SOL     OW22558   0.529   5.855   4.228
 7220SOL    HW122559   0.433   5.883   4.226
 7220SOL    HW222560   0.534   5.756   4.229
 7221SOL     OW22561   4.705   4.823   4.627
 7221SOL    HW122562   4.668   4.915   4.636
 7221SOL    HW222563   4.708   4.779   4.717
 7222SOL     OW22564   6.333   0.349   1.868
 7222SOL    HW122565   6.360   0.406   1.946
 7222SOL    HW222566   6.242   0.311   1.885
 7223SOL     OW22567   2.588   2.000   1.402
 7223SOL    HW122568   2.531   2.066   1.354
 7223SOL    HW222569   2.668   2.046   1.439
 7224SOL     OW22570   5.509   2.119   4.317
 7224SOL    HW122571   5.554   2.194   4.268
 7224SOL    HW222572   5.411   2.139   4.327
 7225SOL     OW22573   0.893   5.973   6.009
 7225SOL    HW122574   0.909   5.875   6.004
 7225SOL    HW222575   0.972   6.019   6.051
 7226SOL     OW22576   0.614   0.771   0.405
 7226SOL    HW122577   0.596   0.843   0.471
 7226SOL    HW222578   0.622   0.683   0.452
 7227SOL     OW22579   0.992   2.185   0.811
 7227SOL    HW122580   0.898   2.191   0.845
 7227SOL    HW222581   0.991   2.143   0.720
 7228SOL     OW22582   0.306   1.081   1.938
 7228SOL    HW122583   0.395   1.076   1.892
 7228SOL    HW222584   0.238   1.030   1.885
 7229SOL     OW22585   0.527   0.037   4.759
 7229SOL    HW122586   0.463   0.027   4.683
 7229SOL    HW222587   0.519   0.129   4.797
 7230SOL     OW22588   5.237   5.338   4.515
 7230SOL    HW122589   5.268   5.394   4.438
 7230SOL    HW222590   5.209   5.397   4.590
 7231SOL     OW22591   4.671   6.504   0.300
 7231SOL    HW122592   4.759   6.550   0.293
 7231SOL    HW222593   4.632   6.494   0.209
 7232SOL     OW22594   4.907   5.210   3.251
 7232SOL    HW122595   4.825   5.187   3.198
 7232SOL    HW222596   4.979   5.240   3.188
 7233SOL     OW22597   0.045   2.362   4.440
 7233SOL    HW122598   6.972   2.385   4.404
 7233SOL    HW222599   0.089   2.444   4.475
 7234SOL     OW22600   5.568   2.854   3.584
 7234SOL    HW122601   5.542   2.827   3.676
 7234SOL    HW222602   5.619   2.940   3.587
 7235SOL     OW22603   6.427   4.245   3.238
 7235SOL    HW122604   6.341   4.199   3.259
 7235SOL    HW222605   6.420   4.290   3.148
 7236SOL     OW22606   2.979   1.817   3.089
 7236SOL    HW122607   3.068   1.844   3.052
 7236SOL    HW222608   2.954   1.727   3.054
 7237SOL     OW22609   6.438   0.100   5.411
 7237SOL    HW122610   6.531   0.091   5.375
 7237SOL    HW222611   6.413   0.017   5.460
 7238SOL     OW22612   2.387   2.166   1.263
 7238SOL    HW122613   2.450   2.204   1.196
 7238SOL    HW222614   2.293   2.177   1.230
 7239SOL     OW22615   2.472   1.352   3.186
 7239SOL    HW122616   2.424   1.403   3.257
 7239SOL    HW222617   2.409   1.334   3.110
 7240SOL     OW22618   2.506   4.359   6.247
 7240SOL    HW122619   2.406   4.355   6.246
 7240SOL    HW222620   2.537   4.432   6.186
 7241SOL     OW22621   3.255   0.547   6.890
 7241SOL    HW122622   3.332   0.491   6.920
 7241SOL    HW222623   3.181   0.488   6.860
 7242SOL     OW22624   6.824   5.671   0.255
 7242SOL    HW122625   6.813   5.760   0.209
 7242SOL    HW222626   6.792   5.598   0.195
 7243SOL     OW22627   0.489   4.581   5.932
 7243SOL    HW122628   0.517   4.540   6.019
 7243SOL    HW222629   0.492   4.511   5.861
 7244SOL     OW22630   4.860   0.661   0.925
 7244SOL    HW122631   4.770   0.667   0.967
 7244SOL    HW222632   4.851   0.652   0.826
 7245SOL     OW22633   0.776   2.021   5.221
 7245SOL    HW122634   0.699   1.971   5.182
 7245SOL    HW222635   0.743   2.105   5.265
 7246SOL     OW22636   5.976   6.809   4.960
 7246SOL    HW122637   5.949   6.731   4.902
 7246SOL    HW222638   5.936   6.798   5.051
 7247SOL     OW22639   3.221   6.538   3.542
 7247SOL    HW122640   3.289   6.531   3.469
 7247SOL    HW222641   3.135   6.574   3.505
 7248SOL     OW22642   3.655   1.152   2.991
 7248SOL    HW122643   3.587   1.090   2.952
 7248SOL    HW222644   3.705   1.104   3.064
 7249SOL     OW22645   5.524   5.117   1.420
 7249SOL    HW122646   5.424   5.111   1.417
 7249SOL    HW222647   5.561   5.037   1.467
 7250SOL     OW22648   3.997   5.476   6.085
 7250SOL    HW122649   3.948   5.557   6.052
 7250SOL    HW222650   4.081   5.505   6.131
 7251SOL     OW22651   0.293   6.414   5.535
 7251SOL    HW122652   0.243   6.347   5.480
 7251SOL    HW222653   0.360   6.461   5.477
 7252SOL     OW22654   3.475   3.365   3.628
 7252SOL    HW122655   3.485   3.316   3.715
 7252SOL    HW222656   3.508   3.307   3.553
 7253SOL     OW22657   2.213   6.924   0.405
 7253SOL    HW122658   2.283   6.869   0.451
 7253SOL    HW222659   2.127   6.873   0.404
 7254SOL     OW22660   4.649   5.558   5.372
 7254SOL    HW122661   4.705   5.530   5.295
 7254SOL    HW222662   4.624   5.477   5.426
 7255SOL     OW22663   3.479   3.728   0.958
 7255SOL    HW122664   3.380   3.732   0.941
 7255SOL    HW222665   3.511   3.634   0.944
 7256SOL     OW22666   5.023   4.894   4.547
 7256SOL    HW122667   4.942   4.849   4.510
 7256SOL    HW222668   5.034   4.984   4.506
 7257SOL     OW22669   4.845   2.991   3.706
 7257SOL    HW122670   4.868   3.003   3.610
 7257SOL    HW222671   4.765   2.932   3.715
 7258SOL     OW22672   3.963   1.449   3.498
 7258SOL    HW122673   3.929   1.385   3.429
 7258SOL    HW222674   3.895   1.459   3.571
 7259SOL     OW22675   3.855   3.912   1.532
 7259SOL    HW122676   3.843   3.979   1.458
 7259SOL    HW222677   3.808   3.827   1.508
 7260SOL     OW22678   3.414   2.076   2.931
 7260SOL    HW122679   3.508   2.080   2.965
 7260SOL    HW222680   3.407   2.009   2.857
 7261SOL     OW22681   2.689   2.774   0.800
 7261SOL    HW122682   2.652   2.761   0.892
 7261SOL    HW222683   2.737   2.691   0.771
 7262SOL     OW22684   5.239   2.082   4.439
 7262SOL    HW122685   5.257   2.000   4.384
 7262SOL    HW222686   5.206   2.155   4.379
 7263SOL     OW22687   0.251   5.946   2.402
 7263SOL    HW122688   0.269   6.014   2.331
 7263SOL    HW222689   0.256   5.989   2.492
 7264SOL     OW22690   6.307   1.440   0.042
 7264SOL    HW122691   6.257   1.417   6.976
 7264SOL    HW222692   6.387   1.381   0.050
 7265SOL     OW22693   5.697   5.372   5.855
 7265SOL    HW122694   5.729   5.356   5.948
 7265SOL    HW222695   5.655   5.462   5.848
 7266SOL     OW22696   4.127   0.532   0.951
 7266SOL    HW122697   4.066   0.582   0.889
 7266SOL    HW222698   4.109   0.560   1.045
 7267SOL     OW22699   0.170   4.931   5.553
 7267SOL    HW122700   0.195   5.028   5.546
 7267SOL    HW222701   0.076   4.919   5.523
 7268SOL     OW22702   4.598   4.921   3.473
 7268SOL    HW122703   4.648   4.839   3.497
 7268SOL    HW222704   4.557   4.961   3.555
 7269SOL     OW22705   6.700   6.086   1.105
 7269SOL    HW122706   6.705   6.009   1.168
 7269SOL    HW222707   6.756   6.161   1.140
 7270SOL     OW22708   1.306   2.563   3.821
 7270SOL    HW122709   1.249   2.522   3.892
 7270SOL    HW222710   1.374   2.624   3.863
 7271SOL     OW22711   6.965   4.888   3.934
 7271SOL    HW122712   6.988   4.803   3.888
 7271SOL    HW222713   6.893   4.871   4.002
 7272SOL     OW22714   5.806   4.351   2.416
 7272SOL    HW122715   5.873   4.329   2.345
 7272SOL    HW222716   5.762   4.267   2.447
 7273SOL     OW22717   5.609   4.515   2.036
 7273SOL    HW122718   5.552   4.434   2.022
 7273SOL    HW222719   5.616   4.534   2.134
 7274SOL     OW22720   0.660   6.698   6.035
 7274SOL    HW122721   0.611   6.713   5.949
 7274SOL    HW222722   0.628   6.613   6.077
 7275SOL     OW22723   6.991   0.907   1.445
 7275SOL    HW122724   7.008   0.978   1.376
 7275SOL    HW222725   6.894   0.905   1.467
 7276SOL     OW22726   3.250   1.478   3.592
 7276SOL    HW122727   3.214   1.417   3.662
 7276SOL    HW222728   3.346   1.456   3.575
 7277SOL     OW22729   5.433   1.023   5.181
 7277SOL    HW122730   5.509   0.960   5.173
 7277SOL    HW222731   5.349   0.972   5.201
 7278SOL     OW22732   3.258   2.145   3.179
 7278SOL    HW122733   3.316   2.166   3.099
 7278SOL    HW222734   3.162   2.161   3.155
 7279SOL     OW22735   4.312   3.686   6.484
 7279SOL    HW122736   4.242   3.630   6.440
 7279SOL    HW222737   4.270   3.769   6.520
 7280SOL     OW22738   6.263   2.237   5.197
 7280SOL    HW122739   6.290   2.244   5.293
 7280SOL    HW222740   6.183   2.294   5.180
 7281SOL     OW22741   2.525   0.219   0.403
 7281SOL    HW122742   2.501   0.315   0.393
 7281SOL    HW222743   2.454   0.163   0.360
 7282SOL     OW22744   6.778   6.447   0.958
 7282SOL    HW122745   6.806   6.508   1.032
 7282SOL    HW222746   6.710   6.383   0.991
 7283SOL     OW22747   2.483   6.442   2.127
 7283SOL    HW122748   2.529   6.482   2.206
 7283SOL    HW222749   2.537   6.365   2.092
 7284SOL     OW22750   6.537   2.829   4.120
 7284SOL    HW122751   6.596   2.757   4.084
 7284SOL    HW222752   6.593   2.896   4.169
 7285SOL     OW22753   5.362   3.626   1.862
 7285SOL    HW122754   5.303   3.602   1.939
 7285SOL    HW222755   5.457   3.609   1.887
 7286SOL     OW22756   0.887   1.160   0.879
 7286SOL    HW122757   0.956   1.108   0.828
 7286SOL    HW222758   0.874   1.250   0.837
 7287SOL     OW22759   6.671   3.080   4.265
 7287SOL    HW122760   6.579   3.110   4.289
 7287SOL    HW222761   6.706   3.138   4.191
 7288SOL     OW22762   1.481   3.047   2.125
 7288SOL    HW122763   1.537   3.022   2.046
 7288SOL    HW222764   1.473   2.969   2.186
 7289SOL     OW22765   6.247   2.750   2.281
 7289SOL    HW122766   6.189   2.696   2.342
 7289SOL    HW222767   6.231   2.847   2.298
 7290SOL     OW22768   3.188   1.185   5.044
 7290SOL    HW122769   3.281   1.215   5.062
 7290SOL    HW222770   3.150   1.238   4.968
 7291SOL     OW22771   3.896   6.825   0.531
 7291SOL    HW122772   3.871   6.834   0.627
 7291SOL    HW222773   3.958   6.900   0.506
 7292SOL     OW22774   1.972   6.952   3.347
 7292SOL    HW122775   1.933   6.861   3.358
 7292SOL    HW222776   2.011   6.960   3.255
 7293SOL     OW22777   1.914   0.963   6.243
 7293SOL    HW122778   1.872   0.891   6.299
 7293SOL    HW222779   2.005   0.984   6.279
 7294SOL     OW22780   2.979   4.495   1.234
 7294SOL    HW122781   2.927   4.453   1.160
 7294SOL    HW222782   3.074   4.464   1.229
 7295SOL     OW22783   6.620   3.922   1.131
 7295SOL    HW122784   6.542   3.928   1.069
 7295SOL    HW222785   6.692   3.985   1.101
 7296SOL     OW22786   4.320   5.127   2.899
 7296SOL    HW122787   4.370   5.041   2.886
 7296SOL    HW222788   4.349   5.193   2.829
 7297SOL     OW22789   2.720   6.973   2.578
 7297SOL    HW122790   2.783   6.898   2.555
 7297SOL    HW222791   2.646   6.976   2.510
 7298SOL     OW22792   5.430   5.209   0.107
 7298SOL    HW122793   5.445   5.272   0.031
 7298SOL    HW222794   5.502   5.223   0.176
 7299SOL     OW22795   0.744   1.383   1.003
 7299SOL    HW122796   0.762   1.407   0.907
 7299SOL    HW222797   0.767   1.288   1.019
 7300SOL     OW22798   1.095   4.953   1.736
 7300SOL    HW122799   1.164   4.883   1.716
 7300SOL    HW222800   1.138   5.027   1.787
 7301SOL     OW22801   6.755   0.828   5.161
 7301SOL    HW122802   6.842   0.820   5.113
 7301SOL    HW222803   6.689   0.765   5.120
 7302SOL     OW22804   6.583   1.616   4.484
 7302SOL    HW122805   6.626   1.579   4.565
 7302SOL    HW222806   6.528   1.545   4.439
 7303SOL     OW22807   3.377   1.035   6.809
 7303SOL    HW122808   3.456   0.987   6.772
 7303SOL    HW222809   3.359   1.003   6.902
 7304SOL     OW22810   2.021   5.300   1.680
 7304SOL    HW122811   2.006   5.377   1.742
 7304SOL    HW222812   2.050   5.220   1.733
 7305SOL     OW22813   5.558   2.396   1.579
 7305SOL    HW122814   5.501   2.404   1.497
 7305SOL    HW222815   5.504   2.421   1.659
 7306SOL     OW22816   3.565   1.735   2.044
 7306SOL    HW122817   3.536   1.828   2.024
 7306SOL    HW222818   3.485   1.674   2.042
 7307SOL     OW22819   3.699   6.628   2.538
 7307SOL    HW122820   3.652   6.686   2.605
 7307SOL    HW222821   3.770   6.574   2.584
 7308SOL     OW22822   0.099   1.493   3.231
 7308SOL    HW122823   0.052   1.488   3.320
 7308SOL    HW222824   0.147   1.581   3.224
 7309SOL     OW22825   2.256   6.181   2.253
 7309SOL    HW122826   2.168   6.140   2.231
 7309SOL    HW222827   2.258   6.276   2.221
 7310SOL     OW22828   1.456   3.543   5.884
 7310SOL    HW122829   1.546   3.512   5.917
 7310SOL    HW222830   1.461   3.640   5.861
 7311SOL     OW22831   1.214   0.413   0.421
 7311SOL    HW122832   1.254   0.360   0.496
 7311SOL    HW222833   1.259   0.389   0.335
 7312SOL     OW22834   0.747   1.429   4.718
 7312SOL    HW122835   0.782   1.342   4.682
 7312SOL    HW222836   0.707   1.483   4.644
 7313SOL     OW22837   2.630   1.596   0.794
 7313SOL    HW122838   2.540   1.577   0.754
 7313SOL    HW222839   2.625   1.585   0.893
 7314SOL     OW22840   0.153   3.354   6.524
 7314SOL    HW122841   0.166   3.451   6.508
 7314SOL    HW222842   0.240   3.306   6.516
 7315SOL     OW22843   6.043   5.511   2.470
 7315SOL    HW122844   6.078   5.600   2.500
 7315SOL    HW222845   6.028   5.452   2.549
 7316SOL     OW22846   3.268   2.096   6.169
 7316SOL    HW122847   3.280   2.140   6.258
 7316SOL    HW222848   3.270   2.166   6.097
 7317SOL     OW22849   3.660   1.328   2.180
 7317SOL    HW122850   3.564   1.303   2.168
 7317SOL    HW222851   3.704   1.338   2.091
 7318SOL     OW22852   3.311   6.628   2.168
 7318SOL    HW122853   3.320   6.681   2.253
 7318SOL    HW222854   3.375   6.552   2.169
 7319SOL     OW22855   6.215   3.074   6.384
 7319SOL    HW122856   6.216   3.029   6.295
 7319SOL    HW222857   6.176   3.166   6.375
 7320SOL     OW22858   0.035   3.851   0.605
 7320SOL    HW122859   0.028   3.948   0.628
 7320SOL    HW222860   6.986   3.799   0.658
 7321SOL     OW22861   1.793   6.326   6.147
 7321SOL    HW122862   1.854   6.247   6.158
 7321SOL    HW222863   1.710   6.297   6.099
 7322SOL     OW22864   0.328   3.207   3.193
 7322SOL    HW122865   0.268   3.284   3.215
 7322SOL    HW222866   0.414   3.242   3.154
 7323SOL     OW22867   2.834   1.783   1.101
 7323SOL    HW122868   2.818   1.876   1.070
 7323SOL    HW222869   2.800   1.772   1.194
 7324SOL     OW22870   6.149   4.608   2.613
 7324SOL    HW122871   6.178   4.529   2.558
 7324SOL    HW222872   6.229   4.648   2.658
 7325SOL     OW22873   2.765   0.471   5.633
 7325SOL    HW122874   2.693   0.517   5.684
 7325SOL    HW222875   2.854   0.511   5.657
 7326SOL     OW22876   4.375   0.657   6.516
 7326SOL    HW122877   4.458   0.674   6.570
 7326SOL    HW222878   4.366   0.726   6.445
 7327SOL     OW22879   5.822   3.591   3.899
 7327SOL    HW122880   5.756   3.591   3.974
 7327SOL    HW222881   5.877   3.674   3.902
 7328SOL     OW22882   4.172   6.266   6.000
 7328SOL    HW122883   4.119   6.183   6.018
 7328SOL    HW222884   4.270   6.244   5.998
 7329SOL     OW22885   0.884   2.491   6.889
 7329SOL    HW122886   0.835   2.511   6.804
 7329SOL    HW222887   0.828   2.432   6.947
 7330SOL     OW22888   3.038   2.827   1.308
 7330SOL    HW122889   3.104   2.771   1.258
 7330SOL    HW222890   3.086   2.881   1.377
 7331SOL     OW22891   4.607   0.153   2.105
 7331SOL    HW122892   4.531   0.187   2.160
 7331SOL    HW222893   4.649   0.074   2.151
 7332SOL     OW22894   4.066   4.561   6.913
 7332SOL    HW122895   3.975   4.527   6.934
 7332SOL    HW222896   4.085   4.549   6.816
 7333SOL     OW22897   6.247   3.249   3.276
 7333SOL    HW122898   6.160   3.269   3.322
 7333SOL    HW222899   6.250   3.152   3.251
 7334SOL     OW22900   2.842   5.877   5.857
 7334SOL    HW122901   2.766   5.885   5.793
 7334SOL    HW222902   2.879   5.784   5.854
 7335SOL     OW22903   0.293   3.356   2.879
 7335SOL    HW122904   0.342   3.272   2.858
 7335SOL    HW222905   0.293   3.416   2.799
 7336SOL     OW22906   2.529   6.414   1.294
 7336SOL    HW122907   2.617   6.392   1.337
 7336SOL    HW222908   2.467   6.454   1.363
 7337SOL     OW22909   3.124   3.007   1.499
 7337SOL    HW122910   3.193   3.063   1.545
 7337SOL    HW222911   3.057   2.975   1.565
 7338SOL     OW22912   6.298   2.261   1.725
 7338SOL    HW122913   6.397   2.249   1.717
 7338SOL    HW222914   6.270   2.340   1.669
 7339SOL     OW22915   0.239   6.574   5.741
 7339SOL    HW122916   0.223   6.664   5.701
 7339SOL    HW222917   0.250   6.506   5.668
 7340SOL     OW22918   4.100   1.777   6.795
 7340SOL    HW122919   4.044   1.839   6.740
 7340SOL    HW222920   4.060   1.686   6.793
 7341SOL     OW22921   1.670   5.469   5.017
 7341SOL    HW122922   1.655   5.412   5.098
 7341SOL    HW222923   1.631   5.425   4.937
 7342SOL     OW22924   6.500   6.950   0.635
 7342SOL    HW122925   6.592   6.959   0.598
 7342SOL    HW222926   6.504   6.951   0.735
 7343SOL     OW22927   5.556   3.156   2.339
 7343SOL    HW122928   5.571   3.168   2.438
 7343SOL    HW222929   5.623   3.090   2.303
 7344SOL     OW22930   1.836   6.950   6.294
 7344SOL    HW122931   1.819   7.008   6.214
 7344SOL    HW222932   1.790   6.989   6.373
 7345SOL     OW22933   4.537   5.247   5.737
 7345SOL    HW122934   4.551   5.149   5.749
 7345SOL    HW222935   4.447   5.272   5.775
 7346SOL     OW22936   4.130   3.988   1.199
 7346SOL    HW122937   4.178   4.074   1.217
 7346SOL    HW222938   4.088   3.992   1.108
 7347SOL     OW22939   6.846   2.553   1.876
 7347SOL    HW122940   6.918   2.545   1.945
 7347SOL    HW222941   6.758   2.562   1.922
 7348SOL     OW22942   1.545   4.026   3.666
 7348SOL    HW122943   1.584   4.086   3.737
 7348SOL    HW222944   1.446   4.031   3.669
 7349SOL     OW22945   3.651   1.751   1.640
 7349SOL    HW122946   3.589   1.816   1.684
 7349SOL    HW222947   3.599   1.671   1.609
 7350SOL     OW22948   0.532   3.295   3.797
 7350SOL    HW122949   0.561   3.272   3.705
 7350SOL    HW222950   0.559   3.222   3.860
 7351SOL     OW22951   4.189   5.086   6.694
 7351SOL    HW122952   4.264   5.152   6.690
 7351SOL    HW222953   4.183   5.047   6.786
 7352SOL     OW22954   1.719   2.259   3.518
 7352SOL    HW122955   1.660   2.334   3.545
 7352SOL    HW222956   1.737   2.265   3.419
 7353SOL     OW22957   0.758   1.287   5.221
 7353SOL    HW122958   0.805   1.229   5.154
 7353SOL    HW222959   0.697   1.230   5.277
 7354SOL     OW22960   0.407   0.972   6.597
 7354SOL    HW122961   0.468   0.996   6.673
 7354SOL    HW222962   0.460   0.928   6.525
 7355SOL     OW22963   1.853   6.415   0.211
 7355SOL    HW122964   1.895   6.454   0.129
 7355SOL    HW222965   1.894   6.456   0.293
 7356SOL     OW22966   5.181   2.626   6.550
 7356SOL    HW122967   5.216   2.580   6.632
 7356SOL    HW222968   5.254   2.682   6.511
 7357SOL     OW22969   4.245   0.995   1.340
 7357SOL    HW122970   4.156   0.954   1.359
 7357SOL    HW222971   4.294   0.939   1.272
 7358SOL     OW22972   2.377   2.286   2.540
 7358SOL    HW122973   2.295   2.319   2.494
 7358SOL    HW222974   2.453   2.285   2.476
 7359SOL     OW22975   3.627   2.296   1.078
 7359SOL    HW122976   3.718   2.329   1.105
 7359SOL    HW222977   3.568   2.374   1.058
 7360SOL     OW22978   2.659   2.011   5.196
 7360SOL    HW122979   2.613   2.081   5.142
 7360SOL    HW222980   2.595   1.937   5.215
 7361SOL     OW22981   4.736   6.166   2.013
 7361SOL    HW122982   4.728   6.245   1.952
 7361SOL    HW222983   4.832   6.152   2.036
 7362SOL     OW22984   0.331   6.552   4.642
 7362SOL    HW122985   0.403   6.540   4.709
 7362SOL    HW222986   0.342   6.640   4.596
 7363SOL     OW22987   4.195   1.981   0.341
 7363SOL    HW122988   4.222   2.072   0.372
 7363SOL    HW222989   4.276   1.922   0.335
 7364SOL     OW22990   4.056   6.916   1.422
 7364SOL    HW122991   4.110   6.987   1.468
 7364SOL    HW222992   4.082   6.912   1.325
 7365SOL     OW22993   1.401   5.875   2.161
 7365SOL    HW122994   1.345   5.876   2.244
 7365SOL    HW222995   1.493   5.907   2.182
 7366SOL     OW22996   1.118   5.064   0.553
 7366SOL    HW122997   1.034   5.104   0.591
 7366SOL    HW222998   1.193   5.077   0.618
 7367SOL     OW22999   4.249   3.533   1.205
 7367SOL    HW123000   4.187   3.454   1.196
 7367SOL    HW223001   4.212   3.596   1.274
 7368SOL     OW23002   3.307   2.904   3.934
 7368SOL    HW123003   3.223   2.953   3.910
 7368SOL    HW223004   3.284   2.827   3.993
 7369SOL     OW23005   5.084   3.163   0.731
 7369SOL    HW123006   5.103   3.260   0.717
 7369SOL    HW223007   5.043   3.125   0.648
 7370SOL     OW23008   2.108   0.693   5.875
 7370SOL    HW123009   2.204   0.724   5.875
 7370SOL    HW223010   2.050   0.765   5.913
 7371SOL     OW23011   3.022   5.533   4.224
 7371SOL    HW123012   3.017   5.607   4.290
 7371SOL    HW223013   3.062   5.452   4.268
 7372SOL     OW23014   3.254   0.450   5.546
 7372SOL    HW123015   3.275   0.525   5.483
 7372SOL    HW223016   3.339   0.414   5.585
 7373SOL     OW23017   4.612   1.641   3.522
 7373SOL    HW123018   4.539   1.574   3.516
 7373SOL    HW223019   4.581   1.728   3.484
 7374SOL     OW23020   2.586   2.486   5.253
 7374SOL    HW123021   2.638   2.548   5.311
 7374SOL    HW223022   2.642   2.455   5.177
 7375SOL     OW23023   1.779   2.447   3.888
 7375SOL    HW123024   1.699   2.428   3.944
 7375SOL    HW223025   1.789   2.376   3.818
 7376SOL     OW23026   3.645   2.106   0.323
 7376SOL    HW123027   3.576   2.033   0.322
 7376SOL    HW223028   3.652   2.146   0.231
 7377SOL     OW23029   4.388   5.990   1.701
 7377SOL    HW123030   4.311   6.016   1.759
 7377SOL    HW223031   4.383   6.042   1.615
 7378SOL     OW23032   0.118   2.237   4.211
 7378SOL    HW123033   0.068   2.268   4.292
 7378SOL    HW223034   0.191   2.302   4.190
 7379SOL     OW23035   4.324   1.684   3.224
 7379SOL    HW123036   4.258   1.639   3.283
 7379SOL    HW223037   4.351   1.771   3.265
 7380SOL     OW23038   0.027   3.104   5.490
 7380SOL    HW123039   0.008   3.145   5.401
 7380SOL    HW223040   0.084   3.022   5.477
 7381SOL     OW23041   4.895   3.185   2.549
 7381SOL    HW123042   4.964   3.241   2.503
 7381SOL    HW223043   4.840   3.137   2.482
 7382SOL     OW23044   0.007   5.367   5.541
 7382SOL    HW123045   0.056   5.355   5.455
 7382SOL    HW223046   6.962   5.291   5.554
 7383SOL     OW23047   0.332   6.808   2.512
 7383SOL    HW123048   0.303   6.765   2.426
 7383SOL    HW223049   0.252   6.826   2.569
 7384SOL     OW23050   5.046   0.844   2.001
 7384SOL    HW123051   5.025   0.752   1.968
 7384SOL    HW223052   4.995   0.861   2.085
 7385SOL     OW23053   3.786   6.512   2.268
 7385SOL    HW123054   3.737   6.556   2.343
 7385SOL    HW223055   3.879   6.489   2.298
 7386SOL     OW23056   0.476   2.793   5.392
 7386SOL    HW123057   0.569   2.828   5.380
 7386SOL    HW223058   0.469   2.702   5.351
 7387SOL     OW23059   4.260   6.856   4.838
 7387SOL    HW123060   4.184   6.885   4.780
 7387SOL    HW223061   4.236   6.772   4.885
 7388SOL     OW23062   6.890   6.068   3.765
 7388SOL    HW123063   6.904   5.973   3.736
 7388SOL    HW223064   6.894   6.127   3.685
 7389SOL     OW23065   0.831   4.824   6.476
 7389SOL    HW123066   0.867   4.818   6.569
 7389SOL    HW223067   0.738   4.788   6.474
 7390SOL     OW23068   1.667   1.642   6.627
 7390SOL    HW123069   1.626   1.554   6.604
 7390SOL    HW223070   1.602   1.696   6.681
 7391SOL     OW23071   4.676   4.434   5.180
 7391SOL    HW123072   4.650   4.426   5.084
 7391SOL    HW223073   4.743   4.508   5.190
 7392SOL     OW23074   2.656   5.982   6.406
 7392SOL    HW123075   2.718   6.050   6.369
 7392SOL    HW223076   2.588   5.957   6.337
 7393SOL     OW23077   6.024   5.519   1.600
 7393SOL    HW123078   6.037   5.619   1.604
 7393SOL    HW223079   6.084   5.481   1.530
 7394SOL     OW23080   3.023   2.429   6.031
 7394SOL    HW123081   2.964   2.404   5.954
 7394SOL    HW223082   2.987   2.388   6.115
 7395SOL     OW23083   1.411   1.125   6.956
 7395SOL    HW123084   1.451   1.101   0.028
 7395SOL    HW223085   1.421   1.223   6.941
 7396SOL     OW23086   1.197   1.013   6.797
 7396SOL    HW123087   1.246   0.952   6.735
 7396SOL    HW223088   1.262   1.062   6.855
 7397SOL     OW23089   5.417   5.158   4.611
 7397SOL    HW123090   5.370   5.070   4.623
 7397SOL    HW223091   5.354   5.222   4.567
 7398SOL     OW23092   3.168   4.835   4.142
 7398SOL    HW123093   3.069   4.847   4.157
 7398SOL    HW223094   3.184   4.814   4.045
 7399SOL     OW23095   0.366   3.608   5.303
 7399SOL    HW123096   0.456   3.645   5.328
 7399SOL    HW223097   0.303   3.619   5.380
 7400SOL     OW23098   3.014   3.870   6.724
 7400SOL    HW123099   3.086   3.931   6.690
 7400SOL    HW223100   2.930   3.887   6.671
 7401SOL     OW23101   0.686   1.560   3.484
 7401SOL    HW123102   0.666   1.511   3.569
 7401SOL    HW223103   0.775   1.531   3.449
 7402SOL     OW23104   1.655   6.421   4.263
 7402SOL    HW123105   1.675   6.476   4.344
 7402SOL    HW223106   1.739   6.380   4.229
 7403SOL     OW23107   1.665   3.300   2.761
 7403SOL    HW123108   1.593   3.351   2.809
 7403SOL    HW223109   1.624   3.246   2.688
 7404SOL     OW23110   2.045   5.994   1.649
 7404SOL    HW123111   1.996   5.907   1.645
 7404SOL    HW223112   2.144   5.978   1.646
 7405SOL     OW23113   1.686   5.098   4.687
 7405SOL    HW123114   1.751   5.057   4.623
 7405SOL    HW223115   1.673   5.195   4.664
 7406SOL     OW23116   1.639   3.974   2.298
 7406SOL    HW123117   1.572   3.948   2.229
 7406SOL    HW223118   1.604   4.051   2.352
 7407SOL     OW23119   0.101   6.155   4.588
 7407SOL    HW123120   0.046   6.091   4.534
 7407SOL    HW223121   0.114   6.240   4.537
 7408SOL     OW23122   1.113   4.026   5.466
 7408SOL    HW123123   1.128   4.121   5.493
 7408SOL    HW223124   1.176   3.966   5.517
 7409SOL     OW23125   0.300   0.511   4.327
 7409SOL    HW123126   0.246   0.429   4.345
 7409SOL    HW223127   0.310   0.523   4.228
 7410SOL     OW23128   6.832   4.544   0.882
 7410SOL    HW123129   6.835   4.570   0.979
 7410SOL    HW223130   6.768   4.605   0.834
 7411SOL     OW23131   3.301   6.319   4.606
 7411SOL    HW123132   3.298   6.382   4.683
 7411SOL    HW223133   3.354   6.360   4.532
 7412SOL     OW23134   3.961   1.201   1.716
 7412SOL    HW123135   3.952   1.290   1.761
 7412SOL    HW223136   4.048   1.159   1.742
 7413SOL     OW23137   6.852   5.370   4.242
 7413SOL    HW123138   6.937   5.318   4.250
 7413SOL    HW223139   6.805   5.344   4.158
 7414SOL     OW23140   0.105   0.145   2.938
 7414SOL    HW123141   0.187   0.139   2.881
 7414SOL    HW223142   0.063   0.235   2.927
 7415SOL     OW23143   0.539   4.062   3.228
 7415SOL    HW123144   0.506   4.138   3.173
 7415SOL    HW223145   0.581   3.993   3.169
 7416SOL     OW23146   3.208   0.373   4.182
 7416SOL    HW123147   3.165   0.458   4.212
 7416SOL    HW223148   3.177   0.298   4.239
 7417SOL     OW23149   1.404   0.089   6.565
 7417SOL    HW123150   1.311   0.117   6.539
 7417SOL    HW223151   1.460   0.171   6.580
 7418SOL     OW23152   4.505   4.826   1.127
 7418SOL    HW123153   4.447   4.845   1.206
 7418SOL    HW223154   4.462   4.756   1.070
 7419SOL     OW23155   6.400   2.523   4.576
 7419SOL    HW123156   6.420   2.574   4.660
 7419SOL    HW223157   6.363   2.586   4.508
 7420SOL     OW23158   6.337   6.337   2.371
 7420SOL    HW123159   6.335   6.270   2.445
 7420SOL    HW223160   6.329   6.429   2.410
 7421SOL     OW23161   3.404   3.351   1.941
 7421SOL    HW123162   3.319   3.357   1.993
 7421SOL    HW223163   3.431   3.255   1.931
 7422SOL     OW23164   7.006   3.406   2.277
 7422SOL    HW123165   0.045   3.488   2.279
 7422SOL    HW223166   6.968   3.394   2.185
 7423SOL     OW23167   6.743   3.590   6.287
 7423SOL    HW123168   6.837   3.562   6.267
 7423SOL    HW223169   6.739   3.631   6.378
 7424SOL     OW23170   6.330   1.036   4.143
 7424SOL    HW123171   6.379   1.123   4.142
 7424SOL    HW223172   6.266   1.032   4.066
 7425SOL     OW23173   4.522   5.135   6.368
 7425SOL    HW123174   4.532   5.220   6.421
 7425SOL    HW223175   4.457   5.075   6.413
 7426SOL     OW23176   1.225   2.257   6.735
 7426SOL    HW123177   1.209   2.318   6.657
 7426SOL    HW223178   1.323   2.250   6.752
 7427SOL     OW23179   2.840   5.711   4.384
 7427SOL    HW123180   2.930   5.744   4.414
 7427SOL    HW223181   2.784   5.689   4.464
 7428SOL     OW23182   3.323   1.474   5.111
 7428SOL    HW123183   3.318   1.480   5.210
 7428SOL    HW223184   3.367   1.388   5.084
 7429SOL     OW23185   5.416   0.773   3.625
 7429SOL    HW123186   5.461   0.766   3.537
 7429SOL    HW223187   5.432   0.864   3.664
 7430SOL     OW23188   6.918   4.461   6.110
 7430SOL    HW123189   6.967   4.384   6.151
 7430SOL    HW223190   6.823   4.435   6.093
 7431SOL     OW23191   0.455   3.614   1.925
 7431SOL    HW123192   0.364   3.581   1.951
 7431SOL    HW223193   0.505   3.541   1.879
 7432SOL     OW23194   0.090   6.869   2.653
 7432SOL    HW123195   0.049   6.938   2.593
 7432SOL    HW223196   0.026   6.847   2.726
 7433SOL     OW23197   6.757   5.708   0.744
 7433SOL    HW123198   6.754   5.785   0.808
 7433SOL    HW223199   6.851   5.691   0.716
 7434SOL     OW23200   4.170   1.246   6.245
 7434SOL    HW123201   4.161   1.314   6.318
 7434SOL    HW223202   4.195   1.291   6.159
 7435SOL     OW23203   3.623   6.269   6.608
 7435SOL    HW123204   3.526   6.259   6.587
 7435SOL    HW223205   3.634   6.310   6.698
 7436SOL     OW23206   5.809   3.434   6.550
 7436SOL    HW123207   5.893   3.405   6.597
 7436SOL    HW223208   5.779   3.362   6.488
 7437SOL     OW23209   6.995   6.055   6.895
 7437SOL    HW123210   0.051   5.993   6.921
 7437SOL    HW223211   0.017   6.142   6.865
 7438SOL     OW23212   1.149   4.811   0.483
 7438SOL    HW123213   1.135   4.904   0.516
 7438SOL    HW223214   1.107   4.801   0.393
 7439SOL     OW23215   1.724   6.556   4.479
 7439SOL    HW123216   1.760   6.473   4.521
 7439SOL    HW223217   1.652   6.594   4.537
 7440SOL     OW23218   0.958   3.064   4.414
 7440SOL    HW123219   0.979   3.062   4.512
 7440SOL    HW223220   0.868   3.024   4.398
 7441SOL     OW23221   5.681   5.897   4.728
 7441SOL    HW123222   5.691   5.972   4.663
 7441SOL    HW223223   5.605   5.838   4.700
 7442SOL     OW23224   1.333   0.974   6.194
 7442SOL    HW123225   1.304   0.987   6.099
 7442SOL    HW223226   1.290   0.891   6.231
 7443SOL     OW23227   0.370   1.206   1.264
 7443SOL    HW123228   0.348   1.245   1.353
 7443SOL    HW223229   0.346   1.108   1.263
 7444SOL     OW23230   6.677   3.648   5.074
 7444SOL    HW123231   6.579   3.638   5.057
 7444SOL    HW223232   6.712   3.564   5.115
 7445SOL     OW23233   3.488   0.872   1.345
 7445SOL    HW123234   3.561   0.935   1.322
 7445SOL    HW223235   3.433   0.911   1.419
 7446SOL     OW23236   5.666   4.453   0.298
 7446SOL    HW123237   5.676   4.404   0.385
 7446SOL    HW223238   5.739   4.521   0.290
 7447SOL     OW23239   1.709   3.347   5.627
 7447SOL    HW123240   1.683   3.443   5.627
 7447SOL    HW223241   1.781   3.332   5.695
 7448SOL     OW23242   5.181   6.464   5.686
 7448SOL    HW123243   5.202   6.404   5.609
 7448SOL    HW223244   5.092   6.506   5.672
 7449SOL     OW23245   5.303   3.017   2.295
 7449SOL    HW123246   5.303   2.952   2.219
 7449SOL    HW223247   5.389   3.068   2.296
 7450SOL     OW23248   5.037   2.102   4.052
 7450SOL    HW123249   5.091   2.023   4.026
 7450SOL    HW223250   5.007   2.151   3.970
 7451SOL     OW23251   2.416   0.278   3.285
 7451SOL    HW123252   2.394   0.189   3.246
 7451SOL    HW223253   2.475   0.266   3.365
 7452SOL     OW23254   0.837   6.700   4.656
 7452SOL    HW123255   0.790   6.783   4.626
 7452SOL    HW223256   0.800   6.621   4.606
 7453SOL     OW23257   5.083   5.421   6.443
 7453SOL    HW123258   5.170   5.375   6.464
 7453SOL    HW223259   5.057   5.400   6.348
 7454SOL     OW23260   1.173   2.971   2.134
 7454SOL    HW123261   1.179   3.061   2.177
 7454SOL    HW223262   1.254   2.917   2.156
 7455SOL     OW23263   6.874   1.200   1.766
 7455SOL    HW123264   6.891   1.183   1.669
 7455SOL    HW223265   6.891   1.115   1.818
 7456SOL     OW23266   0.703   2.119   4.506
 7456SOL    HW123267   0.729   2.032   4.465
 7456SOL    HW223268   0.786   2.169   4.533
 7457SOL     OW23269   3.632   0.665   5.902
 7457SOL    HW123270   3.619   0.657   5.803
 7457SOL    HW223271   3.611   0.577   5.945
 7458SOL     OW23272   1.544   0.345   6.528
 7458SOL    HW123273   1.540   0.445   6.522
 7458SOL    HW223274   1.539   0.306   6.436
 7459SOL     OW23275   4.561   0.119   0.288
 7459SOL    HW123276   4.558   0.208   0.243
 7459SOL    HW223277   4.653   0.102   0.325
 7460SOL     OW23278   1.481   4.240   1.014
 7460SOL    HW123279   1.474   4.310   0.943
 7460SOL    HW223280   1.450   4.152   0.978
 7461SOL     OW23281   5.311   1.540   6.112
 7461SOL    HW123282   5.405   1.550   6.079
 7461SOL    HW223283   5.293   1.444   6.130
 7462SOL     OW23284   2.262   2.839   2.210
 7462SOL    HW123285   2.264   2.859   2.112
 7462SOL    HW223286   2.322   2.762   2.230
 7463SOL     OW23287   3.425   4.315   1.369
 7463SOL    HW123288   3.479   4.235   1.346
 7463SOL    HW223289   3.486   4.390   1.396
 7464SOL     OW23290   3.390   6.876   6.538
 7464SOL    HW123291   3.316   6.920   6.588
 7464SOL    HW223292   3.478   6.912   6.570
 7465SOL     OW23293   1.820   0.372   0.282
 7465SOL    HW123294   1.830   0.277   0.309
 7465SOL    HW223295   1.831   0.381   0.183
 7466SOL     OW23296   1.043   0.376   6.994
 7466SOL    HW123297   1.061   0.318   6.915
 7466SOL    HW223298   0.987   0.454   6.967
 7467SOL     OW23299   6.851   1.464   0.600
 7467SOL    HW123300   6.767   1.518   0.595
 7467SOL    HW223301   6.828   1.367   0.595
 7468SOL     OW23302   5.466   3.188   2.752
 7468SOL    HW123303   5.400   3.136   2.805
 7468SOL    HW223304   5.521   3.126   2.695
 7469SOL     OW23305   0.735   0.142   0.485
 7469SOL    HW123306   0.742   0.099   0.395
 7469SOL    HW223307   0.644   0.126   0.523
 7470SOL     OW23308   0.260   3.266   3.857
 7470SOL    HW123309   0.357   3.285   3.842
 7470SOL    HW223310   0.227   3.201   3.789
 7471SOL     OW23311   5.878   6.608   5.150
 7471SOL    HW123312   5.783   6.636   5.162
 7471SOL    HW223313   5.882   6.527   5.093
 7472SOL     OW23314   5.836   6.486   4.383
 7472SOL    HW123315   5.885   6.399   4.376
 7472SOL    HW223316   5.895   6.560   4.353
 7473SOL     OW23317   0.601   4.121   2.816
 7473SOL    HW123318   0.696   4.106   2.844
 7473SOL    HW223319   0.550   4.162   2.892
 7474SOL     OW23320   2.326   1.512   4.706
 7474SOL    HW123321   2.254   1.576   4.679
 7474SOL    HW223322   2.354   1.532   4.800
 7475SOL     OW23323   3.431   1.829   2.776
 7475SOL    HW123324   3.453   1.746   2.828
 7475SOL    HW223325   3.516   1.869   2.741
 7476SOL     OW23326   3.444   6.167   4.243
 7476SOL    HW123327   3.430   6.084   4.297
 7476SOL    HW223328   3.456   6.245   4.304
 7477SOL     OW23329   5.847   1.407   4.036
 7477SOL    HW123330   5.755   1.421   4.000
 7477SOL    HW223331   5.858   1.312   4.064
 7478SOL     OW23332   4.107   4.803   6.593
 7478SOL    HW123333   4.181   4.854   6.636
 7478SOL    HW223334   4.066   4.859   6.520
 7479SOL     OW23335   4.267   2.478   0.803
 7479SOL    HW123336   4.169   2.460   0.815
 7479SOL    HW223337   4.281   2.527   0.717
 7480SOL     OW23338   6.699   4.439   1.674
 7480SOL    HW123339   6.703   4.343   1.700
 7480SOL    HW223340   6.763   4.492   1.730
 7481SOL     OW23341   5.745   4.991   1.790
 7481SOL    HW123342   5.842   5.013   1.777
 7481SOL    HW223343   5.708   5.046   1.865
 7482SOL     OW23344   5.088   1.503   2.584
 7482SOL    HW123345   5.161   1.571   2.587
 7482SOL    HW223346   5.116   1.422   2.636
 7483SOL     OW23347   4.377   2.182   5.033
 7483SOL    HW123348   4.445   2.133   5.087
 7483SOL    HW223349   4.394   2.166   4.935
 7484SOL     OW23350   0.368   0.388   2.532
 7484SOL    HW123351   0.435   0.322   2.499
 7484SOL    HW223352   0.281   0.342   2.549
 7485SOL     OW23353   3.150   5.991   4.928
 7485SOL    HW123354   3.195   6.026   4.846
 7485SOL    HW223355   3.055   6.022   4.930
 7486SOL     OW23356   2.453   0.437   6.231
 7486SOL    HW123357   2.552   0.435   6.248
 7486SOL    HW223358   2.434   0.402   6.139
 7487SOL     OW23359   2.530   6.041   2.148
 7487SOL    HW123360   2.436   6.050   2.178
 7487SOL    HW223361   2.545   6.098   2.067
 7488SOL     OW23362   1.947   6.921   4.803
 7488SOL    HW123363   1.908   6.917   4.711
 7488SOL    HW223364   1.921   6.838   4.853
 7489SOL     OW23365   5.779   2.122   4.952
 7489SOL    HW123366   5.810   2.056   5.021
 7489SOL    HW223367   5.685   2.150   4.973
 7490SOL     OW23368   0.935   1.417   1.208
 7490SOL    HW123369   0.887   1.443   1.125
 7490SOL    HW223370   0.951   1.498   1.264
 7491SOL     OW23371   6.744   4.016   0.084
 7491SOL    HW123372   6.657   4.016   0.133
 7491SOL    HW223373   6.741   4.084   0.010
 7492SOL     OW23374   3.058   1.099   4.635
 7492SOL    HW123375   2.995   1.046   4.692
 7492SOL    HW223376   3.148   1.056   4.636
 7493SOL     OW23377   0.204   4.701   6.656
 7493SOL    HW123378   0.227   4.766   6.584
 7493SOL    HW223379   0.106   4.707   6.676
 7494SOL     OW23380   6.094   1.199   2.270
 7494SOL    HW123381   6.175   1.142   2.286
 7494SOL    HW223382   6.019   1.141   2.239
 7495SOL     OW23383   2.660   1.065   1.300
 7495SOL    HW123384   2.713   1.138   1.344
 7495SOL    HW223385   2.563   1.088   1.303
 7496SOL     OW23386   0.681   3.577   6.429
 7496SOL    HW123387   0.628   3.509   6.378
 7496SOL    HW223388   0.778   3.570   6.405
 7497SOL     OW23389   2.482   4.419   0.669
 7497SOL    HW123390   2.460   4.323   0.653
 7497SOL    HW223391   2.576   4.426   0.702
 7498SOL     OW23392   2.037   1.516   4.945
 7498SOL    HW123393   2.046   1.511   4.846
 7498SOL    HW223394   2.013   1.609   4.972
 7499SOL     OW23395   5.407   1.008   3.366
 7499SOL    HW123396   5.433   1.015   3.462
 7499SOL    HW223397   5.330   1.070   3.347
 7500SOL     OW23398   3.957   6.014   4.061
 7500SOL    HW123399   3.915   6.059   3.982
 7500SOL    HW223400   3.889   6.000   4.132
 7501SOL     OW23401   6.803   4.471   4.376
 7501SOL    HW123402   6.772   4.547   4.319
 7501SOL    HW223403   6.726   4.440   4.433
 7502SOL     OW23404   1.242   0.570   5.158
 7502SOL    HW123405   1.232   0.631   5.080
 7502SOL    HW223406   1.156   0.567   5.210
 7503SOL     OW23407   1.846   1.041   0.298
 7503SOL    HW123408   1.792   0.958   0.313
 7503SOL    HW223409   1.796   1.120   0.333
 7504SOL     OW23410   2.759   0.680   3.855
 7504SOL    HW123411   2.781   0.641   3.765
 7504SOL    HW223412   2.674   0.733   3.848
 7505SOL     OW23413   2.254   1.048   5.631
 7505SOL    HW123414   2.214   1.037   5.540
 7505SOL    HW223415   2.353   1.058   5.624
 7506SOL     OW23416   4.368   6.897   3.159
 7506SOL    HW123417   4.334   6.987   3.131
 7506SOL    HW223418   4.376   6.895   3.259
 7507SOL     OW23419   0.885   0.567   1.126
 7507SOL    HW123420   0.900   0.664   1.148
 7507SOL    HW223421   0.878   0.514   1.211
 7508SOL     OW23422   6.719   6.685   1.816
 7508SOL    HW123423   6.633   6.654   1.777
 7508SOL    HW223424   6.778   6.606   1.834
 7509SOL     OW23425   5.655   3.929   1.217
 7509SOL    HW123426   5.665   3.869   1.296
 7509SOL    HW223427   5.577   3.991   1.232
 7510SOL     OW23428   2.896   4.579   5.421
 7510SOL    HW123429   2.914   4.550   5.327
 7510SOL    HW223430   2.894   4.498   5.480
 7511SOL     OW23431   1.335   0.015   3.449
 7511SOL    HW123432   1.323   6.946   3.400
 7511SOL    HW223433   1.252   0.037   3.501
 7512SOL     OW23434   3.399   4.400   0.691
 7512SOL    HW123435   3.471   4.331   0.681
 7512SOL    HW223436   3.311   4.359   0.665
 7513SOL     OW23437   1.859   1.792   1.503
 7513SOL    HW123438   1.792   1.726   1.469
 7513SOL    HW223439   1.812   1.863   1.555
 7514SOL     OW23440   2.493   5.196   1.879
 7514SOL    HW123441   2.441   5.137   1.817
 7514SOL    HW223442   2.451   5.287   1.882
 7515SOL     OW23443   1.052   5.860   2.609
 7515SOL    HW123444   0.980   5.901   2.552
 7515SOL    HW223445   1.071   5.768   2.576
 7516SOL     OW23446   6.663   6.385   4.294
 7516SOL    HW123447   6.709   6.413   4.378
 7516SOL    HW223448   6.653   6.285   4.293
 7517SOL     OW23449   0.267   2.816   1.018
 7517SOL    HW123450   0.302   2.797   1.110
 7517SOL    HW223451   0.343   2.837   0.957
 7518SOL     OW23452   4.083   5.418   3.641
 7518SOL    HW123453   4.061   5.411   3.544
 7518SOL    HW223454   4.172   5.462   3.652
 7519SOL     OW23455   0.351   6.769   3.180
 7519SOL    HW123456   0.291   6.776   3.100
 7519SOL    HW223457   0.311   6.819   3.256
 7520SOL     OW23458   3.313   0.017   1.979
 7520SOL    HW123459   3.344   0.109   1.956
 7520SOL    HW223460   3.325   6.974   1.900
 7521SOL     OW23461   4.705   4.663   6.335
 7521SOL    HW123462   4.659   4.623   6.414
 7521SOL    HW223463   4.716   4.761   6.349
 7522SOL     OW23464   2.473   6.783   6.625
 7522SOL    HW123465   2.518   6.865   6.590
 7522SOL    HW223466   2.484   6.779   6.725
 7523SOL     OW23467   5.518   0.594   6.210
 7523SOL    HW123468   5.613   0.586   6.180
 7523SOL    HW223469   5.472   0.663   6.154
 7524SOL     OW23470   1.420   2.028   6.672
 7524SOL    HW123471   1.463   1.952   6.722
 7524SOL    HW223472   1.441   2.114   6.718
 7525SOL     OW23473   2.433   0.033   6.841
 7525SOL    HW123474   2.466   0.030   6.935
 7525SOL    HW223475   2.505   0.068   6.781
 7526SOL     OW23476   3.717   2.930   2.490
 7526SOL    HW123477   3.784   2.995   2.454
 7526SOL    HW223478   3.651   2.908   2.418
 7527SOL     OW23479   4.256   5.691   3.224
 7527SOL    HW123480   4.181   5.700   3.290
 7527SOL    HW223481   4.225   5.637   3.146
 7528SOL     OW23482   3.962   1.935   6.612
 7528SOL    HW123483   3.971   1.844   6.572
 7528SOL    HW223484   3.866   1.957   6.624
 7529SOL     OW23485   5.788   0.352   4.307
 7529SOL    HW123486   5.757   0.425   4.246
 7529SOL    HW223487   5.710   0.312   4.354
 7530SOL     OW23488   6.507   4.415   2.444
 7530SOL    HW123489   6.438   4.386   2.511
 7530SOL    HW223490   6.580   4.347   2.441
 7531SOL     OW23491   4.598   2.635   4.011
 7531SOL    HW123492   4.543   2.634   4.095
 7531SOL    HW223493   4.641   2.545   3.999
 7532SOL     OW23494   5.614   5.305   1.580
 7532SOL    HW123495   5.577   5.247   1.507
 7532SOL    HW223496   5.563   5.289   1.664
 7533SOL     OW23497   2.558   0.954   3.103
 7533SOL    HW123498   2.641   0.914   3.144
 7533SOL    HW223499   2.578   0.983   3.009
 7534SOL     OW23500   3.537   6.495   6.017
 7534SOL    HW123501   3.572   6.588   6.027
 7534SOL    HW223502   3.556   6.443   6.101
 7535SOL     OW23503   3.008   0.725   5.477
 7535SOL    HW123504   2.978   0.682   5.562
 7535SOL    HW223505   3.107   0.731   5.475
 7536SOL     OW23506   5.370   5.395   5.151
 7536SOL    HW123507   5.450   5.338   5.171
 7536SOL    HW223508   5.362   5.407   5.052
 7537SOL     OW23509   2.879   5.746   3.917
 7537SOL    HW123510   2.967   5.758   3.964
 7537SOL    HW223511   2.805   5.780   3.976
 7538SOL     OW23512   3.395   2.862   2.059
 7538SOL    HW123513   3.397   2.800   1.980
 7538SOL    HW223514   3.302   2.866   2.095
 7539SOL     OW23515   2.122   2.628   4.218
 7539SOL    HW123516   2.064   2.589   4.147
 7539SOL    HW223517   2.167   2.555   4.268
 7540SOL     OW23518   2.728   0.159   5.373
 7540SOL    HW123519   2.704   0.078   5.318
 7540SOL    HW223520   2.825   0.157   5.393
 7541SOL     OW23521   0.031   4.059   4.502
 7541SOL    HW123522   6.999   4.126   4.558
 7541SOL    HW223523   6.983   4.006   4.449
 7542SOL     OW23524   0.730   5.512   0.032
 7542SOL    HW123525   0.705   5.521   0.128
 7542SOL    HW223526   0.810   5.568   0.013
 7543SOL     OW23527   4.222   2.140   1.085
 7543SOL    HW123528   4.261   2.106   0.999
 7543SOL    HW223529   4.285   2.206   1.126
 7544SOL     OW23530   0.197   2.527   3.402
 7544SOL    HW123531   0.190   2.514   3.501
 7544SOL    HW223532   0.285   2.568   3.381
 7545SOL     OW23533   5.725   6.252   2.561
 7545SOL    HW123534   5.764   6.270   2.471
 7545SOL    HW223535   5.738   6.332   2.620
 7546SOL     OW23536   3.954   0.835   1.627
 7546SOL    HW123537   3.900   0.810   1.708
 7546SOL    HW223538   4.035   0.886   1.656
 7547SOL     OW23539   4.421   0.206   0.605
 7547SOL    HW123540   4.477   0.143   0.658
 7547SOL    HW223541   4.481   0.267   0.552
 7548SOL     OW23542   3.086   2.146   0.265
 7548SOL    HW123543   3.124   2.173   0.176
 7548SOL    HW223544   3.101   2.048   0.280
 7549SOL     OW23545   5.712   1.474   1.109
 7549SOL    HW123546   5.709   1.565   1.067
 7549SOL    HW223547   5.629   1.424   1.083
 7550SOL     OW23548   2.391   4.589   2.056
 7550SOL    HW123549   2.322   4.634   1.999
 7550SOL    HW223550   2.482   4.626   2.034
 7551SOL     OW23551   4.662   3.964   6.660
 7551SOL    HW123552   4.680   3.900   6.585
 7551SOL    HW223553   4.698   4.055   6.635
 7552SOL     OW23554   1.817   5.822   4.037
 7552SOL    HW123555   1.902   5.829   4.089
 7552SOL    HW223556   1.761   5.748   4.075
 7553SOL     OW23557   4.420   5.001   5.811
 7553SOL    HW123558   4.383   5.031   5.899
 7553SOL    HW223559   4.401   4.903   5.799
 7554SOL     OW23560   5.318   0.155   1.193
 7554SOL    HW123561   5.283   0.062   1.186
 7554SOL    HW223562   5.284   0.210   1.116
 7555SOL     OW23563   1.702   5.372   5.273
 7555SOL    HW123564   1.697   5.274   5.254
 7555SOL    HW223565   1.797   5.398   5.290
 7556SOL     OW23566   0.403   2.457   5.602
 7556SOL    HW123567   0.329   2.395   5.578
 7556SOL    HW223568   0.478   2.445   5.537
 7557SOL     OW23569   5.037   2.781   6.240
 7557SOL    HW123570   5.086   2.854   6.287
 7557SOL    HW223571   4.996   2.720   6.308
 7558SOL     OW23572   1.961   2.845   3.559
 7558SOL    HW123573   1.961   2.789   3.642
 7558SOL    HW223574   2.047   2.832   3.510
 7559SOL     OW23575   6.246   5.385   6.908
 7559SOL    HW123576   6.203   5.301   6.942
 7559SOL    HW223577   6.259   5.377   6.809
 7560SOL     OW23578   4.911   6.217   0.424
 7560SOL    HW123579   4.887   6.150   0.354
 7560SOL    HW223580   4.827   6.253   0.465
 7561SOL     OW23581   0.867   2.850   0.313
 7561SOL    HW123582   0.879   2.931   0.255
 7561SOL    HW223583   0.817   2.780   0.262
 7562SOL     OW23584   5.668   5.942   5.024
 7562SOL    HW123585   5.680   5.936   4.924
 7562SOL    HW223586   5.732   5.880   5.069
 7563SOL     OW23587   2.681   6.238   0.748
 7563SOL    HW123588   2.725   6.201   0.666
 7563SOL    HW223589   2.617   6.170   0.784
 7564SOL     OW23590   5.803   1.369   2.901
 7564SOL    HW123591   5.713   1.394   2.936
 7564SOL    HW223592   5.867   1.443   2.919
 7565SOL     OW23593   5.423   4.568   0.004
 7565SOL    HW123594   5.429   4.474   6.988
 7565SOL    HW223595   5.350   4.574   0.072
 7566SOL     OW23596   6.990   5.412   3.629
 7566SOL    HW123597   0.032   5.444   3.555
 7566SOL    HW223598   6.901   5.458   3.623
 7567SOL     OW23599   1.698   2.654   4.762
 7567SOL    HW123600   1.748   2.651   4.849
 7567SOL    HW223601   1.762   2.667   4.687
 7568SOL     OW23602   5.440   6.223   2.950
 7568SOL    HW123603   5.538   6.211   2.960
 7568SOL    HW223604   5.422   6.280   2.869
 7569SOL     OW23605   4.438   4.826   6.717
 7569SOL    HW123606   4.438   4.866   6.808
 7569SOL    HW223607   4.533   4.817   6.685
 7570SOL     OW23608   5.342   4.911   5.286
 7570SOL    HW123609   5.333   4.845   5.360
 7570SOL    HW223610   5.263   4.904   5.225
 7571SOL     OW23611   4.883   5.100   2.358
 7571SOL    HW123612   4.942   5.063   2.431
 7571SOL    HW223613   4.851   5.191   2.385
 7572SOL     OW23614   4.906   0.932   3.166
 7572SOL    HW123615   4.837   0.966   3.102
 7572SOL    HW223616   4.876   0.948   3.260
 7573SOL     OW23617   6.211   6.482   4.614
 7573SOL    HW123618   6.140   6.537   4.657
 7573SOL    HW223619   6.253   6.422   4.682
 7574SOL     OW23620   0.014   0.784   4.530
 7574SOL    HW123621   6.932   0.776   4.542
 7574SOL    HW223622   0.043   0.877   4.554
 7575SOL     OW23623   4.030   0.333   5.798
 7575SOL    HW123624   3.939   0.336   5.840
 7575SOL    HW223625   4.100   0.342   5.869
 7576SOL     OW23626   6.398   5.592   6.768
 7576SOL    HW123627   6.389   5.537   6.685
 7576SOL    HW223628   6.339   5.555   6.840
 7577SOL     OW23629   0.261   6.717   6.195
 7577SOL    HW123630   0.221   6.743   6.283
 7577SOL    HW223631   0.320   6.637   6.207
 7578SOL     OW23632   2.800   6.140   2.822
 7578SOL    HW123633   2.724   6.089   2.864
 7578SOL    HW223634   2.764   6.221   2.776
 7579SOL     OW23635   5.328   2.112   2.263
 7579SOL    HW123636   5.372   2.034   2.218
 7579SOL    HW223637   5.314   2.185   2.196
 7580SOL     OW23638   1.044   4.097   3.938
 7580SOL    HW123639   1.087   4.109   4.027
 7580SOL    HW223640   1.087   4.157   3.871
 7581SOL     OW23641   5.894   6.902   1.160
 7581SOL    HW123642   5.806   6.935   1.127
 7581SOL    HW223643   5.931   6.966   1.228
 7582SOL     OW23644   3.078   1.356   0.624
 7582SOL    HW123645   3.132   1.279   0.590
 7582SOL    HW223646   3.129   1.441   0.611
 7583SOL     OW23647   6.194   2.731   1.785
 7583SOL    HW123648   6.210   2.822   1.746
 7583SOL    HW223649   6.262   2.713   1.856
 7584SOL     OW23650   2.908   6.628   0.536
 7584SOL    HW123651   2.975   6.555   0.521
 7584SOL    HW223652   2.817   6.593   0.516
 7585SOL     OW23653   2.014   3.380   6.344
 7585SOL    HW123654   1.999   3.328   6.428
 7585SOL    HW223655   2.043   3.473   6.367
 7586SOL     OW23656   3.688   0.552   3.517
 7586SOL    HW123657   3.724   0.643   3.534
 7586SOL    HW223658   3.588   0.556   3.517
 7587SOL     OW23659   3.264   1.657   6.733
 7587SOL    HW123660   3.273   1.754   6.707
 7587SOL    HW223661   3.276   1.600   6.652
 7588SOL     OW23662   1.414   3.219   2.607
 7588SOL    HW123663   1.335   3.197   2.663
 7588SOL    HW223664   1.419   3.318   2.593
 7589SOL     OW23665   6.536   0.120   1.357
 7589SOL    HW123666   6.570   0.029   1.336
 7589SOL    HW223667   6.485   0.156   1.278
 7590SOL     OW23668   3.721   2.124   6.674
 7590SOL    HW123669   3.805   2.133   6.728
 7590SOL    HW223670   3.644   2.165   6.723
 7591SOL     OW23671   6.898   4.546   0.568
 7591SOL    HW123672   6.878   4.577   0.661
 7591SOL    HW223673   6.928   4.624   0.513
 7592SOL     OW23674   6.842   4.163   6.157
 7592SOL    HW123675   6.769   4.112   6.203
 7592SOL    HW223676   6.930   4.118   6.175
 7593SOL     OW23677   5.793   2.730   1.132
 7593SOL    HW123678   5.861   2.678   1.184
 7593SOL    HW223679   5.721   2.761   1.194
 7594SOL     OW23680   6.905   4.826   2.476
 7594SOL    HW123681   6.972   4.753   2.463
 7594SOL    HW223682   6.813   4.786   2.481
 7595SOL     OW23683   0.022   2.639   6.087
 7595SOL    HW123684   0.041   2.722   6.034
 7595SOL    HW223685   6.958   2.653   6.143
 7596SOL     OW23686   4.123   5.550   2.999
 7596SOL    HW123687   4.123   5.631   2.940
 7596SOL    HW223688   4.050   5.488   2.972
 7597SOL     OW23689   2.617   5.927   2.403
 7597SOL    HW123690   2.526   5.898   2.432
 7597SOL    HW223691   2.614   5.956   2.307
 7598SOL     OW23692   6.827   1.530   3.151
 7598SOL    HW123693   6.848   1.455   3.089
 7598SOL    HW223694   6.897   1.600   3.144
 7599SOL     OW23695   5.772   1.468   3.252
 7599SOL    HW123696   5.761   1.496   3.348
 7599SOL    HW223697   5.799   1.547   3.197
 7600SOL     OW23698   1.845   1.300   2.182
 7600SOL    HW123699   1.870   1.396   2.181
 7600SOL    HW223700   1.795   1.278   2.098
 7601SOL     OW23701   2.145   5.474   2.410
 7601SOL    HW123702   2.222   5.523   2.450
 7601SOL    HW223703   2.085   5.540   2.363
 7602SOL     OW23704   1.226   4.487   6.386
 7602SOL    HW123705   1.129   4.476   6.366
 7602SOL    HW223706   1.281   4.449   6.312
 7603SOL     OW23707   1.909   5.373   6.116
 7603SOL    HW123708   1.825   5.319   6.125
 7603SOL    HW223709   1.887   5.464   6.080
 7604SOL     OW23710   1.773   4.168   4.354
 7604SOL    HW123711   1.715   4.113   4.293
 7604SOL    HW223712   1.737   4.162   4.448
 7605SOL     OW23713   0.673   6.839   0.492
 7605SOL    HW123714   0.681   6.875   0.584
 7605SOL    HW223715   0.734   6.888   0.430
 7606SOL     OW23716   6.655   3.264   3.703
 7606SOL    HW123717   6.673   3.169   3.731
 7606SOL    HW223718   6.738   3.302   3.662
 7607SOL     OW23719   4.881   5.390   0.623
 7607SOL    HW123720   4.818   5.447   0.675
 7607SOL    HW223721   4.968   5.438   0.611
 7608SOL     OW23722   3.325   4.127   3.106
 7608SOL    HW123723   3.405   4.123   3.046
 7608SOL    HW223724   3.247   4.086   3.058
 7609SOL     OW23725   0.166   3.930   3.796
 7609SOL    HW123726   0.253   3.885   3.778
 7609SOL    HW223727   0.121   3.886   3.875
 7610SOL     OW23728   6.149   6.659   0.079
 7610SOL    HW123729   6.211   6.650   0.001
 7610SOL    HW223730   6.171   6.743   0.129
 7611SOL     OW23731   0.601   1.464   0.308
 7611SOL    HW123732   0.551   1.431   0.388
 7611SOL    HW223733   0.568   1.555   0.283
 7612SOL     OW23734   4.936   3.227   4.755
 7612SOL    HW123735   4.916   3.134   4.787
 7612SOL    HW223736   5.029   3.252   4.784
 7613SOL     OW23737   5.834   3.364   1.554
 7613SOL    HW123738   5.923   3.390   1.592
 7613SOL    HW223739   5.774   3.333   1.627
 7614SOL     OW23740   5.295   3.113   0.904
 7614SOL    HW123741   5.222   3.143   0.842
 7614SOL    HW223742   5.304   3.178   0.979
 7615SOL     OW23743   4.890   4.087   6.263
 7615SOL    HW123744   4.964   4.141   6.222
 7615SOL    HW223745   4.929   4.022   6.328
 7616SOL     OW23746   6.926   4.894   4.737
 7616SOL    HW123747   6.909   4.797   4.718
 7616SOL    HW223748   6.841   4.946   4.723
 7617SOL     OW23749   3.459   5.497   2.759
 7617SOL    HW123750   3.439   5.441   2.839
 7617SOL    HW223751   3.374   5.512   2.707
 7618SOL     OW23752   0.319   1.972   6.108
 7618SOL    HW123753   0.413   1.999   6.128
 7618SOL    HW223754   0.319   1.903   6.035
 7619SOL     OW23755   5.423   3.379   5.598
 7619SOL    HW123756   5.333   3.359   5.560
 7619SOL    HW223757   5.492   3.373   5.526
 7620SOL     OW23758   3.935   5.264   0.562
 7620SOL    HW123759   4.010   5.199   0.574
 7620SOL    HW223760   3.952   5.322   0.483
 7621SOL     OW23761   0.157   1.620   0.265
 7621SOL    HW123762   0.058   1.620   0.280
 7621SOL    HW223763   0.176   1.656   0.173
 7622SOL     OW23764   5.214   5.644   1.875
 7622SOL    HW123765   5.197   5.629   1.777
 7622SOL    HW223766   5.296   5.593   1.902
 7623SOL     OW23767   4.631   4.499   6.593
 7623SOL    HW123768   4.721   4.492   6.549
 7623SOL    HW223769   4.625   4.433   6.667
 7624SOL     OW23770   6.782   2.235   4.843
 7624SOL    HW123771   6.788   2.202   4.749
 7624SOL    HW223772   6.705   2.299   4.851
 7625SOL     OW23773   4.858   0.528   1.235
 7625SOL    HW123774   4.832   0.579   1.152
 7625SOL    HW223775   4.802   0.445   1.242
 7626SOL     OW23776   6.351   6.599   4.297
 7626SOL    HW123777   6.286   6.523   4.291
 7626SOL    HW223778   6.408   6.599   4.214
 7627SOL     OW23779   5.412   2.954   6.805
 7627SOL    HW123780   5.335   2.929   6.747
 7627SOL    HW223781   5.491   2.897   6.783
 7628SOL     OW23782   3.650   0.492   2.442
 7628SOL    HW123783   3.746   0.474   2.460
 7628SOL    HW223784   3.626   0.583   2.477
 7629SOL     OW23785   6.933   0.128   3.138
 7629SOL    HW123786   6.852   0.140   3.081
 7629SOL    HW223787   7.014   0.122   3.080
 7630SOL     OW23788   6.292   0.104   1.522
 7630SOL    HW123789   6.365   0.081   1.457
 7630SOL    HW223790   6.315   0.189   1.569
 7631SOL     OW23791   0.481   0.881   5.395
 7631SOL    HW123792   0.413   0.846   5.329
 7631SOL    HW223793   0.560   0.820   5.396
 7632SOL     OW23794   3.702   2.789   1.802
 7632SOL    HW123795   3.714   2.762   1.897
 7632SOL    HW223796   3.711   2.708   1.743
 7633SOL     OW23797   4.702   2.076   0.974
 7633SOL    HW123798   4.692   1.995   1.032
 7633SOL    HW223799   4.617   2.128   0.976
 7634SOL     OW23800   0.498   1.860   2.639
 7634SOL    HW123801   0.400   1.872   2.653
 7634SOL    HW223802   0.531   1.930   2.576
 7635SOL     OW23803   2.765   5.722   5.436
 7635SOL    HW123804   2.753   5.796   5.370
 7635SOL    HW223805   2.689   5.657   5.426
 7636SOL     OW23806   1.612   2.490   3.573
 7636SOL    HW123807   1.554   2.550   3.518
 7636SOL    HW223808   1.601   2.512   3.670
 7637SOL     OW23809   2.576   6.329   3.046
 7637SOL    HW123810   2.654   6.315   3.107
 7637SOL    HW223811   2.514   6.250   3.053
 7638SOL     OW23812   3.683   6.103   1.394
 7638SOL    HW123813   3.691   6.123   1.297
 7638SOL    HW223814   3.678   6.188   1.446
 7639SOL     OW23815   1.494   1.883   0.472
 7639SOL    HW123816   1.431   1.805   0.476
 7639SOL    HW223817   1.583   1.857   0.508
 7640SOL     OW23818   3.391   1.781   0.150
 7640SOL    HW123819   3.309   1.786   0.092
 7640SOL    HW223820   3.417   1.872   0.180
 7641SOL     OW23821   0.855   4.154   1.765
 7641SOL    HW123822   0.778   4.195   1.814
 7641SOL    HW223823   0.931   4.219   1.762
 7642SOL     OW23824   2.623   0.797   2.238
 7642SOL    HW123825   2.693   0.864   2.215
 7642SOL    HW223826   2.618   0.727   2.166
 7643SOL     OW23827   4.868   3.136   4.381
 7643SOL    HW123828   4.935   3.064   4.396
 7643SOL    HW223829   4.876   3.170   4.288
 7644SOL     OW23830   5.786   2.553   2.439
 7644SOL    HW123831   5.858   2.622   2.430
 7644SOL    HW223832   5.815   2.468   2.395
 7645SOL     OW23833   4.219   3.775   5.252
 7645SOL    HW123834   4.182   3.769   5.345
 7645SOL    HW223835   4.252   3.867   5.236
 7646SOL     OW23836   2.165   2.790   2.479
 7646SOL    HW123837   2.195   2.842   2.398
 7646SOL    HW223838   2.225   2.811   2.556
 7647SOL     OW23839   6.697   3.543   2.264
 7647SOL    HW123840   6.700   3.642   2.254
 7647SOL    HW223841   6.696   3.500   2.174
 7648SOL     OW23842   3.256   1.694   3.765
 7648SOL    HW123843   3.196   1.658   3.837
 7648SOL    HW223844   3.240   1.644   3.680
 7649SOL     OW23845   0.938   1.307   2.642
 7649SOL    HW123846   0.952   1.404   2.663
 7649SOL    HW223847   0.904   1.260   2.723
 7650SOL     OW23848   4.968   2.748   1.738
 7650SOL    HW123849   4.968   2.844   1.767
 7650SOL    HW223850   4.897   2.734   1.669
 7651SOL     OW23851   2.166   7.014   4.941
 7651SOL    HW123852   2.228   6.960   4.998
 7651SOL    HW223853   2.102   6.953   4.895
 7652SOL     OW23854   6.701   4.060   4.831
 7652SOL    HW123855   6.634   4.050   4.758
 7652SOL    HW223856   6.664   4.119   4.903
 7653SOL     OW23857   2.814   1.657   0.429
 7653SOL    HW123858   2.830   1.727   0.359
 7653SOL    HW223859   2.765   1.580   0.388
 7654SOL     OW23860   5.415   3.024   4.053
 7654SOL    HW123861   5.459   2.978   4.130
 7654SOL    HW223862   5.346   2.963   4.014
 7655SOL     OW23863   3.392   0.447   3.446
 7655SOL    HW123864   3.378   0.439   3.347
 7655SOL    HW223865   3.454   0.375   3.477
 7656SOL     OW23866   2.074   4.681   6.533
 7656SOL    HW123867   2.050   4.743   6.458
 7656SOL    HW223868   1.998   4.675   6.597
 7657SOL     OW23869   2.417   2.671   3.984
 7657SOL    HW123870   2.400   2.696   4.079
 7657SOL    HW223871   2.330   2.657   3.938
 7658SOL     OW23872   3.550   0.188   5.849
 7658SOL    HW123873   3.478   0.244   5.809
 7658SOL    HW223874   3.534   0.178   5.947
 7659SOL     OW23875   6.142   5.655   0.052
 7659SOL    HW123876   6.242   5.667   0.051
 7659SOL    HW223877   6.120   5.561   0.027
 7660SOL     OW23878   0.450   6.692   3.536
 7660SOL    HW123879   0.391   6.620   3.498
 7660SOL    HW223880   0.433   6.777   3.487
 7661SOL     OW23881   5.738   2.427   4.889
 7661SOL    HW123882   5.789   2.403   4.806
 7661SOL    HW223883   5.685   2.348   4.919
 7662SOL     OW23884   1.290   2.260   2.620
 7662SOL    HW123885   1.203   2.288   2.577
 7662SOL    HW223886   1.277   2.251   2.719
 7663SOL     OW23887   1.012   6.678   5.519
 7663SOL    HW123888   0.989   6.701   5.613
 7663SOL    HW223889   1.064   6.753   5.477
 7664SOL     OW23890   3.870   0.155   2.319
 7664SOL    HW123891   3.911   0.186   2.234
 7664SOL    HW223892   3.773   0.134   2.304
 7665SOL     OW23893   4.970   0.317   5.224
 7665SOL    HW123894   5.028   0.355   5.296
 7665SOL    HW223895   5.024   0.308   5.140
 7666SOL     OW23896   0.955   6.404   1.681
 7666SOL    HW123897   0.925   6.493   1.715
 7666SOL    HW223898   0.875   6.348   1.660
 7667SOL     OW23899   4.318   5.981   2.103
 7667SOL    HW123900   4.381   6.009   2.174
 7667SOL    HW223901   4.232   6.033   2.112
 7668SOL     OW23902   3.254   4.436   1.214
 7668SOL    HW123903   3.302   4.393   1.290
 7668SOL    HW223904   3.256   4.376   1.135
 7669SOL     OW23905   5.689   1.739   6.152
 7669SOL    HW123906   5.720   1.750   6.247
 7669SOL    HW223907   5.693   1.828   6.106
 7670SOL     OW23908   0.583   4.711   6.507
 7670SOL    HW123909   0.521   4.657   6.451
 7670SOL    HW223910   0.546   4.804   6.516
 7671SOL     OW23911   4.197   0.552   3.969
 7671SOL    HW123912   4.216   0.456   3.992
 7671SOL    HW223913   4.143   0.593   4.042
 7672SOL     OW23914   5.851   6.613   3.050
 7672SOL    HW123915   5.885   6.658   2.967
 7672SOL    HW223916   5.772   6.665   3.085
 7673SOL     OW23917   1.868   5.411   6.799
 7673SOL    HW123918   1.805   5.334   6.790
 7673SOL    HW223919   1.940   5.387   6.864
 7674SOL     OW23920   6.074   2.000   4.337
 7674SOL    HW123921   6.040   1.934   4.270
 7674SOL    HW223922   6.047   1.971   4.428
 7675SOL     OW23923   5.178   7.013   2.593
 7675SOL    HW123924   5.228   6.960   2.524
 7675SOL    HW223925   5.084   0.009   2.564
 7676SOL     OW23926   2.072   2.070   0.204
 7676SOL    HW123927   2.138   2.022   0.263
 7676SOL    HW223928   2.118   2.143   0.155
 7677SOL     OW23929   0.075   3.925   2.156
 7677SOL    HW123930   0.100   4.013   2.116
 7677SOL    HW223931   0.022   3.940   2.240
 7678SOL     OW23932   2.534   1.468   4.553
 7678SOL    HW123933   2.624   1.455   4.595
 7678SOL    HW223934   2.467   1.491   4.624
 7679SOL     OW23935   2.671   5.643   6.351
 7679SOL    HW123936   2.643   5.711   6.419
 7679SOL    HW223937   2.624   5.660   6.265
 7680SOL     OW23938   1.791   1.630   0.505
 7680SOL    HW123939   1.765   1.716   0.549
 7680SOL    HW223940   1.824   1.648   0.412
 7681SOL     OW23941   2.644   6.800   0.439
 7681SOL    HW123942   2.652   6.847   0.351
 7681SOL    HW223943   2.648   6.867   0.513
 7682SOL     OW23944   2.912   0.368   1.741
 7682SOL    HW123945   2.898   0.430   1.818
 7682SOL    HW223946   2.988   0.306   1.760
 7683SOL     OW23947   6.235   1.973   3.731
 7683SOL    HW123948   6.273   1.892   3.686
 7683SOL    HW223949   6.233   2.049   3.666
 7684SOL     OW23950   4.281   2.129   1.645
 7684SOL    HW123951   4.249   2.036   1.628
 7684SOL    HW223952   4.204   2.187   1.671
 7685SOL     OW23953   3.413   3.358   6.977
 7685SOL    HW123954   3.494   3.405   7.012
 7685SOL    HW223955   3.433   3.320   6.886
 7686SOL     OW23956   5.648   0.014   3.033
 7686SOL    HW123957   5.615   0.058   3.117
 7686SOL    HW223958   5.729   0.062   3.000
 7687SOL     OW23959   5.941   5.077   5.017
 7687SOL    HW123960   5.896   5.062   5.104
 7687SOL    HW223961   5.879   5.054   4.942
 7688SOL     OW23962   0.675   6.405   5.123
 7688SOL    HW123963   0.713   6.345   5.052
 7688SOL    HW223964   0.710   6.498   5.109
 7689SOL     OW23965   4.798   6.775   2.506
 7689SOL    HW123966   4.808   6.753   2.603
 7689SOL    HW223967   4.865   6.725   2.453
 7690SOL     OW23968   6.413   4.933   1.585
 7690SOL    HW123969   6.394   4.999   1.512
 7690SOL    HW223970   6.493   4.962   1.636
 7691SOL     OW23971   5.285   2.762   4.011
 7691SOL    HW123972   5.190   2.787   3.991
 7691SOL    HW223973   5.286   2.669   4.048
 7692SOL     OW23974   1.121   6.188   2.111
 7692SOL    HW123975   1.067   6.255   2.061
 7692SOL    HW223976   1.185   6.143   2.049
 7693SOL     OW23977   3.385   0.097   1.433
 7693SOL    HW123978   3.430   0.184   1.420
 7693SOL    HW223979   3.437   0.041   1.498
 7694SOL     OW23980   0.433   4.686   4.417
 7694SOL    HW123981   0.398   4.667   4.509
 7694SOL    HW223982   0.408   4.612   4.355
 7695SOL     OW23983   4.412   6.069   0.749
 7695SOL    HW123984   4.361   6.104   0.672
 7695SOL    HW223985   4.423   6.140   0.818
 7696SOL     OW23986   6.568   1.427   4.741
 7696SOL    HW123987   6.621   1.349   4.708
 7696SOL    HW223988   6.615   1.470   4.818
 7697SOL     OW23989   3.139   0.001   1.590
 7697SOL    HW123990   3.228   0.037   1.562
 7697SOL    HW223991   3.069   0.027   1.524
 7698SOL     OW23992   6.359   2.280   3.715
 7698SOL    HW123993   6.284   2.224   3.681
 7698SOL    HW223994   6.355   2.371   3.673
 7699SOL     OW23995   3.246   6.063   0.519
 7699SOL    HW123996   3.179   6.052   0.446
 7699SOL    HW223997   3.200   6.065   0.607
 7700SOL     OW23998   4.961   6.154   4.510
 7700SOL    HW123999   4.966   6.128   4.606
 7700SOL    HW224000   4.895   6.228   4.498
 7701SOL     OW24001   6.833   1.539   6.984
 7701SOL    HW124002   6.838   1.495   6.895
 7701SOL    HW224003   6.753   1.598   6.988
 7702SOL     OW24004   3.108   6.285   6.286
 7702SOL    HW124005   3.185   6.349   6.289
 7702SOL    HW224006   3.102   6.244   6.195
 7703SOL     OW24007   6.345   0.903   5.172
 7703SOL    HW124008   6.264   0.883   5.227
 7703SOL    HW224009   6.423   0.922   5.232
 7704SOL     OW24010   5.313   4.691   5.625
 7704SOL    HW124011   5.223   4.730   5.604
 7704SOL    HW224012   5.322   4.601   5.582
 7705SOL     OW24013   3.883   5.223   5.560
 7705SOL    HW124014   3.933   5.273   5.490
 7705SOL    HW224015   3.947   5.177   5.622
 7706SOL     OW24016   4.467   2.505   4.587
 7706SOL    HW124017   4.465   2.496   4.686
 7706SOL    HW224018   4.378   2.477   4.549
 7707SOL     OW24019   0.909   5.654   5.753
 7707SOL    HW124020   0.915   5.679   5.657
 7707SOL    HW224021   0.875   5.560   5.762
 7708SOL     OW24022   5.918   6.700   5.778
 7708SOL    HW124023   5.937   6.789   5.817
 7708SOL    HW224024   5.820   6.686   5.773
 7709SOL     OW24025   5.813   4.221   1.593
 7709SOL    HW124026   5.762   4.139   1.567
 7709SOL    HW224027   5.888   4.236   1.528
 7710SOL     OW24028   3.684   0.598   0.718
 7710SOL    HW124029   3.718   0.634   0.805
 7710SOL    HW224030   3.606   0.538   0.736
 7711SOL     OW24031   6.243   6.363   5.323
 7711SOL    HW124032   6.221   6.363   5.225
 7711SOL    HW224033   6.328   6.413   5.338
 7712SOL     OW24034   5.532   5.648   2.216
 7712SOL    HW124035   5.603   5.667   2.283
 7712SOL    HW224036   5.491   5.559   2.234
 7713SOL     OW24037   1.524   4.823   0.705
 7713SOL    HW124038   1.492   4.800   0.613
 7713SOL    HW224039   1.606   4.879   0.698
 7714SOL     OW24040   6.507   4.466   5.484
 7714SOL    HW124041   6.429   4.527   5.499
 7714SOL    HW224042   6.569   4.471   5.562
 7715SOL     OW24043   4.452   1.974   0.079
 7715SOL    HW124044   4.484   1.948   7.005
 7715SOL    HW224045   4.356   1.946   0.089
 7716SOL     OW24046   6.760   4.687   3.917
 7716SOL    HW124047   6.853   4.659   3.892
 7716SOL    HW224048   6.748   4.678   4.016
 7717SOL     OW24049   1.380   1.040   4.712
 7717SOL    HW124050   1.413   1.121   4.665
 7717SOL    HW224051   1.289   1.058   4.750
 7718SOL     OW24052   1.727   1.756   2.829
 7718SOL    HW124053   1.779   1.672   2.847
 7718SOL    HW224054   1.738   1.782   2.733
 7719SOL     OW24055   6.616   3.799   4.515
 7719SOL    HW124056   6.662   3.752   4.590
 7719SOL    HW224057   6.678   3.866   4.474
 7720SOL     OW24058   0.378   0.717   6.968
 7720SOL    HW124059   0.378   0.808   6.928
 7720SOL    HW224060   0.440   0.715   0.029
 7721SOL     OW24061   0.231   4.995   2.688
 7721SOL    HW124062   0.242   4.903   2.726
 7721SOL    HW224063   0.150   4.997   2.629
 7722SOL     OW24064   0.285   6.159   3.326
 7722SOL    HW124065   0.231   6.176   3.244
 7722SOL    HW224066   0.224   6.135   3.402
 7723SOL     OW24067   6.397   3.683   0.160
 7723SOL    HW124068   6.476   3.637   0.200
 7723SOL    HW224069   6.348   3.619   0.100
 7724SOL     OW24070   2.600   4.583   1.775
 7724SOL    HW124071   2.603   4.649   1.850
 7724SOL    HW224072   2.689   4.536   1.769
 7725SOL     OW24073   5.559   2.700   3.357
 7725SOL    HW124074   5.640   2.697   3.298
 7725SOL    HW224075   5.581   2.744   3.443
 7726SOL     OW24076   1.636   6.340   4.867
 7726SOL    HW124077   1.648   6.328   4.965
 7726SOL    HW224078   1.546   6.304   4.840
 7727SOL     OW24079   0.296   0.854   2.774
 7727SOL    HW124080   0.393   0.833   2.762
 7727SOL    HW224081   0.275   0.861   2.871
 7728SOL     OW24082   1.009   5.056   3.195
 7728SOL    HW124083   1.022   4.998   3.114
 7728SOL    HW224084   0.964   5.004   3.267
 7729SOL     OW24085   5.689   2.952   0.540
 7729SOL    HW124086   5.638   2.904   0.611
 7729SOL    HW224087   5.780   2.975   0.574
 7730SOL     OW24088   5.887   5.993   1.420
 7730SOL    HW124089   5.841   5.933   1.486
 7730SOL    HW224090   5.957   5.941   1.371
 7731SOL     OW24091   6.139   0.958   0.828
 7731SOL    HW124092   6.069   0.952   0.900
 7731SOL    HW224093   6.174   0.866   0.808
 7732SOL     OW24094   4.337   6.673   0.485
 7732SOL    HW124095   4.318   6.702   0.579
 7732SOL    HW224096   4.261   6.618   0.451
 7733SOL     OW24097   4.429   6.524   2.333
 7733SOL    HW124098   4.368   6.596   2.300
 7733SOL    HW224099   4.402   6.496   2.424
 7734SOL     OW24100   2.122   5.454   3.541
 7734SOL    HW124101   2.194   5.513   3.506
 7734SOL    HW224102   2.143   5.428   3.635
 7735SOL     OW24103   4.609   6.289   6.298
 7735SOL    HW124104   4.705   6.317   6.294
 7735SOL    HW224105   4.556   6.358   6.347
 7736SOL     OW24106   3.538   4.112   6.734
 7736SOL    HW124107   3.510   4.016   6.738
 7736SOL    HW224108   3.605   4.125   6.661
 7737SOL     OW24109   3.835   0.633   2.171
 7737SOL    HW124110   3.750   0.585   2.191
 7737SOL    HW224111   3.901   0.616   2.244
 7738SOL     OW24112   2.676   5.580   6.827
 7738SOL    HW124113   2.634   5.611   6.742
 7738SOL    HW224114   2.739   5.649   6.860
 7739SOL     OW24115   0.870   2.265   1.988
 7739SOL    HW124116   0.873   2.180   2.041
 7739SOL    HW224117   0.779   2.277   1.949
 7740SOL     OW24118   2.005   0.967   2.848
 7740SOL    HW124119   1.994   0.975   2.748
 7740SOL    HW224120   2.049   0.880   2.869
 7741SOL     OW24121   1.209   5.252   4.896
 7741SOL    HW124122   1.211   5.248   4.796
 7741SOL    HW224123   1.135   5.313   4.926
 7742SOL     OW24124   5.600   2.458   3.916
 7742SOL    HW124125   5.555   2.396   3.980
 7742SOL    HW224126   5.638   2.536   3.966
 7743SOL     OW24127   4.889   1.740   6.879
 7743SOL    HW124128   4.977   1.775   6.912
 7743SOL    HW224129   4.868   1.654   6.925
 7744SOL     OW24130   1.319   6.178   3.594
 7744SOL    HW124131   1.281   6.173   3.501
 7744SOL    HW224132   1.256   6.135   3.658
 7745SOL     OW24133   3.067   1.128   5.437
 7745SOL    HW124134   3.136   1.073   5.483
 7745SOL    HW224135   3.062   1.218   5.480
 7746SOL     OW24136   2.663   6.084   0.102
 7746SOL    HW124137   2.629   5.993   0.076
 7746SOL    HW224138   2.629   6.106   0.193
 7747SOL     OW24139   4.747   5.863   1.553
 7747SOL    HW124140   4.714   5.956   1.566
 7747SOL    HW224141   4.821   5.844   1.618
 7748SOL     OW24142   3.636   3.121   5.434
 7748SOL    HW124143   3.726   3.078   5.430
 7748SOL    HW224144   3.599   3.113   5.526
 7749SOL     OW24145   2.709   2.657   5.408
 7749SOL    HW124146   2.673   2.750   5.400
 7749SOL    HW224147   2.805   2.661   5.435
 7750SOL     OW24148   6.882   6.318   1.507
 7750SOL    HW124149   6.850   6.292   1.598
 7750SOL    HW224150   6.976   6.284   1.494
 7751SOL     OW24151   1.405   2.181   2.363
 7751SOL    HW124152   1.400   2.221   2.454
 7751SOL    HW224153   1.485   2.122   2.357
 7752SOL     OW24154   4.976   0.198   6.226
 7752SOL    HW124155   4.888   0.219   6.270
 7752SOL    HW224156   5.017   0.119   6.271
 7753SOL     OW24157   2.302   1.081   4.293
 7753SOL    HW124158   2.316   1.164   4.239
 7753SOL    HW224159   2.337   1.095   4.385
 7754SOL     OW24160   3.538   6.210   1.096
 7754SOL    HW124161   3.464   6.156   1.136
 7754SOL    HW224162   3.533   6.205   0.997
 7755SOL     OW24163   1.778   2.325   6.201
 7755SOL    HW124164   1.767   2.417   6.239
 7755SOL    HW224165   1.872   2.294   6.217
 7756SOL     OW24166   3.033   6.580   1.663
 7756SOL    HW124167   2.967   6.552   1.594
 7756SOL    HW224168   3.052   6.503   1.725
 7757SOL     OW24169   5.910   4.820   1.559
 7757SOL    HW124170   5.834   4.859   1.506
 7757SOL    HW224171   5.878   4.738   1.607
 7758SOL     OW24172   1.809   6.978   5.966
 7758SOL    HW124173   1.712   6.997   5.956
 7758SOL    HW224174   1.860   0.003   5.890
 7759SOL     OW24175   2.164   1.263   5.061
 7759SOL    HW124176   2.224   1.280   5.140
 7759SOL    HW224177   2.136   1.351   5.022
 7760SOL     OW24178   5.212   2.531   2.395
 7760SOL    HW124179   5.303   2.528   2.353
 7760SOL    HW224180   5.149   2.579   2.335
 7761SOL     OW24181   6.573   6.291   4.856
 7761SOL    HW124182   6.632   6.338   4.790
 7761SOL    HW224183   6.514   6.358   4.902
 7762SOL     OW24184   2.793   0.333   3.827
 7762SOL    HW124185   2.828   0.424   3.804
 7762SOL    HW224186   2.826   0.267   3.759
 7763SOL     OW24187   2.528   0.346   0.077
 7763SOL    HW124188   2.540   0.437   0.117
 7763SOL    HW224189   2.463   0.350   0.001
 7764SOL     OW24190   3.579   3.784   5.851
 7764SOL    HW124191   3.544   3.698   5.815
 7764SOL    HW224192   3.592   3.777   5.950
 7765SOL     OW24193   6.019   2.957   5.146
 7765SOL    HW124194   6.076   2.935   5.066
 7765SOL    HW224195   6.076   2.960   5.228
 7766SOL     OW24196   6.696   3.617   1.165
 7766SOL    HW124197   6.693   3.520   1.190
 7766SOL    HW224198   6.622   3.665   1.212
 7767SOL     OW24199   4.174   6.581   2.277
 7767SOL    HW124200   4.144   6.632   2.358
 7767SOL    HW224201   4.124   6.495   2.271
 7768SOL     OW24202   5.206   4.944   3.700
 7768SOL    HW124203   5.181   4.873   3.634
 7768SOL    HW224204   5.225   5.030   3.652
 7769SOL     OW24205   4.435   1.569   5.133
 7769SOL    HW124206   4.363   1.499   5.134
 7769SOL    HW224207   4.525   1.525   5.134
 7770SOL     OW24208   0.428   3.419   4.431
 7770SOL    HW124209   0.494   3.495   4.429
 7770SOL    HW224210   0.450   3.358   4.506
 7771SOL     OW24211   3.161   1.653   5.680
 7771SOL    HW124212   3.179   1.584   5.750
 7771SOL    HW224213   3.086   1.622   5.621
 7772SOL     OW24214   5.603   6.891   0.696
 7772SOL    HW124215   5.542   6.863   0.623
 7772SOL    HW224216   5.691   6.920   0.657
 7773SOL     OW24217   1.780   5.555   5.530
 7773SOL    HW124218   1.723   5.564   5.611
 7773SOL    HW224219   1.760   5.469   5.484
 7774SOL     OW24220   4.933   2.606   4.470
 7774SOL    HW124221   4.907   2.655   4.387
 7774SOL    HW224222   4.878   2.640   4.547
 7775SOL     OW24223   4.333   6.602   6.990
 7775SOL    HW124224   4.343   6.628   6.894
 7775SOL    HW224225   4.326   6.502   6.996
 7776SOL     OW24226   0.541   5.997   6.575
 7776SOL    HW124227   0.471   5.981   6.645
 7776SOL    HW224228   0.628   6.017   6.620
 7777SOL     OW24229   5.903   5.514   4.695
 7777SOL    HW124230   5.902   5.581   4.769
 7777SOL    HW224231   5.815   5.468   4.689
 7778SOL     OW24232   5.781   4.016   2.070
 7778SOL    HW124233   5.873   3.977   2.064
 7778SOL    HW224234   5.777   4.100   2.016
 7779SOL     OW24235   2.539   1.142   2.002
 7779SOL    HW124236   2.629   1.149   1.958
 7779SOL    HW224237   2.487   1.225   1.984
 7780SOL     OW24238   1.203   5.213   5.196
 7780SOL    HW124239   1.277   5.147   5.207
 7780SOL    HW224240   1.183   5.224   5.099
 7781SOL     OW24241   0.930   3.495   1.111
 7781SOL    HW124242   0.924   3.584   1.065
 7781SOL    HW224243   1.020   3.486   1.153
 7782SOL     OW24244   5.204   5.324   4.106
 7782SOL    HW124245   5.216   5.377   4.190
 7782SOL    HW224246   5.134   5.253   4.121
 7783SOL     OW24247   0.642   0.304   5.587
 7783SOL    HW124248   0.596   0.232   5.535
 7783SOL    HW224249   0.698   0.263   5.658
 7784SOL     OW24250   3.044   2.390   1.654
 7784SOL    HW124251   2.998   2.417   1.739
 7784SOL    HW224252   3.131   2.347   1.677
 7785SOL     OW24253   2.369   6.330   3.972
 7785SOL    HW124254   2.436   6.332   4.046
 7785SOL    HW224255   2.416   6.314   3.885
 7786SOL     OW24256   4.188   0.733   6.741
 7786SOL    HW124257   4.274   0.781   6.757
 7786SOL    HW224258   4.206   0.649   6.690
 7787SOL     OW24259   1.923   2.977   0.179
 7787SOL    HW124260   1.913   2.955   0.082
 7787SOL    HW224261   1.864   2.916   0.233
 7788SOL     OW24262   1.318   5.442   1.592
 7788SOL    HW124263   1.265   5.368   1.550
 7788SOL    HW224264   1.286   5.530   1.555
 7789SOL     OW24265   3.120   7.011   6.600
 7789SOL    HW124266   3.150   0.089   6.592
 7789SOL    HW224267   3.050   6.992   6.530
 7790SOL     OW24268   5.449   5.172   2.368
 7790SOL    HW124269   5.513   5.095   2.361
 7790SOL    HW224270   5.463   5.219   2.455
 7791SOL     OW24271   1.930   4.921   2.303
 7791SOL    HW124272   1.845   4.961   2.269
 7791SOL    HW224273   1.966   4.977   2.377
 7792SOL     OW24274   1.515   6.460   3.373
 7792SOL    HW124275   1.603   6.420   3.400
 7792SOL    HW224276   1.450   6.451   3.449
 7793SOL     OW24277   4.271   0.980   0.265
 7793SOL    HW124278   4.323   1.023   0.192
 7793SOL    HW224279   4.268   0.881   0.250
 7794SOL     OW24280   0.143   4.161   2.056
 7794SOL    HW124281   0.155   4.181   1.959
 7794SOL    HW224282   0.189   4.231   2.111
 7795SOL     OW24283   3.353   5.366   5.009
 7795SOL    HW124284   3.413   5.289   5.029
 7795SOL    HW224285   3.360   5.434   5.082
 7796SOL     OW24286   3.473   2.477   5.957
 7796SOL    HW124287   3.557   2.505   5.910
 7796SOL    HW224288   3.430   2.402   5.907
 7797SOL     OW24289   0.805   5.655   1.079
 7797SOL    HW124290   0.719   5.661   1.028
 7797SOL    HW224291   0.799   5.713   1.161
 7798SOL     OW24292   1.672   1.514   2.478
 7798SOL    HW124293   1.757   1.539   2.524
 7798SOL    HW224294   1.598   1.573   2.511
 7799SOL     OW24295   2.112   5.681   2.814
 7799SOL    HW124296   2.045   5.732   2.761
 7799SOL    HW224297   2.069   5.599   2.852
 7800SOL     OW24298   0.848   6.237   3.225
 7800SOL    HW124299   0.763   6.186   3.213
 7800SOL    HW224300   0.923   6.188   3.181
 7801SOL     OW24301   1.381   1.323   2.973
 7801SOL    HW124302   1.337   1.330   2.883
 7801SOL    HW224303   1.330   1.259   3.030
 7802SOL     OW24304   6.890   3.237   0.325
 7802SOL    HW124305   6.806   3.281   0.357
 7802SOL    HW224306   6.954   3.229   0.401
 7803SOL     OW24307   4.894   1.772   6.604
 7803SOL    HW124308   4.886   1.761   6.703
 7803SOL    HW224309   4.984   1.811   6.583
 7804SOL     OW24310   4.131   2.251   5.251
 7804SOL    HW124311   4.095   2.184   5.186
 7804SOL    HW224312   4.085   2.339   5.236
 7805SOL     OW24313   5.002   3.721   2.474
 7805SOL    HW124314   4.945   3.767   2.541
 7805SOL    HW224315   5.038   3.636   2.512
 7806SOL     OW24316   6.249   0.867   6.632
 7806SOL    HW124317   6.195   0.897   6.711
 7806SOL    HW224318   6.273   0.945   6.576
 7807SOL     OW24319   0.987   4.286   5.142
 7807SOL    HW124320   0.897   4.277   5.098
 7807SOL    HW224321   0.986   4.364   5.204
 7808SOL     OW24322   5.671   3.268   3.160
 7808SOL    HW124323   5.681   3.237   3.254
 7808SOL    HW224324   5.670   3.367   3.156
 7809SOL     OW24325   5.037   5.166   4.480
 7809SOL    HW124326   5.111   5.233   4.488
 7809SOL    HW224327   4.954   5.203   4.523
 7810SOL     OW24328   2.787   6.468   5.613
 7810SOL    HW124329   2.826   6.517   5.691
 7810SOL    HW224330   2.805   6.519   5.529
 7811SOL     OW24331   1.021   5.246   2.166
 7811SOL    HW124332   1.020   5.147   2.152
 7811SOL    HW224333   1.069   5.289   2.089
 7812SOL     OW24334   2.080   2.706   5.053
 7812SOL    HW124335   2.105   2.767   5.128
 7812SOL    HW224336   2.133   2.729   4.971
 7813SOL     OW24337   4.396   2.320   1.192
 7813SOL    HW124338   4.496   2.315   1.196
 7813SOL    HW224339   4.368   2.413   1.168
 7814SOL     OW24340   0.053   3.888   2.816
 7814SOL    HW124341   7.007   3.895   2.894
 7814SOL    HW224342   0.056   3.794   2.784
 7815SOL     OW24343   5.716   1.747   4.544
 7815SOL    HW124344   5.762   1.678   4.600
 7815SOL    HW224345   5.756   1.837   4.561
 7816SOL     OW24346   0.384   2.377   6.466
 7816SOL    HW124347   0.383   2.460   6.521
 7816SOL    HW224348   0.368   2.400   6.370
 7817SOL     OW24349   4.469   4.211   5.336
 7817SOL    HW124350   4.384   4.176   5.375
 7817SOL    HW224351   4.531   4.135   5.315
 7818SOL     OW24352   4.513   1.046   2.990
 7818SOL    HW124353   4.447   1.092   2.931
 7818SOL    HW224354   4.605   1.064   2.957
 7819SOL     OW24355   0.389   3.904   4.351
 7819SOL    HW124356   0.417   3.821   4.303
 7819SOL    HW224357   0.429   3.904   4.443
 7820SOL     OW24358   1.767   0.954   5.801
 7820SOL    HW124359   1.702   0.945   5.876
 7820SOL    HW224360   1.720   0.937   5.714
 7821SOL     OW24361   5.791   5.988   0.755
 7821SOL    HW124362   5.871   5.933   0.780
 7821SOL    HW224363   5.808   6.083   0.779
 7822SOL     OW24364   1.516   1.604   6.221
 7822SOL    HW124365   1.441   1.594   6.286
 7822SOL    HW224366   1.569   1.519   6.218
 7823SOL     OW24367   2.069   4.151   6.311
 7823SOL    HW124368   2.067   4.233   6.253
 7823SOL    HW224369   2.162   4.115   6.315
 7824SOL     OW24370   5.573   0.366   4.950
 7824SOL    HW124371   5.665   0.326   4.943
 7824SOL    HW224372   5.507   0.306   4.905
 7825SOL     OW24373   1.690   2.902   1.349
 7825SOL    HW124374   1.593   2.885   1.334
 7825SOL    HW224375   1.737   2.908   1.261
 7826SOL     OW24376   4.987   1.869   6.191
 7826SOL    HW124377   5.016   1.961   6.166
 7826SOL    HW224378   5.011   1.851   6.287
 7827SOL     OW24379   3.342   4.732   0.997
 7827SOL    HW124380   3.393   4.702   0.916
 7827SOL    HW224381   3.244   4.733   0.976
 7828SOL     OW24382   7.015   5.288   0.638
 7828SOL    HW124383   6.954   5.209   0.646
 7828SOL    HW224384   0.010   5.310   0.541
 7829SOL     OW24385   2.073   2.821   0.671
 7829SOL    HW124386   2.148   2.836   0.606
 7829SOL    HW224387   2.031   2.732   0.655
 7830SOL     OW24388   5.211   3.802   6.347
 7830SOL    HW124389   5.235   3.726   6.408
 7830SOL    HW224390   5.295   3.847   6.315
 7831SOL     OW24391   1.224   5.206   0.337
 7831SOL    HW124392   1.321   5.194   0.359
 7831SOL    HW224393   1.168   5.178   0.415
 7832SOL     OW24394   3.478   1.394   3.920
 7832SOL    HW124395   3.570   1.370   3.950
 7832SOL    HW224396   3.478   1.487   3.882
 7833SOL     OW24397   0.445   1.111   7.002
 7833SOL    HW124398   0.486   1.095   6.912
 7833SOL    HW224399   0.363   1.056   7.011
 7834SOL     OW24400   0.575   1.878   2.910
 7834SOL    HW124401   0.575   1.867   2.811
 7834SOL    HW224402   0.498   1.937   2.937
 7835SOL     OW24403   2.026   2.298   5.044
 7835SOL    HW124404   1.954   2.244   5.088
 7835SOL    HW224405   2.061   2.248   4.965
 7836SOL     OW24406   3.446   1.610   6.403
 7836SOL    HW124407   3.535   1.584   6.442
 7836SOL    HW224408   3.440   1.709   6.398
 7837SOL     OW24409   6.930   6.610   1.465
 7837SOL    HW124410   6.913   6.513   1.483
 7837SOL    HW224411   6.931   6.660   1.552
 7838SOL     OW24412   4.352   6.201   6.545
 7838SOL    HW124413   4.426   6.163   6.490
 7838SOL    HW224414   4.321   6.133   6.611
 7839SOL     OW24415   6.449   4.822   5.468
 7839SOL    HW124416   6.386   4.853   5.540
 7839SOL    HW224417   6.543   4.831   5.500
 7840SOL     OW24418   5.211   3.686   4.018
 7840SOL    HW124419   5.111   3.673   4.013
 7840SOL    HW224420   5.244   3.648   4.104
 7841SOL     OW24421   5.638   1.391   6.957
 7841SOL    HW124422   5.681   1.467   6.908
 7841SOL    HW224423   5.681   1.305   6.929
 7842SOL     OW24424   2.003   1.038   3.302
 7842SOL    HW124425   1.986   1.132   3.333
 7842SOL    HW224426   2.101   1.025   3.288
 7843SOL     OW24427   5.894   4.556   1.640
 7843SOL    HW124428   5.982   4.514   1.621
 7843SOL    HW224429   5.824   4.514   1.583
 7844SOL     OW24430   4.614   0.143   3.480
 7844SOL    HW124431   4.602   0.084   3.560
 7844SOL    HW224432   4.712   0.161   3.467
 7845SOL     OW24433   0.402   1.552   3.878
 7845SOL    HW124434   0.379   1.649   3.884
 7845SOL    HW224435   0.320   1.496   3.890
 7846SOL     OW24436   1.530   0.329   1.925
 7846SOL    HW124437   1.557   0.284   2.010
 7846SOL    HW224438   1.527   0.263   1.851
 7847SOL     OW24439   6.745   1.594   1.742
 7847SOL    HW124440   6.657   1.548   1.739
 7847SOL    HW224441   6.740   1.680   1.692
 7848SOL     OW24442   2.986   4.207   1.047
 7848SOL    HW124443   2.887   4.211   1.057
 7848SOL    HW224444   3.028   4.184   1.135
 7849SOL     OW24445   5.205   3.971   4.017
 7849SOL    HW124446   5.224   3.986   4.115
 7849SOL    HW224447   5.199   3.873   3.999
 7850SOL     OW24448   0.459   1.826   3.957
 7850SOL    HW124449   0.408   1.886   3.895
 7850SOL    HW224450   0.549   1.808   3.919
 7851SOL     OW24451   6.771   0.255   0.768
 7851SOL    HW124452   6.694   0.311   0.738
 7851SOL    HW224453   6.737   0.167   0.800
 7852SOL     OW24454   2.700   0.298   6.034
 7852SOL    HW124455   2.601   0.295   6.022
 7852SOL    HW224456   2.740   0.216   5.994
 7853SOL     OW24457   3.828   1.558   2.037
 7853SOL    HW124458   3.759   1.627   2.057
 7853SOL    HW224459   3.896   1.557   2.110
 7854SOL     OW24460   3.499   4.633   0.793
 7854SOL    HW124461   3.522   4.690   0.715
 7854SOL    HW224462   3.442   4.557   0.763
 7855SOL     OW24463   3.947   5.863   5.809
 7855SOL    HW124464   3.994   5.943   5.773
 7855SOL    HW224465   3.982   5.842   5.900
 7856SOL     OW24466   6.069   4.606   3.834
 7856SOL    HW124467   5.997   4.645   3.890
 7856SOL    HW224468   6.074   4.655   3.747
 7857SOL     OW24469   6.489   2.768   5.765
 7857SOL    HW124470   6.398   2.753   5.805
 7857SOL    HW224471   6.559   2.737   5.829
 7858SOL     OW24472   5.081   5.318   3.839
 7858SOL    HW124473   5.159   5.352   3.891
 7858SOL    HW224474   5.064   5.223   3.863
 7859SOL     OW24475   6.869   4.305   5.840
 7859SOL    HW124476   6.841   4.400   5.830
 7859SOL    HW224477   6.840   4.270   5.929
 7860SOL     OW24478   4.064   6.308   2.663
 7860SOL    HW124479   4.137   6.245   2.688
 7860SOL    HW224480   3.976   6.269   2.689
 7861SOL     OW24481   3.877   5.493   2.108
 7861SOL    HW124482   3.842   5.504   2.015
 7861SOL    HW224483   3.896   5.582   2.148
 7862SOL     OW24484   3.129   4.494   1.688
 7862SOL    HW124485   3.046   4.480   1.743
 7862SOL    HW224486   3.155   4.408   1.644
 7863SOL     OW24487   6.561   6.869   3.893
 7863SOL    HW124488   6.468   6.833   3.886
 7863SOL    HW224489   6.558   6.969   3.892
 7864SOL     OW24490   6.799   6.752   5.814
 7864SOL    HW124491   6.776   6.736   5.718
 7864SOL    HW224492   6.725   6.718   5.872
 7865SOL     OW24493   4.967   6.893   4.347
 7865SOL    HW124494   5.033   6.909   4.420
 7865SOL    HW224495   5.008   6.916   4.259
 7866SOL     OW24496   2.243   2.295   0.660
 7866SOL    HW124497   2.224   2.295   0.759
 7866SOL    HW224498   2.275   2.385   0.632
 7867SOL     OW24499   5.400   5.426   2.239
 7867SOL    HW124500   5.445   5.339   2.257
 7867SOL    HW224501   5.304   5.421   2.269
 7868SOL     OW24502   5.831   6.954   2.524
 7868SOL    HW124503   5.801   6.867   2.484
 7868SOL    HW224504   5.801   6.959   2.619
 7869SOL     OW24505   6.138   3.687   0.324
 7869SOL    HW124506   6.059   3.694   0.263
 7869SOL    HW224507   6.219   3.723   0.278
 7870SOL     OW24508   5.117   5.683   3.837
 7870SOL    HW124509   5.141   5.756   3.773
 7870SOL    HW224510   5.049   5.623   3.794
 7871SOL     OW24511   5.905   3.804   2.610
 7871SOL    HW124512   5.876   3.753   2.529
 7871SOL    HW224513   5.973   3.751   2.661
 7872SOL     OW24514   1.453   4.592   2.501
 7872SOL    HW124515   1.503   4.661   2.449
 7872SOL    HW224516   1.516   4.522   2.534
 7873SOL     OW24517   5.224   6.912   5.139
 7873SOL    HW124518   5.259   6.922   5.232
 7873SOL    HW224519   5.286   6.854   5.086
 7874SOL     OW24520   5.733   1.259   0.478
 7874SOL    HW124521   5.653   1.313   0.502
 7874SOL    HW224522   5.802   1.319   0.437
 7875SOL     OW24523   3.809   3.417   6.842
 7875SOL    HW124524   3.871   3.409   6.763
 7875SOL    HW224525   3.763   3.329   6.857
 7876SOL     OW24526   6.950   6.995   4.904
 7876SOL    HW124527   6.884   6.930   4.865
 7876SOL    HW224528   6.926   7.014   4.999
 7877SOL     OW24529   0.099   3.311   2.520
 7877SOL    HW124530   0.175   3.252   2.491
 7877SOL    HW224531   0.052   3.346   2.439
 7878SOL     OW24532   5.015   5.044   3.882
 7878SOL    HW124533   5.086   5.018   3.816
 7878SOL    HW224534   4.929   4.998   3.858
 7879SOL     OW24535   4.289   5.823   3.496
 7879SOL    HW124536   4.363   5.760   3.470
 7879SOL    HW224537   4.201   5.778   3.483
 7880SOL     OW24538   0.377   5.212   1.027
 7880SOL    HW124539   0.476   5.225   1.020
 7880SOL    HW224540   0.346   5.243   1.117
 7881SOL     OW24541   6.192   3.474   4.898
 7881SOL    HW124542   6.212   3.427   4.812
 7881SOL    HW224543   6.276   3.513   4.935
 7882SOL     OW24544   1.788   2.805   3.357
 7882SOL    HW124545   1.859   2.824   3.425
 7882SOL    HW224546   1.805   2.716   3.315
 7883SOL     OW24547   2.296   6.790   1.064
 7883SOL    HW124548   2.291   6.742   1.152
 7883SOL    HW224549   2.220   6.855   1.058
 7884SOL     OW24550   1.833   4.287   3.809
 7884SOL    HW124551   1.911   4.308   3.869
 7884SOL    HW224552   1.864   4.285   3.714
 7885SOL     OW24553   6.096   6.484   2.411
 7885SOL    HW124554   6.108   6.582   2.426
 7885SOL    HW224555   6.164   6.452   2.344
 7886SOL     OW24556   4.600   3.521   1.556
 7886SOL    HW124557   4.575   3.561   1.468
 7886SOL    HW224558   4.678   3.459   1.543
 7887SOL     OW24559   3.356   2.509   5.619
 7887SOL    HW124560   3.287   2.555   5.674
 7887SOL    HW224561   3.329   2.414   5.603
 7888SOL     OW24562   0.110   0.155   5.070
 7888SOL    HW124563   0.180   0.157   5.141
 7888SOL    HW224564   0.112   0.066   5.024
 7889SOL     OW24565   0.554   5.102   6.810
 7889SOL    HW124566   0.644   5.145   6.804
 7889SOL    HW224567   0.484   5.172   6.821
 7890SOL     OW24568   0.284   3.541   4.048
 7890SOL    HW124569   0.339   3.551   3.965
 7890SOL    HW224570   0.345   3.539   4.128
 7891SOL     OW24571   1.129   3.824   4.212
 7891SOL    HW124572   1.228   3.837   4.223
 7891SOL    HW224573   1.110   3.730   4.185
 7892SOL     OW24574   0.933   2.352   4.085
 7892SOL    HW124575   0.971   2.330   3.995
 7892SOL    HW224576   0.838   2.381   4.076
 7893SOL     OW24577   5.870   6.762   1.962
 7893SOL    HW124578   5.881   6.849   1.913
 7893SOL    HW224579   5.878   6.686   1.898
 7894SOL     OW24580   2.791   0.923   1.053
 7894SOL    HW124581   2.798   0.985   0.975
 7894SOL    HW224582   2.713   0.950   1.110
 7895SOL     OW24583   4.306   6.487   5.303
 7895SOL    HW124584   4.384   6.524   5.253
 7895SOL    HW224585   4.236   6.558   5.313
 7896SOL     OW24586   5.727   3.522   1.289
 7896SOL    HW124587   5.689   3.475   1.209
 7896SOL    HW224588   5.787   3.460   1.339
 7897SOL     OW24589   3.226   3.034   0.677
 7897SOL    HW124590   3.204   3.131   0.677
 7897SOL    HW224591   3.225   2.998   0.770
 7898SOL     OW24592   4.068   6.823   4.210
 7898SOL    HW124593   3.975   6.842   4.179
 7898SOL    HW224594   4.114   6.909   4.232
 7899SOL     OW24595   5.923   6.783   1.585
 7899SOL    HW124596   5.876   6.801   1.498
 7899SOL    HW224597   6.018   6.758   1.567
 7900SOL     OW24598   0.574   4.245   1.618
 7900SOL    HW124599   0.590   4.308   1.694
 7900SOL    HW224600   0.618   4.280   1.535
 7901SOL     OW24601   4.960   0.965   6.065
 7901SOL    HW124602   4.909   1.031   6.010
 7901SOL    HW224603   4.900   0.890   6.092
 7902SOL     OW24604   6.427   6.019   3.241
 7902SOL    HW124605   6.422   5.958   3.162
 7902SOL    HW224606   6.397   5.970   3.323
 7903SOL     OW24607   4.595   1.618   3.085
 7903SOL    HW124608   4.497   1.630   3.103
 7903SOL    HW224609   4.639   1.707   3.080
 7904SOL     OW24610   5.506   0.760   3.378
 7904SOL    HW124611   5.475   0.854   3.359
 7904SOL    HW224612   5.586   0.740   3.322
 7905SOL     OW24613   6.091   1.688   0.816
 7905SOL    HW124614   6.052   1.780   0.813
 7905SOL    HW224615   6.078   1.650   0.907
 7906SOL     OW24616   1.116   5.732   0.345
 7906SOL    HW124617   1.122   5.831   0.340
 7906SOL    HW224618   1.123   5.694   0.252
 7907SOL     OW24619   6.624   1.090   3.292
 7907SOL    HW124620   6.621   0.996   3.257
 7907SOL    HW224621   6.713   1.130   3.271
 7908SOL     OW24622   1.156   1.429   5.946
 7908SOL    HW124623   1.059   1.404   5.956
 7908SOL    HW224624   1.177   1.507   6.004
 7909SOL     OW24625   4.736   4.248   3.758
 7909SOL    HW124626   4.651   4.293   3.787
 7909SOL    HW224627   4.795   4.316   3.715
 7910SOL     OW24628   1.497   3.476   0.827
 7910SOL    HW124629   1.531   3.475   0.733
 7910SOL    HW224630   1.569   3.509   0.888
 7911SOL     OW24631   0.775   4.069   1.508
 7911SOL    HW124632   0.800   4.065   1.605
 7911SOL    HW224633   0.745   4.162   1.485
 7912SOL     OW24634   5.479   4.054   0.878
 7912SOL    HW124635   5.433   3.968   0.898
 7912SOL    HW224636   5.439   4.128   0.933
 7913SOL     OW24637   1.052   4.308   1.601
 7913SOL    HW124638   1.081   4.271   1.513
 7913SOL    HW224639   1.023   4.403   1.590
 7914SOL     OW24640   0.418   4.513   1.085
 7914SOL    HW124641   0.399   4.544   0.993
 7914SOL    HW224642   0.455   4.420   1.082
 7915SOL     OW24643   4.713   2.040   2.860
 7915SOL    HW124644   4.714   2.140   2.862
 7915SOL    HW224645   4.789   2.007   2.804
 7916SOL     OW24646   0.473   6.494   5.293
 7916SOL    HW124647   0.534   6.445   5.230
 7916SOL    HW224648   0.528   6.538   5.365
 7917SOL     OW24649   4.322   3.105   5.488
 7917SOL    HW124650   4.256   3.127   5.416
 7917SOL    HW224651   4.415   3.110   5.451
 7918SOL     OW24652   6.708   0.884   4.783
 7918SOL    HW124653   6.612   0.911   4.786
 7918SOL    HW224654   6.740   0.863   4.876
 7919SOL     OW24655   0.938   4.161   2.246
 7919SOL    HW124656   0.996   4.202   2.175
 7919SOL    HW224657   0.977   4.180   2.336
 7920SOL     OW24658   5.331   0.145   1.722
 7920SOL    HW124659   5.290   0.188   1.801
 7920SOL    HW224660   5.417   0.191   1.699
 7921SOL     OW24661   5.601   6.989   2.337
 7921SOL    HW124662   5.586   0.021   2.422
 7921SOL    HW224663   5.687   0.003   2.296
 7922SOL     OW24664   0.863   5.836   0.145
 7922SOL    HW124665   0.858   5.834   0.045
 7922SOL    HW224666   0.956   5.859   0.173
 7923SOL     OW24667   3.390   1.665   5.533
 7923SOL    HW124668   3.315   1.681   5.596
 7923SOL    HW224669   3.462   1.612   5.579
 7924SOL     OW24670   4.555   0.294   1.102
 7924SOL    HW124671   4.491   0.350   1.154
 7924SOL    HW224672   4.509   0.211   1.070
 7925SOL     OW24673   1.161   0.107   0.987
 7925SOL    HW124674   1.157   0.182   0.920
 7925SOL    HW224675   1.159   0.145   1.079
 7926SOL     OW24676   5.385   1.860   6.642
 7926SOL    HW124677   5.464   1.860   6.703
 7926SOL    HW224678   5.343   1.950   6.641
 7927SOL     OW24679   4.727   6.943   2.209
 7927SOL    HW124680   4.793   6.890   2.157
 7927SOL    HW224681   4.675   6.882   2.270
 7928SOL     OW24682   6.937   2.108   4.089
 7928SOL    HW124683   6.953   2.010   4.095
 7928SOL    HW224684   7.017   2.156   4.125
 7929SOL     OW24685   3.876   3.737   5.779
 7929SOL    HW124686   3.784   3.699   5.767
 7929SOL    HW224687   3.870   3.818   5.837
 7930SOL     OW24688   3.809   5.289   6.461
 7930SOL    HW124689   3.777   5.242   6.543
 7930SOL    HW224690   3.906   5.268   6.447
 7931SOL     OW24691   4.098   2.925   1.006
 7931SOL    HW124692   4.147   2.863   0.944
 7931SOL    HW224693   4.128   2.908   1.100
 7932SOL     OW24694   1.281   5.429   6.652
 7932SOL    HW124695   1.220   5.417   6.574
 7932SOL    HW224696   1.374   5.400   6.628
 7933SOL     OW24697   6.603   0.452   5.792
 7933SOL    HW124698   6.604   0.496   5.881
 7933SOL    HW224699   6.543   0.372   5.795
 7934SOL     OW24700   1.670   5.242   6.751
 7934SOL    HW124701   1.637   5.273   6.662
 7934SOL    HW224702   1.594   5.244   6.817
 7935SOL     OW24703   5.364   6.379   1.548
 7935SOL    HW124704   5.409   6.323   1.478
 7935SOL    HW224705   5.377   6.336   1.638
 7936SOL     OW24706   2.948   5.773   3.241
 7936SOL    HW124707   2.918   5.776   3.336
 7936SOL    HW224708   3.021   5.840   3.227
 7937SOL     OW24709   1.289   6.081   3.902
 7937SOL    HW124710   1.250   6.007   3.846
 7937SOL    HW224711   1.272   6.062   3.998
 7938SOL     OW24712   5.828   6.115   5.322
 7938SOL    HW124713   5.889   6.191   5.346
 7938SOL    HW224714   5.879   6.029   5.327
 7939SOL     OW24715   1.285   2.308   5.537
 7939SOL    HW124716   1.284   2.283   5.634
 7939SOL    HW224717   1.317   2.230   5.483
 7940SOL     OW24718   2.746   2.266   2.918
 7940SOL    HW124719   2.808   2.263   2.840
 7940SOL    HW224720   2.707   2.358   2.926
 7941SOL     OW24721   5.387   6.861   2.767
 7941SOL    HW124722   5.398   6.960   2.765
 7941SOL    HW224723   5.390   6.826   2.673
 7942SOL     OW24724   0.735   3.628   3.054
 7942SOL    HW124725   0.777   3.542   3.026
 7942SOL    HW224726   0.658   3.610   3.115
 7943SOL     OW24727   0.662   4.426   5.481
 7943SOL    HW124728   0.590   4.356   5.488
 7943SOL    HW224729   0.739   4.391   5.429
 7944SOL     OW24730   0.807   2.812   1.477
 7944SOL    HW124731   0.725   2.869   1.479
 7944SOL    HW224732   0.878   2.858   1.424
 7945SOL     OW24733   6.059   5.596   2.014
 7945SOL    HW124734   6.108   5.585   2.100
 7945SOL    HW224735   5.987   5.664   2.025
 7946SOL     OW24736   3.338   0.658   5.859
 7946SOL    HW124737   3.331   0.636   5.956
 7946SOL    HW224738   3.411   0.724   5.845
 7947SOL     OW24739   2.573   1.765   5.288
 7947SOL    HW124740   2.478   1.783   5.314
 7947SOL    HW224741   2.632   1.781   5.367
 7948SOL     OW24742   0.736   5.496   0.837
 7948SOL    HW124743   0.746   5.398   0.822
 7948SOL    HW224744   0.792   5.523   0.916
 7949SOL     OW24745   4.497   4.128   6.208
 7949SOL    HW124746   4.581   4.097   6.252
 7949SOL    HW224747   4.519   4.180   6.126
 7950SOL     OW24748   4.514   5.779   4.435
 7950SOL    HW124749   4.435   5.817   4.388
 7950SOL    HW224750   4.573   5.733   4.369
 7951SOL     OW24751   1.682   5.000   2.248
 7951SOL    HW124752   1.625   5.050   2.314
 7951SOL    HW224753   1.625   4.971   2.171
 7952SOL     OW24754   0.240   3.041   0.501
 7952SOL    HW124755   0.320   3.070   0.554
 7952SOL    HW224756   0.267   3.027   0.406
 7953SOL     OW24757   4.598   2.321   1.855
 7953SOL    HW124758   4.547   2.263   1.790
 7953SOL    HW224759   4.696   2.306   1.842
 7954SOL     OW24760   3.742   4.595   6.336
 7954SOL    HW124761   3.674   4.664   6.365
 7954SOL    HW224762   3.834   4.630   6.352
 7955SOL     OW24763   2.227   1.409   6.599
 7955SOL    HW124764   2.145   1.352   6.590
 7955SOL    HW224765   2.306   1.360   6.563
 7956SOL     OW24766   4.797   1.005   1.879
 7956SOL    HW124767   4.798   1.072   1.953
 7956SOL    HW224768   4.885   0.956   1.878
 7957SOL     OW24769   1.676   1.186   0.461
 7957SOL    HW124770   1.718   1.150   0.544
 7957SOL    HW224771   1.592   1.234   0.484
 7958SOL     OW24772   4.846   4.799   6.134
 7958SOL    HW124773   4.792   4.839   6.060
 7958SOL    HW224774   4.786   4.751   6.198
 7959SOL     OW24775   5.349   6.723   0.275
 7959SOL    HW124776   5.380   6.761   0.188
 7959SOL    HW224777   5.272   6.778   0.309
 7960SOL     OW24778   1.657   0.970   6.049
 7960SOL    HW124779   1.667   0.873   6.071
 7960SOL    HW224780   1.566   1.001   6.075
 7961SOL     OW24781   6.731   0.721   1.306
 7961SOL    HW124782   6.740   0.807   1.254
 7961SOL    HW224783   6.799   0.656   1.275
 7962SOL     OW24784   0.559   1.143   5.383
 7962SOL    HW124785   0.569   1.044   5.377
 7962SOL    HW224786   0.493   1.174   5.315
 7963SOL     OW24787   6.248   5.700   4.428
 7963SOL    HW124788   6.226   5.664   4.518
 7963SOL    HW224789   6.339   5.668   4.401
 7964SOL     OW24790   6.537   3.499   3.025
 7964SOL    HW124791   6.565   3.512   2.930
 7964SOL    HW224792   6.467   3.428   3.030
 7965SOL     OW24793   3.827   2.145   6.422
 7965SOL    HW124794   3.779   2.136   6.509
 7965SOL    HW224795   3.760   2.160   6.349
 7966SOL     OW24796   2.981   3.302   5.963
 7966SOL    HW124797   2.980   3.209   5.927
 7966SOL    HW224798   2.891   3.325   5.999
 7967SOL     OW24799   2.865   5.610   1.774
 7967SOL    HW124800   2.919   5.540   1.821
 7967SOL    HW224801   2.873   5.598   1.675
 7968SOL     OW24802   6.168   2.372   4.627
 7968SOL    HW124803   6.177   2.288   4.680
 7968SOL    HW224804   6.259   2.404   4.602
 7969SOL     OW24805   6.296   5.884   1.112
 7969SOL    HW124806   6.342   5.962   1.154
 7969SOL    HW224807   6.362   5.834   1.055
 7970SOL     OW24808   6.494   3.883   2.096
 7970SOL    HW124809   6.576   3.834   2.067
 7970SOL    HW224810   6.484   3.874   2.195
 7971SOL     OW24811   3.198   1.786   1.164
 7971SOL    HW124812   3.230   1.694   1.186
 7971SOL    HW224813   3.269   1.835   1.114
 7972SOL     OW24814   3.038   3.535   1.122
 7972SOL    HW124815   3.049   3.458   1.184
 7972SOL    HW224816   2.941   3.549   1.102
 7973SOL     OW24817   4.549   4.868   4.349
 7973SOL    HW124818   4.571   4.919   4.432
 7973SOL    HW224819   4.633   4.829   4.311
 7974SOL     OW24820   6.247   0.831   6.038
 7974SOL    HW124821   6.167   0.830   5.978
 7974SOL    HW224822   6.235   0.900   6.109
 7975SOL     OW24823   5.333   0.286   0.825
 7975SOL    HW124824   5.266   0.281   0.899
 7975SOL    HW224825   5.388   0.368   0.835
 7976SOL     OW24826   0.917   0.303   5.997
 7976SOL    HW124827   1.006   0.340   6.023
 7976SOL    HW224828   0.893   0.227   6.058
 7977SOL     OW24829   4.049   5.761   2.838
 7977SOL    HW124830   3.992   5.813   2.774
 7977SOL    HW224831   4.052   5.810   2.926
 7978SOL     OW24832   6.704   2.682   6.602
 7978SOL    HW124833   6.678   2.735   6.522
 7978SOL    HW224834   6.788   2.718   6.641
 7979SOL     OW24835   2.838   4.831   5.548
 7979SOL    HW124836   2.906   4.894   5.510
 7979SOL    HW224837   2.855   4.739   5.516
 7980SOL     OW24838   3.353   5.667   6.856
 7980SOL    HW124839   3.329   5.722   6.935
 7980SOL    HW224840   3.446   5.632   6.867
 7981SOL     OW24841   1.219   4.580   1.868
 7981SOL    HW124842   1.282   4.638   1.817
 7981SOL    HW224843   1.216   4.489   1.826
 7982SOL     OW24844   1.429   1.484   6.518
 7982SOL    HW124845   1.387   1.473   6.427
 7982SOL    HW224846   1.372   1.545   6.573
 7983SOL     OW24847   6.412   2.407   0.639
 7983SOL    HW124848   6.497   2.397   0.588
 7983SOL    HW224849   6.349   2.334   0.613
 7984SOL     OW24850   0.415   1.198   0.294
 7984SOL    HW124851   0.368   1.155   0.216
 7984SOL    HW224852   0.357   1.270   0.332
 7985SOL     OW24853   2.785   1.818   4.488
 7985SOL    HW124854   2.710   1.784   4.430
 7985SOL    HW224855   2.794   1.759   4.568
 7986SOL     OW24856   2.815   0.760   6.333
 7986SOL    HW124857   2.883   0.688   6.321
 7986SOL    HW224858   2.729   0.721   6.367
 7987SOL     OW24859   2.101   2.630   0.034
 7987SOL    HW124860   2.052   2.621   0.121
 7987SOL    HW224861   2.051   2.584   6.979
 7988SOL     OW24862   1.521   0.869   2.799
 7988SOL    HW124863   1.562   0.957   2.773
 7988SOL    HW224864   1.488   0.822   2.717
 7989SOL     OW24865   2.670   2.984   0.337
 7989SOL    HW124866   2.603   3.056   0.357
 7989SOL    HW224867   2.745   3.023   0.283
 7990SOL     OW24868   2.461   4.832   4.620
 7990SOL    HW124869   2.481   4.894   4.545
 7990SOL    HW224870   2.502   4.743   4.601
 7991SOL     OW24871   5.896   1.667   4.127
 7991SOL    HW124872   5.989   1.699   4.109
 7991SOL    HW224873   5.897   1.568   4.144
 7992SOL     OW24874   1.401   0.657   0.566
 7992SOL    HW124875   1.325   0.675   0.629
 7992SOL    HW224876   1.442   0.569   0.589
 7993SOL     OW24877   0.343   6.947   0.957
 7993SOL    HW124878   0.402   6.937   1.037
 7993SOL    HW224879   0.321   0.026   0.942
 7994SOL     OW24880   4.079   0.178   3.393
 7994SOL    HW124881   4.161   0.153   3.445
 7994SOL    HW224882   4.002   0.189   3.456
 7995SOL     OW24883   5.462   5.844   3.099
 7995SOL    HW124884   5.399   5.890   3.037
 7995SOL    HW224885   5.526   5.911   3.137
 7996SOL     OW24886   3.715   6.278   4.450
 7996SOL    HW124887   3.715   6.217   4.530
 7996SOL    HW224888   3.809   6.300   4.425
 7997SOL     OW24889   6.807   1.143   0.017
 7997SOL    HW124890   6.821   1.241   0.031
 7997SOL    HW224891   6.752   1.129   6.952
 7998SOL     OW24892   3.560   0.579   0.111
 7998SOL    HW124893   3.617   0.630   0.047
 7998SOL    HW224894   3.564   0.622   0.201
 7999SOL     OW24895   0.644   1.210   6.045
 7999SOL    HW124896   0.596   1.197   5.958
 7999SOL    HW224897   0.577   1.226   6.118
 8000SOL     OW24898   5.076   6.408   6.650
 8000SOL    HW124899   5.006   6.347   6.688
 8000SOL    HW224900   5.146   6.424   6.719
 8001SOL     OW24901   4.201   6.245   1.768
 8001SOL    HW124902   4.154   6.331   1.748
 8001SOL    HW224903   4.299   6.262   1.776
 8002SOL     OW24904   1.244   0.462   6.349
 8002SOL    HW124905   1.281   0.393   6.287
 8002SOL    HW224906   1.255   0.431   6.443
 8003SOL     OW24907   2.339   5.761   1.954
 8003SOL    HW124908   2.337   5.861   1.964
 8003SOL    HW224909   2.417   5.735   1.897
 8004SOL     OW24910   1.387   3.555   3.492
 8004SOL    HW124911   1.468   3.610   3.508
 8004SOL    HW224912   1.390   3.473   3.550
 8005SOL     OW24913   2.809   0.603   3.353
 8005SOL    HW124914   2.906   0.604   3.328
 8005SOL    HW224915   2.798   0.565   3.445
 8006SOL     OW24916   2.195   5.848   5.308
 8006SOL    HW124917   2.111   5.895   5.332
 8006SOL    HW224918   2.228   5.795   5.387
 8007SOL     OW24919   5.859   1.746   6.388
 8007SOL    HW124920   5.867   1.832   6.440
 8007SOL    HW224921   5.918   1.677   6.429
 8008SOL     OW24922   3.922   5.985   6.336
 8008SOL    HW124923   3.841   5.927   6.344
 8008SOL    HW224924   3.895   6.081   6.330
 8009SOL     OW24925   4.837   0.603   0.639
 8009SOL    HW124926   4.901   0.556   0.578
 8009SOL    HW224927   4.754   0.547   0.650
 8010SOL     OW24928   2.169   2.215   4.810
 8010SOL    HW124929   2.208   2.124   4.793
 8010SOL    HW224930   2.236   2.271   4.860
 8011SOL     OW24931   3.523   2.074   1.195
 8011SOL    HW124932   3.469   2.017   1.134
 8011SOL    HW224933   3.550   2.158   1.148
 8012SOL     OW24934   1.693   3.528   7.006
 8012SOL    HW124935   1.781   3.480   7.009
 8012SOL    HW224936   1.703   3.613   6.955
 8013SOL     OW24937   1.054   4.893   2.956
 8013SOL    HW124938   1.062   4.828   3.032
 8013SOL    HW224939   1.146   4.914   2.921
 8014SOL     OW24940   1.666   0.069   4.687
 8014SOL    HW124941   1.674   0.111   4.596
 8014SOL    HW224942   1.671   6.987   4.678
 8015SOL     OW24943   1.911   0.563   6.278
 8015SOL    HW124944   1.997   0.519   6.301
 8015SOL    HW224945   1.875   0.524   6.193
 8016SOL     OW24946   4.215   0.851   5.624
 8016SOL    HW124947   4.195   0.924   5.559
 8016SOL    HW224948   4.158   0.862   5.705
 8017SOL     OW24949   6.135   0.027   6.839
 8017SOL    HW124950   6.200   6.970   6.857
 8017SOL    HW224951   6.055   0.016   6.897
 8018SOL     OW24952   3.338   2.503   0.622
 8018SOL    HW124953   3.292   2.584   0.586
 8018SOL    HW224954   3.409   2.473   0.558
 8019SOL     OW24955   1.978   4.950   1.265
 8019SOL    HW124956   1.964   4.882   1.193
 8019SOL    HW224957   2.057   5.007   1.243
 8020SOL     OW24958   6.692   6.792   6.379
 8020SOL    HW124959   6.760   6.718   6.381
 8020SOL    HW224960   6.661   6.806   6.286
 8021SOL     OW24961   1.363   3.075   1.136
 8021SOL    HW124962   1.429   3.007   1.103
 8021SOL    HW224963   1.403   3.124   1.213
 8022SOL     OW24964   6.071   0.515   1.956
 8022SOL    HW124965   6.054   0.517   2.054
 8022SOL    HW224966   6.098   0.422   1.929
 8023SOL     OW24967   5.579   4.642   2.353
 8023SOL    HW124968   5.502   4.586   2.382
 8023SOL    HW224969   5.664   4.591   2.363
 8024SOL     OW24970   1.137   5.368   6.432
 8024SOL    HW124971   1.205   5.304   6.395
 8024SOL    HW224972   1.051   5.320   6.448
 8025SOL     OW24973   1.848   5.815   0.755
 8025SOL    HW124974   1.769   5.761   0.784
 8025SOL    HW224975   1.899   5.847   0.835
 8026SOL     OW24976   6.885   3.736   1.005
 8026SOL    HW124977   6.814   3.700   1.065
 8026SOL    HW224978   6.903   3.832   1.027
 8027SOL     OW24979   3.473   0.117   5.429
 8027SOL    HW124980   3.434   0.183   5.493
 8027SOL    HW224981   3.569   0.141   5.411
 8028SOL     OW24982   3.839   4.952   4.920
 8028SOL    HW124983   3.739   4.943   4.919
 8028SOL    HW224984   3.873   4.931   5.012
 8029SOL     OW24985   5.328   2.842   2.088
 8029SOL    HW124986   5.385   2.791   2.025
 8029SOL    HW224987   5.232   2.823   2.070
 8030SOL     OW24988   5.734   5.272   0.019
 8030SOL    HW124989   5.719   5.285   0.117
 8030SOL    HW224990   5.652   5.299   6.986
 8031SOL     OW24991   6.939   6.087   2.498
 8031SOL    HW124992   7.011   6.041   2.550
 8031SOL    HW224993   6.948   6.064   2.401
 8032SOL     OW24994   5.744   4.225   1.879
 8032SOL    HW124995   5.645   4.224   1.893
 8032SOL    HW224996   5.766   4.184   1.790
 8033SOL     OW24997   4.531   3.169   0.027
 8033SOL    HW124998   4.573   3.155   6.955
 8033SOL    HW224999   4.453   3.231   0.017
 8034SOL     OW25000   4.825   0.097   6.018
 8034SOL    HW125001   4.745   0.073   6.072
 8034SOL    HW225002   4.896   0.135   6.078
 8035SOL     OW25003   5.324   1.856   2.140
 8035SOL    HW125004   5.344   1.820   2.049
 8035SOL    HW225005   5.230   1.832   2.165
 8036SOL     OW25006   6.227   3.868   4.062
 8036SOL    HW125007   6.315   3.828   4.034
 8036SOL    HW225008   6.206   3.946   4.003
 8037SOL     OW25009   2.164   3.239   6.839
 8037SOL    HW125010   2.123   3.323   6.874
 8037SOL    HW225011   2.240   3.212   6.898
 8038SOL     OW25012   4.548   0.073   2.451
 8038SOL    HW125013   4.532   6.997   2.421
 8038SOL    HW225014   4.467   0.108   2.497
 8039SOL     OW25015   6.706   1.507   4.944
 8039SOL    HW125016   6.718   1.425   5.000
 8039SOL    HW225017   6.656   1.576   4.997
 8040SOL     OW25018   0.938   5.694   6.926
 8040SOL    HW125019   0.954   5.656   6.836
 8040SOL    HW225020   1.014   5.671   6.987
 8041SOL     OW25021   3.112   0.939   3.031
 8041SOL    HW125022   3.039   0.991   2.986
 8041SOL    HW225023   3.197   0.991   3.027
 8042SOL     OW25024   3.901   3.494   5.243
 8042SOL    HW125025   3.992   3.524   5.214
 8042SOL    HW225026   3.874   3.544   5.326
 8043SOL     OW25027   3.407   5.361   0.931
 8043SOL    HW125028   3.325   5.354   0.987
 8043SOL    HW225029   3.466   5.433   0.967
 8044SOL     OW25030   4.135   3.549   0.718
 8044SOL    HW125031   4.139   3.602   0.633
 8044SOL    HW225032   4.139   3.452   0.697
 8045SOL     OW25033   5.865   2.305   2.347
 8045SOL    HW125034   5.956   2.317   2.309
 8045SOL    HW225035   5.856   2.213   2.385
 8046SOL     OW25036   0.677   4.336   2.570
 8046SOL    HW125037   0.649   4.245   2.599
 8046SOL    HW225038   0.764   4.360   2.613
 8047SOL     OW25039   3.637   6.008   6.513
 8047SOL    HW125040   3.614   5.942   6.585
 8047SOL    HW225041   3.630   6.101   6.550
 8048SOL     OW25042   3.956   1.666   0.096
 8048SOL    HW125043   3.928   1.762   0.091
 8048SOL    HW225044   3.909   1.614   0.024
 8049SOL     OW25045   1.066   0.028   0.665
 8049SOL    HW125046   0.975   0.066   0.677
 8049SOL    HW225047   1.119   0.086   0.603
 8050SOL     OW25048   1.645   3.159   3.806
 8050SOL    HW125049   1.722   3.102   3.778
 8050SOL    HW225050   1.678   3.248   3.836
 8051SOL     OW25051   4.926   6.143   4.787
 8051SOL    HW125052   4.981   6.219   4.819
 8051SOL    HW225053   4.864   6.113   4.860
 8052SOL     OW25054   2.791   1.818   1.434
 8052SOL    HW125055   2.843   1.788   1.514
 8052SOL    HW225056   2.729   1.893   1.460
 8053SOL     OW25057   3.548   2.828   4.956
 8053SOL    HW125058   3.622   2.868   5.009
 8053SOL    HW225059   3.560   2.728   4.952
 8054SOL     OW25060   0.058   4.214   4.958
 8054SOL    HW125061   0.009   4.298   4.938
 8054SOL    HW225062   0.144   4.212   4.907
 8055SOL     OW25063   6.378   0.626   5.482
 8055SOL    HW125064   6.328   0.579   5.409
 8055SOL    HW225065   6.356   0.724   5.480
 8056SOL     OW25066   2.892   0.948   4.798
 8056SOL    HW125067   2.806   0.999   4.803
 8056SOL    HW225068   2.876   0.857   4.761
 8057SOL     OW25069   2.518   2.436   3.238
 8057SOL    HW125070   2.560   2.438   3.329
 8057SOL    HW225071   2.568   2.372   3.180
 8058SOL     OW25072   3.756   6.872   3.168
 8058SOL    HW125073   3.763   6.866   3.268
 8058SOL    HW225074   3.662   6.897   3.143
 8059SOL     OW25075   2.392   1.086   4.966
 8059SOL    HW125076   2.469   1.085   5.030
 8059SOL    HW225077   2.318   1.140   5.006
 8060SOL     OW25078   0.209   2.110   6.330
 8060SOL    HW125079   0.280   2.172   6.362
 8060SOL    HW225080   0.243   2.057   6.253
 8061SOL     OW25081   0.581   0.243   2.477
 8061SOL    HW125082   0.640   0.323   2.486
 8061SOL    HW225083   0.599   0.179   2.552
 8062SOL     OW25084   3.861   4.834   3.832
 8062SOL    HW125085   3.939   4.820   3.893
 8062SOL    HW225086   3.894   4.856   3.740
 8063SOL     OW25087   2.391   1.597   3.003
 8063SOL    HW125088   2.477   1.620   3.050
 8063SOL    HW225089   2.365   1.503   3.025
 8064SOL     OW25090   6.098   2.463   0.879
 8064SOL    HW125091   6.007   2.505   0.889
 8064SOL    HW225092   6.165   2.534   0.857
 8065SOL     OW25093   2.990   6.109   3.979
 8065SOL    HW125094   3.016   6.141   3.888
 8065SOL    HW225095   3.071   6.076   4.027
 8066SOL     OW25096   0.183   0.510   5.726
 8066SOL    HW125097   0.113   0.581   5.720
 8066SOL    HW225098   0.217   0.489   5.635
 8067SOL     OW25099   5.234   2.671   2.620
 8067SOL    HW125100   5.216   2.763   2.587
 8067SOL    HW225101   5.238   2.608   2.543
 8068SOL     OW25102   6.507   4.413   1.477
 8068SOL    HW125103   6.595   4.408   1.524
 8068SOL    HW225104   6.471   4.506   1.482
 8069SOL     OW25105   1.534   5.004   1.321
 8069SOL    HW125106   1.578   5.018   1.232
 8069SOL    HW225107   1.477   4.923   1.318
 8070SOL     OW25108   4.094   3.299   0.334
 8070SOL    HW125109   4.089   3.274   0.237
 8070SOL    HW225110   4.178   3.351   0.350
 8071SOL     OW25111   2.923   6.610   5.423
 8071SOL    HW125112   2.976   6.542   5.373
 8071SOL    HW225113   2.887   6.679   5.360
 8072SOL     OW25114   3.355   1.929   1.005
 8072SOL    HW125115   3.418   1.986   0.953
 8072SOL    HW225116   3.269   1.919   0.954
 8073SOL     OW25117   3.901   6.341   5.498
 8073SOL    HW125118   3.845   6.405   5.551
 8073SOL    HW225119   3.987   6.325   5.546
 8074SOL     OW25120   2.874   2.319   0.617
 8074SOL    HW125121   2.889   2.251   0.688
 8074SOL    HW225122   2.934   2.300   0.539
 8075SOL     OW25123   6.653   0.064   0.939
 8075SOL    HW125124   6.620   0.114   1.019
 8075SOL    HW225125   6.616   6.989   0.939
 8076SOL     OW25126   5.950   0.014   5.529
 8076SOL    HW125127   5.934   7.000   5.622
 8076SOL    HW225128   5.889   0.090   5.508
 8077SOL     OW25129   3.663   6.017   2.554
 8077SOL    HW125130   3.703   6.097   2.600
 8077SOL    HW225131   3.606   5.966   2.618
 8078SOL     OW25132   0.879   1.985   1.041
 8078SOL    HW125133   0.903   2.079   1.065
 8078SOL    HW225134   0.962   1.932   1.027
 8079SOL     OW25135   6.604   1.727   3.532
 8079SOL    HW125136   6.516   1.720   3.579
 8079SOL    HW225137   6.659   1.798   3.575
 8080SOL     OW25138   0.974   2.009   2.782
 8080SOL    HW125139   1.021   2.030   2.868
 8080SOL    HW225140   0.921   2.088   2.753
 8081SOL     OW25141   6.157   5.574   6.419
 8081SOL    HW125142   6.246   5.530   6.403
 8081SOL    HW225143   6.105   5.519   6.485
 8082SOL     OW25144   3.628   0.779   2.451
 8082SOL    HW125145   3.727   0.785   2.461
 8082SOL    HW225146   3.586   0.860   2.493
 8083SOL     OW25147   4.883   2.697   3.510
 8083SOL    HW125148   4.974   2.689   3.469
 8083SOL    HW225149   4.867   2.792   3.537
 8084SOL     OW25150   3.589   0.065   6.569
 8084SOL    HW125151   3.651   0.116   6.628
 8084SOL    HW225152   3.512   0.122   6.543
 8085SOL     OW25153   5.716   5.922   2.218
 8085SOL    HW125154   5.716   5.899   2.315
 8085SOL    HW225155   5.701   6.020   2.206
 8086SOL     OW25156   6.621   1.000   1.903
 8086SOL    HW125157   6.719   0.985   1.891
 8086SOL    HW225158   6.580   0.919   1.945
 8087SOL     OW25159   1.658   0.138   0.178
 8087SOL    HW125160   1.583   0.189   0.221
 8087SOL    HW225161   1.650   0.144   0.079
 8088SOL     OW25162   6.007   0.834   1.373
 8088SOL    HW125163   6.061   0.890   1.436
 8088SOL    HW225164   6.041   0.740   1.374
 8089SOL     OW25165   5.399   2.484   0.228
 8089SOL    HW125166   5.366   2.469   0.135
 8089SOL    HW225167   5.492   2.447   0.237
 8090SOL     OW25168   3.700   1.051   6.314
 8090SOL    HW125169   3.706   1.135   6.260
 8090SOL    HW225170   3.605   1.024   6.324
 8091SOL     OW25171   1.797   4.031   4.847
 8091SOL    HW125172   1.823   3.939   4.875
 8091SOL    HW225173   1.809   4.040   4.748
 8092SOL     OW25174   5.342   1.827   5.494
 8092SOL    HW125175   5.338   1.890   5.571
 8092SOL    HW225176   5.376   1.738   5.525
 8093SOL     OW25177   2.641   5.597   3.264
 8093SOL    HW125178   2.671   5.513   3.309
 8093SOL    HW225179   2.699   5.615   3.185
 8094SOL     OW25180   6.929   3.228   4.717
 8094SOL    HW125181   6.849   3.187   4.672
 8094SOL    HW225182   7.012   3.202   4.668
 8095SOL     OW25183   0.961   4.541   4.767
 8095SOL    HW125184   1.036   4.521   4.830
 8095SOL    HW225185   0.925   4.632   4.785
 8096SOL     OW25186   2.314   0.255   2.401
 8096SOL    HW125187   2.234   0.200   2.377
 8096SOL    HW225188   2.302   0.293   2.492
 8097SOL     OW25189   4.408   0.098   5.090
 8097SOL    HW125190   4.418   0.156   5.009
 8097SOL    HW225191   4.405   0.156   5.172
 8098SOL     OW25192   1.862   6.468   3.526
 8098SOL    HW125193   1.901   6.379   3.501
 8098SOL    HW225194   1.861   6.477   3.625
 8099SOL     OW25195   4.211   6.122   4.141
 8099SOL    HW125196   4.132   6.073   4.106
 8099SOL    HW225197   4.268   6.154   4.066
 8100SOL     OW25198   0.037   0.299   6.751
 8100SOL    HW125199   0.134   0.300   6.773
 8100SOL    HW225200   0.020   0.238   6.674
 8101SOL     OW25201   1.519   5.660   1.378
 8101SOL    HW125202   1.506   5.727   1.451
 8101SOL    HW225203   1.607   5.614   1.390
 8102SOL     OW25204   0.308   3.687   3.558
 8102SOL    HW125205   0.274   3.734   3.477
 8102SOL    HW225206   0.356   3.752   3.617
 8103SOL     OW25207   3.179   6.802   1.269
 8103SOL    HW125208   3.191   6.896   1.237
 8103SOL    HW225209   3.102   6.760   1.220
 8104SOL     OW25210   1.824   0.781   6.403
 8104SOL    HW125211   1.888   0.705   6.409
 8104SOL    HW225212   1.827   0.834   6.488
 8105SOL     OW25213   6.980   3.739   3.241
 8105SOL    HW125214   6.951   3.646   3.216
 8105SOL    HW225215   6.972   3.799   3.161
 8106SOL     OW25216   3.259   5.446   3.341
 8106SOL    HW125217   3.200   5.456   3.261
 8106SOL    HW225218   3.286   5.536   3.375
 8107SOL     OW25219   0.776   5.314   4.091
 8107SOL    HW125220   0.683   5.350   4.083
 8107SOL    HW225221   0.842   5.388   4.077
 8108SOL     OW25222   6.434   3.020   6.528
 8108SOL    HW125223   6.341   3.016   6.491
 8108SOL    HW225224   6.438   2.968   6.614
 8109SOL     OW25225   6.840   3.937   5.903
 8109SOL    HW125226   6.884   4.024   5.927
 8109SOL    HW225227   6.766   3.919   5.967
 8110SOL     OW25228   3.589   5.675   2.227
 8110SOL    HW125229   3.533   5.674   2.145
 8110SOL    HW225230   3.629   5.585   2.242
 8111SOL     OW25231   4.853   0.921   4.818
 8111SOL    HW125232   4.893   0.924   4.910
 8111SOL    HW225233   4.871   1.008   4.772
 8112SOL     OW25234   2.441   2.640   4.498
 8112SOL    HW125235   2.529   2.624   4.543
 8112SOL    HW225236   2.367   2.606   4.556
 8113SOL     OW25237   0.962   3.514   0.666
 8113SOL    HW125238   0.986   3.439   0.728
 8113SOL    HW225239   0.949   3.477   0.574
 8114SOL     OW25240   1.427   4.158   2.709
 8114SOL    HW125241   1.358   4.129   2.775
 8114SOL    HW225242   1.514   4.115   2.731
 8115SOL     OW25243   3.957   6.942   6.402
 8115SOL    HW125244   3.931   6.866   6.462
 8115SOL    HW225245   4.055   6.960   6.411
 8116SOL     OW25246   4.256   4.787   0.597
 8116SOL    HW125247   4.348   4.767   0.564
 8116SOL    HW225248   4.261   4.842   0.680
 8117SOL     OW25249   1.783   0.073   3.516
 8117SOL    HW125250   1.757   0.160   3.476
 8117SOL    HW225251   1.864   0.037   3.470
 8118SOL     OW25252   5.237   4.283   6.656
 8118SOL    HW125253   5.140   4.303   6.666
 8118SOL    HW225254   5.253   4.185   6.667
 8119SOL     OW25255   5.322   5.297   6.467
 8119SOL    HW125256   5.330   5.224   6.535
 8119SOL    HW225257   5.376   5.273   6.387
 8120SOL     OW25258   3.316   4.781   1.258
 8120SOL    HW125259   3.318   4.748   1.164
 8120SOL    HW225260   3.365   4.868   1.264
 8121SOL     OW25261   0.088   4.925   1.858
 8121SOL    HW125262   0.113   5.012   1.900
 8121SOL    HW225263   0.075   4.856   1.930
 8122SOL     OW25264   6.996   4.519   3.351
 8122SOL    HW125265   6.898   4.533   3.365
 8122SOL    HW225266   0.010   4.575   3.274
 8123SOL     OW25267   6.679   1.731   6.267
 8123SOL    HW125268   6.748   1.800   6.244
 8123SOL    HW225269   6.714   1.640   6.242
 8124SOL     OW25270   4.947   6.113   1.699
 8124SOL    HW125271   4.861   6.118   1.650
 8124SOL    HW225272   5.007   6.188   1.671
 8125SOL     OW25273   1.863   1.539   2.877
 8125SOL    HW125274   1.821   1.452   2.905
 8125SOL    HW225275   1.950   1.550   2.924
 8126SOL     OW25276   5.213   4.329   3.036
 8126SOL    HW125277   5.225   4.392   3.113
 8126SOL    HW225278   5.133   4.272   3.053
 8127SOL     OW25279   2.813   3.658   5.956
 8127SOL    HW125280   2.895   3.714   5.951
 8127SOL    HW225281   2.735   3.715   5.982
 8128SOL     OW25282   3.142   2.163   2.333
 8128SOL    HW125283   3.157   2.255   2.295
 8128SOL    HW225284   3.154   2.095   2.261
 8129SOL     OW25285   3.441   1.740   5.940
 8129SOL    HW125286   3.465   1.790   6.023
 8129SOL    HW225287   3.502   1.767   5.865
 8130SOL     OW25288   0.642   4.124   6.709
 8130SOL    HW125289   0.624   4.039   6.759
 8130SOL    HW225290   0.639   4.201   6.772
 8131SOL     OW25291   2.370   2.186   1.638
 8131SOL    HW125292   2.431   2.227   1.571
 8131SOL    HW225293   2.330   2.102   1.601
 8132SOL     OW25294   5.657   6.678   5.708
 8132SOL    HW125295   5.579   6.618   5.725
 8132SOL    HW225296   5.627   6.757   5.654
 8133SOL     OW25297   3.306   5.183   2.303
 8133SOL    HW125298   3.244   5.226   2.369
 8133SOL    HW225299   3.388   5.241   2.293
 8134SOL     OW25300   6.754   2.143   5.997
 8134SOL    HW125301   6.778   2.224   5.943
 8134SOL    HW225302   6.659   2.149   6.026
 8135SOL     OW25303   2.996   6.664   1.128
 8135SOL    HW125304   2.946   6.682   1.043
 8135SOL    HW225305   2.930   6.653   1.203
 8136SOL     OW25306   4.413   5.784   2.860
 8136SOL    HW125307   4.342   5.844   2.898
 8136SOL    HW225308   4.483   5.840   2.815
 8137SOL     OW25309   3.004   1.464   5.277
 8137SOL    HW125310   3.088   1.429   5.236
 8137SOL    HW225311   3.014   1.562   5.294
 8138SOL     OW25312   5.505   1.055   0.809
 8138SOL    HW125313   5.514   1.054   0.909
 8138SOL    HW225314   5.408   1.050   0.784
 8139SOL     OW25315   0.155   0.719   1.945
 8139SOL    HW125316   0.252   0.698   1.953
 8139SOL    HW225317   0.116   0.731   2.036
 8140SOL     OW25318   5.711   0.546   6.618
 8140SOL    HW125319   5.756   0.595   6.544
 8140SOL    HW225320   5.615   0.531   6.594
 8141SOL     OW25321   4.413   5.389   4.698
 8141SOL    HW125322   4.342   5.457   4.715
 8141SOL    HW225323   4.444   5.350   4.785
 8142SOL     OW25324   0.367   5.503   6.944
 8142SOL    HW125325   0.404   5.585   6.900
 8142SOL    HW225326   0.337   5.526   0.019
 8143SOL     OW25327   5.722   3.924   0.803
 8143SOL    HW125328   5.648   3.985   0.831
 8143SOL    HW225329   5.728   3.847   0.867
 8144SOL     OW25330   5.915   5.950   6.712
 8144SOL    HW125331   5.948   5.922   6.802
 8144SOL    HW225332   5.981   6.012   6.670
 8145SOL     OW25333   5.409   5.858   1.333
 8145SOL    HW125334   5.417   5.820   1.426
 8145SOL    HW225335   5.343   5.933   1.334
 8146SOL     OW25336   3.682   0.745   4.652
 8146SOL    HW125337   3.709   0.710   4.562
 8146SOL    HW225338   3.600   0.696   4.683
 8147SOL     OW25339   6.099   2.108   1.478
 8147SOL    HW125340   6.056   2.053   1.406
 8147SOL    HW225341   6.187   2.066   1.503
 8148SOL     OW25342   4.910   4.708   0.950
 8148SOL    HW125343   4.869   4.618   0.964
 8148SOL    HW225344   5.002   4.709   0.988
 8149SOL     OW25345   2.681   6.040   1.844
 8149SOL    HW125346   2.585   6.011   1.846
 8149SOL    HW225347   2.705   6.071   1.752
 8150SOL     OW25348   0.439   4.269   0.403
 8150SOL    HW125349   0.443   4.181   0.452
 8150SOL    HW225350   0.505   4.332   0.442
 8151SOL     OW25351   6.577   2.016   1.256
 8151SOL    HW125352   6.664   1.986   1.218
 8151SOL    HW225353   6.502   1.986   1.196
 8152SOL     OW25354   0.205   1.765   2.520
 8152SOL    HW125355   0.152   1.738   2.440
 8152SOL    HW225356   0.198   1.864   2.533
 8153SOL     OW25357   3.536   0.025   3.138
 8153SOL    HW125358   3.455   0.043   3.193
 8153SOL    HW225359   3.616   0.064   3.184
 8154SOL     OW25360   2.903   5.666   3.521
 8154SOL    HW125361   2.836   5.704   3.585
 8154SOL    HW225362   2.926   5.572   3.548
 8155SOL     OW25363   2.306   3.919   1.831
 8155SOL    HW125364   2.373   3.854   1.795
 8155SOL    HW225365   2.297   3.996   1.768
 8156SOL     OW25366   5.452   6.833   0.038
 8156SOL    HW125367   5.369   6.871   7.015
 8156SOL    HW225368   5.531   6.860   7.000
 8157SOL     OW25369   6.498   5.242   6.484
 8157SOL    HW125370   6.551   5.188   6.550
 8157SOL    HW225371   6.456   5.181   6.417
 8158SOL     OW25372   6.394   5.123   1.383
 8158SOL    HW125373   6.425   5.150   1.292
 8158SOL    HW225374   6.401   5.201   1.445
 8159SOL     OW25375   2.677   6.192   2.545
 8159SOL    HW125376   2.684   6.100   2.584
 8159SOL    HW225377   2.746   6.203   2.474
 8160SOL     OW25378   4.975   1.147   2.526
 8160SOL    HW125379   4.905   1.198   2.474
 8160SOL    HW225380   4.950   1.146   2.623
 8161SOL     OW25381   5.049   1.538   6.756
 8161SOL    HW125382   5.082   1.604   6.689
 8161SOL    HW225383   4.959   1.504   6.730
 8162SOL     OW25384   5.802   6.760   6.134
 8162SOL    HW125385   5.807   6.661   6.148
 8162SOL    HW225386   5.873   6.805   6.187
 8163SOL     OW25387   2.777   3.722   5.293
 8163SOL    HW125388   2.794   3.759   5.202
 8163SOL    HW225389   2.812   3.628   5.297
 8164SOL     OW25390   5.987   3.028   0.494
 8164SOL    HW125391   6.028   2.936   0.486
 8164SOL    HW225392   6.060   3.095   0.507
 8165SOL     OW25393   0.825   5.252   0.015
 8165SOL    HW125394   0.822   5.232   6.934
 8165SOL    HW225395   0.784   5.342   0.032
 8166SOL     OW25396   2.235   0.044   2.138
 8166SOL    HW125397   2.262   6.973   2.101
 8166SOL    HW225398   2.197   0.032   2.229
 8167SOL     OW25399   6.121   0.829   4.177
 8167SOL    HW125400   6.130   0.738   4.217
 8167SOL    HW225401   6.211   0.873   4.175
 8168SOL     OW25402   2.725   1.771   3.877
 8168SOL    HW125403   2.714   1.871   3.879
 8168SOL    HW225404   2.687   1.732   3.961
 8169SOL     OW25405   5.236   2.724   1.663
 8169SOL    HW125406   5.137   2.723   1.679
 8169SOL    HW225407   5.277   2.641   1.702
 8170SOL     OW25408   1.630   5.614   2.927
 8170SOL    HW125409   1.623   5.514   2.935
 8170SOL    HW225410   1.601   5.642   2.835
 8171SOL     OW25411   1.268   1.543   0.210
 8171SOL    HW125412   1.240   1.591   0.127
 8171SOL    HW225413   1.264   1.445   0.196
 8172SOL     OW25414   1.103   1.098   1.989
 8172SOL    HW125415   1.192   1.061   1.964
 8172SOL    HW225416   1.115   1.189   2.029
 8173SOL     OW25417   3.927   1.677   0.776
 8173SOL    HW125418   3.972   1.699   0.690
 8173SOL    HW225419   3.958   1.740   0.847
 8174SOL     OW25420   5.228   2.557   0.971
 8174SOL    HW125421   5.276   2.469   0.967
 8174SOL    HW225422   5.131   2.542   0.950
 8175SOL     OW25423   0.257   3.222   6.146
 8175SOL    HW125424   0.317   3.166   6.204
 8175SOL    HW225425   0.247   3.180   6.057
 8176SOL     OW25426   2.396   5.182   2.152
 8176SOL    HW125427   2.423   5.193   2.056
 8176SOL    HW225428   2.306   5.140   2.157
 8177SOL     OW25429   2.328   6.260   4.448
 8177SOL    HW125430   2.413   6.309   4.470
 8177SOL    HW225431   2.256   6.326   4.426
 8178SOL     OW25432   2.477   6.520   6.531
 8178SOL    HW125433   2.466   6.614   6.565
 8178SOL    HW225434   2.393   6.469   6.548
 8179SOL     OW25435   3.903   2.538   6.405
 8179SOL    HW125436   3.910   2.514   6.308
 8179SOL    HW225437   3.899   2.637   6.415
 8180SOL     OW25438   6.937   0.144   4.500
 8180SOL    HW125439   6.949   0.138   4.599
 8180SOL    HW225440   6.848   0.107   4.475
 8181SOL     OW25441   2.377   2.005   2.147
 8181SOL    HW125442   2.407   1.931   2.088
 8181SOL    HW225443   2.363   2.088   2.093
 8182SOL     OW25444   3.639   1.803   6.800
 8182SOL    HW125445   3.540   1.819   6.791
 8182SOL    HW225446   3.657   1.757   6.886
 8183SOL     OW25447   0.766   2.311   4.884
 8183SOL    HW125448   0.859   2.335   4.912
 8183SOL    HW225449   0.741   2.363   4.803
 8184SOL     OW25450   5.005   1.454   5.627
 8184SOL    HW125451   5.089   1.506   5.637
 8184SOL    HW225452   4.931   1.499   5.678
 8185SOL     OW25453   2.886   6.885   0.285
 8185SOL    HW125454   2.889   6.915   0.189
 8185SOL    HW225455   2.924   6.793   0.292
 8186SOL     OW25456   3.718   5.800   6.314
 8186SOL    HW125457   3.663   5.845   6.384
 8186SOL    HW225458   3.671   5.804   6.226
 8187SOL     OW25459   1.731   2.295   5.682
 8187SOL    HW125460   1.674   2.215   5.703
 8187SOL    HW225461   1.819   2.287   5.730
 8188SOL     OW25462   5.192   2.029   2.590
 8188SOL    HW125463   5.278   1.980   2.576
 8188SOL    HW225464   5.189   2.110   2.532
 8189SOL     OW25465   5.254   4.772   2.083
 8189SOL    HW125466   5.215   4.806   1.997
 8189SOL    HW225467   5.222   4.829   2.159
 8190SOL     OW25468   5.036   5.556   4.255
 8190SOL    HW125469   4.974   5.625   4.294
 8190SOL    HW225470   4.985   5.501   4.188
 8191SOL     OW25471   3.186   5.285   3.756
 8191SOL    HW125472   3.271   5.311   3.710
 8191SOL    HW225473   3.146   5.205   3.712
 8192SOL     OW25474   3.360   6.033   0.128
 8192SOL    HW125475   3.439   6.086   0.100
 8192SOL    HW225476   3.284   6.094   0.150
 8193SOL     OW25477   6.869   0.290   3.917
 8193SOL    HW125478   6.850   0.369   3.974
 8193SOL    HW225479   6.926   0.225   3.969
 8194SOL     OW25480   6.346   2.584   0.827
 8194SOL    HW125481   6.387   2.563   0.916
 8194SOL    HW225482   6.386   2.524   0.757
 8195SOL     OW25483   0.833   0.435   0.468
 8195SOL    HW125484   0.849   0.339   0.490
 8195SOL    HW225485   0.921   0.481   0.453
 8196SOL     OW25486   3.478   0.412   5.282
 8196SOL    HW125487   3.433   0.350   5.218
 8196SOL    HW225488   3.410   0.471   5.325
 8197SOL     OW25489   4.653   1.263   5.791
 8197SOL    HW125490   4.578   1.200   5.777
 8197SOL    HW225491   4.679   1.304   5.704
 8198SOL     OW25492   2.779   6.763   2.990
 8198SOL    HW125493   2.723   6.821   2.931
 8198SOL    HW225494   2.736   6.754   3.079
 8199SOL     OW25495   6.873   3.696   0.430
 8199SOL    HW125496   6.942   3.712   0.500
 8199SOL    HW225497   6.913   3.642   0.356
 8200SOL     OW25498   4.673   4.040   1.277
 8200SOL    HW125499   4.709   4.033   1.370
 8200SOL    HW225500   4.707   3.964   1.222
 8201SOL     OW25501   4.993   0.853   4.505
 8201SOL    HW125502   5.049   0.786   4.456
 8201SOL    HW225503   4.923   0.805   4.557
 8202SOL     OW25504   0.989   5.745   3.947
 8202SOL    HW125505   1.073   5.784   3.986
 8202SOL    HW225506   0.948   5.811   3.884
 8203SOL     OW25507   4.647   3.325   0.241
 8203SOL    HW125508   4.585   3.283   0.308
 8203SOL    HW225509   4.629   3.286   0.151
 8204SOL     OW25510   3.512   5.613   1.029
 8204SOL    HW125511   3.520   5.598   1.128
 8204SOL    HW225512   3.422   5.652   1.009
 8205SOL     OW25513   6.664   4.769   1.913
 8205SOL    HW125514   6.657   4.857   1.867
 8205SOL    HW225515   6.681   4.782   2.010
 8206SOL     OW25516   2.937   2.258   5.574
 8206SOL    HW125517   2.846   2.223   5.594
 8206SOL    HW225518   2.936   2.301   5.483
 8207SOL     OW25519   3.452   4.440   5.328
 8207SOL    HW125520   3.528   4.377   5.346
 8207SOL    HW225521   3.475   4.531   5.363
 8208SOL     OW25522   2.749   6.274   1.404
 8208SOL    HW125523   2.811   6.250   1.329
 8208SOL    HW225524   2.723   6.190   1.453
 8209SOL     OW25525   0.979   1.849   5.169
 8209SOL    HW125526   0.921   1.930   5.179
 8209SOL    HW225527   0.994   1.808   5.259
 8210SOL     OW25528   3.471   0.512   0.433
 8210SOL    HW125529   3.569   0.497   0.449
 8210SOL    HW225530   3.456   0.607   0.407
 8211SOL     OW25531   3.536   4.161   3.632
 8211SOL    HW125532   3.472   4.140   3.558
 8211SOL    HW225533   3.485   4.189   3.714
 8212SOL     OW25534   3.215   0.755   0.972
 8212SOL    HW125535   3.279   0.805   0.914
 8212SOL    HW225536   3.216   0.793   1.064
 8213SOL     OW25537   5.143   4.983   3.352
 8213SOL    HW125538   5.048   4.955   3.337
 8213SOL    HW225539   5.150   5.036   3.436
 8214SOL     OW25540   2.117   6.260   4.012
 8214SOL    HW125541   2.057   6.218   3.943
 8214SOL    HW225542   2.211   6.259   3.978
 8215SOL     OW25543   4.110   5.082   0.283
 8215SOL    HW125544   4.074   5.039   0.365
 8215SOL    HW225545   4.049   5.156   0.254
 8216SOL     OW25546   5.161   0.466   2.793
 8216SOL    HW125547   5.149   0.370   2.817
 8216SOL    HW225548   5.075   0.515   2.805
 8217SOL     OW25549   2.397   4.281   1.854
 8217SOL    HW125550   2.448   4.250   1.773
 8217SOL    HW225551   2.427   4.372   1.879
 8218SOL     OW25552   1.584   0.014   4.250
 8218SOL    HW125553   1.527   0.091   4.221
 8218SOL    HW225554   1.548   6.946   4.212
 8219SOL     OW25555   2.933   4.140   0.787
 8219SOL    HW125556   2.982   4.154   0.873
 8219SOL    HW225557   2.964   4.056   0.744
 8220SOL     OW25558   3.331   4.196   5.238
 8220SOL    HW125559   3.386   4.118   5.269
 8220SOL    HW225560   3.383   4.280   5.251
 8221SOL     OW25561   6.266   4.623   3.188
 8221SOL    HW125562   6.341   4.586   3.133
 8221SOL    HW225563   6.281   4.599   3.284
 8222SOL     OW25564   5.312   1.764   0.521
 8222SOL    HW125565   5.408   1.789   0.524
 8222SOL    HW225566   5.301   1.670   0.555
 8223SOL     OW25567   0.370   5.191   5.860
 8223SOL    HW125568   0.379   5.100   5.820
 8223SOL    HW225569   0.351   5.257   5.788
 8224SOL     OW25570   4.753   1.691   1.463
 8224SOL    HW125571   4.733   1.752   1.540
 8224SOL    HW225572   4.810   1.739   1.397
 8225SOL     OW25573   3.828   0.490   1.244
 8225SOL    HW125574   3.836   0.396   1.277
 8225SOL    HW225575   3.790   0.548   1.316
 8226SOL     OW25576   3.204   0.853   0.674
 8226SOL    HW125577   3.181   0.756   0.663
 8226SOL    HW225578   3.301   0.862   0.694
 8227SOL     OW25579   6.799   1.559   2.336
 8227SOL    HW125580   6.895   1.537   2.319
 8227SOL    HW225581   6.746   1.547   2.252
 8228SOL     OW25582   6.967   1.052   5.566
 8228SOL    HW125583   6.868   1.046   5.579
 8228SOL    HW225584   6.999   1.143   5.592
 8229SOL     OW25585   4.500   4.112   1.052
 8229SOL    HW125586   4.475   4.015   1.044
 8229SOL    HW225587   4.555   4.125   1.134
 8230SOL     OW25588   3.434   6.781   5.721
 8230SOL    HW125589   3.400   6.795   5.627
 8230SOL    HW225590   3.477   6.691   5.727
 8231SOL     OW25591   3.214   1.692   2.580
 8231SOL    HW125592   3.272   1.657   2.653
 8231SOL    HW225593   3.258   1.676   2.492
 8232SOL     OW25594   5.111   1.738   2.254
 8232SOL    HW125595   5.188   1.678   2.274
 8232SOL    HW225596   5.080   1.781   2.339
 8233SOL     OW25597   1.197   0.357   5.612
 8233SOL    HW125598   1.276   0.393   5.563
 8233SOL    HW225599   1.134   0.316   5.547
 8234SOL     OW25600   3.529   2.979   0.167
 8234SOL    HW125601   3.605   2.935   0.214
 8234SOL    HW225602   3.511   2.931   0.081
 8235SOL     OW25603   0.395   4.224   0.143
 8235SOL    HW125604   0.406   4.257   0.237
 8235SOL    HW225605   0.485   4.215   0.100
 8236SOL     OW25606   6.972   5.640   5.616
 8236SOL    HW125607   6.890   5.636   5.673
 8236SOL    HW225608   6.980   5.555   5.563
 8237SOL     OW25609   4.223   5.896   5.962
 8237SOL    HW125610   4.257   5.802   5.968
 8237SOL    HW225611   4.221   5.925   5.866
 8238SOL     OW25612   0.896   5.561   6.707
 8238SOL    HW125613   0.946   5.578   6.622
 8238SOL    HW225614   0.818   5.501   6.688
 8239SOL     OW25615   0.218   1.312   4.928
 8239SOL    HW125616   0.298   1.284   4.874
 8239SOL    HW225617   0.218   1.263   5.015
 8240SOL     OW25618   2.984   3.376   2.860
 8240SOL    HW125619   3.055   3.426   2.911
 8240SOL    HW225620   2.895   3.421   2.875
 8241SOL     OW25621   1.457   3.591   6.259
 8241SOL    HW125622   1.442   3.689   6.272
 8241SOL    HW225623   1.369   3.544   6.260
 8242SOL     OW25624   1.418   3.460   4.788
 8242SOL    HW125625   1.458   3.441   4.878
 8242SOL    HW225626   1.486   3.507   4.732
 8243SOL     OW25627   0.354   4.042   6.648
 8243SOL    HW125628   0.417   4.100   6.597
 8243SOL    HW225629   0.405   3.983   6.710
 8244SOL     OW25630   0.912   0.302   3.440
 8244SOL    HW125631   0.998   0.339   3.474
 8244SOL    HW225632   0.851   0.377   3.416
 8245SOL     OW25633   3.968   1.910   3.486
 8245SOL    HW125634   4.067   1.904   3.488
 8245SOL    HW225635   3.932   1.841   3.423
 8246SOL     OW25636   0.880   4.449   6.191
 8246SOL    HW125637   0.928   4.401   6.118
 8246SOL    HW225638   0.869   4.546   6.167
 8247SOL     OW25639   2.509   5.799   3.681
 8247SOL    HW125640   2.475   5.764   3.593
 8247SOL    HW225641   2.516   5.724   3.746
 8248SOL     OW25642   0.740   6.002   4.589
 8248SOL    HW125643   0.692   5.916   4.571
 8248SOL    HW225644   0.795   5.993   4.672
 8249SOL     OW25645   2.559   1.328   4.860
 8249SOL    HW125646   2.567   1.261   4.934
 8249SOL    HW225647   2.571   1.420   4.897
 8250SOL     OW25648   3.229   1.805   0.589
 8250SOL    HW125649   3.151   1.868   0.591
 8250SOL    HW225650   3.314   1.857   0.596
 8251SOL     OW25651   6.137   1.375   4.264
 8251SOL    HW125652   6.143   1.319   4.181
 8251SOL    HW225653   6.189   1.459   4.250
 8252SOL     OW25654   3.096   2.269   0.009
 8252SOL    HW125655   3.145   2.356   0.019
 8252SOL    HW225656   2.998   2.286   0.012
 8253SOL     OW25657   4.114   5.712   6.472
 8253SOL    HW125658   4.122   5.792   6.531
 8253SOL    HW225659   4.017   5.687   6.464
 8254SOL     OW25660   5.782   5.019   6.268
 8254SOL    HW125661   5.765   4.923   6.246
 8254SOL    HW225662   5.781   5.032   6.367
 8255SOL     OW25663   0.860   0.083   6.171
 8255SOL    HW125664   0.774   0.122   6.204
 8255SOL    HW225665   0.846   7.004   6.147
 8256SOL     OW25666   6.935   0.248   3.386
 8256SOL    HW125667   6.948   0.170   3.447
 8256SOL    HW225668   6.929   0.217   3.291
 8257SOL     OW25669   5.515   3.957   4.129
 8257SOL    HW125670   5.563   4.034   4.086
 8257SOL    HW225671   5.436   3.990   4.180
 8258SOL     OW25672   5.464   2.704   1.913
 8258SOL    HW125673   5.470   2.752   1.825
 8258SOL    HW225674   5.458   2.606   1.896
 8259SOL     OW25675   3.952   1.706   5.234
 8259SOL    HW125676   3.896   1.625   5.253
 8259SOL    HW225677   3.909   1.787   5.273
 8260SOL     OW25678   2.111   6.492   1.057
 8260SOL    HW125679   2.191   6.436   1.039
 8260SOL    HW225680   2.126   6.584   1.022
 8261SOL     OW25681   5.169   6.766   2.888
 8261SOL    HW125682   5.253   6.798   2.845
 8261SOL    HW225683   5.092   6.821   2.856
 8262SOL     OW25684   0.792   4.696   0.417
 8262SOL    HW125685   0.761   4.624   0.355
 8262SOL    HW225686   0.854   4.757   0.368
 8263SOL     OW25687   6.942   2.793   6.676
 8263SOL    HW125688   6.947   2.793   6.776
 8263SOL    HW225689   6.922   2.886   6.644
 8264SOL     OW25690   1.552   6.483   1.201
 8264SOL    HW125691   1.504   6.485   1.288
 8264SOL    HW225692   1.500   6.536   1.133
 8265SOL     OW25693   4.314   0.403   1.499
 8265SOL    HW125694   4.240   0.366   1.556
 8265SOL    HW225695   4.402   0.371   1.533
 8266SOL     OW25696   2.570   0.582   4.723
 8266SOL    HW125697   2.506   0.510   4.696
 8266SOL    HW225698   2.635   0.546   4.790
 8267SOL     OW25699   1.284   5.129   1.812
 8267SOL    HW125700   1.323   5.126   1.720
 8267SOL    HW225701   1.357   5.148   1.878
 8268SOL     OW25702   2.564   4.200   6.450
 8268SOL    HW125703   2.549   4.281   6.393
 8268SOL    HW225704   2.631   4.140   6.406
 8269SOL     OW25705   4.722   2.691   2.761
 8269SOL    HW125706   4.736   2.744   2.678
 8269SOL    HW225707   4.808   2.683   2.810
 8270SOL     OW25708   2.382   6.197   5.869
 8270SOL    HW125709   2.459   6.151   5.915
 8270SOL    HW225710   2.418   6.263   5.803
 8271SOL     OW25711   6.314   0.057   3.967
 8271SOL    HW125712   6.408   0.089   3.957
 8271SOL    HW225713   6.306   6.982   3.929
 8272SOL     OW25714   0.808   0.825   2.635
 8272SOL    HW125715   0.756   0.792   2.556
 8272SOL    HW225716   0.818   0.924   2.630
 8273SOL     OW25717   3.440   0.375   7.004
 8273SOL    HW125718   3.478   0.455   0.033
 8273SOL    HW225719   3.501   0.297   0.000
 8274SOL     OW25720   3.772   4.595   6.886
 8274SOL    HW125721   3.808   4.672   6.835
 8274SOL    HW225722   3.799   4.509   6.841
 8275SOL     OW25723   5.692   0.017   4.886
 8275SOL    HW125724   5.744   0.038   4.969
 8275SOL    HW225725   5.598   0.048   4.898
 8276SOL     OW25726   6.452   2.392   5.896
 8276SOL    HW125727   6.489   2.376   5.804
 8276SOL    HW225728   6.417   2.306   5.933
 8277SOL     OW25729   2.501   5.720   4.899
 8277SOL    HW125730   2.601   5.719   4.895
 8277SOL    HW225731   2.465   5.730   4.806
 8278SOL     OW25732   3.033   1.278   6.376
 8278SOL    HW125733   2.947   1.257   6.330
 8278SOL    HW225734   3.014   1.305   6.471
 8279SOL     OW25735   5.590   4.859   6.769
 8279SOL    HW125736   5.550   4.853   6.860
 8279SOL    HW225737   5.556   4.784   6.712
 8280SOL     OW25738   4.828   2.776   0.216
 8280SOL    HW125739   4.784   2.807   0.131
 8280SOL    HW225740   4.919   2.817   0.223
 8281SOL     OW25741   1.917   4.140   0.830
 8281SOL    HW125742   1.870   4.147   0.918
 8281SOL    HW225743   1.849   4.133   0.756
 8282SOL     OW25744   2.625   2.248   1.135
 8282SOL    HW125745   2.567   2.294   1.067
 8282SOL    HW225746   2.714   2.294   1.139
 8283SOL     OW25747   0.388   5.036   3.646
 8283SOL    HW125748   0.321   5.049   3.719
 8283SOL    HW225749   0.408   4.939   3.636
 8284SOL     OW25750   1.806   2.903   2.423
 8284SOL    HW125751   1.888   2.948   2.386
 8284SOL    HW225752   1.754   2.967   2.479
 8285SOL     OW25753   3.029   3.813   6.245
 8285SOL    HW125754   3.042   3.716   6.222
 8285SOL    HW225755   3.090   3.869   6.190
 8286SOL     OW25756   5.742   1.367   4.868
 8286SOL    HW125757   5.811   1.301   4.837
 8286SOL    HW225758   5.663   1.363   4.807
 8287SOL     OW25759   1.462   6.802   4.240
 8287SOL    HW125760   1.413   6.767   4.159
 8287SOL    HW225761   1.463   6.732   4.311
 8288SOL     OW25762   1.671   2.494   2.915
 8288SOL    HW125763   1.660   2.472   2.818
 8288SOL    HW225764   1.766   2.478   2.942
 8289SOL     OW25765   6.359   0.647   6.179
 8289SOL    HW125766   6.308   0.564   6.200
 8289SOL    HW225767   6.303   0.707   6.121
 8290SOL     OW25768   3.971   3.125   1.607
 8290SOL    HW125769   3.951   3.220   1.584
 8290SOL    HW225770   4.026   3.084   1.535
 8291SOL     OW25771   5.884   6.515   6.715
 8291SOL    HW125772   5.947   6.490   6.641
 8291SOL    HW225773   5.920   6.480   6.801
 8292SOL     OW25774   2.570   5.194   5.951
 8292SOL    HW125775   2.539   5.101   5.932
 8292SOL    HW225776   2.643   5.218   5.887
 8293SOL     OW25777   1.917   4.820   1.707
 8293SOL    HW125778   1.982   4.773   1.648
 8293SOL    HW225779   1.824   4.802   1.675
 8294SOL     OW25780   5.889   3.596   5.331
 8294SOL    HW125781   5.945   3.619   5.252
 8294SOL    HW225782   5.836   3.513   5.311
 8295SOL     OW25783   4.807   3.960   2.407
 8295SOL    HW125784   4.866   3.883   2.386
 8295SOL    HW225785   4.808   3.977   2.506
 8296SOL     OW25786   4.221   5.540   0.108
 8296SOL    HW125787   4.148   5.575   0.049
 8296SOL    HW225788   4.310   5.561   0.067
 8297SOL     OW25789   6.100   4.339   2.548
 8297SOL    HW125790   6.044   4.298   2.620
 8297SOL    HW225791   6.099   4.280   2.467
 8298SOL     OW25792   0.647   0.748   6.327
 8298SOL    HW125793   0.674   0.739   6.423
 8298SOL    HW225794   0.674   0.839   6.293
 8299SOL     OW25795   0.187   3.591   0.918
 8299SOL    HW125796   0.121   3.547   0.979
 8299SOL    HW225797   0.234   3.521   0.864
 8300SOL     OW25798   6.283   6.777   4.819
 8300SOL    HW125799   6.231   6.775   4.733
 8300SOL    HW225800   6.275   6.867   4.861
 8301SOL     OW25801   4.461   0.152   6.594
 8301SOL    HW125802   4.446   0.159   6.496
 8301SOL    HW225803   4.521   0.226   6.625
 8302SOL     OW25804   3.246   6.861   5.260
 8302SOL    HW125805   3.152   6.869   5.227
 8302SOL    HW225806   3.309   6.867   5.182
 8303SOL     OW25807   6.994   0.353   2.823
 8303SOL    HW125808   0.032   0.436   2.831
 8303SOL    HW225809   6.901   0.378   2.796
 8304SOL     OW25810   5.960   4.094   2.676
 8304SOL    HW125811   5.865   4.118   2.655
 8304SOL    HW225812   5.979   4.002   2.642
 8305SOL     OW25813   4.608   5.349   3.763
 8305SOL    HW125814   4.677   5.421   3.767
 8305SOL    HW225815   4.536   5.374   3.698
 8306SOL     OW25816   6.502   1.370   2.649
 8306SOL    HW125817   6.589   1.356   2.695
 8306SOL    HW225818   6.435   1.304   2.683
 8307SOL     OW25819   2.159   5.140   1.208
 8307SOL    HW125820   2.257   5.153   1.196
 8307SOL    HW225821   2.127   5.194   1.286
 8308SOL     OW25822   1.409   4.541   0.079
 8308SOL    HW125823   1.330   4.587   0.039
 8308SOL    HW225824   1.454   4.485   0.010
 8309SOL     OW25825   6.361   5.271   4.600
 8309SOL    HW125826   6.438   5.213   4.626
 8309SOL    HW225827   6.278   5.241   4.648
 8310SOL     OW25828   0.960   5.943   0.712
 8310SOL    HW125829   0.956   5.863   0.653
 8310SOL    HW225830   0.960   5.915   0.808
 8311SOL     OW25831   5.267   6.786   4.394
 8311SOL    HW125832   5.303   6.853   4.460
 8311SOL    HW225833   5.315   6.796   4.307
 8312SOL     OW25834   5.632   0.509   0.467
 8312SOL    HW125835   5.550   0.565   0.480
 8312SOL    HW225836   5.608   0.412   0.471
 8313SOL     OW25837   4.367   6.817   5.179
 8313SOL    HW125838   4.384   6.831   5.277
 8313SOL    HW225839   4.374   6.905   5.132
 8314SOL     OW25840   5.632   6.294   6.797
 8314SOL    HW125841   5.629   6.208   6.746
 8314SOL    HW225842   5.698   6.356   6.755
 8315SOL     OW25843   3.619   3.730   3.328
 8315SOL    HW125844   3.534   3.780   3.311
 8315SOL    HW225845   3.651   3.690   3.242
 8316SOL     OW25846   1.225   3.370   6.585
 8316SOL    HW125847   1.238   3.432   6.663
 8316SOL    HW225848   1.262   3.280   6.608
 8317SOL     OW25849   2.084   2.116   4.279
 8317SOL    HW125850   2.136   2.031   4.291
 8317SOL    HW225851   2.032   2.112   4.194
 8318SOL     OW25852   4.483   1.391   6.142
 8318SOL    HW125853   4.401   1.387   6.085
 8318SOL    HW225854   4.526   1.481   6.133
 8319SOL     OW25855   1.473   6.921   6.161
 8319SOL    HW125856   1.378   6.917   6.129
 8319SOL    HW225857   1.476   6.897   6.258
 8320SOL     OW25858   3.759   3.776   3.548
 8320SOL    HW125859   3.715   3.767   3.459
 8320SOL    HW225860   3.709   3.842   3.604
 8321SOL     OW25861   0.243   0.189   6.174
 8321SOL    HW125862   0.336   0.203   6.139
 8321SOL    HW225863   0.179   0.246   6.122
 8322SOL     OW25864   0.111   1.026   0.481
 8322SOL    HW125865   0.104   1.105   0.419
 8322SOL    HW225866   0.196   1.033   0.533
 8323SOL     OW25867   4.254   4.568   1.159
 8323SOL    HW125868   4.204   4.527   1.235
 8323SOL    HW225869   4.191   4.620   1.101
 8324SOL     OW25870   5.808   0.321   6.905
 8324SOL    HW125871   5.816   0.418   6.927
 8324SOL    HW225872   5.712   0.296   6.900
 8325SOL     OW25873   1.234   4.682   5.219
 8325SOL    HW125874   1.283   4.756   5.174
 8325SOL    HW225875   1.289   4.599   5.217
 8326SOL     OW25876   3.644   3.789   6.953
 8326SOL    HW125877   3.742   3.804   6.950
 8326SOL    HW225878   3.604   3.840   0.011
 8327SOL     OW25879   0.670   0.696   5.381
 8327SOL    HW125880   0.591   0.648   5.417
 8327SOL    HW225881   0.754   0.651   5.412
 8328SOL     OW25882   1.464   6.701   5.631
 8328SOL    HW125883   1.467   6.800   5.634
 8328SOL    HW225884   1.421   6.666   5.714
 8329SOL     OW25885   0.262   3.019   4.973
 8329SOL    HW125886   0.354   3.058   4.970
 8329SOL    HW225887   0.195   3.092   4.960
 8330SOL     OW25888   3.814   0.820   6.412
 8330SOL    HW125889   3.774   0.907   6.383
 8330SOL    HW225890   3.872   0.784   6.339
 8331SOL     OW25891   2.781   1.873   0.277
 8331SOL    HW125892   2.709   1.929   0.236
 8331SOL    HW225893   2.857   1.865   0.213
 8332SOL     OW25894   5.534   5.847   2.005
 8332SOL    HW125895   5.486   5.767   2.040
 8332SOL    HW225896   5.624   5.855   2.050
 8333SOL     OW25897   1.926   5.053   0.476
 8333SOL    HW125898   2.008   5.027   0.526
 8333SOL    HW225899   1.928   5.151   0.456
 8334SOL     OW25900   2.827   1.954   6.552
 8334SOL    HW125901   2.926   1.955   6.567
 8334SOL    HW225902   2.785   1.884   6.610
 8335SOL     OW25903   4.430   2.995   6.754
 8335SOL    HW125904   4.381   2.910   6.775
 8335SOL    HW225905   4.519   2.972   6.713
 8336SOL     OW25906   1.204   3.804   2.957
 8336SOL    HW125907   1.184   3.714   2.995
 8336SOL    HW225908   1.212   3.797   2.857
 8337SOL     OW25909   1.068   0.225   4.643
 8337SOL    HW125910   1.131   0.222   4.566
 8337SOL    HW225911   1.098   0.296   4.708
 8338SOL     OW25912   4.148   5.156   2.329
 8338SOL    HW125913   4.224   5.092   2.318
 8338SOL    HW225914   4.174   5.228   2.394
 8339SOL     OW25915   6.269   0.721   0.790
 8339SOL    HW125916   6.358   0.767   0.793
 8339SOL    HW225917   6.243   0.703   0.695
 8340SOL     OW25918   4.915   3.906   0.094
 8340SOL    HW125919   4.845   3.840   0.063
 8340SOL    HW225920   4.941   3.885   0.188
 8341SOL     OW25921   3.448   0.513   6.390
 8341SOL    HW125922   3.449   0.528   6.488
 8341SOL    HW225923   3.388   0.436   6.368
 8342SOL     OW25924   3.653   6.374   0.442
 8342SOL    HW125925   3.739   6.345   0.486
 8342SOL    HW225926   3.576   6.335   0.492
 8343SOL     OW25927   6.482   5.598   4.352
 8343SOL    HW125928   6.513   5.587   4.447
 8343SOL    HW225929   6.550   5.650   4.301
 8344SOL     OW25930   0.568   5.171   4.514
 8344SOL    HW125931   0.519   5.102   4.460
 8344SOL    HW225932   0.504   5.221   4.572
 8345SOL     OW25933   5.241   1.727   3.280
 8345SOL    HW125934   5.201   1.813   3.310
 8345SOL    HW225935   5.170   1.668   3.242
 8346SOL     OW25936   3.893   3.284   6.414
 8346SOL    HW125937   3.891   3.348   6.491
 8346SOL    HW225938   3.835   3.319   6.341
 8347SOL     OW25939   3.125   6.122   6.037
 8347SOL    HW125940   3.188   6.050   6.065
 8347SOL    HW225941   3.031   6.090   6.050
 8348SOL     OW25942   2.788   6.513   1.548
 8348SOL    HW125943   2.784   6.422   1.506
 8348SOL    HW225944   2.738   6.512   1.634
 8349SOL     OW25945   0.982   6.310   1.289
 8349SOL    HW125946   0.973   6.391   1.346
 8349SOL    HW225947   0.894   6.291   1.245
 8350SOL     OW25948   2.954   6.866   6.415
 8350SOL    HW125949   2.855   6.854   6.419
 8350SOL    HW225950   2.999   6.777   6.420
 8351SOL     OW25951   5.615   5.826   3.746
 8351SOL    HW125952   5.687   5.761   3.724
 8351SOL    HW225953   5.624   5.907   3.688
 8352SOL     OW25954   2.419   6.534   2.702
 8352SOL    HW125955   2.388   6.443   2.730
 8352SOL    HW225956   2.508   6.526   2.656
 8353SOL     OW25957   2.020   3.901   1.574
 8353SOL    HW125958   1.980   3.962   1.642
 8353SOL    HW225959   1.959   3.823   1.559
 8354SOL     OW25960   3.537   6.670   4.179
 8354SOL    HW125961   3.631   6.650   4.152
 8354SOL    HW225962   3.537   6.734   4.256
 8355SOL     OW25963   1.954   0.867   5.969
 8355SOL    HW125964   1.901   0.876   6.054
 8355SOL    HW225965   1.901   0.904   5.893
 8356SOL     OW25966   0.937   5.087   1.554
 8356SOL    HW125967   0.962   5.022   1.626
 8356SOL    HW225968   1.019   5.135   1.522
 8357SOL     OW25969   3.805   5.587   5.794
 8357SOL    HW125970   3.777   5.681   5.815
 8357SOL    HW225971   3.727   5.537   5.756
 8358SOL     OW25972   0.774   3.207   5.081
 8358SOL    HW125973   0.745   3.210   5.177
 8358SOL    HW225974   0.759   3.296   5.039
 8359SOL     OW25975   2.434   1.175   4.517
 8359SOL    HW125976   2.366   1.151   4.586
 8359SOL    HW225977   2.472   1.266   4.537
 8360SOL     OW25978   4.760   6.726   0.934
 8360SOL    HW125979   4.844   6.765   0.972
 8360SOL    HW225980   4.681   6.767   0.979
 8361SOL     OW25981   2.731   0.112   6.772
 8361SOL    HW125982   2.808   0.063   6.732
 8361SOL    HW225983   2.762   0.162   6.853
 8362SOL     OW25984   5.938   2.206   0.887
 8362SOL    HW125985   6.000   2.283   0.873
 8362SOL    HW225986   5.844   2.238   0.883
 8363SOL     OW25987   4.731   1.851   0.594
 8363SOL    HW125988   4.710   1.757   0.622
 8363SOL    HW225989   4.803   1.887   0.653
 8364SOL     OW25990   0.436   3.561   3.836
 8364SOL    HW125991   0.469   3.480   3.788
 8364SOL    HW225992   0.471   3.643   3.790
 8365SOL     OW25993   1.647   1.879   3.066
 8365SOL    HW125994   1.707   1.953   3.097
 8365SOL    HW225995   1.686   1.836   2.985
 8366SOL     OW25996   4.169   5.066   1.015
 8366SOL    HW125997   4.168   5.155   0.969
 8366SOL    HW225998   4.102   5.005   0.970
 8367SOL     OW25999   3.187   4.877   4.976
 8367SOL    HW126000   3.091   4.886   5.001
 8367SOL    HW226001   3.194   4.855   4.879
 8368SOL     OW26002   1.366   6.127   6.825
 8368SOL    HW126003   1.337   6.139   6.730
 8368SOL    HW226004   1.413   6.040   6.835
 8369SOL     OW26005   0.699   0.815   0.732
 8369SOL    HW126006   0.691   0.794   0.830
 8369SOL    HW226007   0.692   0.731   0.679
 8370SOL     OW26008   2.630   1.389   6.367
 8370SOL    HW126009   2.556   1.340   6.413
 8370SOL    HW226010   2.594   1.475   6.329
 8371SOL     OW26011   1.693   3.405   6.046
 8371SOL    HW126012   1.761   3.372   5.981
 8371SOL    HW226013   1.737   3.461   6.116
 8372SOL     OW26014   2.080   5.701   1.995
 8372SOL    HW126015   2.005   5.767   2.000
 8372SOL    HW226016   2.161   5.745   1.957
 8373SOL     OW26017   1.230   1.411   4.505
 8373SOL    HW126018   1.154   1.473   4.527
 8373SOL    HW226019   1.316   1.462   4.508
 8374SOL     OW26020   0.874   0.584   4.568
 8374SOL    HW126021   0.923   0.627   4.491
 8374SOL    HW226022   0.792   0.637   4.589
 8375SOL     OW26023   3.217   0.223   5.841
 8375SOL    HW126024   3.198   0.267   5.929
 8375SOL    HW226025   3.245   0.128   5.857
 8376SOL     OW26026   1.709   1.189   4.171
 8376SOL    HW126027   1.751   1.167   4.259
 8376SOL    HW226028   1.683   1.286   4.170
 8377SOL     OW26029   6.001   5.489   0.264
 8377SOL    HW126030   5.971   5.556   0.196
 8377SOL    HW226031   5.959   5.510   0.352
 8378SOL     OW26032   5.240   5.200   3.593
 8378SOL    HW126033   5.149   5.210   3.634
 8378SOL    HW226034   5.295   5.280   3.615
 8379SOL     OW26035   4.829   2.178   1.608
 8379SOL    HW126036   4.858   2.269   1.580
 8379SOL    HW226037   4.786   2.132   1.531
 8380SOL     OW26038   0.530   6.778   6.573
 8380SOL    HW126039   0.587   6.834   6.633
 8380SOL    HW226040   0.576   6.766   6.485
 8381SOL     OW26041   6.998   2.320   3.292
 8381SOL    HW126042   6.904   2.309   3.257
 8381SOL    HW226043   7.007   2.409   3.335
 8382SOL     OW26044   2.672   0.382   0.753
 8382SOL    HW126045   2.626   0.335   0.829
 8382SOL    HW226046   2.692   0.476   0.780
 8383SOL     OW26047   2.724   0.374   5.213
 8383SOL    HW126048   2.697   0.293   5.266
 8383SOL    HW226049   2.780   0.434   5.270
 8384SOL     OW26050   6.759   1.220   0.582
 8384SOL    HW126051   6.791   1.205   0.489
 8384SOL    HW226052   6.684   1.156   0.602
 8385SOL     OW26053   4.661   2.187   0.389
 8385SOL    HW126054   4.736   2.143   0.439
 8385SOL    HW226055   4.650   2.143   0.300
 8386SOL     OW26056   1.716   5.477   1.400
 8386SOL    HW126057   1.810   5.507   1.385
 8386SOL    HW226058   1.713   5.412   1.477
 8387SOL     OW26059   1.690   1.455   1.393
 8387SOL    HW126060   1.706   1.465   1.491
 8387SOL    HW226061   1.775   1.429   1.348
 8388SOL     OW26062   1.570   0.396   0.792
 8388SOL    HW126063   1.641   0.460   0.821
 8388SOL    HW226064   1.582   0.308   0.839
 8389SOL     OW26065   0.808   3.436   3.954
 8389SOL    HW126066   0.834   3.514   4.010
 8389SOL    HW226067   0.719   3.453   3.912
 8390SOL     OW26068   4.117   0.135   6.701
 8390SOL    HW126069   4.176   0.105   6.775
 8390SOL    HW226070   4.023   0.106   6.720
 8391SOL     OW26071   5.213   5.274   0.947
 8391SOL    HW126072   5.201   5.372   0.962
 8391SOL    HW226073   5.268   5.235   1.021
 8392SOL     OW26074   6.753   5.497   5.710
 8392SOL    HW126075   6.788   5.428   5.773
 8392SOL    HW226076   6.674   5.543   5.751
 8393SOL     OW26077   7.012   0.438   3.631
 8393SOL    HW126078   6.946   0.501   3.673
 8393SOL    HW226079   6.963   0.360   3.592
 8394SOL     OW26080   0.273   1.918   1.850
 8394SOL    HW126081   0.238   1.928   1.757
 8394SOL    HW226082   0.372   1.921   1.849
 8395SOL     OW26083   1.894   6.757   3.941
 8395SOL    HW126084   1.968   6.747   3.875
 8395SOL    HW226085   1.806   6.740   3.896
 8396SOL     OW26086   4.741   4.363   2.197
 8396SOL    HW126087   4.781   4.448   2.162
 8396SOL    HW226088   4.680   4.324   2.128
 8397SOL     OW26089   2.604   0.282   3.010
 8397SOL    HW126090   2.693   0.238   3.024
 8397SOL    HW226091   2.600   0.366   3.064
 8398SOL     OW26092   3.652   1.713   0.077
 8398SOL    HW126093   3.554   1.723   0.094
 8398SOL    HW226094   3.701   1.709   0.164
 8399SOL     OW26095   6.880   6.631   7.012
 8399SOL    HW126096   6.884   6.585   0.084
 8399SOL    HW226097   6.839   6.569   6.945
 8400SOL     OW26098   1.370   0.710   3.360
 8400SOL    HW126099   1.318   0.687   3.278
 8400SOL    HW226100   1.468   0.698   3.343
 8401SOL     OW26101   3.697   2.916   6.353
 8401SOL    HW126102   3.662   3.008   6.336
 8401SOL    HW226103   3.718   2.872   6.265
 8402SOL     OW26104   3.135   1.860   6.252
 8402SOL    HW126105   3.207   1.797   6.227
 8402SOL    HW226106   3.157   1.952   6.218
 8403SOL     OW26107   0.344   2.130   3.302
 8403SOL    HW126108   0.379   2.174   3.385
 8403SOL    HW226109   0.420   2.086   3.253
 8404SOL     OW26110   5.773   5.750   6.944
 8404SOL    HW126111   5.852   5.811   6.951
 8404SOL    HW226112   5.689   5.805   6.940
 8405SOL     OW26113   2.077   1.362   6.921
 8405SOL    HW126114   2.066   1.454   6.883
 8405SOL    HW226115   2.053   1.362   0.000
 8406SOL     OW26116   3.776   0.636   0.970
 8406SOL    HW126117   3.831   0.702   1.022
 8406SOL    HW226118   3.773   0.549   1.019
 8407SOL     OW26119   5.782   6.087   4.517
 8407SOL    HW126120   5.812   6.177   4.486
 8407SOL    HW226121   5.809   6.018   4.450
 8408SOL     OW26122   4.908   1.787   3.359
 8408SOL    HW126123   4.864   1.875   3.377
 8408SOL    HW226124   4.898   1.727   3.439
 8409SOL     OW26125   6.415   2.568   3.946
 8409SOL    HW126126   6.446   2.658   3.975
 8409SOL    HW226127   6.327   2.547   3.991
 8410SOL     OW26128   4.198   0.491   1.906
 8410SOL    HW126129   4.102   0.463   1.897
 8410SOL    HW226130   4.202   0.585   1.941
 8411SOL     OW26131   1.660   5.626   4.130
 8411SOL    HW126132   1.645   5.546   4.072
 8411SOL    HW226133   1.667   5.597   4.225
 8412SOL     OW26134   4.314   1.742   1.770
 8412SOL    HW126135   4.264   1.816   1.725
 8412SOL    HW226136   4.366   1.690   1.702
 8413SOL     OW26137   5.405   4.308   0.276
 8413SOL    HW126138   5.436   4.226   0.227
 8413SOL    HW226139   5.484   4.351   0.321
 8414SOL     OW26140   4.478   6.852   2.643
 8414SOL    HW126141   4.390   6.894   2.622
 8414SOL    HW226142   4.536   6.854   2.561
 8415SOL     OW26143   6.765   5.521   3.905
 8415SOL    HW126144   6.761   5.426   3.937
 8415SOL    HW226145   6.853   5.561   3.930
 8416SOL     OW26146   4.878   4.765   3.574
 8416SOL    HW126147   4.941   4.702   3.619
 8416SOL    HW226148   4.917   4.794   3.486
 8417SOL     OW26149   1.500   5.542   5.423
 8417SOL    HW126150   1.414   5.538   5.373
 8417SOL    HW226151   1.570   5.492   5.372
 8418SOL     OW26152   5.817   5.332   1.853
 8418SOL    HW126153   5.906   5.301   1.887
 8418SOL    HW226154   5.744   5.281   1.898
 8419SOL     OW26155   4.477   0.930   2.455
 8419SOL    HW126156   4.529   0.995   2.511
 8419SOL    HW226157   4.397   0.899   2.506
 8420SOL     OW26158   3.496   0.212   1.186
 8420SOL    HW126159   3.568   0.155   1.224
 8420SOL    HW226160   3.510   0.224   1.088
 8421SOL     OW26161   2.806   6.408   0.941
 8421SOL    HW126162   2.774   6.502   0.950
 8421SOL    HW226163   2.780   6.373   0.851
 8422SOL     OW26164   4.832   6.373   1.538
 8422SOL    HW126165   4.752   6.415   1.496
 8422SOL    HW226166   4.895   6.445   1.569
 8423SOL     OW26167   4.033   3.553   5.927
 8423SOL    HW126168   4.003   3.634   5.877
 8423SOL    HW226169   4.041   3.575   6.024
 8424SOL     OW26170   2.289   2.830   2.944
 8424SOL    HW126171   2.303   2.823   2.845
 8424SOL    HW226172   2.208   2.778   2.971
 8425SOL     OW26173   6.052   5.870   1.244
 8425SOL    HW126174   6.137   5.876   1.191
 8425SOL    HW226175   6.001   5.788   1.217
 8426SOL     OW26176   3.765   2.991   4.388
 8426SOL    HW126177   3.733   2.953   4.301
 8426SOL    HW226178   3.861   3.019   4.378
 8427SOL     OW26179   1.859   4.193   5.974
 8427SOL    HW126180   1.815   4.134   5.906
 8427SOL    HW226181   1.957   4.201   5.953
 8428SOL     OW26182   6.389   4.674   1.584
 8428SOL    HW126183   6.400   4.645   1.679
 8428SOL    HW226184   6.378   4.773   1.580
 8429SOL     OW26185   2.211   4.610   4.200
 8429SOL    HW126186   2.186   4.574   4.110
 8429SOL    HW226187   2.129   4.640   4.249
 8430SOL     OW26188   4.508   5.601   3.080
 8430SOL    HW126189   4.434   5.647   3.128
 8430SOL    HW226190   4.523   5.646   2.991
 8431SOL     OW26191   2.395   5.151   0.890
 8431SOL    HW126192   2.417   5.154   0.792
 8431SOL    HW226193   2.300   5.120   0.901
 8432SOL     OW26194   4.597   6.101   5.484
 8432SOL    HW126195   4.530   6.169   5.456
 8432SOL    HW226196   4.690   6.136   5.467
 8433SOL     OW26197   6.637   2.881   6.390
 8433SOL    HW126198   6.566   2.939   6.429
 8433SOL    HW226199   6.689   2.932   6.321
 8434SOL     OW26200   2.716   0.164   4.883
 8434SOL    HW126201   2.634   0.211   4.916
 8434SOL    HW226202   2.796   0.200   4.931
 8435SOL     OW26203   4.942   0.955   0.983
 8435SOL    HW126204   4.961   0.859   1.004
 8435SOL    HW226205   4.981   1.013   1.055
 8436SOL     OW26206   3.053   6.464   4.477
 8436SOL    HW126207   3.139   6.422   4.506
 8436SOL    HW226208   3.043   6.455   4.378
 8437SOL     OW26209   2.229   0.325   2.714
 8437SOL    HW126210   2.315   0.370   2.738
 8437SOL    HW226211   2.154   0.392   2.718
 8438SOL     OW26212   3.281   4.917   2.372
 8438SOL    HW126213   3.268   4.897   2.469
 8438SOL    HW226214   3.277   5.016   2.357
 8439SOL     OW26215   6.767   5.296   1.294
 8439SOL    HW126216   6.718   5.211   1.313
 8439SOL    HW226217   6.716   5.350   1.227
 8440SOL     OW26218   0.379   1.465   3.444
 8440SOL    HW126219   0.322   1.483   3.524
 8440SOL    HW226220   0.473   1.492   3.463
 8441SOL     OW26221   6.543   6.338   6.972
 8441SOL    HW126222   6.631   6.298   6.993
 8441SOL    HW226223   6.487   6.341   0.037
 8442SOL     OW26224   3.230   2.975   6.016
 8442SOL    HW126225   3.219   2.939   5.924
 8442SOL    HW226226   3.222   3.075   6.014
 8443SOL     OW26227   1.303   6.763   3.283
 8443SOL    HW126228   1.206   6.786   3.293
 8443SOL    HW226229   1.345   6.759   3.374
 8444SOL     OW26230   3.460   5.911   3.895
 8444SOL    HW126231   3.474   5.904   3.994
 8444SOL    HW226232   3.438   5.821   3.858
 8445SOL     OW26233   3.539   5.224   1.740
 8445SOL    HW126234   3.578   5.185   1.656
 8445SOL    HW226235   3.481   5.302   1.716
 8446SOL     OW26236   5.436   5.700   0.963
 8446SOL    HW126237   5.362   5.673   1.025
 8446SOL    HW226238   5.431   5.645   0.880
 8447SOL     OW26239   5.847   1.971   1.924
 8447SOL    HW126240   5.774   2.039   1.930
 8447SOL    HW226241   5.927   2.012   1.880
 8448SOL     OW26242   6.148   3.919   5.304
 8448SOL    HW126243   6.232   3.957   5.266
 8448SOL    HW226244   6.123   3.968   5.387
 8449SOL     OW26245   0.047   2.923   4.803
 8449SOL    HW126246   0.130   2.936   4.858
 8449SOL    HW226247   6.985   2.950   4.857
 8450SOL     OW26248   1.289   6.040   1.944
 8450SOL    HW126249   1.342   6.067   1.864
 8450SOL    HW226250   1.348   5.995   2.011
 8451SOL     OW26251   4.754   2.818   0.486
 8451SOL    HW126252   4.714   2.908   0.466
 8451SOL    HW226253   4.803   2.785   0.405
 8452SOL     OW26254   0.187   0.331   1.338
 8452SOL    HW126255   0.217   0.423   1.315
 8452SOL    HW226256   0.261   0.281   1.384
 8453SOL     OW26257   6.355   4.300   6.381
 8453SOL    HW126258   6.442   4.272   6.422
 8453SOL    HW226259   6.280   4.251   6.425
 8454SOL     OW26260   1.071   5.499   0.868
 8454SOL    HW126261   1.087   5.406   0.900
 8454SOL    HW226262   1.066   5.499   0.769
 8455SOL     OW26263   4.971   2.118   1.032
 8455SOL    HW126264   4.872   2.105   1.041
 8455SOL    HW226265   4.997   2.108   0.936
 8456SOL     OW26266   5.201   4.616   3.322
 8456SOL    HW126267   5.108   4.646   3.302
 8456SOL    HW226268   5.229   4.650   3.412
 8457SOL     OW26269   6.560   6.917   5.774
 8457SOL    HW126270   6.526   6.855   5.703
 8457SOL    HW226271   6.654   6.893   5.797
 8458SOL     OW26272   2.473   1.061   6.670
 8458SOL    HW126273   2.543   1.029   6.733
 8458SOL    HW226274   2.429   1.143   6.707
 8459SOL     OW26275   3.088   0.071   0.998
 8459SOL    HW126276   3.026   0.148   1.012
 8459SOL    HW226277   3.142   0.056   1.080
 8460SOL     OW26278   4.007   2.396   5.802
 8460SOL    HW126279   4.104   2.394   5.827
 8460SOL    HW226280   3.977   2.491   5.791
 8461SOL     OW26281   0.753   3.985   2.119
 8461SOL    HW126282   0.817   4.055   2.150
 8461SOL    HW226283   0.665   3.996   2.165
 8462SOL     OW26284   3.561   2.440   0.454
 8462SOL    HW126285   3.562   2.376   0.377
 8462SOL    HW226286   3.653   2.477   0.467
 8463SOL     OW26287   6.915   0.816   0.394
 8463SOL    HW126288   6.999   0.862   0.424
 8463SOL    HW226289   6.932   0.768   0.308
 8464SOL     OW26290   6.681   4.534   5.256
 8464SOL    HW126291   6.650   4.487   5.339
 8464SOL    HW226292   6.701   4.467   5.185
 8465SOL     OW26293   3.175   2.192   0.932
 8465SOL    HW126294   3.141   2.282   0.960
 8465SOL    HW226295   3.195   2.137   1.013
 8466SOL     OW26296   6.106   6.681   5.296
 8466SOL    HW126297   6.108   6.641   5.387
 8466SOL    HW226298   6.027   6.646   5.246
 8467SOL     OW26299   3.898   0.853   1.090
 8467SOL    HW126300   3.956   0.933   1.072
 8467SOL    HW226301   3.875   0.850   1.188
 8468SOL     OW26302   4.800   3.052   0.085
 8468SOL    HW126303   4.779   3.149   0.097
 8468SOL    HW226304   4.725   3.008   0.037
 8469SOL     OW26305   2.659   1.555   5.607
 8469SOL    HW126306   2.748   1.571   5.566
 8469SOL    HW226307   2.599   1.633   5.589
 8470SOL     OW26308   1.186   4.921   6.678
 8470SOL    HW126309   1.171   4.928   6.580
 8470SOL    HW226310   1.280   4.892   6.695
 8471SOL     OW26311   4.001   0.266   5.531
 8471SOL    HW126312   3.998   0.350   5.477
 8471SOL    HW226313   4.010   0.289   5.628
 8472SOL     OW26314   6.052   0.635   5.226
 8472SOL    HW126315   5.986   0.560   5.219
 8472SOL    HW226316   6.036   0.701   5.153
 8473SOL     OW26317   6.323   5.578   0.893
 8473SOL    HW126318   6.227   5.578   0.919
 8473SOL    HW226319   6.342   5.499   0.835
 8474SOL     OW26320   3.634   3.441   1.852
 8474SOL    HW126321   3.692   3.507   1.899
 8474SOL    HW226322   3.558   3.414   1.912
 8475SOL     OW26323   0.107   2.661   3.185
 8475SOL    HW126324   0.150   2.587   3.236
 8475SOL    HW226325   0.044   2.711   3.244
 8476SOL     OW26326   6.777   2.019   0.934
 8476SOL    HW126327   6.786   2.010   0.835
 8476SOL    HW226328   6.707   2.088   0.955
 8477SOL     OW26329   4.297   6.425   2.560
 8477SOL    HW126330   4.203   6.436   2.526
 8477SOL    HW226331   4.303   6.341   2.614
 8478SOL     OW26332   1.214   0.709   5.509
 8478SOL    HW126333   1.147   0.665   5.450
 8478SOL    HW226334   1.241   0.797   5.471
 8479SOL     OW26335   1.412   3.778   1.085
 8479SOL    HW126336   1.437   3.795   0.990
 8479SOL    HW226337   1.492   3.745   1.135
 8480SOL     OW26338   4.961   3.235   6.865
 8480SOL    HW126339   4.992   3.197   6.952
 8480SOL    HW226340   5.022   3.205   6.792
 8481SOL     OW26341   4.487   2.122   4.800
 8481SOL    HW126342   4.554   2.049   4.802
 8481SOL    HW226343   4.446   2.127   4.709
 8482SOL     OW26344   5.156   0.234   2.341
 8482SOL    HW126345   5.075   0.254   2.285
 8482SOL    HW226346   5.186   0.318   2.387
 8483SOL     OW26347   3.375   5.794   2.510
 8483SOL    HW126348   3.425   5.859   2.451
 8483SOL    HW226349   3.341   5.842   2.590
 8484SOL     OW26350   6.569   6.508   4.057
 8484SOL    HW126351   6.600   6.449   4.132
 8484SOL    HW226352   6.646   6.562   4.022
 8485SOL     OW26353   3.894   2.695   6.943
 8485SOL    HW126354   3.812   2.662   6.989
 8485SOL    HW226355   3.939   2.619   6.896
 8486SOL     OW26356   2.420   1.351   2.709
 8486SOL    HW126357   2.370   1.438   2.712
 8486SOL    HW226358   2.376   1.290   2.644
 8487SOL     OW26359   6.165   2.664   6.206
 8487SOL    HW126360   6.081   2.716   6.196
 8487SOL    HW226361   6.199   2.673   6.300
 8488SOL     OW26362   5.490   6.556   2.130
 8488SOL    HW126363   5.498   6.458   2.108
 8488SOL    HW226364   5.421   6.598   2.071
 8489SOL     OW26365   5.999   1.401   1.636
 8489SOL    HW126366   6.009   1.420   1.538
 8489SOL    HW226367   6.060   1.461   1.688
 8490SOL     OW26368   3.017   6.689   5.774
 8490SOL    HW126369   2.999   6.680   5.872
 8490SOL    HW226370   3.068   6.610   5.742
 8491SOL     OW26371   1.970   6.137   2.163
 8491SOL    HW126372   1.956   6.211   2.098
 8491SOL    HW226373   1.906   6.146   2.240
 8492SOL     OW26374   5.677   4.204   4.924
 8492SOL    HW126375   5.707   4.118   4.882
 8492SOL    HW226376   5.749   4.238   4.985
 8493SOL     OW26377   2.215   2.564   6.037
 8493SOL    HW126378   2.174   2.633   5.978
 8493SOL    HW226379   2.175   2.571   6.129
 8494SOL     OW26380   4.200   5.640   1.860
 8494SOL    HW126381   4.122   5.699   1.878
 8494SOL    HW226382   4.235   5.657   1.768
 8495SOL     OW26383   0.286   4.968   1.427
 8495SOL    HW126384   0.251   4.877   1.402
 8495SOL    HW226385   0.343   4.960   1.509
 8496SOL     OW26386   6.900   1.356   2.552
 8496SOL    HW126387   6.948   1.435   2.591
 8496SOL    HW226388   6.826   1.388   2.493
 8497SOL     OW26389   0.170   1.586   3.624
 8497SOL    HW126390   0.113   1.546   3.551
 8497SOL    HW226391   0.110   1.624   3.695
 8498SOL     OW26392   6.776   6.691   2.999
 8498SOL    HW126393   6.829   6.687   3.084
 8498SOL    HW226394   6.720   6.774   2.998
 8499SOL     OW26395   1.281   3.559   6.780
 8499SOL    HW126396   1.353   3.609   6.828
 8499SOL    HW226397   1.248   3.614   6.702
 8500SOL     OW26398   1.663   6.133   5.981
 8500SOL    HW126399   1.630   6.152   5.889
 8500SOL    HW226400   1.591   6.151   6.047
 8501SOL     OW26401   0.156   2.761   5.693
 8501SOL    HW126402   0.247   2.739   5.729
 8501SOL    HW226403   0.163   2.774   5.594
 8502SOL     OW26404   0.610   2.997   1.540
 8502SOL    HW126405   0.662   3.078   1.569
 8502SOL    HW226406   0.520   2.998   1.584
 8503SOL     OW26407   0.891   5.769   4.763
 8503SOL    HW126408   0.802   5.735   4.790
 8503SOL    HW226409   0.901   5.865   4.792
 8504SOL     OW26410   1.821   5.295   2.038
 8504SOL    HW126411   1.795   5.233   1.964
 8504SOL    HW226412   1.910   5.335   2.019
 8505SOL     OW26413   6.627   3.541   3.289
 8505SOL    HW126414   6.560   3.583   3.349
 8505SOL    HW226415   6.602   3.557   3.193
 8506SOL     OW26416   1.198   1.648   6.622
 8506SOL    HW126417   1.142   1.679   6.545
 8506SOL    HW226418   1.140   1.603   6.690
 8507SOL     OW26419   3.649   6.633   5.456
 8507SOL    HW126420   3.731   6.637   5.399
 8507SOL    HW226421   3.601   6.720   5.452
 8508SOL     OW26422   4.451   2.013   5.275
 8508SOL    HW126423   4.403   1.944   5.329
 8508SOL    HW226424   4.442   2.103   5.319
 8509SOL     OW26425   5.421   0.495   3.386
 8509SOL    HW126426   5.327   0.525   3.369
 8509SOL    HW226427   5.480   0.575   3.396
 8510SOL     OW26428   5.996   4.196   2.926
 8510SOL    HW126429   5.972   4.152   2.839
 8510SOL    HW226430   5.932   4.270   2.944
 8511SOL     OW26431   6.144   3.739   2.736
 8511SOL    HW126432   6.229   3.791   2.722
 8511SOL    HW226433   6.140   3.709   2.831
 8512SOL     OW26434   3.004   0.705   2.952
 8512SOL    HW126435   2.954   0.727   2.868
 8512SOL    HW226436   3.043   0.788   2.990
 8513SOL     OW26437   0.059   5.050   0.897
 8513SOL    HW126438   0.057   5.013   0.804
 8513SOL    HW226439   0.009   5.136   0.900
 8514SOL     OW26440   2.459   0.694   3.977
 8514SOL    HW126441   2.510   0.743   3.907
 8514SOL    HW226442   2.461   0.746   4.062
 8515SOL     OW26443   4.930   2.602   1.161
 8515SOL    HW126444   4.943   2.598   1.062
 8515SOL    HW226445   4.832   2.610   1.181
 8516SOL     OW26446   0.108   1.681   2.285
 8516SOL    HW126447   0.166   1.734   2.223
 8516SOL    HW226448   0.071   1.602   2.236
 8517SOL     OW26449   0.722   2.916   5.328
 8517SOL    HW126450   0.794   2.899   5.395
 8517SOL    HW226451   0.682   3.007   5.343
 8518SOL     OW26452   4.750   4.170   6.510
 8518SOL    HW126453   4.784   4.167   6.416
 8518SOL    HW226454   4.659   4.212   6.510
 8519SOL     OW26455   1.356   5.462   2.077
 8519SOL    HW126456   1.298   5.404   2.021
 8519SOL    HW226457   1.403   5.528   2.019
 8520SOL     OW26458   3.804   1.158   0.859
 8520SOL    HW126459   3.848   1.224   0.797
 8520SOL    HW226460   3.858   1.149   0.942
 8521SOL     OW26461   1.835   5.569   5.913
 8521SOL    HW126462   1.877   5.643   5.861
 8521SOL    HW226463   1.743   5.551   5.878
 8522SOL     OW26464   0.888   5.659   2.074
 8522SOL    HW126465   0.961   5.686   2.011
 8522SOL    HW226466   0.852   5.570   2.047
 8523SOL     OW26467   3.080   6.366   7.005
 8523SOL    HW126468   2.989   6.361   0.030
 8523SOL    HW226469   3.071   6.405   6.913
 8524SOL     OW26470   1.311   2.830   4.588
 8524SOL    HW126471   1.384   2.765   4.566
 8524SOL    HW226472   1.317   2.854   4.685
 8525SOL     OW26473   5.846   4.321   3.864
 8525SOL    HW126474   5.812   4.277   3.781
 8525SOL    HW226475   5.935   4.362   3.846
 8526SOL     OW26476   2.614   4.111   0.841
 8526SOL    HW126477   2.590   4.015   0.832
 8526SOL    HW226478   2.713   4.122   0.832
 8527SOL     OW26479   3.467   0.168   5.103
 8527SOL    HW126480   3.552   0.120   5.126
 8527SOL    HW226481   3.429   0.128   5.019
 8528SOL     OW26482   4.991   3.175   6.183
 8528SOL    HW126483   4.973   3.084   6.146
 8528SOL    HW226484   4.916   3.202   6.244
 8529SOL     OW26485   1.406   6.985   6.964
 8529SOL    HW126486   1.391   6.888   6.982
 8529SOL    HW226487   1.500   6.999   6.933
 8530SOL     OW26488   1.076   5.008   6.106
 8530SOL    HW126489   1.022   5.028   6.024
 8530SOL    HW226490   1.034   5.053   6.185
 8531SOL     OW26491   5.780   4.650   2.777
 8531SOL    HW126492   5.848   4.721   2.800
 8531SOL    HW226493   5.801   4.613   2.687
 8532SOL     OW26494   4.177   5.124   5.137
 8532SOL    HW126495   4.094   5.097   5.185
 8532SOL    HW226496   4.155   5.150   5.043
 8533SOL     OW26497   1.727   0.628   5.531
 8533SOL    HW126498   1.668   0.626   5.451
 8533SOL    HW226499   1.683   0.577   5.606
 8534SOL     OW26500   6.916   4.083   3.353
 8534SOL    HW126501   6.931   3.991   3.390
 8534SOL    HW226502   6.824   4.114   3.377
 8535SOL     OW26503   0.563   2.153   4.804
 8535SOL    HW126504   0.598   2.118   4.717
 8535SOL    HW226505   0.634   2.208   4.848
 8536SOL     OW26506   6.330   1.798   4.859
 8536SOL    HW126507   6.356   1.880   4.909
 8536SOL    HW226508   6.235   1.774   4.879
 8537SOL     OW26509   6.102   1.989   0.954
 8537SOL    HW126510   6.060   2.077   0.933
 8537SOL    HW226511   6.191   1.982   0.909
 8538SOL     OW26512   0.484   0.504   4.881
 8538SOL    HW126513   0.562   0.543   4.931
 8538SOL    HW226514   0.425   0.578   4.850
 8539SOL     OW26515   6.093   2.345   2.187
 8539SOL    HW126516   6.162   2.278   2.215
 8539SOL    HW226517   6.068   2.329   2.092
 8540SOL     OW26518   3.488   1.472   0.730
 8540SOL    HW126519   3.540   1.550   0.765
 8540SOL    HW226520   3.392   1.482   0.754
 8541SOL     OW26521   2.455   1.825   4.548
 8541SOL    HW126522   2.520   1.889   4.587
 8541SOL    HW226523   2.451   1.742   4.603
 8542SOL     OW26524   2.857   4.404   6.738
 8542SOL    HW126525   2.934   4.339   6.735
 8542SOL    HW226526   2.878   4.482   6.680
 8543SOL     OW26527   2.738   1.829   5.493
 8543SOL    HW126528   2.766   1.861   5.584
 8543SOL    HW226529   2.820   1.813   5.438
 8544SOL     OW26530   5.176   3.292   4.815
 8544SOL    HW126531   5.206   3.316   4.907
 8544SOL    HW226532   5.253   3.254   4.763
 8545SOL     OW26533   3.308   6.423   4.869
 8545SOL    HW126534   3.297   6.371   4.954
 8545SOL    HW226535   3.262   6.511   4.878
 8546SOL     OW26536   6.189   0.339   1.325
 8546SOL    HW126537   6.279   0.340   1.368
 8546SOL    HW226538   6.164   0.244   1.304
 8547SOL     OW26539   0.244   0.419   5.455
 8547SOL    HW126540   0.224   0.327   5.488
 8547SOL    HW226541   0.169   0.451   5.397
 8548SOL     OW26542   0.372   3.110   5.527
 8548SOL    HW126543   0.339   3.065   5.444
 8548SOL    HW226544   0.339   3.204   5.529
 8549SOL     OW26545   0.718   2.622   3.865
 8549SOL    HW126546   0.720   2.588   3.959
 8549SOL    HW226547   0.756   2.553   3.804
 8550SOL     OW26548   1.169   3.632   5.919
 8550SOL    HW126549   1.260   3.605   5.888
 8550SOL    HW226550   1.168   3.635   6.019
 8551SOL     OW26551   3.006   2.918   6.977
 8551SOL    HW126552   3.037   2.951   6.887
 8551SOL    HW226553   3.076   2.939   0.028
 8552SOL     OW26554   2.789   0.391   2.378
 8552SOL    HW126555   2.702   0.363   2.336
 8552SOL    HW226556   2.774   0.414   2.474
 8553SOL     OW26557   4.236   4.466   0.078
 8553SOL    HW126558   4.199   4.472   0.171
 8553SOL    HW226559   4.167   4.497   0.012
 8554SOL     OW26560   0.850   5.881   1.535
 8554SOL    HW126561   0.857   5.978   1.511
 8554SOL    HW226562   0.783   5.837   1.476
 8555SOL     OW26563   3.980   1.782   3.186
 8555SOL    HW126564   3.894   1.737   3.164
 8555SOL    HW226565   4.002   1.851   3.117
 8556SOL     OW26566   1.809   6.295   5.563
 8556SOL    HW126567   1.858   6.373   5.602
 8556SOL    HW226568   1.857   6.210   5.588
 8557SOL     OW26569   6.812   0.966   1.179
 8557SOL    HW126570   6.842   0.978   1.085
 8557SOL    HW226571   6.742   1.033   1.201
 8558SOL     OW26572   1.966   5.488   3.178
 8558SOL    HW126573   1.933   5.484   3.083
 8558SOL    HW226574   1.951   5.400   3.223
 8559SOL     OW26575   1.620   6.124   2.653
 8559SOL    HW126576   1.682   6.095   2.726
 8559SOL    HW226577   1.583   6.215   2.674
 8560SOL     OW26578   1.035   5.516   1.341
 8560SOL    HW126579   1.051   5.605   1.383
 8560SOL    HW226580   1.121   5.465   1.339
 8561SOL     OW26581   3.733   6.744   3.795
 8561SOL    HW126582   3.659   6.804   3.764
 8561SOL    HW226583   3.694   6.656   3.821
 8562SOL     OW26584   3.879   6.782   0.062
 8562SOL    HW126585   3.889   6.797   6.981
 8562SOL    HW226586   3.929   6.852   0.112
 8563SOL     OW26587   0.762   4.537   1.951
 8563SOL    HW126588   0.769   4.465   2.020
 8563SOL    HW226589   0.853   4.576   1.935
 8564SOL     OW26590   3.608   6.297   5.798
 8564SOL    HW126591   3.660   6.374   5.759
 8564SOL    HW226592   3.552   6.330   5.874
 8565SOL     OW26593   3.895   5.386   1.584
 8565SOL    HW126594   3.854   5.333   1.658
 8565SOL    HW226595   3.995   5.382   1.590
 8566SOL     OW26596   2.067   0.186   1.942
 8566SOL    HW126597   2.130   0.148   2.009
 8566SOL    HW226598   1.996   0.118   1.922
 8567SOL     OW26599   1.208   1.995   1.937
 8567SOL    HW126600   1.179   2.090   1.926
 8567SOL    HW226601   1.205   1.970   2.033
 8568SOL     OW26602   6.166   1.418   0.718
 8568SOL    HW126603   6.119   1.499   0.752
 8568SOL    HW226604   6.099   1.350   0.690
 8569SOL     OW26605   5.295   1.808   6.080
 8569SOL    HW126606   5.239   1.853   6.010
 8569SOL    HW226607   5.270   1.711   6.086
 8570SOL     OW26608   1.339   1.866   4.543
 8570SOL    HW126609   1.271   1.843   4.612
 8570SOL    HW226610   1.326   1.962   4.514
 8571SOL     OW26611   0.793   0.116   4.636
 8571SOL    HW126612   0.891   0.125   4.653
 8571SOL    HW226613   0.742   0.149   4.716
 8572SOL     OW26614   1.901   4.253   4.987
 8572SOL    HW126615   1.875   4.165   4.949
 8572SOL    HW226616   1.819   4.310   4.997
 8573SOL     OW26617   2.916   5.730   6.261
 8573SOL    HW126618   2.958   5.798   6.322
 8573SOL    HW226619   2.843   5.683   6.309
 8574SOL     OW26620   6.260   6.689   6.145
 8574SOL    HW126621   6.288   6.594   6.161
 8574SOL    HW226622   6.172   6.706   6.191
 8575SOL     OW26623   3.223   1.658   3.364
 8575SOL    HW126624   3.205   1.733   3.428
 8575SOL    HW226625   3.240   1.574   3.415
 8576SOL     OW26626   1.893   4.957   3.846
 8576SOL    HW126627   1.934   4.941   3.756
 8576SOL    HW226628   1.874   4.870   3.891
 8577SOL     OW26629   1.390   0.228   6.245
 8577SOL    HW126630   1.444   0.217   6.162
 8577SOL    HW226631   1.303   0.179   6.235
 8578SOL     OW26632   6.678   4.934   5.759
 8578SOL    HW126633   6.737   4.922   5.839
 8578SOL    HW226634   6.685   4.854   5.699
 8579SOL     OW26635   1.041   5.805   1.905
 8579SOL    HW126636   1.096   5.866   1.963
 8579SOL    HW226637   0.955   5.850   1.883
 8580SOL     OW26638   2.025   5.785   0.978
 8580SOL    HW126639   2.080   5.702   0.977
 8580SOL    HW226640   1.935   5.766   1.019
 8581SOL     OW26641   4.085   4.730   1.474
 8581SOL    HW126642   4.096   4.637   1.440
 8581SOL    HW226643   4.128   4.795   1.411
 8582SOL     OW26644   4.520   4.720   5.682
 8582SOL    HW126645   4.531   4.780   5.602
 8582SOL    HW226646   4.424   4.698   5.695
 8583SOL     OW26647   2.982   6.715   2.800
 8583SOL    HW126648   3.044   6.644   2.834
 8583SOL    HW226649   2.903   6.721   2.860
 8584SOL     OW26650   0.460   6.905   5.232
 8584SOL    HW126651   0.549   6.940   5.259
 8584SOL    HW226652   0.471   6.821   5.179
 8585SOL     OW26653   6.298   1.173   0.855
 8585SOL    HW126654   6.228   1.103   0.849
 8585SOL    HW226655   6.260   1.261   0.825
 8586SOL     OW26656   4.018   6.719   1.589
 8586SOL    HW126657   4.028   6.787   1.516
 8586SOL    HW226658   4.015   6.765   1.678
 8587SOL     OW26659   1.128   1.171   5.070
 8587SOL    HW126660   1.100   1.139   5.161
 8587SOL    HW226661   1.166   1.264   5.078
 8588SOL     OW26662   4.909   1.034   0.082
 8588SOL    HW126663   4.862   0.953   0.116
 8588SOL    HW226664   4.912   1.032   7.000
 8589SOL     OW26665   6.639   2.643   5.307
 8589SOL    HW126666   6.737   2.624   5.314
 8589SOL    HW226667   6.589   2.557   5.297
 8590SOL     OW26668   0.508   1.265   2.787
 8590SOL    HW126669   0.442   1.195   2.757
 8590SOL    HW226670   0.600   1.236   2.762
 8591SOL     OW26671   0.185   4.140   0.545
 8591SOL    HW126672   0.185   4.093   0.457
 8591SOL    HW226673   0.234   4.085   0.613
 8592SOL     OW26674   0.187   2.281   6.868
 8592SOL    HW126675   0.098   2.315   6.900
 8592SOL    HW226676   0.238   2.355   6.826
 8593SOL     OW26677   2.950   0.857   6.574
 8593SOL    HW126678   3.034   0.895   6.536
 8593SOL    HW226679   2.900   0.809   6.501
 8594SOL     OW26680   6.265   2.622   5.916
 8594SOL    HW126681   6.247   2.650   6.010
 8594SOL    HW226682   6.306   2.530   5.916
 8595SOL     OW26683   6.308   0.962   3.470
 8595SOL    HW126684   6.376   0.930   3.536
 8595SOL    HW226685   6.221   0.979   3.516
 8596SOL     OW26686   1.375   4.582   3.203
 8596SOL    HW126687   1.354   4.623   3.292
 8596SOL    HW226688   1.385   4.483   3.214
 8597SOL     OW26689   5.581   2.138   1.049
 8597SOL    HW126690   5.653   2.109   1.112
 8597SOL    HW226691   5.498   2.159   1.101
 8598SOL     OW26692   5.651   0.113   5.708
 8598SOL    HW126693   5.712   0.078   5.779
 8598SOL    HW226694   5.607   0.198   5.740
 8599SOL     OW26695   1.123   2.438   4.675
 8599SOL    HW126696   1.185   2.469   4.747
 8599SOL    HW226697   1.044   2.499   4.670
 8600SOL     OW26698   5.153   3.206   0.328
 8600SOL    HW126699   5.236   3.259   0.349
 8600SOL    HW226700   5.075   3.268   0.321
 8601SOL     OW26701   0.401   2.033   3.769
 8601SOL    HW126702   0.470   2.103   3.748
 8601SOL    HW226703   0.311   2.066   3.742
 8602SOL     OW26704   2.673   6.258   2.040
 8602SOL    HW126705   2.745   6.266   1.971
 8602SOL    HW226706   2.708   6.212   2.121
 8603SOL     OW26707   5.583   0.087   0.096
 8603SOL    HW126708   5.669   0.095   0.147
 8603SOL    HW226709   5.576   7.012   0.058
 8604SOL     OW26710   0.957   2.519   5.874
 8604SOL    HW126711   1.031   2.470   5.920
 8604SOL    HW226712   0.951   2.613   5.908
 8605SOL     OW26713   1.447   5.269   3.274
 8605SOL    HW126714   1.349   5.267   3.296
 8605SOL    HW226715   1.489   5.183   3.303
 8606SOL     OW26716   2.216   2.225   0.048
 8606SOL    HW126717   2.162   2.252   6.985
 8606SOL    HW226718   2.309   2.204   0.021
 8607SOL     OW26719   2.595   4.299   6.708
 8607SOL    HW126720   2.691   4.328   6.711
 8607SOL    HW226721   2.578   4.247   6.624
 8608SOL     OW26722   2.003   4.532   2.365
 8608SOL    HW126723   2.077   4.577   2.416
 8608SOL    HW226724   1.992   4.576   2.276
 8609SOL     OW26725   5.171   0.384   3.766
 8609SOL    HW126726   5.105   0.310   3.774
 8609SOL    HW226727   5.247   0.356   3.706
 8610SOL     OW26728   6.613   0.742   3.252
 8610SOL    HW126729   6.529   0.714   3.206
 8610SOL    HW226730   6.681   0.669   3.245
 8611SOL     OW26731   3.068   1.256   4.116
 8611SOL    HW126732   3.074   1.202   4.200
 8611SOL    HW226733   3.156   1.250   4.067
 8612SOL     OW26734   2.485   3.500   1.359
 8612SOL    HW126735   2.518   3.540   1.445
 8612SOL    HW226736   2.540   3.535   1.283
 8613SOL     OW26737   3.045   1.901   1.377
 8613SOL    HW126738   2.958   1.861   1.349
 8613SOL    HW226739   3.120   1.847   1.336
 8614SOL     OW26740   1.468   2.850   3.231
 8614SOL    HW126741   1.509   2.812   3.148
 8614SOL    HW226742   1.509   2.806   3.311
 8615SOL     OW26743   4.725   2.270   5.436
 8615SOL    HW126744   4.723   2.357   5.485
 8615SOL    HW226745   4.810   2.222   5.456
 8616SOL     OW26746   2.942   4.757   1.716
 8616SOL    HW126747   2.906   4.816   1.788
 8616SOL    HW226748   2.942   4.662   1.747
 8617SOL     OW26749   6.155   1.086   3.905
 8617SOL    HW126750   6.132   1.182   3.895
 8617SOL    HW226751   6.073   1.033   3.925
 8618SOL     OW26752   6.360   4.234   1.097
 8618SOL    HW126753   6.301   4.154   1.107
 8618SOL    HW226754   6.334   4.284   1.015
 8619SOL     OW26755   4.036   5.060   2.957
 8619SOL    HW126756   4.003   5.145   2.997
 8619SOL    HW226757   4.135   5.064   2.945
 8620SOL     OW26758   2.106   6.455   4.446
 8620SOL    HW126759   2.121   6.542   4.494
 8620SOL    HW226760   2.017   6.417   4.471
 8621SOL     OW26761   5.007   2.844   2.383
 8621SOL    HW126762   5.070   2.877   2.454
 8621SOL    HW226763   4.983   2.919   2.322
 8622SOL     OW26764   5.330   4.288   1.651
 8622SOL    HW126765   5.299   4.300   1.556
 8622SOL    HW226766   5.333   4.378   1.696
 8623SOL     OW26767   0.695   4.266   5.118
 8623SOL    HW126768   0.676   4.280   5.021
 8623SOL    HW226769   0.622   4.307   5.173
 8624SOL     OW26770   3.011   3.885   5.923
 8624SOL    HW126771   3.002   3.862   5.826
 8624SOL    HW226772   2.950   3.960   5.945
 8625SOL     OW26773   4.742   0.444   5.313
 8625SOL    HW126774   4.666   0.380   5.300
 8625SOL    HW226775   4.829   0.394   5.306
 8626SOL     OW26776   3.697   3.172   7.003
 8626SOL    HW126777   3.598   3.166   7.007
 8626SOL    HW226778   3.735   3.087   6.966
 8627SOL     OW26779   2.706   1.800   2.007
 8627SOL    HW126780   2.679   1.824   2.100
 8627SOL    HW226781   2.646   1.845   1.941
 8628SOL     OW26782   6.330   6.788   6.853
 8628SOL    HW126783   6.381   6.873   6.864
 8628SOL    HW226784   6.392   6.710   6.856
 8629SOL     OW26785   1.721   6.742   5.340
 8629SOL    HW126786   1.709   6.714   5.245
 8629SOL    HW226787   1.796   6.808   5.347
 8630SOL     OW26788   4.912   3.495   4.067
 8630SOL    HW126789   4.929   3.495   3.969
 8630SOL    HW226790   4.915   3.401   4.101
 8631SOL     OW26791   1.181   5.753   6.083
 8631SOL    HW126792   1.087   5.727   6.062
 8631SOL    HW226793   1.224   5.680   6.137
 8632SOL     OW26794   3.943   4.458   5.445
 8632SOL    HW126795   3.957   4.426   5.539
 8632SOL    HW226796   3.934   4.379   5.384
 8633SOL     OW26797   5.438   3.017   5.855
 8633SOL    HW126798   5.376   3.016   5.776
 8633SOL    HW226799   5.384   3.022   5.939
 8634SOL     OW26800   4.794   4.151   6.866
 8634SOL    HW126801   4.723   4.221   6.861
 8634SOL    HW226802   4.762   4.069   6.819
 8635SOL     OW26803   5.662   2.798   6.699
 8635SOL    HW126804   5.699   2.733   6.765
 8635SOL    HW226805   5.736   2.836   6.643
 8636SOL     OW26806   5.324   6.288   1.136
 8636SOL    HW126807   5.262   6.213   1.112
 8636SOL    HW226808   5.283   6.344   1.208
 8637SOL     OW26809   2.036   1.681   6.955
 8637SOL    HW126810   1.967   1.623   6.912
 8637SOL    HW226811   1.991   1.762   6.994
 8638SOL     OW26812   3.888   2.572   5.351
 8638SOL    HW126813   3.956   2.583   5.279
 8638SOL    HW226814   3.925   2.512   5.422
 8639SOL     OW26815   4.221   3.489   6.831
 8639SOL    HW126816   4.289   3.488   6.757
 8639SOL    HW226817   4.265   3.515   6.916
 8640SOL     OW26818   3.852   3.625   0.798
 8640SOL    HW126819   3.831   3.721   0.780
 8640SOL    HW226820   3.926   3.595   0.738
 8641SOL     OW26821   4.044   5.072   4.211
 8641SOL    HW126822   3.959   5.124   4.204
 8641SOL    HW226823   4.073   5.044   4.119
 8642SOL     OW26824   1.070   0.039   3.545
 8642SOL    HW126825   0.999   0.011   3.479
 8642SOL    HW226826   1.050   7.015   3.634
 8643SOL     OW26827   2.026   0.476   0.062
 8643SOL    HW126828   2.025   0.574   0.082
 8643SOL    HW226829   2.033   0.424   0.147
 8644SOL     OW26830   5.462   2.756   5.990
 8644SOL    HW126831   5.484   2.853   5.975
 8644SOL    HW226832   5.396   2.748   6.065
 8645SOL     OW26833   4.482   4.680   1.757
 8645SOL    HW126834   4.549   4.617   1.796
 8645SOL    HW226835   4.523   4.727   1.679
 8646SOL     OW26836   0.482   1.627   6.679
 8646SOL    HW126837   0.560   1.641   6.620
 8646SOL    HW226838   0.507   1.648   6.774
 8647SOL     OW26839   2.475   5.377   0.366
 8647SOL    HW126840   2.513   5.469   0.374
 8647SOL    HW226841   2.525   5.325   0.297
 8648SOL     OW26842   6.293   0.104   0.635
 8648SOL    HW126843   6.371   0.042   0.626
 8648SOL    HW226844   6.325   0.197   0.654
 8649SOL     OW26845   6.107   6.023   0.612
 8649SOL    HW126846   6.044   6.098   0.629
 8649SOL    HW226847   6.156   6.000   0.697
 8650SOL     OW26848   1.679   6.733   5.051
 8650SOL    HW126849   1.625   6.816   5.068
 8650SOL    HW226850   1.618   6.654   5.049
 8651SOL     OW26851   3.926   1.391   1.181
 8651SOL    HW126852   3.886   1.361   1.268
 8651SOL    HW226853   3.853   1.420   1.119
 8652SOL     OW26854   0.892   4.940   3.432
 8652SOL    HW126855   0.893   5.026   3.484
 8652SOL    HW226856   0.798   4.918   3.407
 8653SOL     OW26857   6.559   1.488   6.095
 8653SOL    HW126858   6.659   1.482   6.097
 8653SOL    HW226859   6.521   1.452   6.181
 8654SOL     OW26860   0.342   4.897   1.707
 8654SOL    HW126861   0.378   4.968   1.768
 8654SOL    HW226862   0.250   4.872   1.736
 8655SOL     OW26863   5.559   0.102   4.490
 8655SOL    HW126864   5.642   0.070   4.537
 8655SOL    HW226865   5.478   0.065   4.536
 8656SOL     OW26866   6.166   1.320   2.007
 8656SOL    HW126867   6.137   1.297   2.100
 8656SOL    HW226868   6.257   1.362   2.010
 8657SOL     OW26869   5.542   5.878   0.353
 8657SOL    HW126870   5.493   5.962   0.374
 8657SOL    HW226871   5.636   5.885   0.388
 8658SOL     OW26872   6.767   5.516   0.043
 8658SOL    HW126873   6.682   5.490   0.090
 8658SOL    HW226874   6.748   5.531   6.964
 8659SOL     OW26875   4.987   2.027   2.769
 8659SOL    HW126876   4.994   2.113   2.820
 8659SOL    HW226877   5.068   2.016   2.711
 8660SOL     OW26878   6.980   2.994   2.331
 8660SOL    HW126879   0.055   3.015   2.363
 8660SOL    HW226880   6.919   3.071   2.353
 8661SOL     OW26881   6.240   3.963   1.978
 8661SOL    HW126882   6.335   3.945   2.005
 8661SOL    HW226883   6.238   4.009   1.890
 8662SOL     OW26884   3.842   5.770   2.153
 8662SOL    HW126885   3.847   5.853   2.209
 8662SOL    HW226886   3.749   5.734   2.154
 8663SOL     OW26887   2.783   5.576   2.579
 8663SOL    HW126888   2.750   5.659   2.624
 8663SOL    HW226889   2.743   5.569   2.487
 8664SOL     OW26890   2.334   5.066   1.692
 8664SOL    HW126891   2.246   5.075   1.740
 8664SOL    HW226892   2.350   4.970   1.670
 8665SOL     OW26893   6.179   5.612   4.682
 8665SOL    HW126894   6.250   5.590   4.749
 8665SOL    HW226895   6.103   5.549   4.692
 8666SOL     OW26896   5.449   0.260   4.116
 8666SOL    HW126897   5.491   0.320   4.185
 8666SOL    HW226898   5.384   0.313   4.061
 8667SOL     OW26899   4.803   1.455   3.985
 8667SOL    HW126900   4.730   1.506   4.029
 8667SOL    HW226901   4.877   1.438   4.051
 8668SOL     OW26902   5.235   3.573   4.778
 8668SOL    HW126903   5.152   3.518   4.787
 8668SOL    HW226904   5.309   3.516   4.743
 8669SOL     OW26905   0.368   6.324   6.469
 8669SOL    HW126906   0.364   6.327   6.569
 8669SOL    HW226907   0.451   6.278   6.440
 8670SOL     OW26908   4.413   5.339   6.069
 8670SOL    HW126909   4.418   5.240   6.086
 8670SOL    HW226910   4.478   5.386   6.129
 8671SOL     OW26911   0.554   1.604   2.246
 8671SOL    HW126912   0.511   1.529   2.196
 8671SOL    HW226913   0.541   1.590   2.344
 8672SOL     OW26914   0.702   6.900   3.210
 8672SOL    HW126915   0.748   6.900   3.299
 8672SOL    HW226916   0.656   6.812   3.196
 8673SOL     OW26917   6.416   1.664   0.179
 8673SOL    HW126918   6.378   1.581   0.139
 8673SOL    HW226919   6.349   1.738   0.174
 8674SOL     OW26920   6.037   5.196   2.846
 8674SOL    HW126921   5.983   5.209   2.929
 8674SOL    HW226922   6.134   5.208   2.867
 8675SOL     OW26923   4.530   1.206   4.940
 8675SOL    HW126924   4.483   1.215   5.028
 8675SOL    HW226925   4.572   1.294   4.916
 8676SOL     OW26926   4.894   0.243   2.238
 8676SOL    HW126927   4.828   0.197   2.179
 8676SOL    HW226928   4.851   0.323   2.280
 8677SOL     OW26929   1.623   6.019   5.462
 8677SOL    HW126930   1.570   5.975   5.390
 8677SOL    HW226931   1.625   5.961   5.543
 8678SOL     OW26932   1.123   0.324   0.820
 8678SOL    HW126933   1.101   0.406   0.874
 8678SOL    HW226934   1.042   0.293   0.771
 8679SOL     OW26935   1.257   1.138   3.469
 8679SOL    HW126936   1.288   1.210   3.407
 8679SOL    HW226937   1.317   1.136   3.549
 8680SOL     OW26938   6.310   3.088   6.981
 8680SOL    HW126939   6.369   3.168   6.989
 8680SOL    HW226940   6.276   3.062   0.054
 8681SOL     OW26941   4.704   5.544   1.482
 8681SOL    HW126942   4.796   5.508   1.471
 8681SOL    HW226943   4.640   5.468   1.498
 8682SOL     OW26944   6.684   0.689   1.733
 8682SOL    HW126945   6.631   0.661   1.813
 8682SOL    HW226946   6.781   0.687   1.755
 8683SOL     OW26947   1.485   2.546   5.746
 8683SOL    HW126948   1.553   2.475   5.730
 8683SOL    HW226949   1.443   2.572   5.660
 8684SOL     OW26950   6.639   2.913   4.700
 8684SOL    HW126951   6.699   2.834   4.715
 8684SOL    HW226952   6.626   2.960   4.787
 8685SOL     OW26953   5.364   3.148   6.477
 8685SOL    HW126954   5.442   3.093   6.507
 8685SOL    HW226955   5.308   3.173   6.556
 8686SOL     OW26956   6.333   0.391   1.593
 8686SOL    HW126957   6.331   0.484   1.557
 8686SOL    HW226958   6.355   0.393   1.691
 8687SOL     OW26959   5.393   5.080   2.794
 8687SOL    HW126960   5.416   5.110   2.887
 8687SOL    HW226961   5.469   5.025   2.758
 8688SOL     OW26962   1.268   4.389   6.639
 8688SOL    HW126963   1.255   4.450   6.561
 8688SOL    HW226964   1.293   4.298   6.606
 8689SOL     OW26965   4.439   2.936   0.140
 8689SOL    HW126966   4.393   2.972   0.221
 8689SOL    HW226967   4.472   3.012   0.084
 8690SOL     OW26968   0.878   3.395   2.997
 8690SOL    HW126969   0.791   3.361   2.962
 8690SOL    HW226970   0.942   3.319   3.005
 8691SOL     OW26971   3.377   2.033   5.791
 8691SOL    HW126972   3.291   1.984   5.774
 8691SOL    HW226973   3.453   1.984   5.750
 8692SOL     OW26974   3.734   0.982   4.998
 8692SOL    HW126975   3.828   0.956   4.974
 8692SOL    HW226976   3.721   1.079   4.980
 8693SOL     OW26977   6.529   0.260   6.418
 8693SOL    HW126978   6.624   0.281   6.444
 8693SOL    HW226979   6.511   0.163   6.434
 8694SOL     OW26980   5.859   1.558   4.675
 8694SOL    HW126981   5.959   1.555   4.668
 8694SOL    HW226982   5.833   1.550   4.772
 8695SOL     OW26983   3.574   3.204   6.339
 8695SOL    HW126984   3.641   3.273   6.367
 8695SOL    HW226985   3.601   3.165   6.252
 8696SOL     OW26986   3.049   5.794   5.477
 8696SOL    HW126987   3.042   5.825   5.572
 8696SOL    HW226988   2.969   5.739   5.454
 8697SOL     OW26989   0.377   3.810   6.117
 8697SOL    HW126990   0.405   3.844   6.207
 8697SOL    HW226991   0.281   3.834   6.102
 8698SOL     OW26992   5.089   6.379   4.930
 8698SOL    HW126993   5.063   6.462   4.880
 8698SOL    HW226994   5.187   6.379   4.948
 8699SOL     OW26995   1.877   3.321   5.356
 8699SOL    HW126996   1.927   3.323   5.443
 8699SOL    HW226997   1.924   3.262   5.291
 8700SOL     OW26998   0.872   0.566   5.029
 8700SOL    HW126999   0.780   0.582   5.064
 8700SOL    HW227000   0.895   0.469   5.038
 8701SOL     OW27001   1.414   1.284   0.479
 8701SOL    HW127002   1.360   1.304   0.397
 8701SOL    HW227003   1.452   1.370   0.515
 8702SOL     OW27004   5.095   5.109   1.702
 8702SOL    HW127005   5.195   5.112   1.710
 8702SOL    HW227006   5.056   5.190   1.745
 8703SOL     OW27007   2.928   4.690   6.875
 8703SOL    HW127008   2.828   4.692   6.884
 8703SOL    HW227009   2.966   4.772   6.917
 8704SOL     OW27010   6.495   4.380   3.570
 8704SOL    HW127011   6.460   4.432   3.492
 8704SOL    HW227012   6.532   4.442   3.639
 8705SOL     OW27013   4.273   1.901   6.316
 8705SOL    HW127014   4.247   1.805   6.316
 8705SOL    HW227015   4.366   1.910   6.280
 8706SOL     OW27016   5.054   1.972   0.244
 8706SOL    HW127017   4.973   1.919   0.268
 8706SOL    HW227018   5.132   1.942   0.299
 8707SOL     OW27019   1.172   2.488   4.067
 8707SOL    HW127020   1.074   2.470   4.063
 8707SOL    HW227021   1.216   2.420   4.125
 8708SOL     OW27022   4.182   1.411   3.698
 8708SOL    HW127023   4.090   1.406   3.657
 8708SOL    HW227024   4.181   1.367   3.788
 8709SOL     OW27025   6.833   6.739   6.677
 8709SOL    HW127026   6.871   6.682   6.604
 8709SOL    HW227027   6.795   6.680   6.748
 8710SOL     OW27028   2.286   2.852   3.690
 8710SOL    HW127029   2.370   2.822   3.645
 8710SOL    HW227030   2.253   2.779   3.751
 8711SOL     OW27031   1.707   6.745   2.956
 8711SOL    HW127032   1.774   6.790   2.898
 8711SOL    HW227033   1.615   6.762   2.920
 8712SOL     OW27034   3.583   1.556   4.395
 8712SOL    HW127035   3.619   1.513   4.311
 8712SOL    HW227036   3.563   1.652   4.377
 8713SOL     OW27037   6.442   4.113   1.848
 8713SOL    HW127038   6.411   4.203   1.817
 8713SOL    HW227039   6.539   4.102   1.827
 8714SOL     OW27040   1.132   0.128   6.195
 8714SOL    HW127041   1.156   0.137   6.098
 8714SOL    HW227042   1.039   0.091   6.203
 8715SOL     OW27043   4.324   1.715   0.670
 8715SOL    HW127044   4.231   1.736   0.640
 8715SOL    HW227045   4.326   1.707   0.769
 8716SOL     OW27046   0.597   6.657   0.827
 8716SOL    HW127047   0.611   6.594   0.751
 8716SOL    HW227048   0.527   6.621   0.888
 8717SOL     OW27049   2.717   3.404   5.449
 8717SOL    HW127050   2.752   3.422   5.357
 8717SOL    HW227051   2.651   3.329   5.446
 8718SOL     OW27052   1.822   2.504   5.512
 8718SOL    HW127053   1.881   2.493   5.432
 8718SOL    HW227054   1.787   2.415   5.540
 8719SOL     OW27055   3.719   0.933   0.336
 8719SOL    HW127056   3.659   0.998   0.382
 8719SOL    HW227057   3.773   0.884   0.405
 8720SOL     OW27058   0.614   6.461   6.158
 8720SOL    HW127059   0.579   6.373   6.125
 8720SOL    HW227060   0.551   6.499   6.225
 8721SOL     OW27061   6.406   0.862   0.234
 8721SOL    HW127062   6.492   0.861   0.285
 8721SOL    HW227063   6.410   0.933   0.164
 8722SOL     OW27064   3.526   1.013   0.493
 8722SOL    HW127065   3.516   0.934   0.552
 8722SOL    HW227066   3.540   1.095   0.548
 8723SOL     OW27067   5.756   0.266   2.702
 8723SOL    HW127068   5.831   0.218   2.747
 8723SOL    HW227069   5.792   0.345   2.652
 8724SOL     OW27070   5.833   0.163   4.001
 8724SOL    HW127071   5.920   0.114   4.008
 8724SOL    HW227072   5.786   0.161   4.089
 8725SOL     OW27073   0.672   6.081   5.010
 8725SOL    HW127074   0.707   6.089   5.103
 8725SOL    HW227075   0.748   6.071   4.946
 8726SOL     OW27076   6.919   1.020   0.909
 8726SOL    HW127077   6.973   0.991   0.830
 8726SOL    HW227078   6.892   1.116   0.897
 8727SOL     OW27079   6.065   6.667   0.535
 8727SOL    HW127080   6.091   6.656   0.631
 8727SOL    HW227081   6.147   6.664   0.478
 8728SOL     OW27082   5.273   1.467   2.081
 8728SOL    HW127083   5.312   1.541   2.136
 8728SOL    HW227084   5.276   1.382   2.133
 8729SOL     OW27085   3.218   5.292   5.549
 8729SOL    HW127086   3.122   5.320   5.544
 8729SOL    HW227087   3.276   5.367   5.518
 8730SOL     OW27088   5.217   4.373   3.472
 8730SOL    HW127089   5.221   4.459   3.423
 8730SOL    HW227090   5.215   4.297   3.407
 8731SOL     OW27091   0.939   3.794   3.138
 8731SOL    HW127092   0.971   3.826   3.049
 8731SOL    HW227093   0.870   3.723   3.126
 8732SOL     OW27094   5.516   4.370   2.287
 8732SOL    HW127095   5.489   4.339   2.196
 8732SOL    HW227096   5.602   4.325   2.313
 8733SOL     OW27097   1.157   5.638   0.084
 8733SOL    HW127098   1.192   5.545   0.075
 8733SOL    HW227099   1.233   5.703   0.080
 8734SOL     OW27100   0.002   3.390   2.773
 8734SOL    HW127101   0.044   3.341   2.696
 8734SOL    HW227102   0.071   3.406   2.843
 8735SOL     OW27103   1.006   3.097   5.227
 8735SOL    HW127104   0.910   3.115   5.206
 8735SOL    HW227105   1.049   3.181   5.258
 8736SOL     OW27106   6.951   5.427   2.441
 8736SOL    HW127107   6.877   5.360   2.441
 8736SOL    HW227108   6.921   5.509   2.391
 8737SOL     OW27109   2.690   6.682   7.017
 8737SOL    HW127110   2.618   6.727   6.964
 8737SOL    HW227111   2.652   6.605   0.050
 8738SOL     OW27112   2.296   6.113   3.478
 8738SOL    HW127113   2.268   6.065   3.561
 8738SOL    HW227114   2.395   6.106   3.467
 8739SOL     OW27115   5.559   4.996   5.976
 8739SOL    HW127116   5.530   4.983   5.882
 8739SOL    HW227117   5.580   5.093   5.991
 8740SOL     OW27118   4.040   2.000   2.940
 8740SOL    HW127119   4.052   2.036   2.847
 8740SOL    HW227120   4.062   2.071   3.007
 8741SOL     OW27121   2.463   0.436   2.831
 8741SOL    HW127122   2.535   0.391   2.885
 8741SOL    HW227123   2.486   0.532   2.820
 8742SOL     OW27124   4.482   0.064   1.555
 8742SOL    HW127125   4.467   7.008   1.621
 8742SOL    HW227126   4.517   0.145   1.602
 8743SOL     OW27127   2.223   0.755   1.209
 8743SOL    HW127128   2.286   0.787   1.138
 8743SOL    HW227129   2.234   0.656   1.221
 8744SOL     OW27130   4.268   3.029   0.590
 8744SOL    HW127131   4.295   2.943   0.631
 8744SOL    HW227132   4.347   3.090   0.583
 8745SOL     OW27133   6.606   2.270   6.319
 8745SOL    HW127134   6.683   2.333   6.330
 8745SOL    HW227135   6.525   2.321   6.292
 8746SOL     OW27136   4.807   5.846   4.497
 8746SOL    HW127137   4.827   5.891   4.410
 8746SOL    HW227138   4.711   5.861   4.521
 8747SOL     OW27139   0.198   1.345   2.349
 8747SOL    HW127140   0.189   1.401   2.431
 8747SOL    HW227141   0.218   1.251   2.375
 8748SOL     OW27142   0.949   2.219   4.566
 8748SOL    HW127143   0.997   2.264   4.642
 8748SOL    HW227144   1.008   2.220   4.485
 8749SOL     OW27145   1.651   0.894   5.551
 8749SOL    HW127146   1.702   0.808   5.555
 8749SOL    HW227147   1.699   0.958   5.491
 8750SOL     OW27148   3.655   3.321   5.822
 8750SOL    HW127149   3.730   3.343   5.885
 8750SOL    HW227150   3.630   3.224   5.833
 8751SOL     OW27151   6.936   1.218   1.491
 8751SOL    HW127152   6.918   1.313   1.464
 8751SOL    HW227153   7.001   1.177   1.427
 8752SOL     OW27154   4.049   3.062   6.922
 8752SOL    HW127155   3.963   3.017   6.897
 8752SOL    HW227156   4.087   3.108   6.841
 8753SOL     OW27157   2.684   2.724   6.224
 8753SOL    HW127158   2.739   2.798   6.186
 8753SOL    HW227159   2.743   2.661   6.275
 8754SOL     OW27160   2.797   4.103   5.621
 8754SOL    HW127161   2.857   4.027   5.646
 8754SOL    HW227162   2.770   4.096   5.525
 8755SOL     OW27163   2.387   0.477   1.529
 8755SOL    HW127164   2.477   0.513   1.508
 8755SOL    HW227165   2.362   0.503   1.623
 8756SOL     OW27166   1.020   3.027   3.415
 8756SOL    HW127167   0.980   3.061   3.330
 8756SOL    HW227168   1.120   3.030   3.409
 8757SOL     OW27169   5.000   5.844   6.743
 8757SOL    HW127170   4.959   5.820   6.831
 8757SOL    HW227171   4.995   5.766   6.681
 8758SOL     OW27172   4.642   5.936   3.124
 8758SOL    HW127173   4.546   5.913   3.138
 8758SOL    HW227174   4.654   6.035   3.132
 8759SOL     OW27175   6.328   2.701   7.008
 8759SOL    HW127176   6.384   2.686   0.072
 8759SOL    HW227177   6.260   2.772   0.009
 8760SOL     OW27178   2.881   0.710   4.406
 8760SOL    HW127179   2.884   0.720   4.505
 8760SOL    HW227180   2.801   0.655   4.380
 8761SOL     OW27181   6.260   1.688   1.208
 8761SOL    HW127182   6.345   1.693   1.260
 8761SOL    HW227183   6.280   1.685   1.110
 8762SOL     OW27184   1.233   5.993   4.333
 8762SOL    HW127185   1.229   5.950   4.423
 8762SOL    HW227186   1.309   6.058   4.330
 8763SOL     OW27187   5.877   0.380   5.271
 8763SOL    HW127188   5.852   0.346   5.362
 8763SOL    HW227189   5.918   0.305   5.217
 8764SOL     OW27190   4.468   6.324   5.899
 8764SOL    HW127191   4.468   6.230   5.932
 8764SOL    HW227192   4.536   6.335   5.827
 8765SOL     OW27193   5.138   1.374   4.365
 8765SOL    HW127194   5.197   1.429   4.424
 8765SOL    HW227195   5.194   1.311   4.311
 8766SOL     OW27196   4.010   4.259   5.256
 8766SOL    HW127197   4.087   4.315   5.223
 8766SOL    HW227198   3.968   4.212   5.179
 8767SOL     OW27199   4.660   6.223   3.083
 8767SOL    HW127200   4.688   6.295   3.019
 8767SOL    HW227201   4.624   6.266   3.166
 8768SOL     OW27202   1.279   2.568   1.200
 8768SOL    HW127203   1.190   2.589   1.240
 8768SOL    HW227204   1.274   2.481   1.150
 8769SOL     OW27205   0.142   1.311   1.951
 8769SOL    HW127206   0.199   1.229   1.962
 8769SOL    HW227207   0.127   1.329   1.854
 8770SOL     OW27208   5.099   4.563   2.539
 8770SOL    HW127209   5.049   4.650   2.536
 8770SOL    HW227210   5.059   4.503   2.609
 8771SOL     OW27211   0.614   2.431   6.251
 8771SOL    HW127212   0.516   2.451   6.257
 8771SOL    HW227213   0.648   2.404   6.341
 8772SOL     OW27214   4.793   0.462   5.910
 8772SOL    HW127215   4.760   0.401   5.838
 8772SOL    HW227216   4.879   0.504   5.880
 8773SOL     OW27217   5.305   2.539   2.860
 8773SOL    HW127218   5.313   2.603   2.784
 8773SOL    HW227219   5.291   2.447   2.825
 8774SOL     OW27220   0.743   0.645   0.183
 8774SOL    HW127221   0.686   0.563   0.181
 8774SOL    HW227222   0.716   0.703   0.260
 8775SOL     OW27223   5.042   0.996   5.484
 8775SOL    HW127224   5.041   1.016   5.582
 8775SOL    HW227225   4.956   1.027   5.443
 8776SOL     OW27226   5.121   3.222   1.604
 8776SOL    HW127227   5.067   3.217   1.521
 8776SOL    HW227228   5.145   3.318   1.623
 8777SOL     OW27229   6.492   3.838   4.067
 8777SOL    HW127230   6.469   3.832   4.165
 8777SOL    HW227231   6.591   3.829   4.056
 8778SOL     OW27232   5.091   3.552   5.395
 8778SOL    HW127233   5.135   3.641   5.395
 8778SOL    HW227234   5.027   3.546   5.318
 8779SOL     OW27235   2.131   5.345   2.147
 8779SOL    HW127236   2.089   5.366   2.235
 8779SOL    HW227237   2.203   5.412   2.128
 8780SOL     OW27238   0.340   6.825   2.875
 8780SOL    HW127239   0.437   6.805   2.860
 8780SOL    HW227240   0.326   6.924   2.870
 8781SOL     OW27241   4.751   0.022   3.721
 8781SOL    HW127242   4.746   6.939   3.727
 8781SOL    HW227243   4.845   0.051   3.733
 8782SOL     OW27244   5.905   1.156   1.757
 8782SOL    HW127245   5.933   1.249   1.732
 8782SOL    HW227246   5.806   1.148   1.751
 8783SOL     OW27247   6.538   4.117   4.592
 8783SOL    HW127248   6.530   4.034   4.537
 8783SOL    HW227249   6.447   4.146   4.622
 8784SOL     OW27250   6.614   6.485   6.272
 8784SOL    HW127251   6.706   6.517   6.247
 8784SOL    HW227252   6.573   6.439   6.193
 8785SOL     OW27253   6.848   5.425   6.247
 8785SOL    HW127254   6.925   5.478   6.282
 8785SOL    HW227255   6.789   5.483   6.191
 8786SOL     OW27256   3.230   1.125   1.880
 8786SOL    HW127257   3.190   1.098   1.968
 8786SOL    HW227258   3.319   1.169   1.896
 8787SOL     OW27259   3.303   0.827   2.645
 8787SOL    HW127260   3.216   0.859   2.609
 8787SOL    HW227261   3.376   0.890   2.619
 8788SOL     OW27262   6.627   1.213   5.320
 8788SOL    HW127263   6.546   1.272   5.325
 8788SOL    HW227264   6.702   1.264   5.278
 8789SOL     OW27265   6.536   4.759   5.231
 8789SOL    HW127266   6.480   4.782   5.311
 8789SOL    HW227267   6.570   4.666   5.241
 8790SOL     OW27268   6.504   1.160   6.593
 8790SOL    HW127269   6.503   1.237   6.529
 8790SOL    HW227270   6.469   1.078   6.548
 8791SOL     OW27271   4.753   6.520   4.789
 8791SOL    HW127272   4.851   6.533   4.802
 8791SOL    HW227273   4.718   6.590   4.727
 8792SOL     OW27274   3.102   5.239   2.503
 8792SOL    HW127275   3.071   5.335   2.500
 8792SOL    HW227276   3.022   5.179   2.502
 8793SOL     OW27277   0.929   4.935   3.744
 8793SOL    HW127278   0.971   4.845   3.756
 8793SOL    HW227279   0.830   4.927   3.748
 8794SOL     OW27280   5.636   1.362   3.691
 8794SOL    HW127281   5.680   1.272   3.695
 8794SOL    HW227282   5.564   1.361   3.622
 8795SOL     OW27283   1.681   5.018   4.948
 8795SOL    HW127284   1.666   5.038   4.851
 8795SOL    HW227285   1.667   4.920   4.964
 8796SOL     OW27286   5.811   2.933   3.397
 8796SOL    HW127287   5.790   2.855   3.337
 8796SOL    HW227288   5.741   3.003   3.386
 8797SOL     OW27289   6.881   0.022   5.243
 8797SOL    HW127290   6.927   0.021   5.332
 8797SOL    HW227291   6.786   7.013   5.254
 8798SOL     OW27292   4.210   5.652   6.230
 8798SOL    HW127293   4.309   5.661   6.224
 8798SOL    HW227294   4.179   5.680   6.322
 8799SOL     OW27295   2.849   5.146   2.530
 8799SOL    HW127296   2.785   5.176   2.459
 8799SOL    HW227297   2.807   5.074   2.585
 8800SOL     OW27298   5.564   5.622   5.898
 8800SOL    HW127299   5.523   5.640   5.987
 8800SOL    HW227300   5.503   5.656   5.826
 8801SOL     OW27301   6.271   1.663   4.313
 8801SOL    HW127302   6.198   1.688   4.250
 8801SOL    HW227303   6.239   1.679   4.407
 8802SOL     OW27304   1.600   5.562   5.765
 8802SOL    HW127305   1.507   5.525   5.773
 8802SOL    HW227306   1.597   5.661   5.761
 8803SOL     OW27307   6.769   6.986   6.834
 8803SOL    HW127308   6.703   6.960   6.905
 8803SOL    HW227309   6.816   6.904   6.802
 8804SOL     OW27310   2.131   5.923   1.262
 8804SOL    HW127311   2.170   5.935   1.171
 8804SOL    HW227312   2.144   6.007   1.315
 8805SOL     OW27313   3.840   5.277   3.594
 8805SOL    HW127314   3.922   5.323   3.628
 8805SOL    HW227315   3.775   5.265   3.668
 8806SOL     OW27316   2.003   4.730   1.040
 8806SOL    HW127317   1.917   4.680   1.051
 8806SOL    HW227318   2.070   4.672   0.994
 8807SOL     OW27319   4.528   1.335   6.892
 8807SOL    HW127320   4.596   1.321   6.964
 8807SOL    HW227321   4.510   1.433   6.882
 8808SOL     OW27322   6.849   1.923   6.123
 8808SOL    HW127323   6.803   2.003   6.085
 8808SOL    HW227324   6.901   1.951   6.204
 8809SOL     OW27325   2.549   4.617   3.645
 8809SOL    HW127326   2.478   4.600   3.576
 8809SOL    HW227327   2.532   4.561   3.726
 8810SOL     OW27328   5.802   1.354   5.541
 8810SOL    HW127329   5.702   1.349   5.546
 8810SOL    HW227330   5.842   1.295   5.611
 8811SOL     OW27331   3.361   0.400   2.751
 8811SOL    HW127332   3.379   0.402   2.653
 8811SOL    HW227333   3.316   0.484   2.779
 8812SOL     OW27334   2.898   0.534   0.445
 8812SOL    HW127335   2.960   0.558   0.519
 8812SOL    HW227336   2.811   0.504   0.482
 8813SOL     OW27337   2.323   4.967   2.890
 8813SOL    HW127338   2.372   5.032   2.949
 8813SOL    HW227339   2.361   4.971   2.798
 8814SOL     OW27340   6.322   6.736   0.662
 8814SOL    HW127341   6.378   6.812   0.628
 8814SOL    HW227342   6.356   6.650   0.625
 8815SOL     OW27343   5.788   6.559   0.812
 8815SOL    HW127344   5.735   6.644   0.803
 8815SOL    HW227345   5.876   6.569   0.766
 8816SOL     OW27346   1.011   0.199   6.789
 8816SOL    HW127347   1.057   0.113   6.811
 8816SOL    HW227348   0.912   0.188   6.801
 8817SOL     OW27349   0.173   4.016   4.211
 8817SOL    HW127350   0.256   3.979   4.253
 8817SOL    HW227351   0.099   3.949   4.219
 8818SOL     OW27352   1.389   6.446   3.616
 8818SOL    HW127353   1.309   6.506   3.622
 8818SOL    HW227354   1.360   6.351   3.625
 8819SOL     OW27355   6.230   4.302   5.693
 8819SOL    HW127356   6.142   4.350   5.691
 8819SOL    HW227357   6.300   4.363   5.730
 8820SOL     OW27358   3.266   1.514   4.799
 8820SOL    HW127359   3.193   1.580   4.814
 8820SOL    HW227360   3.233   1.422   4.820
 8821SOL     OW27361   0.801   6.031   0.357
 8821SOL    HW127362   0.802   6.130   0.343
 8821SOL    HW227363   0.857   5.986   0.287
 8822SOL     OW27364   0.659   0.155   3.150
 8822SOL    HW127365   0.699   0.067   3.174
 8822SOL    HW227366   0.731   0.218   3.121
 8823SOL     OW27367   2.634   0.942   2.800
 8823SOL    HW127368   2.649   1.041   2.808
 8823SOL    HW227369   2.653   0.914   2.706
 8824SOL     OW27370   1.307   0.859   1.001
 8824SOL    HW127371   1.385   0.915   1.030
 8824SOL    HW227372   1.310   0.771   1.048
 8825SOL     OW27373   0.717   0.854   1.893
 8825SOL    HW127374   0.750   0.947   1.903
 8825SOL    HW227375   0.618   0.852   1.906
 8826SOL     OW27376   1.238   3.454   0.940
 8826SOL    HW127377   1.327   3.464   0.895
 8826SOL    HW227378   1.195   3.369   0.909
 8827SOL     OW27379   4.039   6.974   3.261
 8827SOL    HW127380   4.040   0.048   3.300
 8827SOL    HW227381   4.014   6.980   3.164
 8828SOL     OW27382   3.997   5.279   0.138
 8828SOL    HW127383   3.945   5.284   0.053
 8828SOL    HW227384   3.983   5.363   0.190
 8829SOL     OW27385   5.796   1.541   1.454
 8829SOL    HW127386   5.705   1.543   1.413
 8829SOL    HW227387   5.805   1.619   1.517
 8830SOL     OW27388   2.279   1.597   2.759
 8830SOL    HW127389   2.270   1.696   2.748
 8830SOL    HW227390   2.313   1.577   2.851
 8831SOL     OW27391   5.948   2.829   2.974
 8831SOL    HW127392   5.922   2.916   3.016
 8831SOL    HW227393   5.946   2.757   3.043
 8832SOL     OW27394   0.216   6.369   4.473
 8832SOL    HW127395   0.299   6.360   4.419
 8832SOL    HW227396   0.229   6.438   4.544
 8833SOL     OW27397   3.925   3.950   6.618
 8833SOL    HW127398   3.947   3.855   6.640
 8833SOL    HW227399   3.979   4.011   6.676
 8834SOL     OW27400   5.970   4.223   4.466
 8834SOL    HW127401   6.002   4.196   4.557
 8834SOL    HW227402   6.040   4.281   4.423
 8835SOL     OW27403   5.547   1.001   6.217
 8835SOL    HW127404   5.570   0.946   6.297
 8835SOL    HW227405   5.469   1.061   6.239
 8836SOL     OW27406   4.926   2.141   0.475
 8836SOL    HW127407   4.997   2.084   0.433
 8836SOL    HW227408   4.924   2.230   0.431
 8837SOL     OW27409   0.011   0.111   1.499
 8837SOL    HW127410   0.068   0.182   1.457
 8837SOL    HW227411   6.963   0.153   1.562
 8838SOL     OW27412   1.083   4.903   2.650
 8838SOL    HW127413   1.073   5.002   2.658
 8838SOL    HW227414   1.172   4.876   2.687
 8839SOL     OW27415   4.026   6.362   2.280
 8839SOL    HW127416   4.056   6.313   2.198
 8839SOL    HW227417   4.064   6.319   2.361
 8840SOL     OW27418   6.373   0.110   2.175
 8840SOL    HW127419   6.408   0.097   2.083
 8840SOL    HW227420   6.325   0.028   2.205
 8841SOL     OW27421   5.996   1.545   2.965
 8841SOL    HW127422   5.968   1.613   3.032
 8841SOL    HW227423   6.076   1.495   2.999
 8842SOL     OW27424   3.380   3.864   3.289
 8842SOL    HW127425   3.378   3.964   3.286
 8842SOL    HW227426   3.331   3.827   3.210
 8843SOL     OW27427   1.628   3.573   4.175
 8843SOL    HW127428   1.682   3.565   4.258
 8843SOL    HW227429   1.531   3.582   4.199
 8844SOL     OW27430   6.676   1.236   5.009
 8844SOL    HW127431   6.682   1.214   4.912
 8844SOL    HW227432   6.758   1.203   5.056
 8845SOL     OW27433   2.202   4.085   0.827
 8845SOL    HW127434   2.109   4.119   0.840
 8845SOL    HW227435   2.219   4.011   0.893
 8846SOL     OW27436   4.524   4.800   3.982
 8846SOL    HW127437   4.575   4.717   4.003
 8846SOL    HW227438   4.479   4.833   4.065
 8847SOL     OW27439   1.708   1.445   3.933
 8847SOL    HW127440   1.747   1.392   3.858
 8847SOL    HW227441   1.778   1.464   4.001
 8848SOL     OW27442   2.959   1.677   2.444
 8848SOL    HW127443   3.033   1.661   2.509
 8848SOL    HW227444   2.938   1.775   2.442
 8849SOL     OW27445   3.463   4.890   3.291
 8849SOL    HW127446   3.481   4.940   3.207
 8849SOL    HW227447   3.550   4.862   3.332
 8850SOL     OW27448   3.241   1.571   0.737
 8850SOL    HW127449   3.234   1.639   0.664
 8850SOL    HW227450   3.168   1.585   0.803
 8851SOL     OW27451   1.309   4.518   2.171
 8851SOL    HW127452   1.217   4.546   2.144
 8851SOL    HW227453   1.356   4.596   2.214
 8852SOL     OW27454   4.400   3.074   5.895
 8852SOL    HW127455   4.387   3.154   5.836
 8852SOL    HW227456   4.373   2.991   5.846
 8853SOL     OW27457   2.966   0.437   4.782
 8853SOL    HW127458   2.878   0.455   4.825
 8853SOL    HW227459   3.038   0.439   4.851
 8854SOL     OW27460   2.316   0.504   6.462
 8854SOL    HW127461   2.364   0.509   6.550
 8854SOL    HW227462   2.380   0.473   6.391
 8855SOL     OW27463   0.007   6.366   0.490
 8855SOL    HW127464   6.956   6.336   0.424
 8855SOL    HW227465   7.007   6.461   0.515
 8856SOL     OW27466   5.572   0.341   5.837
 8856SOL    HW127467   5.525   0.373   5.755
 8856SOL    HW227468   5.507   0.331   5.911
 8857SOL     OW27469   6.139   2.202   3.578
 8857SOL    HW127470   6.063   2.262   3.603
 8857SOL    HW227471   6.119   2.159   3.491
 8858SOL     OW27472   1.785   2.893   5.810
 8858SOL    HW127473   1.859   2.955   5.838
 8858SOL    HW227474   1.808   2.851   5.722
 8859SOL     OW27475   0.153   6.815   4.777
 8859SOL    HW127476   0.094   6.896   4.778
 8859SOL    HW227477   0.114   6.747   4.715
 8860SOL     OW27478   2.113   4.360   2.915
 8860SOL    HW127479   2.136   4.448   2.955
 8860SOL    HW227480   2.193   4.300   2.917
 8861SOL     OW27481   3.642   2.246   6.214
 8861SOL    HW127482   3.619   2.343   6.214
 8861SOL    HW227483   3.672   2.219   6.123
 8862SOL     OW27484   6.424   1.348   3.702
 8862SOL    HW127485   6.471   1.325   3.617
 8862SOL    HW227486   6.490   1.375   3.772
 8863SOL     OW27487   1.734   6.065   4.564
 8863SOL    HW127488   1.738   5.980   4.616
 8863SOL    HW227489   1.657   6.060   4.500
 8864SOL     OW27490   2.544   3.447   6.313
 8864SOL    HW127491   2.640   3.474   6.323
 8864SOL    HW227492   2.511   3.408   6.399
 8865SOL     OW27493   3.287   2.007   5.421
 8865SOL    HW127494   3.377   1.968   5.403
 8865SOL    HW227495   3.259   2.064   5.343
 8866SOL     OW27496   5.480   6.778   4.153
 8866SOL    HW127497   5.443   6.846   4.089
 8866SOL    HW227498   5.568   6.746   4.120
 8867SOL     OW27499   5.217   3.269   3.213
 8867SOL    HW127500   5.291   3.312   3.161
 8867SOL    HW227501   5.227   3.170   3.211
 8868SOL     OW27502   6.229   3.205   0.470
 8868SOL    HW127503   6.230   3.187   0.568
 8868SOL    HW227504   6.270   3.294   0.452
 8869SOL     OW27505   4.524   5.605   3.471
 8869SOL    HW127506   4.534   5.519   3.420
 8869SOL    HW227507   4.594   5.670   3.440
 8870SOL     OW27508   4.307   6.935   0.428
 8870SOL    HW127509   4.395   6.972   0.455
 8870SOL    HW227510   4.309   6.835   0.435
 8871SOL     OW27511   2.974   0.832   3.998
 8871SOL    HW127512   2.947   0.890   4.075
 8871SOL    HW227513   2.897   0.774   3.972
 8872SOL     OW27514   1.591   4.438   4.712
 8872SOL    HW127515   1.529   4.506   4.674
 8872SOL    HW227516   1.683   4.452   4.675
 8873SOL     OW27517   7.016   5.714   1.897
 8873SOL    HW127518   6.995   5.618   1.917
 8873SOL    HW227519   0.022   5.761   1.982
 8874SOL     OW27520   2.363   5.994   1.056
 8874SOL    HW127521   2.367   6.091   1.077
 8874SOL    HW227522   2.409   5.943   1.129
 8875SOL     OW27523   0.195   3.305   4.998
 8875SOL    HW127524   0.138   3.319   5.079
 8875SOL    HW227525   0.207   3.393   4.951
 8876SOL     OW27526   1.396   0.128   4.076
 8876SOL    HW127527   1.365   0.221   4.058
 8876SOL    HW227528   1.363   0.067   4.004
 8877SOL     OW27529   2.554   1.535   4.287
 8877SOL    HW127530   2.643   1.501   4.258
 8877SOL    HW227531   2.538   1.510   4.383
 8878SOL     OW27532   0.456   5.545   0.776
 8878SOL    HW127533   0.415   5.456   0.792
 8878SOL    HW227534   0.548   5.548   0.814
 8879SOL     OW27535   5.475   5.416   1.098
 8879SOL    HW127536   5.434   5.366   1.174
 8879SOL    HW227537   5.403   5.462   1.047
 8880SOL     OW27538   6.962   5.939   4.466
 8880SOL    HW127539   0.006   5.865   4.495
 8880SOL    HW227540   6.869   5.918   4.494
 8881SOL     OW27541   5.768   0.007   4.638
 8881SOL    HW127542   5.738   0.009   4.733
 8881SOL    HW227543   5.857   0.053   4.631
 8882SOL     OW27544   5.640   1.352   0.799
 8882SOL    HW127545   5.615   1.260   0.769
 8882SOL    HW227546   5.607   1.366   0.892
 8883SOL     OW27547   1.036   0.622   5.335
 8883SOL    HW127548   0.970   0.690   5.305
 8883SOL    HW227549   0.989   0.537   5.360
 8884SOL     OW27550   5.787   5.065   6.525
 8884SOL    HW127551   5.769   5.158   6.494
 8884SOL    HW227552   5.729   5.044   6.604
 8885SOL     OW27553   7.009   3.469   1.090
 8885SOL    HW127554   6.940   3.523   1.043
 8885SOL    HW227555   7.016   3.498   1.185
 8886SOL     OW27556   3.185   6.759   5.537
 8886SOL    HW127557   3.205   6.782   5.442
 8886SOL    HW227558   3.161   6.662   5.544
 8887SOL     OW27559   3.011   0.926   1.212
 8887SOL    HW127560   2.920   0.916   1.171
 8887SOL    HW227561   3.071   0.976   1.149
 8888SOL     OW27562   1.751   1.784   1.114
 8888SOL    HW127563   1.693   1.778   1.195
 8888SOL    HW227564   1.817   1.709   1.114
 8889SOL     OW27565   5.286   6.307   5.452
 8889SOL    HW127566   5.311   6.360   5.371
 8889SOL    HW227567   5.365   6.252   5.481
 8890SOL     OW27568   6.075   5.620   4.167
 8890SOL    HW127569   6.121   5.655   4.248
 8890SOL    HW227570   6.025   5.536   4.190
 8891SOL     OW27571   5.452   3.308   5.876
 8891SOL    HW127572   5.412   3.306   5.785
 8891SOL    HW227573   5.515   3.231   5.887
 8892SOL     OW27574   3.549   5.481   3.161
 8892SOL    HW127575   3.570   5.443   3.252
 8892SOL    HW227576   3.517   5.575   3.172
 8893SOL     OW27577   1.450   0.477   2.170
 8893SOL    HW127578   1.439   0.415   2.248
 8893SOL    HW227579   1.360   0.505   2.137
 8894SOL     OW27580   4.134   2.834   5.859
 8894SOL    HW127581   4.044   2.833   5.816
 8894SOL    HW227582   4.204   2.854   5.790
 8895SOL     OW27583   6.501   1.594   1.315
 8895SOL    HW127584   6.509   1.548   1.227
 8895SOL    HW227585   6.526   1.531   1.388
 8896SOL     OW27586   1.883   3.788   4.913
 8896SOL    HW127587   1.907   3.767   4.818
 8896SOL    HW227588   1.893   3.706   4.969
 8897SOL     OW27589   2.548   2.462   2.925
 8897SOL    HW127590   2.475   2.487   2.861
 8897SOL    HW227591   2.541   2.518   3.007
 8898SOL     OW27592   5.965   3.525   4.727
 8898SOL    HW127593   6.057   3.526   4.765
 8898SOL    HW227594   5.899   3.544   4.799
 8899SOL     OW27595   1.477   5.138   0.440
 8899SOL    HW127596   1.500   5.060   0.498
 8899SOL    HW227597   1.554   5.159   0.380
 8900SOL     OW27598   5.881   3.067   3.098
 8900SOL    HW127599   5.799   3.119   3.123
 8900SOL    HW227600   5.948   3.129   3.057
 8901SOL     OW27601   2.441   0.897   4.167
 8901SOL    HW127602   2.389   0.962   4.222
 8901SOL    HW227603   2.529   0.938   4.141
 8902SOL     OW27604   3.435   6.350   6.852
 8902SOL    HW127605   3.380   6.426   6.819
 8902SOL    HW227606   3.378   6.268   6.859
 8903SOL     OW27607   0.915   1.215   4.705
 8903SOL    HW127608   0.917   1.206   4.606
 8903SOL    HW227609   0.974   1.146   4.747
 8904SOL     OW27610   6.343   5.619   3.789
 8904SOL    HW127611   6.426   5.663   3.822
 8904SOL    HW227612   6.267   5.642   3.849
 8905SOL     OW27613   2.230   4.114   4.670
 8905SOL    HW127614   2.233   4.029   4.722
 8905SOL    HW227615   2.253   4.191   4.730
 8906SOL     OW27616   0.296   6.673   6.782
 8906SOL    HW127617   0.254   6.710   6.865
 8906SOL    HW227618   0.355   6.742   6.741
 8907SOL     OW27619   3.059   1.855   4.959
 8907SOL    HW127620   3.113   1.791   5.014
 8907SOL    HW227621   3.118   1.931   4.930
 8908SOL     OW27622   1.619   3.124   6.352
 8908SOL    HW127623   1.657   3.080   6.271
 8908SOL    HW227624   1.675   3.102   6.432
 8909SOL     OW27625   1.744   1.020   4.986
 8909SOL    HW127626   1.651   1.055   4.976
 8909SOL    HW227627   1.807   1.095   5.003
 8910SOL     OW27628   1.296   2.797   5.929
 8910SOL    HW127629   1.376   2.845   5.892
 8910SOL    HW227630   1.322   2.751   6.014
 8911SOL     OW27631   4.166   2.270   4.767
 8911SOL    HW127632   4.218   2.293   4.850
 8911SOL    HW227633   4.077   2.234   4.792
 8912SOL     OW27634   4.486   1.951   0.623
 8912SOL    HW127635   4.580   1.933   0.595
 8912SOL    HW227636   4.443   1.866   0.652
 8913SOL     OW27637   4.362   5.052   0.309
 8913SOL    HW127638   4.396   5.140   0.276
 8913SOL    HW227639   4.269   5.037   0.275
 8914SOL     OW27640   4.155   0.502   4.355
 8914SOL    HW127641   4.230   0.550   4.401
 8914SOL    HW227642   4.102   0.566   4.301
 8915SOL     OW27643   1.013   2.337   3.841
 8915SOL    HW127644   0.972   2.398   3.773
 8915SOL    HW227645   1.070   2.269   3.795
 8916SOL     OW27646   0.678   3.467   1.762
 8916SOL    HW127647   0.741   3.489   1.687
 8916SOL    HW227648   0.620   3.389   1.735
 8917SOL     OW27649   5.994   3.969   6.055
 8917SOL    HW127650   6.075   4.028   6.056
 8917SOL    HW227651   6.001   3.901   6.128
 8918SOL     OW27652   6.972   4.304   1.528
 8918SOL    HW127653   0.016   4.297   1.449
 8918SOL    HW227654   6.948   4.399   1.543
 8919SOL     OW27655   4.454   4.338   0.423
 8919SOL    HW127656   4.485   4.357   0.516
 8919SOL    HW227657   4.425   4.423   0.379
 8920SOL     OW27658   1.079   6.921   6.561
 8920SOL    HW127659   1.080   6.904   6.659
 8920SOL    HW227660   1.105   7.016   6.542
 8921SOL     OW27661   2.010   2.056   3.014
 8921SOL    HW127662   2.040   1.969   3.053
 8921SOL    HW227663   2.056   2.071   2.927
 8922SOL     OW27664   3.173   5.296   1.738
 8922SOL    HW127665   3.091   5.238   1.730
 8922SOL    HW227666   3.237   5.272   1.665
 8923SOL     OW27667   1.311   4.007   5.710
 8923SOL    HW127668   1.229   3.966   5.751
 8923SOL    HW227669   1.308   4.106   5.722
 8924SOL     OW27670   3.579   5.794   5.268
 8924SOL    HW127671   3.582   5.787   5.367
 8924SOL    HW227672   3.664   5.758   5.229
 8925SOL     OW27673   1.110   0.530   2.496
 8925SOL    HW127674   1.200   0.528   2.538
 8925SOL    HW227675   1.083   0.437   2.470
 8926SOL     OW27676   6.202   3.541   6.774
 8926SOL    HW127677   6.223   3.535   6.872
 8926SOL    HW227678   6.104   3.527   6.760
 8927SOL     OW27679   1.010   1.947   4.565
 8927SOL    HW127680   1.055   1.923   4.651
 8927SOL    HW227681   0.992   2.045   4.563
 8928SOL     OW27682   6.543   0.670   5.075
 8928SOL    HW127683   6.491   0.674   4.990
 8928SOL    HW227684   6.482   0.644   5.150
 8929SOL     OW27685   0.049   3.436   3.961
 8929SOL    HW127686   0.062   3.337   3.948
 8929SOL    HW227687   0.131   3.475   4.004
 8930SOL     OW27688   2.340   4.299   4.163
 8930SOL    HW127689   2.291   4.231   4.107
 8930SOL    HW227690   2.307   4.295   4.257
 8931SOL     OW27691   3.271   2.606   0.899
 8931SOL    HW127692   3.324   2.585   0.817
 8931SOL    HW227693   3.182   2.562   0.894
 8932SOL     OW27694   5.505   0.625   0.096
 8932SOL    HW127695   5.418   0.673   0.091
 8932SOL    HW227696   5.520   0.572   0.012
 8933SOL     OW27697   1.017   2.121   5.586
 8933SOL    HW127698   0.939   2.181   5.601
 8933SOL    HW227699   1.096   2.155   5.638
 8934SOL     OW27700   3.034   5.390   3.541
 8934SOL    HW127701   3.099   5.399   3.465
 8934SOL    HW227702   3.084   5.381   3.627
 8935SOL     OW27703   5.456   4.027   1.769
 8935SOL    HW127704   5.401   4.023   1.853
 8935SOL    HW227705   5.429   4.107   1.715
 8936SOL     OW27706   1.255   3.135   0.905
 8936SOL    HW127707   1.163   3.168   0.886
 8936SOL    HW227708   1.258   3.093   0.996
 8937SOL     OW27709   0.699   0.357   4.093
 8937SOL    HW127710   0.707   0.291   4.168
 8937SOL    HW227711   0.766   0.335   4.022
 8938SOL     OW27712   0.210   0.972   0.153
 8938SOL    HW127713   0.292   0.942   0.202
 8938SOL    HW227714   0.129   0.937   0.200
 8939SOL     OW27715   6.218   3.431   4.435
 8939SOL    HW127716   6.161   3.413   4.355
 8939SOL    HW227717   6.247   3.527   4.434
 8940SOL     OW27718   5.542   1.854   1.050
 8940SOL    HW127719   5.622   1.810   1.091
 8940SOL    HW227720   5.546   1.952   1.067
 8941SOL     OW27721   5.546   2.624   2.322
 8941SOL    HW127722   5.569   2.669   2.236
 8941SOL    HW227723   5.630   2.603   2.372
 8942SOL     OW27724   1.180   5.493   4.443
 8942SOL    HW127725   1.129   5.408   4.456
 8942SOL    HW227726   1.154   5.559   4.513
 8943SOL     OW27727   4.209   5.126   0.568
 8943SOL    HW127728   4.249   5.216   0.588
 8943SOL    HW227729   4.268   5.078   0.503
 8944SOL     OW27730   4.864   5.324   4.081
 8944SOL    HW127731   4.921   5.338   4.000
 8944SOL    HW227732   4.902   5.249   4.136
 8945SOL     OW27733   6.478   2.227   4.507
 8945SOL    HW127734   6.475   2.318   4.549
 8945SOL    HW227735   6.488   2.236   4.408
 8946SOL     OW27736   3.904   0.933   4.055
 8946SOL    HW127737   3.939   0.990   3.981
 8946SOL    HW227738   3.821   0.886   4.025
 8947SOL     OW27739   2.141   3.339   6.094
 8947SOL    HW127740   2.118   3.425   6.049
 8947SOL    HW227741   2.088   3.331   6.179
 8948SOL     OW27742   6.046   6.111   3.053
 8948SOL    HW127743   6.006   6.039   3.109
 8948SOL    HW227744   6.026   6.200   3.093
 8949SOL     OW27745   4.129   5.591   0.691
 8949SOL    HW127746   4.114   5.629   0.600
 8949SOL    HW227747   4.061   5.628   0.755
 8950SOL     OW27748   4.536   3.340   1.270
 8950SOL    HW127749   4.600   3.302   1.337
 8950SOL    HW227750   4.442   3.327   1.302
 8951SOL     OW27751   1.854   1.130   4.419
 8951SOL    HW127752   1.880   1.216   4.462
 8951SOL    HW227753   1.807   1.072   4.485
 8952SOL     OW27754   0.720   5.187   3.268
 8952SOL    HW127755   0.653   5.260   3.250
 8952SOL    HW227756   0.810   5.228   3.281
 8953SOL     OW27757   1.771   4.195   1.076
 8953SOL    HW127758   1.778   4.144   1.161
 8953SOL    HW227759   1.675   4.210   1.054
 8954SOL     OW27760   0.206   6.968   3.925
 8954SOL    HW127761   0.233   6.896   3.989
 8954SOL    HW227762   0.216   6.934   3.831
 8955SOL     OW27763   0.049   3.645   2.656
 8955SOL    HW127764   7.006   3.580   2.702
 8955SOL    HW227765   0.024   3.652   2.559
 8956SOL     OW27766   1.088   0.699   5.754
 8956SOL    HW127767   1.137   0.707   5.667
 8956SOL    HW227768   1.023   0.624   5.749
 8957SOL     OW27769   2.525   4.567   1.033
 8957SOL    HW127770   2.506   4.614   1.119
 8957SOL    HW227771   2.468   4.605   0.961
 8958SOL     OW27772   0.850   2.471   5.338
 8958SOL    HW127773   0.889   2.400   5.279
 8958SOL    HW227774   0.923   2.513   5.392
 8959SOL     OW27775   1.721   3.483   2.495
 8959SOL    HW127776   1.666   3.411   2.452
 8959SOL    HW227777   1.664   3.535   2.558
 8960SOL     OW27778   6.308   5.625   3.499
 8960SOL    HW127779   6.349   5.623   3.591
 8960SOL    HW227780   6.258   5.539   3.484
 8961SOL     OW27781   4.152   1.706   3.799
 8961SOL    HW127782   4.197   1.684   3.712
 8961SOL    HW227783   4.186   1.644   3.870
 8962SOL     OW27784   0.111   5.977   1.424
 8962SOL    HW127785   0.084   5.936   1.512
 8962SOL    HW227786   0.211   5.980   1.418
 8963SOL     OW27787   3.305   6.561   5.220
 8963SOL    HW127788   3.212   6.538   5.193
 8963SOL    HW227789   3.306   6.649   5.267
 8964SOL     OW27790   5.510   3.738   3.046
 8964SOL    HW127791   5.454   3.696   2.974
 8964SOL    HW227792   5.546   3.825   3.013
 8965SOL     OW27793   3.501   4.889   0.651
 8965SOL    HW127794   3.453   4.885   0.564
 8965SOL    HW227795   3.456   4.955   0.712
 8966SOL     OW27796   6.922   4.630   6.755
 8966SOL    HW127797   6.872   4.587   6.680
 8966SOL    HW227798   6.861   4.638   6.834
 8967SOL     OW27799   4.154   1.422   3.085
 8967SOL    HW127800   4.067   1.374   3.096
 8967SOL    HW227801   4.159   1.498   3.150
 8968SOL     OW27802   3.006   5.814   2.286
 8968SOL    HW127803   3.093   5.840   2.243
 8968SOL    HW227804   3.005   5.845   2.381
 8969SOL     OW27805   0.396   0.602   3.468
 8969SOL    HW127806   0.337   0.539   3.419
 8969SOL    HW227807   0.364   0.612   3.562
 8970SOL     OW27808   1.551   2.422   0.517
 8970SOL    HW127809   1.609   2.345   0.544
 8970SOL    HW227810   1.521   2.410   0.422
 8971SOL     OW27811   5.303   6.963   2.240
 8971SOL    HW127812   5.389   6.933   2.281
 8971SOL    HW227813   5.315   0.036   2.199
 8972SOL     OW27814   4.880   3.812   0.356
 8972SOL    HW127815   4.812   3.748   0.392
 8972SOL    HW227816   4.855   3.905   0.381
 8973SOL     OW27817   0.620   3.120   2.162
 8973SOL    HW127818   0.713   3.156   2.171
 8973SOL    HW227819   0.625   3.027   2.123
 8974SOL     OW27820   1.791   3.929   3.870
 8974SOL    HW127821   1.860   3.920   3.797
 8974SOL    HW227822   1.760   4.024   3.875
 8975SOL     OW27823   1.091   6.960   6.827
 8975SOL    HW127824   1.167   6.895   6.823
 8975SOL    HW227825   1.027   6.932   6.898
 8976SOL     OW27826   7.008   6.365   0.807
 8976SOL    HW127827   0.024   6.440   0.750
 8976SOL    HW227828   6.916   6.385   0.839
 8977SOL     OW27829   6.792   3.969   6.651
 8977SOL    HW127830   6.775   3.904   6.578
 8977SOL    HW227831   6.878   4.017   6.635
 8978SOL     OW27832   5.036   6.591   4.787
 8978SOL    HW127833   5.047   6.687   4.812
 8978SOL    HW227834   5.064   6.577   4.692
 8979SOL     OW27835   1.336   5.514   5.892
 8979SOL    HW127836   1.270   5.503   5.818
 8979SOL    HW227837   1.311   5.594   5.947
 8980SOL     OW27838   5.505   2.176   5.576
 8980SOL    HW127839   5.453   2.107   5.627
 8980SOL    HW227840   5.443   2.249   5.548
 8981SOL     OW27841   4.859   1.886   5.752
 8981SOL    HW127842   4.840   1.954   5.822
 8981SOL    HW227843   4.847   1.926   5.661
 8982SOL     OW27844   0.014   1.952   1.337
 8982SOL    HW127845   0.012   2.010   1.418
 8982SOL    HW227846   0.095   1.972   1.283
 8983SOL     OW27847   0.916   5.249   1.767
 8983SOL    HW127848   0.855   5.196   1.827
 8983SOL    HW227849   0.903   5.219   1.672
 8984SOL     OW27850   6.011   0.153   4.663
 8984SOL    HW127851   6.070   0.085   4.707
 8984SOL    HW227852   5.990   0.226   4.727
 8985SOL     OW27853   3.105   2.117   1.190
 8985SOL    HW127854   3.095   2.038   1.251
 8985SOL    HW227855   3.015   2.142   1.153
 8986SOL     OW27856   5.416   4.708   2.639
 8986SOL    HW127857   5.420   4.619   2.595
 8986SOL    HW227858   5.384   4.697   2.733
 8987SOL     OW27859   2.960   0.730   0.907
 8987SOL    HW127860   2.903   0.794   0.958
 8987SOL    HW227861   3.053   0.731   0.944
 8988SOL     OW27862   1.548   5.419   0.138
 8988SOL    HW127863   1.573   5.480   0.063
 8988SOL    HW227864   1.464   5.453   0.182
 8989SOL     OW27865   4.934   3.349   2.794
 8989SOL    HW127866   4.893   3.263   2.765
 8989SOL    HW227867   4.937   3.352   2.894
 8990SOL     OW27868   1.895   5.904   2.013
 8990SOL    HW127869   1.906   5.976   2.081
 8990SOL    HW227870   1.826   5.931   1.946
 8991SOL     OW27871   2.454   1.824   1.620
 8991SOL    HW127872   2.359   1.811   1.590
 8991SOL    HW227873   2.498   1.892   1.562
 8992SOL     OW27874   0.167   2.440   0.592
 8992SOL    HW127875   0.115   2.443   0.678
 8992SOL    HW227876   0.258   2.403   0.609
 8993SOL     OW27877   4.980   2.445   2.759
 8993SOL    HW127878   5.001   2.542   2.773
 8993SOL    HW227879   5.065   2.392   2.761
 8994SOL     OW27880   1.711   5.542   3.656
 8994SOL    HW127881   1.719   5.442   3.657
 8994SOL    HW227882   1.792   5.582   3.700
 8995SOL     OW27883   1.480   2.433   5.404
 8995SOL    HW127884   1.455   2.530   5.414
 8995SOL    HW227885   1.400   2.377   5.424
 8996SOL     OW27886   0.480   3.890   1.903
 8996SOL    HW127887   0.417   3.815   1.918
 8996SOL    HW227888   0.464   3.930   1.813
 8997SOL     OW27889   4.905   0.838   6.474
 8997SOL    HW127890   4.944   0.818   6.564
 8997SOL    HW227891   4.915   0.758   6.415
 8998SOL     OW27892   0.188   2.023   4.807
 8998SOL    HW127893   0.224   1.938   4.771
 8998SOL    HW227894   0.179   2.090   4.733
 8999SOL     OW27895   4.815   0.755   0.085
 8999SOL    HW127896   4.791   0.714   0.173
 8999SOL    HW227897   4.894   0.708   0.047
 9000SOL     OW27898   2.906   4.114   5.998
 9000SOL    HW127899   2.831   4.084   6.056
 9000SOL    HW227900   2.965   4.177   6.049
 9001SOL     OW27901   1.261   5.331   2.948
 9001SOL    HW127902   1.321   5.295   2.877
 9001SOL    HW227903   1.176   5.363   2.906
 9002SOL     OW27904   0.730   5.378   5.509
 9002SOL    HW127905   0.769   5.305   5.453
 9002SOL    HW227906   0.734   5.465   5.459
 9003SOL     OW27907   5.927   2.731   1.694
 9003SOL    HW127908   6.019   2.746   1.730
 9003SOL    HW227909   5.900   2.809   1.638
 9004SOL     OW27910   4.752   6.377   1.808
 9004SOL    HW127911   4.809   6.452   1.841
 9004SOL    HW227912   4.790   6.341   1.723
 9005SOL     OW27913   5.779   2.023   3.662
 9005SOL    HW127914   5.770   2.112   3.618
 9005SOL    HW227915   5.766   1.950   3.594
 9006SOL     OW27916   1.244   5.972   0.686
 9006SOL    HW127917   1.291   5.966   0.775
 9006SOL    HW227918   1.145   5.972   0.700
 9007SOL     OW27919   3.701   5.644   3.456
 9007SOL    HW127920   3.723   5.547   3.454
 9007SOL    HW227921   3.722   5.682   3.546
 9008SOL     OW27922   6.072   5.503   2.898
 9008SOL    HW127923   6.145   5.438   2.917
 9008SOL    HW227924   5.994   5.455   2.858
 9009SOL     OW27925   3.443   6.671   0.593
 9009SOL    HW127926   3.403   6.657   0.683
 9009SOL    HW227927   3.542   6.663   0.599
 9010SOL     OW27928   0.652   6.509   4.808
 9010SOL    HW127929   0.599   6.524   4.892
 9010SOL    HW227930   0.699   6.593   4.782
 9011SOL     OW27931   3.866   2.478   1.363
 9011SOL    HW127932   3.860   2.398   1.423
 9011SOL    HW227933   3.895   2.449   1.272
 9012SOL     OW27934   2.815   4.991   0.721
 9012SOL    HW127935   2.811   4.892   0.728
 9012SOL    HW227936   2.757   5.032   0.792
 9013SOL     OW27937   6.151   6.288   5.072
 9013SOL    HW127938   6.054   6.278   5.049
 9013SOL    HW227939   6.201   6.208   5.039
 9014SOL     OW27940   1.227   1.778   0.710
 9014SOL    HW127941   1.239   1.857   0.770
 9014SOL    HW227942   1.131   1.767   0.687
 9015SOL     OW27943   6.205   0.620   0.083
 9015SOL    HW127944   6.190   0.586   7.008
 9015SOL    HW227945   6.214   0.720   0.081
 9016SOL     OW27946   5.939   6.210   5.994
 9016SOL    HW127947   5.989   6.293   5.972
 9016SOL    HW227948   5.993   6.156   6.060
 9017SOL     OW27949   5.459   2.236   3.346
 9017SOL    HW127950   5.469   2.153   3.402
 9017SOL    HW227951   5.530   2.237   3.276
 9018SOL     OW27952   4.064   1.469   5.488
 9018SOL    HW127953   4.022   1.556   5.515
 9018SOL    HW227954   4.076   1.412   5.570
 9019SOL     OW27955   1.884   6.661   0.623
 9019SOL    HW127956   1.903   6.693   0.530
 9019SOL    HW227957   1.909   6.732   0.689
 9020SOL     OW27958   1.652   3.481   2.135
 9020SOL    HW127959   1.719   3.415   2.169
 9020SOL    HW227960   1.587   3.435   2.074
 9021SOL     OW27961   6.566   0.136   3.918
 9021SOL    HW127962   6.589   0.173   3.828
 9021SOL    HW227963   6.625   0.179   3.987
 9022SOL     OW27964   2.821   1.100   0.807
 9022SOL    HW127965   2.824   1.039   0.728
 9022SOL    HW227966   2.829   1.194   0.776
 9023SOL     OW27967   3.928   3.281   3.178
 9023SOL    HW127968   3.849   3.284   3.116
 9023SOL    HW227969   3.986   3.361   3.161
 9024SOL     OW27970   2.074   5.724   6.261
 9024SOL    HW127971   2.094   5.695   6.168
 9024SOL    HW227972   2.107   5.817   6.276
 9025SOL     OW27973   6.714   5.984   0.840
 9025SOL    HW127974   6.691   6.033   0.924
 9025SOL    HW227975   6.794   6.026   0.797
 9026SOL     OW27976   3.703   3.511   3.676
 9026SOL    HW127977   3.743   3.577   3.612
 9026SOL    HW227978   3.623   3.468   3.634
 9027SOL     OW27979   3.146   1.905   3.982
 9027SOL    HW127980   3.176   1.925   4.075
 9027SOL    HW227981   3.145   1.806   3.968
 9028SOL     OW27982   2.278   4.447   6.477
 9028SOL    HW127983   2.370   4.411   6.491
 9028SOL    HW227984   2.282   4.532   6.424
 9029SOL     OW27985   3.840   5.293   4.616
 9029SOL    HW127986   3.880   5.291   4.524
 9029SOL    HW227987   3.760   5.234   4.619
 9030SOL     OW27988   2.083   1.355   2.509
 9030SOL    HW127989   1.993   1.319   2.484
 9030SOL    HW227990   2.144   1.279   2.531
 9031SOL     OW27991   3.668   5.037   5.495
 9031SOL    HW127992   3.749   5.092   5.517
 9031SOL    HW227993   3.691   4.940   5.498
 9032SOL     OW27994   3.851   2.831   0.813
 9032SOL    HW127995   3.887   2.845   0.721
 9032SOL    HW227996   3.925   2.842   0.880
 9033SOL     OW27997   1.140   3.646   4.011
 9033SOL    HW127998   1.126   3.581   3.936
 9033SOL    HW227999   1.090   3.731   3.992
 9034SOL     OW28000   2.650   6.329   5.064
 9034SOL    HW128001   2.646   6.340   4.964
 9034SOL    HW228002   2.563   6.359   5.104
 9035SOL     OW28003   0.376   6.439   4.941
 9035SOL    HW128004   0.290   6.390   4.957
 9035SOL    HW228005   0.369   6.532   4.976
 9036SOL     OW28006   1.613   2.012   4.459
 9036SOL    HW128007   1.520   1.978   4.449
 9036SOL    HW228008   1.622   2.059   4.546
 9037SOL     OW28009   1.661   3.414   6.362
 9037SOL    HW128010   1.625   3.321   6.376
 9037SOL    HW228011   1.608   3.459   6.290
 9038SOL     OW28012   5.115   0.303   5.979
 9038SOL    HW128013   5.108   0.234   5.906
 9038SOL    HW228014   5.083   0.264   6.065
 9039SOL     OW28015   1.810   4.630   5.062
 9039SOL    HW128016   1.888   4.671   5.016
 9039SOL    HW228017   1.749   4.702   5.095
 9040SOL     OW28018   2.690   1.870   3.604
 9040SOL    HW128019   2.731   1.805   3.539
 9040SOL    HW228020   2.687   1.828   3.694
 9041SOL     OW28021   0.907   1.726   2.052
 9041SOL    HW128022   0.888   1.673   1.970
 9041SOL    HW228023   0.913   1.823   2.029
 9042SOL     OW28024   2.778   6.321   3.486
 9042SOL    HW128025   2.872   6.290   3.499
 9042SOL    HW228026   2.773   6.419   3.501
 9043SOL     OW28027   2.300   1.322   5.304
 9043SOL    HW128028   2.289   1.421   5.291
 9043SOL    HW228029   2.377   1.305   5.365
 9044SOL     OW28030   6.456   1.147   1.245
 9044SOL    HW128031   6.397   1.226   1.263
 9044SOL    HW228032   6.526   1.141   1.317
 9045SOL     OW28033   3.167   1.636   1.877
 9045SOL    HW128034   3.205   1.641   1.784
 9045SOL    HW228035   3.106   1.714   1.891
 9046SOL     OW28036   3.383   4.012   4.473
 9046SOL    HW128037   3.345   3.936   4.525
 9046SOL    HW228038   3.412   4.084   4.535
 9047SOL     OW28039   1.419   4.086   5.226
 9047SOL    HW128040   1.442   4.029   5.304
 9047SOL    HW228041   1.324   4.068   5.198
 9048SOL     OW28042   0.029   3.055   6.204
 9048SOL    HW128043   0.063   2.992   6.135
 9048SOL    HW228044   0.083   3.140   6.201
 9049SOL     OW28045   4.660   6.491   0.021
 9049SOL    HW128046   4.680   6.395   0.042
 9049SOL    HW228047   4.636   6.500   6.942
 9050SOL     OW28048   1.286   5.537   6.219
 9050SOL    HW128049   1.231   5.477   6.277
 9050SOL    HW228050   1.381   5.506   6.220
 9051SOL     OW28051   4.471   6.187   0.980
 9051SOL    HW128052   4.402   6.153   1.044
 9051SOL    HW228053   4.551   6.126   0.983
 9052SOL     OW28054   2.256   4.231   4.428
 9052SOL    HW128055   2.273   4.156   4.491
 9052SOL    HW228056   2.157   4.246   4.419
 9053SOL     OW28057   2.180   1.797   3.585
 9053SOL    HW128058   2.124   1.766   3.508
 9053SOL    HW228059   2.273   1.763   3.575
 9054SOL     OW28060   1.751   0.571   1.879
 9054SOL    HW128061   1.712   0.660   1.853
 9054SOL    HW228062   1.681   0.500   1.868
 9055SOL     OW28063   7.016   3.888   3.590
 9055SOL    HW128064   0.055   3.844   3.521
 9055SOL    HW228065   0.055   3.924   3.664
 9056SOL     OW28066   5.290   0.535   2.175
 9056SOL    HW128067   5.342   0.460   2.134
 9056SOL    HW228068   5.196   0.505   2.191
 9057SOL     OW28069   6.410   5.014   6.340
 9057SOL    HW128070   6.501   4.990   6.305
 9057SOL    HW228071   6.355   4.931   6.347
 9058SOL     OW28072   2.340   1.570   3.912
 9058SOL    HW128073   2.256   1.570   3.857
 9058SOL    HW228074   2.384   1.480   3.905
 9059SOL     OW28075   0.033   0.840   3.509
 9059SOL    HW128076   0.069   0.750   3.482
 9059SOL    HW228077   6.990   0.875   3.437
 9060SOL     OW28078   6.686   4.088   2.430
 9060SOL    HW128079   6.598   4.042   2.435
 9060SOL    HW228080   6.709   4.127   2.519
 9061SOL     OW28081   4.183   5.560   2.308
 9061SOL    HW128082   4.248   5.626   2.268
 9061SOL    HW228083   4.164   5.488   2.242
 9062SOL     OW28084   0.888   4.715   2.613
 9062SOL    HW128085   0.941   4.793   2.646
 9062SOL    HW228086   0.923   4.631   2.654
 9063SOL     OW28087   2.979   0.575   2.271
 9063SOL    HW128088   2.884   0.562   2.242
 9063SOL    HW228089   3.033   0.495   2.246
 9064SOL     OW28090   6.348   4.348   4.081
 9064SOL    HW128091   6.267   4.292   4.098
 9064SOL    HW228092   6.412   4.297   4.024
 9065SOL     OW28093   3.149   5.836   6.400
 9065SOL    HW128094   3.152   5.803   6.494
 9065SOL    HW228095   3.118   5.931   6.400
 9066SOL     OW28096   5.997   0.411   6.401
 9066SOL    HW128097   5.947   0.450   6.478
 9066SOL    HW228098   6.023   0.316   6.422
 9067SOL     OW28099   5.853   6.190   5.039
 9067SOL    HW128100   5.831   6.157   5.131
 9067SOL    HW228101   5.865   6.111   4.978
 9068SOL     OW28102   3.079   0.376   5.314
 9068SOL    HW128103   3.028   0.462   5.305
 9068SOL    HW228104   3.162   0.392   5.367
 9069SOL     OW28105   3.857   2.139   2.222
 9069SOL    HW128106   3.795   2.183   2.156
 9069SOL    HW228107   3.857   2.040   2.207
 9070SOL     OW28108   0.911   3.117   6.133
 9070SOL    HW128109   1.009   3.097   6.129
 9070SOL    HW228110   0.898   3.216   6.129
 9071SOL     OW28111   5.114   6.999   0.262
 9071SOL    HW128112   5.125   0.079   0.282
 9071SOL    HW228113   5.025   6.967   0.295
 9072SOL     OW28114   4.865   0.287   1.726
 9072SOL    HW128115   4.915   0.339   1.657
 9072SOL    HW228116   4.777   0.258   1.688
 9073SOL     OW28117   3.484   6.833   1.127
 9073SOL    HW128118   3.535   6.746   1.127
 9073SOL    HW228119   3.395   6.819   1.170
 9074SOL     OW28120   1.867   0.757   1.553
 9074SOL    HW128121   1.886   0.663   1.583
 9074SOL    HW228122   1.952   0.800   1.523
 9075SOL     OW28123   0.397   0.207   1.443
 9075SOL    HW128124   0.389   0.188   1.541
 9075SOL    HW228125   0.466   0.278   1.429
 9076SOL     OW28126   5.166   1.813   4.853
 9076SOL    HW128127   5.097   1.885   4.864
 9076SOL    HW228128   5.138   1.751   4.780
 9077SOL     OW28129   5.155   1.205   6.720
 9077SOL    HW128130   5.222   1.133   6.705
 9077SOL    HW228131   5.202   1.288   6.753
 9078SOL     OW28132   4.715   3.736   0.045
 9078SOL    HW128133   4.682   3.731   0.139
 9078SOL    HW228134   4.639   3.759   7.001
 9079SOL     OW28135   1.840   6.818   4.572
 9079SOL    HW128136   1.828   6.859   4.482
 9079SOL    HW228137   1.814   6.722   4.570
 9080SOL     OW28138   6.097   2.518   0.278
 9080SOL    HW128139   6.190   2.483   0.287
 9080SOL    HW228140   6.050   2.470   0.204
 9081SOL     OW28141   3.269   0.672   2.376
 9081SOL    HW128142   3.302   0.708   2.463
 9081SOL    HW228143   3.176   0.638   2.387
 9082SOL     OW28144   2.128   6.301   5.572
 9082SOL    HW128145   2.082   6.387   5.552
 9082SOL    HW228146   2.221   6.304   5.535
 9083SOL     OW28147   3.624   4.579   5.761
 9083SOL    HW128148   3.635   4.559   5.859
 9083SOL    HW228149   3.632   4.494   5.709
 9084SOL     OW28150   1.564   2.366   6.615
 9084SOL    HW128151   1.584   2.463   6.606
 9084SOL    HW228152   1.580   2.320   6.528
 9085SOL     OW28153   1.608   5.345   1.128
 9085SOL    HW128154   1.611   5.246   1.115
 9085SOL    HW228155   1.623   5.366   1.224
 9086SOL     OW28156   6.281   4.258   1.514
 9086SOL    HW128157   6.369   4.302   1.496
 9086SOL    HW228158   6.275   4.173   1.462
 9087SOL     OW28159   4.937   3.237   2.082
 9087SOL    HW128160   4.882   3.160   2.051
 9087SOL    HW228161   4.878   3.311   2.112
 9088SOL     OW28162   6.838   6.783   0.693
 9088SOL    HW128163   6.761   6.746   0.744
 9088SOL    HW228164   6.865   6.871   0.731
 9089SOL     OW28165   3.934   6.109   5.998
 9089SOL    HW128166   3.901   6.150   5.913
 9089SOL    HW228167   3.879   6.028   6.020
 9090SOL     OW28168   5.191   6.960   3.732
 9090SOL    HW128169   5.116   6.894   3.746
 9090SOL    HW228170   5.227   6.950   3.639
 9091SOL     OW28171   2.622   3.433   0.583
 9091SOL    HW128172   2.652   3.517   0.538
 9091SOL    HW228173   2.691   3.362   0.569
 9092SOL     OW28174   0.228   1.596   6.742
 9092SOL    HW128175   0.227   1.527   6.814
 9092SOL    HW228176   0.322   1.609   6.709
 9093SOL     OW28177   1.484   6.230   6.395
 9093SOL    HW128178   1.523   6.321   6.379
 9093SOL    HW228179   1.519   6.167   6.326
 9094SOL     OW28180   0.245   5.603   2.961
 9094SOL    HW128181   0.243   5.694   2.919
 9094SOL    HW228182   0.335   5.586   2.999
 9095SOL     OW28183   3.911   3.803   6.190
 9095SOL    HW128184   3.973   3.725   6.176
 9095SOL    HW228185   3.905   3.856   6.106
 9096SOL     OW28186   5.644   4.094   2.297
 9096SOL    HW128187   5.658   4.019   2.361
 9096SOL    HW228188   5.680   4.069   2.207
 9097SOL     OW28189   0.479   2.815   6.714
 9097SOL    HW128190   0.552   2.811   6.782
 9097SOL    HW228191   0.509   2.868   6.635
 9098SOL     OW28192   3.783   2.936   6.894
 9098SOL    HW128193   3.842   2.859   6.916
 9098SOL    HW228194   3.710   2.906   6.833
 9099SOL     OW28195   3.921   4.093   0.736
 9099SOL    HW128196   3.924   4.167   0.668
 9099SOL    HW228197   3.920   4.005   0.689
 9100SOL     OW28198   1.224   3.446   3.085
 9100SOL    HW128199   1.271   3.515   3.140
 9100SOL    HW228200   1.165   3.492   3.018
 9101SOL     OW28201   2.247   2.956   3.255
 9101SOL    HW128202   2.240   3.020   3.178
 9101SOL    HW228203   2.342   2.929   3.268
 9102SOL     OW28204   2.892   0.072   1.901
 9102SOL    HW128205   2.812   0.085   1.842
 9102SOL    HW228206   2.918   6.993   1.901
 9103SOL     OW28207   6.496   4.222   0.209
 9103SOL    HW128208   6.571   4.250   0.269
 9103SOL    HW228209   6.486   4.123   0.214
 9104SOL     OW28210   4.865   6.573   3.081
 9104SOL    HW128211   4.774   6.573   3.041
 9104SOL    HW228212   4.933   6.585   3.008
 9105SOL     OW28213   1.843   1.123   0.785
 9105SOL    HW128214   1.924   1.174   0.815
 9105SOL    HW228215   1.764   1.151   0.839
 9106SOL     OW28216   6.556   4.239   0.657
 9106SOL    HW128217   6.505   4.254   0.572
 9106SOL    HW228218   6.573   4.328   0.701
 9107SOL     OW28219   3.152   0.409   6.046
 9107SOL    HW128220   3.067   0.458   6.028
 9107SOL    HW228221   3.219   0.472   6.085
 9108SOL     OW28222   5.145   3.723   6.087
 9108SOL    HW128223   5.135   3.739   6.185
 9108SOL    HW228224   5.058   3.692   6.049
 9109SOL     OW28225   0.536   2.882   2.915
 9109SOL    HW128226   0.445   2.845   2.895
 9109SOL    HW228227   0.604   2.837   2.856
 9110SOL     OW28228   1.981   4.318   4.296
 9110SOL    HW128229   1.912   4.272   4.351
 9110SOL    HW228230   1.938   4.364   4.219
 9111SOL     OW28231   4.240   2.730   0.161
 9111SOL    HW128232   4.301   2.808   0.149
 9111SOL    HW228233   4.161   2.757   0.217
 9112SOL     OW28234   0.851   5.133   5.046
 9112SOL    HW128235   0.921   5.067   5.020
 9112SOL    HW228236   0.767   5.085   5.071
 9113SOL     OW28237   4.728   0.003   1.414
 9113SOL    HW128238   4.758   6.944   1.470
 9113SOL    HW228239   4.639   0.035   1.447
 9114SOL     OW28240   1.524   4.671   1.811
 9114SOL    HW128241   1.588   4.659   1.735
 9114SOL    HW228242   1.507   4.583   1.854
 9115SOL     OW28243   1.013   4.933   5.023
 9115SOL    HW128244   1.014   4.881   4.938
 9115SOL    HW228245   1.075   4.891   5.089
 9116SOL     OW28246   6.271   0.884   6.953
 9116SOL    HW128247   6.265   0.981   6.928
 9116SOL    HW228248   6.363   0.850   6.932
 9117SOL     OW28249   6.091   2.770   0.462
 9117SOL    HW128250   6.006   2.737   0.504
 9117SOL    HW228251   6.116   2.709   0.387
 9118SOL     OW28252   6.641   4.849   0.426
 9118SOL    HW128253   6.595   4.765   0.454
 9118SOL    HW228254   6.615   4.923   0.488
 9119SOL     OW28255   4.579   0.355   1.631
 9119SOL    HW128256   4.651   0.411   1.590
 9119SOL    HW228257   4.528   0.410   1.697
 9120SOL     OW28258   6.027   2.115   6.379
 9120SOL    HW128259   5.936   2.154   6.362
 9120SOL    HW228260   6.092   2.189   6.394
 9121SOL     OW28261   2.412   2.329   5.456
 9121SOL    HW128262   2.468   2.381   5.391
 9121SOL    HW228263   2.450   2.237   5.467
 9122SOL     OW28264   2.076   4.222   2.487
 9122SOL    HW128265   1.983   4.189   2.471
 9122SOL    HW228266   2.085   4.315   2.451
 9123SOL     OW28267   3.144   0.156   4.339
 9123SOL    HW128268   3.109   0.064   4.324
 9123SOL    HW228269   3.100   0.196   4.419
 9124SOL     OW28270   5.599   6.602   7.000
 9124SOL    HW128271   5.514   6.654   7.006
 9124SOL    HW228272   5.668   6.641   0.043
 9125SOL     OW28273   5.210   4.341   1.409
 9125SOL    HW128274   5.127   4.294   1.439
 9125SOL    HW228275   5.188   4.433   1.378
 9126SOL     OW28276   5.981   2.982   1.824
 9126SOL    HW128277   5.924   3.053   1.865
 9126SOL    HW228278   5.933   2.894   1.827
 9127SOL     OW28279   6.111   1.316   6.003
 9127SOL    HW128280   6.202   1.346   6.029
 9127SOL    HW228281   6.048   1.329   6.080
 9128SOL     OW28282   5.511   1.840   5.832
 9128SOL    HW128283   5.599   1.793   5.818
 9128SOL    HW228284   5.462   1.797   5.907
 9129SOL     OW28285   0.271   2.472   1.026
 9129SOL    HW128286   0.347   2.485   0.962
 9129SOL    HW228287   0.297   2.507   1.116
 9130SOL     OW28288   0.458   3.090   0.664
 9130SOL    HW128289   0.475   2.993   0.651
 9130SOL    HW228290   0.474   3.114   0.760
 9131SOL     OW28291   6.267   3.052   5.339
 9131SOL    HW128292   6.228   3.144   5.333
 9131SOL    HW228293   6.329   3.047   5.417
 9132SOL     OW28294   1.181   5.459   4.161
 9132SOL    HW128295   1.171   5.474   4.259
 9132SOL    HW228296   1.244   5.528   4.123
 9133SOL     OW28297   3.982   5.680   2.435
 9133SOL    HW128298   4.074   5.658   2.402
 9133SOL    HW228299   3.955   5.770   2.401
 9134SOL     OW28300   5.255   5.278   0.691
 9134SOL    HW128301   5.225   5.278   0.787
 9134SOL    HW228302   5.243   5.187   0.652
 9135SOL     OW28303   6.553   6.771   1.437
 9135SOL    HW128304   6.603   6.714   1.372
 9135SOL    HW228305   6.619   6.822   1.494
 9136SOL     OW28306   5.544   5.201   6.311
 9136SOL    HW128307   5.545   5.105   6.341
 9136SOL    HW228308   5.616   5.251   6.358
 9137SOL     OW28309   4.704   1.422   1.350
 9137SOL    HW128310   4.711   1.477   1.433
 9137SOL    HW228311   4.621   1.447   1.300
 9138SOL     OW28312   0.355   5.528   5.858
 9138SOL    HW128313   0.392   5.459   5.796
 9138SOL    HW228314   0.373   5.502   5.953
 9139SOL     OW28315   2.800   1.469   4.237
 9139SOL    HW128316   2.850   1.555   4.226
 9139SOL    HW228317   2.842   1.415   4.310
 9140SOL     OW28318   6.422   3.753   2.995
 9140SOL    HW128319   6.369   3.787   3.072
 9140SOL    HW228320   6.476   3.674   3.024
 9141SOL     OW28321   5.731   0.258   0.272
 9141SOL    HW128322   5.805   0.285   0.333
 9141SOL    HW228323   5.711   0.333   0.208
 9142SOL     OW28324   0.573   2.531   1.521
 9142SOL    HW128325   0.638   2.455   1.526
 9142SOL    HW228326   0.571   2.568   1.429
 9143SOL     OW28327   6.590   3.455   0.222
 9143SOL    HW128328   6.621   3.398   0.297
 9143SOL    HW228329   6.667   3.479   0.164
 9144SOL     OW28330   2.196   5.310   5.309
 9144SOL    HW128331   2.289   5.344   5.296
 9144SOL    HW228332   2.147   5.313   5.222
 9145SOL     OW28333   0.162   5.607   0.384
 9145SOL    HW128334   0.235   5.668   0.353
 9145SOL    HW228335   0.075   5.655   0.383
 9146SOL     OW28336   5.291   2.621   3.114
 9146SOL    HW128337   5.296   2.601   3.017
 9146SOL    HW228338   5.271   2.537   3.165
 9147SOL     OW28339   5.789   0.490   4.599
 9147SOL    HW128340   5.835   0.495   4.510
 9147SOL    HW228341   5.843   0.538   4.667
 9148SOL     OW28342   5.171   6.104   1.048
 9148SOL    HW128343   5.182   6.108   0.949
 9148SOL    HW228344   5.102   6.035   1.071
 9149SOL     OW28345   6.161   3.464   3.505
 9149SOL    HW128346   6.250   3.501   3.480
 9149SOL    HW228347   6.172   3.371   3.540
 9150SOL     OW28348   3.187   5.562   1.736
 9150SOL    HW128349   3.181   5.462   1.749
 9150SOL    HW228350   3.191   5.606   1.826
 9151SOL     OW28351   2.159   4.546   3.121
 9151SOL    HW128352   2.132   4.482   3.193
 9151SOL    HW228353   2.219   4.616   3.160
 9152SOL     OW28354   1.844   4.435   4.626
 9152SOL    HW128355   1.902   4.355   4.608
 9152SOL    HW228356   1.901   4.510   4.658
 9153SOL     OW28357   1.179   3.546   6.375
 9153SOL    HW128358   1.196   3.481   6.449
 9153SOL    HW228359   1.082   3.549   6.354
 9154SOL     OW28360   4.169   4.767   0.028
 9154SOL    HW128361   4.136   4.700   6.979
 9154SOL    HW228362   4.238   4.725   0.087
 9155SOL     OW28363   1.450   3.880   2.053
 9155SOL    HW128364   1.369   3.934   2.077
 9155SOL    HW228365   1.457   3.874   1.953
 9156SOL     OW28366   1.164   2.083   0.167
 9156SOL    HW128367   1.146   2.131   0.253
 9156SOL    HW228368   1.149   2.145   0.090
 9157SOL     OW28369   0.103   4.117   6.096
 9157SOL    HW128370   0.175   4.167   6.146
 9157SOL    HW228371   0.122   4.121   5.998
 9158SOL     OW28372   5.362   3.129   4.675
 9158SOL    HW128373   5.352   3.154   4.579
 9158SOL    HW228374   5.459   3.123   4.698
 9159SOL     OW28375   1.918   0.409   2.552
 9159SOL    HW128376   1.834   0.463   2.553
 9159SOL    HW228377   1.976   0.439   2.476
 9160SOL     OW28378   5.580   6.917   5.540
 9160SOL    HW128379   5.609   6.933   5.446
 9160SOL    HW228380   5.617   6.989   5.599
 9161SOL     OW28381   4.991   4.213   4.577
 9161SOL    HW128382   5.027   4.292   4.625
 9161SOL    HW228383   4.908   4.180   4.623
 9162SOL     OW28384   4.632   1.130   4.096
 9162SOL    HW128385   4.684   1.117   4.180
 9162SOL    HW228386   4.687   1.101   4.018
 9163SOL     OW28387   1.484   2.505   4.725
 9163SOL    HW128388   1.414   2.552   4.779
 9163SOL    HW228389   1.573   2.546   4.743
 9164SOL     OW28390   2.162   0.079   6.804
 9164SOL    HW128391   2.137   0.173   6.823
 9164SOL    HW228392   2.261   0.071   6.794
 9165SOL     OW28393   6.062   1.505   5.808
 9165SOL    HW128394   6.065   1.424   5.866
 9165SOL    HW228395   6.039   1.585   5.864
 9166SOL     OW28396   3.753   6.012   1.774
 9166SOL    HW128397   3.767   5.942   1.705
 9166SOL    HW228398   3.836   6.068   1.782
 9167SOL     OW28399   2.005   2.776   6.148
 9167SOL    HW128400   1.922   2.766   6.093
 9167SOL    HW228401   2.027   2.689   6.191
 9168SOL     OW28402   0.099   6.894   6.386
 9168SOL    HW128403   0.173   6.958   6.404
 9168SOL    HW228404   0.022   6.942   6.344
 9169SOL     OW28405   5.809   6.895   5.347
 9169SOL    HW128406   5.805   6.797   5.368
 9169SOL    HW228407   5.884   6.937   5.399
 9170SOL     OW28408   1.617   6.246   6.933
 9170SOL    HW128409   1.517   6.250   6.929
 9170SOL    HW228410   1.650   6.166   6.884
 9171SOL     OW28411   4.330   4.929   0.797
 9171SOL    HW128412   4.426   4.938   0.769
 9171SOL    HW228413   4.297   5.018   0.828
 9172SOL     OW28414   4.400   1.469   2.450
 9172SOL    HW128415   4.498   1.463   2.471
 9172SOL    HW228416   4.362   1.551   2.494
 9173SOL     OW28417   6.340   3.542   5.977
 9173SOL    HW128418   6.425   3.512   5.934
 9173SOL    HW228419   6.349   3.637   6.007
 9174SOL     OW28420   6.144   4.071   1.113
 9174SOL    HW128421   6.048   4.041   1.118
 9174SOL    HW228422   6.204   3.995   1.138
 9175SOL     OW28423   0.614   0.007   5.572
 9175SOL    HW128424   0.616   0.010   5.672
 9175SOL    HW228425   0.548   6.955   5.542
 9176SOL     OW28426   2.348   1.097   3.980
 9176SOL    HW128427   2.257   1.094   4.022
 9176SOL    HW228428   2.402   1.020   4.014
 9177SOL     OW28429   1.080   4.399   4.532
 9177SOL    HW128430   1.154   4.356   4.583
 9177SOL    HW228431   1.016   4.442   4.596
 9178SOL     OW28432   1.701   5.619   0.470
 9178SOL    HW128433   1.757   5.654   0.395
 9178SOL    HW228434   1.752   5.548   0.519
 9179SOL     OW28435   2.374   4.377   3.596
 9179SOL    HW128436   2.457   4.332   3.626
 9179SOL    HW228437   2.348   4.447   3.663
 9180SOL     OW28438   6.589   2.600   3.379
 9180SOL    HW128439   6.689   2.603   3.377
 9180SOL    HW228440   6.553   2.640   3.295
 9181SOL     OW28441   5.514   2.599   4.925
 9181SOL    HW128442   5.598   2.553   4.897
 9181SOL    HW228443   5.528   2.698   4.919
 9182SOL     OW28444   2.574   6.609   2.335
 9182SOL    HW128445   2.508   6.683   2.338
 9182SOL    HW228446   2.576   6.562   2.423
 9183SOL     OW28447   4.599   5.064   0.472
 9183SOL    HW128448   4.523   5.050   0.410
 9183SOL    HW228449   4.567   5.062   0.566
 9184SOL     OW28450   4.977   2.379   0.385
 9184SOL    HW128451   5.055   2.436   0.410
 9184SOL    HW228452   4.896   2.436   0.372
 9185SOL     OW28453   4.999   6.641   5.155
 9185SOL    HW128454   4.902   6.663   5.161
 9185SOL    HW228455   5.031   6.657   5.061
 9186SOL     OW28456   6.200   5.758   5.032
 9186SOL    HW128457   6.195   5.823   4.956
 9186SOL    HW228458   6.226   5.807   5.116
 9187SOL     OW28459   2.857   2.289   0.281
 9187SOL    HW128460   2.940   2.235   0.284
 9187SOL    HW228461   2.783   2.240   0.329
 9188SOL     OW28462   1.624   6.971   1.283
 9188SOL    HW128463   1.693   6.995   1.351
 9188SOL    HW228464   1.651   6.888   1.235
 9189SOL     OW28465   2.825   6.004   2.118
 9189SOL    HW128466   2.750   6.004   2.052
 9189SOL    HW228467   2.890   5.932   2.093
 9190SOL     OW28468   1.835   4.687   5.491
 9190SOL    HW128469   1.815   4.626   5.415
 9190SOL    HW228470   1.932   4.713   5.488
 9191SOL     OW28471   6.101   1.363   6.586
 9191SOL    HW128472   6.128   1.436   6.524
 9191SOL    HW228473   6.071   1.283   6.533
 9192SOL     OW28474   0.721   2.363   5.991
 9192SOL    HW128475   0.809   2.411   5.984
 9192SOL    HW228476   0.692   2.360   6.086
 9193SOL     OW28477   3.782   4.066   5.742
 9193SOL    HW128478   3.685   4.055   5.767
 9193SOL    HW228479   3.793   4.050   5.644
 9194SOL     OW28480   3.358   1.037   3.181
 9194SOL    HW128481   3.286   1.104   3.165
 9194SOL    HW228482   3.443   1.068   3.139
 9195SOL     OW28483   0.353   2.514   2.805
 9195SOL    HW128484   0.275   2.453   2.822
 9195SOL    HW228485   0.352   2.542   2.709
 9196SOL     OW28486   5.883   0.487   3.422
 9196SOL    HW128487   5.868   0.513   3.518
 9196SOL    HW228488   5.835   0.552   3.363
 9197SOL     OW28489   1.763   5.067   1.452
 9197SOL    HW128490   1.679   5.048   1.401
 9197SOL    HW228491   1.842   5.040   1.398
 9198SOL     OW28492   6.324   4.531   6.559
 9198SOL    HW128493   6.353   4.465   6.490
 9198SOL    HW228494   6.339   4.493   6.650
 9199SOL     OW28495   0.615   3.441   4.980
 9199SOL    HW128496   0.555   3.361   4.970
 9199SOL    HW228497   0.610   3.497   4.898
 9200SOL     OW28498   3.214   6.186   6.842
 9200SOL    HW128499   3.173   6.236   6.919
 9200SOL    HW228500   3.164   6.207   6.758
 9201SOL     OW28501   0.511   3.374   0.249
 9201SOL    HW128502   0.420   3.396   0.215
 9201SOL    HW228503   0.578   3.388   0.175
 9202SOL     OW28504   0.782   6.586   3.030
 9202SOL    HW128505   0.806   6.491   3.010
 9202SOL    HW228506   0.705   6.588   3.095
 9203SOL     OW28507   0.006   3.208   5.744
 9203SOL    HW128508   0.004   3.170   5.651
 9203SOL    HW228509   0.093   3.184   5.787
 9204SOL     OW28510   4.581   3.056   5.370
 9204SOL    HW128511   4.608   3.131   5.310
 9204SOL    HW228512   4.659   3.027   5.425
 9205SOL     OW28513   4.983   6.122   2.918
 9205SOL    HW128514   5.043   6.177   2.976
 9205SOL    HW228515   4.936   6.181   2.853
 9206SOL     OW28516   3.504   5.025   3.581
 9206SOL    HW128517   3.480   5.097   3.516
 9206SOL    HW228518   3.569   4.962   3.538
 9207SOL     OW28519   5.435   4.615   6.163
 9207SOL    HW128520   5.390   4.621   6.074
 9207SOL    HW228521   5.496   4.535   6.163
 9208SOL     OW28522   5.664   4.542   3.988
 9208SOL    HW128523   5.566   4.523   3.995
 9208SOL    HW228524   5.708   4.468   3.937
 9209SOL     OW28525   4.420   0.583   0.444
 9209SOL    HW128526   4.409   0.579   0.345
 9209SOL    HW228527   4.364   0.512   0.487
 9210SOL     OW28528   0.828   1.540   1.847
 9210SOL    HW128529   0.833   1.484   1.929
 9210SOL    HW228530   0.846   1.483   1.767
 9211SOL     OW28531   6.759   2.916   5.915
 9211SOL    HW128532   6.676   2.969   5.895
 9211SOL    HW228533   6.737   2.818   5.915
 9212SOL     OW28534   4.348   5.496   4.092
 9212SOL    HW128535   4.445   5.473   4.093
 9212SOL    HW228536   4.295   5.419   4.130
 9213SOL     OW28537   5.572   3.782   5.288
 9213SOL    HW128538   5.607   3.802   5.196
 9213SOL    HW228539   5.481   3.739   5.280
 9214SOL     OW28540   0.022   3.987   5.586
 9214SOL    HW128541   6.973   4.013   5.516
 9214SOL    HW228542   0.115   4.005   5.553
 9215SOL     OW28543   1.690   2.975   1.960
 9215SOL    HW128544   1.652   2.987   1.868
 9215SOL    HW228545   1.784   3.009   1.962
 9216SOL     OW28546   3.423   0.149   2.398
 9216SOL    HW128547   3.368   0.108   2.325
 9216SOL    HW228548   3.499   0.088   2.420
 9217SOL     OW28549   6.965   3.152   6.883
 9217SOL    HW128550   6.919   3.098   6.954
 9217SOL    HW228551   6.914   3.145   6.797
 9218SOL     OW28552   2.142   0.956   6.960
 9218SOL    HW128553   2.043   0.969   6.965
 9218SOL    HW228554   2.186   1.043   6.938
 9219SOL     OW28555   6.048   3.403   0.164
 9219SOL    HW128556   5.995   3.437   0.242
 9219SOL    HW228557   5.988   3.393   0.085
 9220SOL     OW28558   1.078   5.947   1.669
 9220SOL    HW128559   1.089   5.889   1.750
 9220SOL    HW228560   1.003   5.913   1.613
 9221SOL     OW28561   2.388   0.699   2.987
 9221SOL    HW128562   2.429   0.677   2.898
 9221SOL    HW228563   2.457   0.739   3.046
 9222SOL     OW28564   2.594   6.024   6.104
 9222SOL    HW128565   2.569   5.927   6.100
 9222SOL    HW228566   2.690   6.033   6.130
 9223SOL     OW28567   1.063   2.146   4.285
 9223SOL    HW128568   0.986   2.084   4.267
 9223SOL    HW228569   1.046   2.234   4.240
 9224SOL     OW28570   1.366   5.406   3.840
 9224SOL    HW128571   1.296   5.335   3.854
 9224SOL    HW228572   1.321   5.495   3.830
 9225SOL     OW28573   3.083   6.298   6.611
 9225SOL    HW128574   3.068   6.380   6.665
 9225SOL    HW228575   2.995   6.258   6.585
 9226SOL     OW28576   6.171   6.341   1.453
 9226SOL    HW128577   6.157   6.428   1.407
 9226SOL    HW228578   6.114   6.271   1.410
 9227SOL     OW28579   1.907   5.906   0.500
 9227SOL    HW128580   1.902   5.863   0.590
 9227SOL    HW228581   1.910   5.836   0.429
 9228SOL     OW28582   2.276   2.030   6.063
 9228SOL    HW128583   2.227   2.021   5.976
 9228SOL    HW228584   2.304   2.125   6.075
 9229SOL     OW28585   1.008   5.953   5.148
 9229SOL    HW128586   0.993   5.862   5.186
 9229SOL    HW228587   0.926   6.009   5.164
 9230SOL     OW28588   5.216   2.372   3.260
 9230SOL    HW128589   5.288   2.317   3.302
 9230SOL    HW228590   5.176   2.322   3.183
 9231SOL     OW28591   0.709   2.977   4.343
 9231SOL    HW128592   0.631   2.976   4.406
 9231SOL    HW228593   0.677   2.950   4.252
 9232SOL     OW28594   4.286   5.373   0.618
 9232SOL    HW128595   4.302   5.388   0.520
 9232SOL    HW228596   4.240   5.454   0.657
 9233SOL     OW28597   5.712   5.559   1.948
 9233SOL    HW128598   5.757   5.640   1.986
 9233SOL    HW228599   5.781   5.490   1.927
 9234SOL     OW28600   3.483   5.784   6.574
 9234SOL    HW128601   3.398   5.810   6.620
 9234SOL    HW228602   3.516   5.697   6.611
 9235SOL     OW28603   1.463   3.231   3.318
 9235SOL    HW128604   1.503   3.279   3.396
 9235SOL    HW228605   1.382   3.181   3.347
 9236SOL     OW28606   1.812   4.471   6.024
 9236SOL    HW128607   1.845   4.515   5.940
 9236SOL    HW228608   1.829   4.372   6.019
 9237SOL     OW28609   0.772   6.343   4.140
 9237SOL    HW128610   0.678   6.369   4.117
 9237SOL    HW228611   0.772   6.250   4.178
 9238SOL     OW28612   2.633   1.660   0.063
 9238SOL    HW128613   2.585   1.745   0.085
 9238SOL    HW228614   2.572   1.582   0.080
 9239SOL     OW28615   6.730   3.779   6.972
 9239SOL    HW128616   6.675   3.773   6.889
 9239SOL    HW228617   6.723   3.872   7.010
 9240SOL     OW28618   4.810   2.013   2.035
 9240SOL    HW128619   4.870   2.028   2.113
 9240SOL    HW228620   4.718   2.047   2.057
 9241SOL     OW28621   1.152   5.433   5.700
 9241SOL    HW128622   1.115   5.358   5.646
 9241SOL    HW228623   1.153   5.517   5.645
 9242SOL     OW28624   0.902   4.801   6.960
 9242SOL    HW128625   0.922   4.893   6.996
 9242SOL    HW228626   0.827   4.806   6.894
 9243SOL     OW28627   0.115   6.252   1.402
 9243SOL    HW128628   0.091   6.155   1.404
 9243SOL    HW228629   0.124   6.282   1.307
 9244SOL     OW28630   4.113   5.629   6.832
 9244SOL    HW128631   4.093   5.722   6.800
 9244SOL    HW228632   4.206   5.604   6.805
 9245SOL     OW28633   1.717   5.142   3.065
 9245SOL    HW128634   1.817   5.131   3.067
 9245SOL    HW228635   1.675   5.056   3.035
 9246SOL     OW28636   6.750   5.232   2.413
 9246SOL    HW128637   6.680   5.164   2.434
 9246SOL    HW228638   6.726   5.278   2.327
 9247SOL     OW28639   1.320   6.984   3.116
 9247SOL    HW128640   1.312   0.051   3.169
 9247SOL    HW228641   1.350   6.909   3.176
 9248SOL     OW28642   2.442   2.230   4.577
 9248SOL    HW128643   2.351   2.247   4.539
 9248SOL    HW228644   2.511   2.260   4.512
 9249SOL     OW28645   3.620   3.839   0.573
 9249SOL    HW128646   3.581   3.747   0.580
 9249SOL    HW228647   3.547   3.907   0.575
 9250SOL     OW28648   5.623   3.095   3.830
 9250SOL    HW128649   5.573   3.182   3.827
 9250SOL    HW228650   5.575   3.031   3.890
 9251SOL     OW28651   3.895   1.802   2.807
 9251SOL    HW128652   3.860   1.874   2.868
 9251SOL    HW228653   3.929   1.843   2.723
 9252SOL     OW28654   5.018   6.935   4.084
 9252SOL    HW128655   5.116   6.949   4.079
 9252SOL    HW228656   4.994   6.850   4.036
 9253SOL     OW28657   5.782   6.418   5.595
 9253SOL    HW128658   5.743   6.509   5.607
 9253SOL    HW228659   5.777   6.367   5.681
 9254SOL     OW28660   6.325   5.033   3.171
 9254SOL    HW128661   6.237   4.996   3.144
 9254SOL    HW228662   6.393   5.014   3.099
 9255SOL     OW28663   4.432   4.161   0.055
 9255SOL    HW128664   4.455   4.258   0.061
 9255SOL    HW228665   4.406   4.139   6.978
 9256SOL     OW28666   3.076   0.275   2.805
 9256SOL    HW128667   3.016   0.245   2.731
 9256SOL    HW228668   3.155   0.323   2.766
 9257SOL     OW28669   0.243   4.008   3.108
 9257SOL    HW128670   0.173   4.078   3.110
 9257SOL    HW228671   0.330   4.046   3.139
 9258SOL     OW28672   3.002   3.144   2.289
 9258SOL    HW128673   2.996   3.235   2.248
 9258SOL    HW228674   3.021   3.153   2.387
 9259SOL     OW28675   1.238   2.217   0.406
 9259SOL    HW128676   1.286   2.174   0.483
 9259SOL    HW228677   1.233   2.316   0.422
 9260SOL     OW28678   5.610   1.293   4.641
 9260SOL    HW128679   5.529   1.309   4.697
 9260SOL    HW228680   5.584   1.293   4.544
 9261SOL     OW28681   3.172   1.121   0.245
 9261SOL    HW128682   3.141   1.208   0.283
 9261SOL    HW228683   3.093   1.065   0.221
 9262SOL     OW28684   7.008   4.519   5.522
 9262SOL    HW128685   6.966   4.430   5.541
 9262SOL    HW228686   0.048   4.513   5.441
 9263SOL     OW28687   5.003   6.869   1.054
 9263SOL    HW128688   5.087   6.906   1.094
 9263SOL    HW228689   4.962   6.938   0.994
 9264SOL     OW28690   4.515   5.304   0.190
 9264SOL    HW128691   4.601   5.351   0.173
 9264SOL    HW228692   4.466   5.292   0.104
 9265SOL     OW28693   4.079   1.768   0.562
 9265SOL    HW128694   4.073   1.740   0.467
 9265SOL    HW228695   4.031   1.856   0.574
 9266SOL     OW28696   2.408   6.955   1.378
 9266SOL    HW128697   2.367   6.867   1.352
 9266SOL    HW228698   2.351   0.012   1.344
 9267SOL     OW28699   6.733   3.118   4.542
 9267SOL    HW128700   6.708   3.028   4.578
 9267SOL    HW228701   6.721   3.120   4.443
 9268SOL     OW28702   0.965   4.966   2.053
 9268SOL    HW128703   0.944   4.941   2.147
 9268SOL    HW228704   0.980   4.884   1.999
 9269SOL     OW28705   3.156   1.483   6.192
 9269SOL    HW128706   3.226   1.411   6.196
 9269SOL    HW228707   3.067   1.444   6.216
 9270SOL     OW28708   4.431   6.524   6.102
 9270SOL    HW128709   4.424   6.463   6.023
 9270SOL    HW228710   4.341   6.534   6.144
 9271SOL     OW28711   6.410   6.879   0.237
 9271SOL    HW128712   6.332   6.831   0.276
 9271SOL    HW228713   6.381   6.968   0.203
 9272SOL     OW28714   1.278   5.951   4.614
 9272SOL    HW128715   1.352   5.928   4.677
 9272SOL    HW228716   1.263   6.050   4.615
 9273SOL     OW28717   5.958   6.715   3.277
 9273SOL    HW128718   5.912   6.673   3.355
 9273SOL    HW228719   5.935   6.665   3.194
 9274SOL     OW28720   6.723   2.090   6.518
 9274SOL    HW128721   6.822   2.084   6.515
 9274SOL    HW228722   6.690   2.137   6.435
 9275SOL     OW28723   6.991   0.704   0.148
 9275SOL    HW128724   0.014   0.742   0.064
 9275SOL    HW228725   6.999   0.604   0.145
 9276SOL     OW28726   1.871   3.733   1.797
 9276SOL    HW128727   1.958   3.694   1.826
 9276SOL    HW228728   1.796   3.677   1.831
 9277SOL     OW28729   4.523   3.803   6.843
 9277SOL    HW128730   4.521   3.707   6.813
 9277SOL    HW228731   4.558   3.860   6.768
 9278SOL     OW28732   1.809   0.443   6.041
 9278SOL    HW128733   1.750   0.513   6.001
 9278SOL    HW228734   1.876   0.412   5.973
 9279SOL     OW28735   4.558   0.780   1.981
 9279SOL    HW128736   4.554   0.807   1.885
 9279SOL    HW228737   4.576   0.860   2.037
 9280SOL     OW28738   2.020   1.762   3.359
 9280SOL    HW128739   2.087   1.789   3.290
 9280SOL    HW228740   1.928   1.778   3.323
 9281SOL     OW28741   2.624   4.089   0.146
 9281SOL    HW128742   2.585   4.025   0.213
 9281SOL    HW228743   2.554   4.155   0.118
 9282SOL     OW28744   4.786   1.011   3.855
 9282SOL    HW128745   4.852   1.000   3.930
 9282SOL    HW228746   4.833   1.000   3.768
 9283SOL     OW28747   5.170   0.790   4.098
 9283SOL    HW128748   5.198   0.721   4.031
 9283SOL    HW228749   5.155   0.746   4.186
 9284SOL     OW28750   3.342   3.378   5.894
 9284SOL    HW128751   3.316   3.325   5.814
 9284SOL    HW228752   3.334   3.475   5.874
 9285SOL     OW28753   4.691   2.622   0.712
 9285SOL    HW128754   4.715   2.637   0.616
 9285SOL    HW228755   4.643   2.535   0.722
 9286SOL     OW28756   5.268   5.823   0.550
 9286SOL    HW128757   5.189   5.838   0.490
 9286SOL    HW228758   5.288   5.907   0.601
 9287SOL     OW28759   3.375   5.113   6.958
 9287SOL    HW128760   3.425   5.070   6.883
 9287SOL    HW228761   3.434   5.120   0.021
 9288SOL     OW28762   4.795   1.400   3.467
 9288SOL    HW128763   4.784   1.392   3.566
 9288SOL    HW228764   4.708   1.428   3.427
 9289SOL     OW28765   3.899   1.212   2.326
 9289SOL    HW128766   3.851   1.126   2.309
 9289SOL    HW228767   3.840   1.289   2.301
 9290SOL     OW28768   5.166   1.406   2.980
 9290SOL    HW128769   5.140   1.495   3.016
 9290SOL    HW228770   5.153   1.404   2.881
 9291SOL     OW28771   1.377   6.464   4.164
 9291SOL    HW128772   1.349   6.528   4.092
 9291SOL    HW228773   1.476   6.457   4.166
 9292SOL     OW28774   1.957   3.305   6.617
 9292SOL    HW128775   2.043   3.296   6.668
 9292SOL    HW228776   1.908   3.219   6.618
 9293SOL     OW28777   5.041   3.529   6.896
 9293SOL    HW128778   5.047   3.430   6.884
 9293SOL    HW228779   5.131   3.570   6.876
 9294SOL     OW28780   4.691   0.703   5.393
 9294SOL    HW128781   4.649   0.730   5.306
 9294SOL    HW228782   4.708   0.604   5.393
 9295SOL     OW28783   5.603   2.101   4.581
 9295SOL    HW128784   5.576   2.119   4.486
 9295SOL    HW228785   5.522   2.092   4.638
 9296SOL     OW28786   1.124   6.205   6.983
 9296SOL    HW128787   1.161   6.236   6.895
 9296SOL    HW228788   1.142   6.275   0.035
 9297SOL     OW28789   6.605   0.613   0.977
 9297SOL    HW128790   6.663   0.548   1.027
 9297SOL    HW228791   6.537   0.652   1.040
 9298SOL     OW28792   0.694   7.011   5.308
 9298SOL    HW128793   0.685   6.998   5.407
 9298SOL    HW228794   0.695   0.091   5.288
 9299SOL     OW28795   0.409   2.567   5.218
 9299SOL    HW128796   0.394   2.626   5.139
 9299SOL    HW228797   0.382   2.473   5.194
 9300SOL     OW28798   0.311   4.682   5.610
 9300SOL    HW128799   0.273   4.749   5.546
 9300SOL    HW228800   0.251   4.673   5.689
 9301SOL     OW28801   5.366   5.096   3.889
 9301SOL    HW128802   5.288   5.036   3.870
 9301SOL    HW228803   5.411   5.065   3.972
 9302SOL     OW28804   2.254   2.944   4.109
 9302SOL    HW128805   2.189   2.961   4.183
 9302SOL    HW228806   2.334   2.895   4.145
 9303SOL     OW28807   2.710   4.291   1.077
 9303SOL    HW128808   2.657   4.243   1.147
 9303SOL    HW228809   2.657   4.292   0.992
 9304SOL     OW28810   4.131   5.075   1.632
 9304SOL    HW128811   4.221   5.032   1.630
 9304SOL    HW228812   4.091   5.064   1.723
 9305SOL     OW28813   3.305   1.187   1.024
 9305SOL    HW128814   3.317   1.161   0.928
 9305SOL    HW228815   3.213   1.224   1.036
 9306SOL     OW28816   0.255   5.388   4.975
 9306SOL    HW128817   0.156   5.399   4.972
 9306SOL    HW228818   0.298   5.473   4.945
 9307SOL     OW28819   1.968   3.373   1.864
 9307SOL    HW128820   2.026   3.368   1.782
 9307SOL    HW228821   2.020   3.415   1.938
 9308SOL     OW28822   1.959   3.561   0.300
 9308SOL    HW128823   1.977   3.513   0.214
 9308SOL    HW228824   1.918   3.651   0.279
 9309SOL     OW28825   3.747   4.540   6.037
 9309SOL    HW128826   3.756   4.563   6.134
 9309SOL    HW228827   3.741   4.441   6.026
 9310SOL     OW28828   4.635   5.345   6.525
 9310SOL    HW128829   4.613   5.379   6.616
 9310SOL    HW228830   4.734   5.331   6.518
 9311SOL     OW28831   4.367   4.881   1.998
 9311SOL    HW128832   4.407   4.790   1.994
 9311SOL    HW228833   4.383   4.929   1.912
 9312SOL     OW28834   1.194   3.597   1.166
 9312SOL    HW128835   1.203   3.539   1.085
 9312SOL    HW228836   1.280   3.646   1.182
 9313SOL     OW28837   0.263   0.786   1.425
 9313SOL    HW128838   0.298   0.830   1.508
 9313SOL    HW228839   0.163   0.780   1.430
 9314SOL     OW28840   4.990   5.045   6.490
 9314SOL    HW128841   5.034   4.991   6.562
 9314SOL    HW228842   5.058   5.100   6.443
 9315SOL     OW28843   5.878   0.746   4.990
 9315SOL    HW128844   5.802   0.684   5.011
 9315SOL    HW228845   5.853   0.839   5.018
 9316SOL     OW28846   4.820   6.217   5.927
 9316SOL    HW128847   4.764   6.260   5.856
 9316SOL    HW228848   4.893   6.280   5.954
 9317SOL     OW28849   5.439   5.327   3.775
 9317SOL    HW128850   5.416   5.242   3.822
 9317SOL    HW228851   5.411   5.405   3.832
 9318SOL     OW28852   5.874   0.679   6.011
 9318SOL    HW128853   5.801   0.747   6.010
 9318SOL    HW228854   5.846   0.599   5.958
 9319SOL     OW28855   1.978   2.990   6.925
 9319SOL    HW128856   2.009   2.927   6.854
 9319SOL    HW228857   2.020   3.080   6.912
 9320SOL     OW28858   3.891   0.301   5.129
 9320SOL    HW128859   3.841   0.258   5.204
 9320SOL    HW228860   3.926   0.230   5.067
 9321SOL     OW28861   0.172   0.313   3.812
 9321SOL    HW128862   0.144   0.264   3.894
 9321SOL    HW228863   0.091   0.348   3.765
 9322SOL     OW28864   0.356   3.353   6.903
 9322SOL    HW128865   0.343   3.344   7.002
 9322SOL    HW228866   0.268   3.376   6.861
 9323SOL     OW28867   1.334   0.627   5.832
 9323SOL    HW128868   1.342   0.529   5.815
 9323SOL    HW228869   1.239   0.656   5.817
 9324SOL     OW28870   1.085   4.226   1.342
 9324SOL    HW128871   1.032   4.148   1.310
 9324SOL    HW228872   1.102   4.288   1.266
 9325SOL     OW28873   5.643   0.930   0.155
 9325SOL    HW128874   5.662   0.841   0.195
 9325SOL    HW228875   5.560   0.968   0.197
 9326SOL     OW28876   2.331   5.438   0.619
 9326SOL    HW128877   2.362   5.404   0.530
 9326SOL    HW228878   2.342   5.537   0.623
 9327SOL     OW28879   5.467   0.904   2.507
 9327SOL    HW128880   5.380   0.953   2.507
 9327SOL    HW228881   5.530   0.949   2.571
 9328SOL     OW28882   2.551   0.990   5.344
 9328SOL    HW128883   2.540   1.021   5.439
 9328SOL    HW228884   2.640   0.944   5.334
 9329SOL     OW28885   5.953   3.712   1.081
 9329SOL    HW128886   5.909   3.629   1.047
 9329SOL    HW228887   5.950   3.712   1.181
 9330SOL     OW28888   6.577   0.071   5.986
 9330SOL    HW128889   6.673   0.097   5.994
 9330SOL    HW228890   6.559   0.040   5.893
 9331SOL     OW28891   2.521   0.982   0.273
 9331SOL    HW128892   2.481   0.941   0.355
 9331SOL    HW228893   2.458   1.050   0.235
 9332SOL     OW28894   4.217   4.232   1.248
 9332SOL    HW128895   4.302   4.283   1.251
 9332SOL    HW228896   4.150   4.282   1.192
 9333SOL     OW28897   4.086   3.999   0.072
 9333SOL    HW128898   4.133   4.066   0.128
 9333SOL    HW228899   4.001   3.970   0.118
 9334SOL     OW28900   5.507   6.278   3.244
 9334SOL    HW128901   5.443   6.300   3.169
 9334SOL    HW228902   5.463   6.215   3.307
 9335SOL     OW28903   0.935   1.044   6.733
 9335SOL    HW128904   1.031   1.020   6.748
 9335SOL    HW228905   0.930   1.127   6.677
 9336SOL     OW28906   3.257   5.689   5.756
 9336SOL    HW128907   3.292   5.668   5.848
 9336SOL    HW228908   3.195   5.767   5.762
 9337SOL     OW28909   4.159   1.619   4.752
 9337SOL    HW128910   4.200   1.686   4.690
 9337SOL    HW228911   4.099   1.666   4.817
 9338SOL     OW28912   5.347   0.251   2.150
 9338SOL    HW128913   5.287   0.251   2.070
 9338SOL    HW228914   5.293   0.235   2.232
 9339SOL     OW28915   5.885   6.621   1.174
 9339SOL    HW128916   5.861   6.711   1.140
 9339SOL    HW228917   5.861   6.551   1.106
 9340SOL     OW28918   4.539   4.388   3.857
 9340SOL    HW128919   4.505   4.426   3.943
 9340SOL    HW228920   4.506   4.444   3.781
 9341SOL     OW28921   0.549   5.741   0.975
 9341SOL    HW128922   0.451   5.759   0.982
 9341SOL    HW228923   0.574   5.733   0.878
 9342SOL     OW28924   2.846   6.335   4.087
 9342SOL    HW128925   2.781   6.333   4.011
 9342SOL    HW228926   2.908   6.257   4.079
 9343SOL     OW28927   5.488   4.244   2.049
 9343SOL    HW128928   5.414   4.260   1.984
 9343SOL    HW228929   5.468   4.163   2.103
 9344SOL     OW28930   4.638   6.478   2.930
 9344SOL    HW128931   4.610   6.484   2.835
 9344SOL    HW228932   4.571   6.525   2.988
 9345SOL     OW28933   6.680   5.734   2.100
 9345SOL    HW128934   6.685   5.667   2.025
 9345SOL    HW228935   6.585   5.763   2.113
 9346SOL     OW28936   5.552   1.044   1.122
 9346SOL    HW128937   5.464   0.997   1.117
 9346SOL    HW228938   5.606   1.006   1.197
 9347SOL     OW28939   2.824   3.922   0.181
 9347SOL    HW128940   2.858   3.884   0.095
 9347SOL    HW228941   2.759   3.996   0.162
 9348SOL     OW28942   2.806   6.731   2.457
 9348SOL    HW128943   2.771   6.697   2.370
 9348SOL    HW228944   2.781   6.668   2.530
 9349SOL     OW28945   6.583   5.017   3.036
 9349SOL    HW128946   6.618   5.003   2.943
 9349SOL    HW228947   6.596   5.113   3.062
 9350SOL     OW28948   6.871   2.869   5.264
 9350SOL    HW128949   6.866   2.969   5.267
 9350SOL    HW228950   6.954   2.842   5.216
 9351SOL     OW28951   3.156   7.013   0.043
 9351SOL    HW128952   3.200   6.964   0.118
 9351SOL    HW228953   3.067   0.030   0.074
 9352SOL     OW28954   3.215   1.504   6.490
 9352SOL    HW128955   3.162   1.451   6.424
 9352SOL    HW228956   3.285   1.558   6.443
 9353SOL     OW28957   0.499   4.240   1.079
 9353SOL    HW128958   0.590   4.204   1.102
 9353SOL    HW228959   0.471   4.204   0.990
 9354SOL     OW28960   0.695   1.568   6.305
 9354SOL    HW128961   0.656   1.552   6.214
 9354SOL    HW228962   0.660   1.654   6.341
 9355SOL     OW28963   0.257   2.217   4.561
 9355SOL    HW128964   0.327   2.238   4.493
 9355SOL    HW228965   0.172   2.265   4.538
 9356SOL     OW28966   4.552   6.791   2.376
 9356SOL    HW128967   4.495   6.713   2.350
 9356SOL    HW228968   4.629   6.759   2.432
 9357SOL     OW28969   2.026   3.595   6.072
 9357SOL    HW128970   1.995   3.660   6.142
 9357SOL    HW228971   1.974   3.609   5.988
 9358SOL     OW28972   6.948   2.998   1.680
 9358SOL    HW128973   6.980   2.930   1.746
 9358SOL    HW228974   6.998   2.986   1.594
 9359SOL     OW28975   1.635   4.212   5.508
 9359SOL    HW128976   1.727   4.175   5.495
 9359SOL    HW228977   1.598   4.242   5.419
 9360SOL     OW28978   0.607   4.537   6.713
 9360SOL    HW128979   0.586   4.618   6.657
 9360SOL    HW228980   0.522   4.495   6.744
 9361SOL     OW28981   1.539   5.554   2.646
 9361SOL    HW128982   1.446   5.589   2.635
 9361SOL    HW228983   1.542   5.459   2.616
 9362SOL     OW28984   1.986   2.432   2.662
 9362SOL    HW128985   1.932   2.367   2.715
 9362SOL    HW228986   1.935   2.518   2.654
 9363SOL     OW28987   3.133   6.000   1.903
 9363SOL    HW128988   3.189   5.975   1.824
 9363SOL    HW228989   3.036   5.987   1.880
 9364SOL     OW28990   2.917   3.061   6.537
 9364SOL    HW128991   2.964   3.108   6.612
 9364SOL    HW228992   2.892   3.127   6.467
 9365SOL     OW28993   2.731   2.009   4.191
 9365SOL    HW128994   2.742   2.054   4.280
 9365SOL    HW228995   2.635   2.008   4.165
 9366SOL     OW28996   3.770   5.305   6.186
 9366SOL    HW128997   3.764   5.306   6.286
 9366SOL    HW228998   3.858   5.342   6.157
 9367SOL     OW28999   6.908   6.761   2.419
 9367SOL    HW129000   6.915   6.840   2.480
 9367SOL    HW229001   6.837   6.777   2.351
 9368SOL     OW29002   3.640   0.463   3.069
 9368SOL    HW129003   3.648   0.392   2.999
 9368SOL    HW229004   3.728   0.474   3.115
 9369SOL     OW29005   6.848   6.706   3.560
 9369SOL    HW129006   6.945   6.698   3.538
 9369SOL    HW229007   6.836   6.769   3.637
 9370SOL     OW29008   5.511   0.361   4.422
 9370SOL    HW129009   5.539   0.267   4.441
 9370SOL    HW229010   5.506   0.412   4.509
 9371SOL     OW29011   2.544   5.032   0.379
 9371SOL    HW129012   2.558   4.934   0.365
 9371SOL    HW229013   2.509   5.074   0.296
 9372SOL     OW29014   4.939   6.603   1.349
 9372SOL    HW129015   4.890   6.670   1.294
 9372SOL    HW229016   5.014   6.565   1.295
 9373SOL     OW29017   4.908   2.404   1.435
 9373SOL    HW129018   4.993   2.442   1.399
 9373SOL    HW229019   4.870   2.340   1.368
 9374SOL     OW29020   0.522   2.571   0.330
 9374SOL    HW129021   0.597   2.606   0.273
 9374SOL    HW229022   0.457   2.644   0.348
 9375SOL     OW29023   0.637   1.857   1.113
 9375SOL    HW129024   0.720   1.913   1.109
 9375SOL    HW229025   0.560   1.907   1.074
 9376SOL     OW29026   2.196   4.130   1.546
 9376SOL    HW129027   2.295   4.124   1.533
 9376SOL    HW229028   2.156   4.039   1.539
 9377SOL     OW29029   1.804   5.092   3.316
 9377SOL    HW129030   1.872   5.164   3.328
 9377SOL    HW229031   1.742   5.117   3.242
 9378SOL     OW29032   2.257   1.541   3.337
 9378SOL    HW129033   2.207   1.514   3.420
 9378SOL    HW229034   2.340   1.590   3.364
 9379SOL     OW29035   5.094   0.160   5.745
 9379SOL    HW129036   5.175   0.170   5.687
 9379SOL    HW229037   5.013   0.191   5.694
 9380SOL     OW29038   4.137   5.614   5.446
 9380SOL    HW129039   4.101   5.589   5.356
 9380SOL    HW229040   4.231   5.647   5.436
 9381SOL     OW29041   5.072   3.041   5.777
 9381SOL    HW129042   5.122   3.125   5.796
 9381SOL    HW229043   4.974   3.058   5.785
 9382SOL     OW29044   4.190   0.037   4.270
 9382SOL    HW129045   4.283   0.010   4.297
 9382SOL    HW229046   4.193   0.126   4.226
 9383SOL     OW29047   5.746   5.029   4.342
 9383SOL    HW129048   5.778   5.024   4.247
 9383SOL    HW229049   5.677   4.959   4.357
 9384SOL     OW29050   4.415   0.013   1.859
 9384SOL    HW129051   4.382   0.104   1.884
 9384SOL    HW229052   4.367   6.962   1.913
 9385SOL     OW29053   4.546   1.579   3.801
 9385SOL    HW129054   4.598   1.654   3.840
 9385SOL    HW229055   4.555   1.580   3.701
 9386SOL     OW29056   3.295   6.061   5.265
 9386SOL    HW129057   3.307   5.962   5.258
 9386SOL    HW229058   3.288   6.100   5.173
 9387SOL     OW29059   2.582   2.102   0.220
 9387SOL    HW129060   2.641   2.145   0.289
 9387SOL    HW229061   2.548   2.172   0.157
 9388SOL     OW29062   2.576   6.137   3.537
 9388SOL    HW129063   2.650   6.202   3.519
 9388SOL    HW229064   2.600   6.048   3.499
 9389SOL     OW29065   2.884   0.326   3.192
 9389SOL    HW129066   2.923   0.417   3.206
 9389SOL    HW229067   2.903   0.297   3.098
 9390SOL     OW29068   5.591   4.642   6.429
 9390SOL    HW129069   5.545   4.605   6.348
 9390SOL    HW229070   5.687   4.659   6.406
 9391SOL     OW29071   0.779   0.546   6.003
 9391SOL    HW129072   0.849   0.618   6.006
 9391SOL    HW229073   0.823   0.456   6.007
 9392SOL     OW29074   5.252   5.056   5.600
 9392SOL    HW129075   5.347   5.029   5.610
 9392SOL    HW229076   5.244   5.155   5.611
 9393SOL     OW29077   2.553   0.022   5.782
 9393SOL    HW129078   2.489   6.967   5.806
 9393SOL    HW229079   2.506   0.090   5.725
 9394SOL     OW29080   6.452   0.933   1.464
 9394SOL    HW129081   6.370   0.990   1.459
 9394SOL    HW229082   6.446   0.858   1.398
 9395SOL     OW29083   2.538   0.919   0.751
 9395SOL    HW129084   2.527   0.939   0.653
 9395SOL    HW229085   2.630   0.945   0.779
 9396SOL     OW29086   2.047   4.438   4.870
 9396SOL    HW129087   1.993   4.369   4.919
 9396SOL    HW229088   2.138   4.401   4.850
 9397SOL     OW29089   2.884   5.966   6.110
 9397SOL    HW129090   2.892   5.884   6.166
 9397SOL    HW229091   2.865   5.941   6.015
 9398SOL     OW29092   5.746   1.190   6.302
 9398SOL    HW129093   5.696   1.189   6.389
 9398SOL    HW229094   5.725   1.107   6.250
 9399SOL     OW29095   1.017   2.801   4.857
 9399SOL    HW129096   1.035   2.853   4.941
 9399SOL    HW229097   1.095   2.812   4.795
 9400SOL     OW29098   4.765   0.921   1.338
 9400SOL    HW129099   4.726   0.887   1.253
 9400SOL    HW229100   4.692   0.960   1.395
 9401SOL     OW29101   6.744   2.094   2.761
 9401SOL    HW129102   6.701   2.117   2.848
 9401SOL    HW229103   6.675   2.058   2.699
 9402SOL     OW29104   1.406   4.352   3.290
 9402SOL    HW129105   1.505   4.346   3.279
 9402SOL    HW229106   1.378   4.294   3.367
 9403SOL     OW29107   6.121   1.598   1.781
 9403SOL    HW129108   6.067   1.628   1.860
 9403SOL    HW229109   6.217   1.591   1.809
 9404SOL     OW29110   0.644   1.971   1.389
 9404SOL    HW129111   0.636   1.912   1.309
 9404SOL    HW229112   0.586   2.052   1.376
 9405SOL     OW29113   2.247   4.020   3.960
 9405SOL    HW129114   2.334   3.986   3.923
 9405SOL    HW229115   2.201   3.947   4.011
 9406SOL     OW29116   0.727   2.534   6.673
 9406SOL    HW129117   0.783   2.515   6.592
 9406SOL    HW229118   0.632   2.506   6.655
 9407SOL     OW29119   2.558   5.296   4.033
 9407SOL    HW129120   2.629   5.266   3.970
 9407SOL    HW229121   2.473   5.247   4.013
 9408SOL     OW29122   6.779   2.974   6.184
 9408SOL    HW129123   6.874   2.999   6.201
 9408SOL    HW229124   6.773   2.922   6.099
 9409SOL     OW29125   6.745   6.021   1.493
 9409SOL    HW129126   6.754   5.942   1.554
 9409SOL    HW229127   6.803   6.095   1.526
 9410SOL     OW29128   2.947   0.548   1.958
 9410SOL    HW129129   2.886   0.610   2.008
 9410SOL    HW229130   2.957   0.463   2.010
 9411SOL     OW29131   3.521   2.852   3.252
 9411SOL    HW129132   3.620   2.852   3.265
 9411SOL    HW229133   3.476   2.828   3.338
 9412SOL     OW29134   1.832   0.930   2.352
 9412SOL    HW129135   1.907   0.867   2.368
 9412SOL    HW229136   1.781   0.943   2.438
 9413SOL     OW29137   4.847   4.929   3.320
 9413SOL    HW129138   4.760   4.937   3.369
 9413SOL    HW229139   4.845   4.988   3.239
 9414SOL     OW29140   2.861   1.411   3.499
 9414SOL    HW129141   2.945   1.357   3.499
 9414SOL    HW229142   2.850   1.456   3.588
 9415SOL     OW29143   2.364   6.766   2.345
 9415SOL    HW129144   2.376   6.856   2.388
 9415SOL    HW229145   2.278   6.726   2.375
 9416SOL     OW29146   0.271   1.056   6.031
 9416SOL    HW129147   0.280   0.958   6.044
 9416SOL    HW229148   0.228   1.096   6.112
 9417SOL     OW29149   3.582   0.215   0.893
 9417SOL    HW129150   3.520   0.137   0.881
 9417SOL    HW229151   3.548   0.292   0.839
 9418SOL     OW29152   2.349   1.144   1.617
 9418SOL    HW129153   2.427   1.195   1.580
 9418SOL    HW229154   2.364   1.046   1.604
 9419SOL     OW29155   1.670   3.770   6.176
 9419SOL    HW129156   1.596   3.705   6.194
 9419SOL    HW229157   1.631   3.860   6.154
 9420SOL     OW29158   5.912   4.624   0.265
 9420SOL    HW129159   5.936   4.534   0.227
 9420SOL    HW229160   5.977   4.646   0.338
 9421SOL     OW29161   2.786   5.723   4.884
 9421SOL    HW129162   2.803   5.812   4.842
 9421SOL    HW229163   2.864   5.697   4.941
 9422SOL     OW29164   2.734   6.025   3.330
 9422SOL    HW129165   2.812   5.979   3.371
 9422SOL    HW229166   2.766   6.096   3.267
 9423SOL     OW29167   4.277   6.521   3.243
 9423SOL    HW129168   4.323   6.504   3.330
 9423SOL    HW229169   4.207   6.592   3.255
 9424SOL     OW29170   5.334   2.105   4.699
 9424SOL    HW129171   5.278   2.067   4.772
 9424SOL    HW229172   5.290   2.087   4.611
 9425SOL     OW29173   5.664   4.422   1.509
 9425SOL    HW129174   5.655   4.408   1.410
 9425SOL    HW229175   5.716   4.346   1.548
 9426SOL     OW29176   3.395   1.272   6.191
 9426SOL    HW129177   3.400   1.269   6.291
 9426SOL    HW229178   3.333   1.201   6.158
 9427SOL     OW29179   2.545   5.547   2.938
 9427SOL    HW129180   2.618   5.597   2.984
 9427SOL    HW229181   2.473   5.610   2.909
 9428SOL     OW29182   0.098   6.956   0.528
 9428SOL    HW129183   0.123   6.934   0.622
 9428SOL    HW229184   0.171   6.926   0.466
 9429SOL     OW29185   2.069   3.405   4.221
 9429SOL    HW129186   1.999   3.351   4.175
 9429SOL    HW229187   2.122   3.346   4.282
 9430SOL     OW29188   0.330   2.305   4.805
 9430SOL    HW129189   0.303   2.268   4.717
 9430SOL    HW229190   0.414   2.261   4.836
 9431SOL     OW29191   6.461   4.731   1.338
 9431SOL    HW129192   6.425   4.721   1.430
 9431SOL    HW229193   6.408   4.800   1.288
 9432SOL     OW29194   6.486   0.945   4.355
 9432SOL    HW129195   6.435   0.962   4.271
 9432SOL    HW229196   6.525   0.853   4.352
 9433SOL     OW29197   3.293   6.632   2.613
 9433SOL    HW129198   3.198   6.602   2.617
 9433SOL    HW229199   3.312   6.669   2.522
 9434SOL     OW29200   5.493   5.853   2.644
 9434SOL    HW129201   5.465   5.759   2.625
 9434SOL    HW229202   5.429   5.894   2.709
 9435SOL     OW29203   6.891   1.862   2.787
 9435SOL    HW129204   6.808   1.915   2.769
 9435SOL    HW229205   6.946   1.908   2.856
 9436SOL     OW29206   1.516   1.730   2.503
 9436SOL    HW129207   1.591   1.779   2.459
 9436SOL    HW229208   1.446   1.796   2.531
 9437SOL     OW29209   6.964   6.132   3.219
 9437SOL    HW129210   6.866   6.111   3.217
 9437SOL    HW229211   6.995   6.138   3.314
 9438SOL     OW29212   1.002   0.068   1.853
 9438SOL    HW129213   0.924   0.010   1.875
 9438SOL    HW229214   0.980   0.163   1.875
 9439SOL     OW29215   0.993   2.724   0.919
 9439SOL    HW129216   1.090   2.740   0.933
 9439SOL    HW229217   0.974   2.720   0.821
 9440SOL     OW29218   4.116   4.753   3.170
 9440SOL    HW129219   4.122   4.660   3.205
 9440SOL    HW229220   4.189   4.809   3.209
 9441SOL     OW29221   6.608   5.259   5.907
 9441SOL    HW129222   6.707   5.248   5.904
 9441SOL    HW229223   6.584   5.355   5.890
 9442SOL     OW29224   5.062   3.403   1.883
 9442SOL    HW129225   5.128   3.455   1.937
 9442SOL    HW229226   5.020   3.333   1.940
 9443SOL     OW29227   2.513   5.661   0.399
 9443SOL    HW129228   2.577   5.735   0.421
 9443SOL    HW229229   2.419   5.692   0.412
 9444SOL     OW29230   1.451   4.103   0.721
 9444SOL    HW129231   1.550   4.096   0.730
 9444SOL    HW229232   1.423   4.198   0.734
 9445SOL     OW29233   6.865   3.831   3.831
 9445SOL    HW129234   6.906   3.881   3.754
 9445SOL    HW229235   6.831   3.743   3.799
 9446SOL     OW29236   6.835   5.779   4.808
 9446SOL    HW129237   6.840   5.746   4.903
 9446SOL    HW229238   6.771   5.722   4.756
 9447SOL     OW29239   5.535   4.770   3.751
 9447SOL    HW129240   5.449   4.778   3.701
 9447SOL    HW229241   5.518   4.774   3.849
 9448SOL     OW29242   6.545   0.311   6.135
 9448SOL    HW129243   6.519   0.306   6.231
 9448SOL    HW229244   6.518   0.226   6.089
 9449SOL     OW29245   6.110   6.952   0.199
 9449SOL    HW129246   6.110   0.031   0.175
 9449SOL    HW229247   6.119   6.942   0.298
 9450SOL     OW29248   2.218   5.577   3.098
 9450SOL    HW129249   2.125   5.567   3.132
 9450SOL    HW229250   2.216   5.604   3.002
 9451SOL     OW29251   3.773   5.605   5.187
 9451SOL    HW129252   3.831   5.596   5.268
 9451SOL    HW229253   3.721   5.521   5.174
 9452SOL     OW29254   1.030   4.142   0.124
 9452SOL    HW129255   0.998   4.133   0.029
 9452SOL    HW229256   0.978   4.214   0.170
 9453SOL     OW29257   2.886   5.511   2.819
 9453SOL    HW129258   2.863   5.520   2.722
 9453SOL    HW229259   2.840   5.584   2.871
 9454SOL     OW29260   3.634   3.754   6.131
 9454SOL    HW129261   3.565   3.681   6.139
 9454SOL    HW229262   3.713   3.731   6.186
 9455SOL     OW29263   2.346   1.991   3.365
 9455SOL    HW129264   2.294   2.052   3.306
 9455SOL    HW229265   2.427   2.038   3.400
 9456SOL     OW29266   6.552   3.479   0.614
 9456SOL    HW129267   6.458   3.509   0.629
 9456SOL    HW229268   6.614   3.537   0.667
 9457SOL     OW29269   0.936   5.079   4.763
 9457SOL    HW129270   0.993   5.156   4.734
 9457SOL    HW229271   0.979   4.994   4.734
 9458SOL     OW29272   0.935   3.591   6.705
 9458SOL    HW129273   0.949   3.534   6.624
 9458SOL    HW229274   0.879   3.670   6.680
 9459SOL     OW29275   5.525   4.809   4.031
 9459SOL    HW129276   5.601   4.871   4.052
 9459SOL    HW229277   5.538   4.723   4.079
 9460SOL     OW29278   2.165   3.611   4.909
 9460SOL    HW129279   2.129   3.525   4.873
 9460SOL    HW229280   2.209   3.595   4.997
 9461SOL     OW29281   0.531   1.965   1.860
 9461SOL    HW129282   0.561   2.022   1.784
 9461SOL    HW229283   0.582   1.990   1.942
 9462SOL     OW29284   1.450   2.718   3.472
 9462SOL    HW129285   1.447   2.806   3.518
 9462SOL    HW229286   1.358   2.690   3.445
 9463SOL     OW29287   5.390   6.792   1.536
 9463SOL    HW129288   5.393   6.697   1.506
 9463SOL    HW229289   5.330   6.800   1.615
 9464SOL     OW29290   5.938   0.305   0.440
 9464SOL    HW129291   5.948   0.271   0.534
 9464SOL    HW229292   6.020   0.356   0.414
 9465SOL     OW29293   0.410   3.330   1.770
 9465SOL    HW129294   0.359   3.308   1.853
 9465SOL    HW229295   0.391   3.263   1.699
 9466SOL     OW29296   3.516   4.292   5.599
 9466SOL    HW129297   3.454   4.371   5.597
 9466SOL    HW229298   3.555   4.279   5.508
 9467SOL     OW29299   0.813   3.238   1.119
 9467SOL    HW129300   0.860   3.324   1.102
 9467SOL    HW229301   0.715   3.249   1.104
 9468SOL     OW29302   6.041   3.763   0.013
 9468SOL    HW129303   6.111   3.806   0.071
 9468SOL    HW229304   6.045   3.803   6.939
 9469SOL     OW29305   0.410   5.757   1.279
 9469SOL    HW129306   0.366   5.749   1.369
 9469SOL    HW229307   0.419   5.854   1.255
 9470SOL     OW29308   4.796   3.613   6.798
 9470SOL    HW129309   4.781   3.709   6.776
 9470SOL    HW229310   4.891   3.599   6.826
 9471SOL     OW29311   6.498   1.970   4.632
 9471SOL    HW129312   6.435   1.907   4.588
 9471SOL    HW229313   6.490   2.060   4.590
 9472SOL     OW29314   0.225   3.670   5.523
 9472SOL    HW129315   0.279   3.641   5.602
 9472SOL    HW229316   0.232   3.769   5.512
 9473SOL     OW29317   3.123   4.819   0.022
 9473SOL    HW129318   3.152   4.783   6.951
 9473SOL    HW229319   3.112   4.743   0.086
 9474SOL     OW29320   6.212   3.609   1.963
 9474SOL    HW129321   6.132   3.611   2.024
 9474SOL    HW229322   6.253   3.518   1.965
 9475SOL     OW29323   3.980   3.579   1.040
 9475SOL    HW129324   3.965   3.483   1.062
 9475SOL    HW229325   3.949   3.597   0.946
 9476SOL     OW29326   3.926   3.931   4.612
 9476SOL    HW129327   3.989   3.855   4.621
 9476SOL    HW229328   3.909   3.971   4.702
 9477SOL     OW29329   0.325   2.623   1.274
 9477SOL    HW129330   0.277   2.690   1.330
 9477SOL    HW229331   0.422   2.620   1.300
 9478SOL     OW29332   5.603   3.127   0.919
 9478SOL    HW129333   5.645   3.157   0.833
 9478SOL    HW229334   5.506   3.109   0.905
 9479SOL     OW29335   4.580   6.464   1.012
 9479SOL    HW129336   4.679   6.464   1.027
 9479SOL    HW229337   4.552   6.379   0.967
 9480SOL     OW29338   6.445   5.196   0.224
 9480SOL    HW129339   6.464   5.290   0.194
 9480SOL    HW229340   6.528   5.142   0.222
 9481SOL     OW29341   4.899   2.427   2.468
 9481SOL    HW129342   4.957   2.460   2.543
 9481SOL    HW229343   4.854   2.342   2.496
 9482SOL     OW29344   6.990   0.652   3.052
 9482SOL    HW129345   0.029   0.604   2.985
 9482SOL    HW229346   0.031   0.704   3.115
 9483SOL     OW29347   2.156   1.075   0.627
 9483SOL    HW129348   2.174   1.092   0.530
 9483SOL    HW229349   2.079   1.132   0.657
 9484SOL     OW29350   3.812   0.127   4.827
 9484SOL    HW129351   3.792   0.225   4.829
 9484SOL    HW229352   3.885   0.109   4.761
 9485SOL     OW29353   0.617   1.647   1.302
 9485SOL    HW129354   0.628   1.719   1.234
 9485SOL    HW229355   0.595   1.561   1.256
 9486SOL     OW29356   4.693   6.048   0.901
 9486SOL    HW129357   4.697   5.950   0.883
 9486SOL    HW229358   4.716   6.098   0.817
 9487SOL     OW29359   3.358   4.147   3.427
 9487SOL    HW129360   3.277   4.127   3.482
 9487SOL    HW229361   3.329   4.178   3.336
 9488SOL     OW29362   2.822   0.041   0.751
 9488SOL    HW129363   2.896   0.104   0.777
 9488SOL    HW229364   2.772   0.012   0.833
 9489SOL     OW29365   5.183   4.000   1.314
 9489SOL    HW129366   5.095   4.045   1.330
 9489SOL    HW229367   5.197   3.988   1.215
 9490SOL     OW29368   6.388   5.902   3.483
 9490SOL    HW129369   6.334   5.960   3.544
 9490SOL    HW229370   6.343   5.813   3.474
 9491SOL     OW29371   5.327   5.501   3.933
 9491SOL    HW129372   5.267   5.573   3.898
 9491SOL    HW229373   5.278   5.448   4.002
 9492SOL     OW29374   3.239   3.328   4.834
 9492SOL    HW129375   3.315   3.289   4.782
 9492SOL    HW229376   3.154   3.313   4.785
 9493SOL     OW29377   3.057   5.737   4.721
 9493SOL    HW129378   3.070   5.638   4.717
 9493SOL    HW229379   3.044   5.766   4.816
 9494SOL     OW29380   5.605   3.026   2.584
 9494SOL    HW129381   5.696   3.041   2.623
 9494SOL    HW229382   5.587   2.928   2.578
 9495SOL     OW29383   6.558   2.041   3.002
 9495SOL    HW129384   6.526   1.954   2.963
 9495SOL    HW229385   6.654   2.032   3.030
 9496SOL     OW29386   5.621   3.317   1.708
 9496SOL    HW129387   5.615   3.410   1.745
 9496SOL    HW229388   5.531   3.273   1.714
 9497SOL     OW29389   4.930   5.823   4.824
 9497SOL    HW129390   4.901   5.850   4.732
 9497SOL    HW229391   4.936   5.904   4.882
 9498SOL     OW29392   6.123   4.851   4.671
 9498SOL    HW129393   6.096   4.899   4.587
 9498SOL    HW229394   6.179   4.772   4.648
 9499SOL     OW29395   1.540   6.284   5.398
 9499SOL    HW129396   1.625   6.335   5.384
 9499SOL    HW229397   1.562   6.189   5.424
 9500SOL     OW29398   4.146   6.522   0.383
 9500SOL    HW129399   4.125   6.545   0.288
 9500SOL    HW229400   4.124   6.426   0.400
 9501SOL     OW29401   2.113   1.321   4.728
 9501SOL    HW129402   2.162   1.235   4.736
 9501SOL    HW229403   2.178   1.397   4.727
 9502SOL     OW29404   5.756   3.049   5.137
 9502SOL    HW129405   5.706   2.973   5.179
 9502SOL    HW229406   5.842   3.015   5.098
 9503SOL     OW29407   6.859   2.241   0.457
 9503SOL    HW129408   6.847   2.150   0.496
 9503SOL    HW229409   6.957   2.261   0.448
 9504SOL     OW29410   6.772   3.538   1.502
 9504SOL    HW129411   6.697   3.576   1.447
 9504SOL    HW229412   6.777   3.439   1.487
 9505SOL     OW29413   4.802   4.229   5.317
 9505SOL    HW129414   4.742   4.287   5.262
 9505SOL    HW229415   4.880   4.283   5.349
 9506SOL     OW29416   1.675   2.906   0.634
 9506SOL    HW129417   1.705   2.996   0.665
 9506SOL    HW229418   1.673   2.904   0.534
 9507SOL     OW29419   0.237   0.921   2.153
 9507SOL    HW129420   0.268   0.979   2.078
 9507SOL    HW229421   0.284   0.832   2.148
 9508SOL     OW29422   6.080   1.866   2.282
 9508SOL    HW129423   6.140   1.800   2.327
 9508SOL    HW229424   6.090   1.858   2.183
 9509SOL     OW29425   0.068   1.115   3.601
 9509SOL    HW129426   0.011   1.119   3.683
 9509SOL    HW229427   0.055   1.027   3.556
 9510SOL     OW29428   1.604   4.168   3.890
 9510SOL    HW129429   1.680   4.227   3.862
 9510SOL    HW229430   1.521   4.224   3.900
 9511SOL     OW29431   2.042   0.445   0.906
 9511SOL    HW129432   1.980   0.411   0.836
 9511SOL    HW229433   2.078   0.534   0.878
 9512SOL     OW29434   6.880   1.983   0.654
 9512SOL    HW129435   6.958   2.036   0.688
 9512SOL    HW229436   6.906   1.933   0.572
 9513SOL     OW29437   2.856   4.080   6.593
 9513SOL    HW129438   2.840   4.049   6.687
 9513SOL    HW229439   2.842   4.178   6.588
 9514SOL     OW29440   2.293   5.044   6.701
 9514SOL    HW129441   2.281   4.945   6.702
 9514SOL    HW229442   2.334   5.072   6.614
 9515SOL     OW29443   1.633   6.262   2.131
 9515SOL    HW129444   1.547   6.308   2.108
 9515SOL    HW229445   1.614   6.172   2.169
 9516SOL     OW29446   5.838   4.611   6.941
 9516SOL    HW129447   5.856   4.706   6.917
 9516SOL    HW229448   5.923   4.559   6.935
 9517SOL     OW29449   1.785   4.022   1.308
 9517SOL    HW129450   1.781   4.108   1.358
 9517SOL    HW229451   1.730   3.953   1.356
 9518SOL     OW29452   2.003   1.450   0.584
 9518SOL    HW129453   1.920   1.500   0.559
 9518SOL    HW229454   2.034   1.478   0.675
 9519SOL     OW29455   3.344   2.969   5.111
 9519SOL    HW129456   3.280   3.036   5.074
 9519SOL    HW229457   3.388   2.920   5.036
 9520SOL     OW29458   2.589   1.196   2.892
 9520SOL    HW129459   2.577   1.215   2.989
 9520SOL    HW229460   2.520   1.245   2.839
 9521SOL     OW29461   5.146   5.787   2.563
 9521SOL    HW129462   5.197   5.781   2.477
 9521SOL    HW229463   5.141   5.883   2.592
 9522SOL     OW29464   3.316   5.734   1.298
 9522SOL    HW129465   3.386   5.663   1.301
 9522SOL    HW229466   3.267   5.737   1.385
 9523SOL     OW29467   3.495   5.121   5.049
 9523SOL    HW129468   3.515   5.042   5.107
 9523SOL    HW229469   3.483   5.091   4.955
 9524SOL     OW29470   3.931   2.406   1.110
 9524SOL    HW129471   3.960   2.419   1.015
 9524SOL    HW229472   3.958   2.315   1.141
 9525SOL     OW29473   2.402   2.988   6.092
 9525SOL    HW129474   2.306   2.996   6.117
 9525SOL    HW229475   2.422   2.893   6.069
 9526SOL     OW29476   4.903   5.879   1.781
 9526SOL    HW129477   4.851   5.880   1.866
 9526SOL    HW229478   4.940   5.970   1.763
 9527SOL     OW29479   0.786   0.421   2.439
 9527SOL    HW129480   0.791   0.514   2.403
 9527SOL    HW229481   0.878   0.391   2.466
 9528SOL     OW29482   6.801   0.534   0.773
 9528SOL    HW129483   6.796   0.438   0.800
 9528SOL    HW229484   6.762   0.592   0.845
 9529SOL     OW29485   6.433   3.029   5.528
 9529SOL    HW129486   6.469   3.114   5.565
 9529SOL    HW229487   6.508   2.964   5.514
 9530SOL     OW29488   2.015   3.286   3.499
 9530SOL    HW129489   2.078   3.209   3.494
 9530SOL    HW229490   1.922   3.254   3.477
 9531SOL     OW29491   3.888   5.399   2.917
 9531SOL    HW129492   3.803   5.453   2.921
 9531SOL    HW229493   3.928   5.408   2.826
 9532SOL     OW29494   0.545   6.450   1.749
 9532SOL    HW129495   0.485   6.496   1.684
 9532SOL    HW229496   0.522   6.479   1.842
 9533SOL     OW29497   0.186   0.660   4.672
 9533SOL    HW129498   0.099   0.684   4.628
 9533SOL    HW229499   0.256   0.646   4.602
 9534SOL     OW29500   5.385   3.084   5.218
 9534SOL    HW129501   5.433   3.024   5.154
 9534SOL    HW229502   5.300   3.040   5.248
 9535SOL     OW29503   2.549   1.305   5.472
 9535SOL    HW129504   2.559   1.378   5.540
 9535SOL    HW229505   2.637   1.287   5.429
 9536SOL     OW29506   3.004   4.824   5.220
 9536SOL    HW129507   2.964   4.733   5.209
 9536SOL    HW229508   2.963   4.870   5.299
 9537SOL     OW29509   2.302   6.810   2.079
 9537SOL    HW129510   2.367   6.790   2.006
 9537SOL    HW229511   2.339   6.778   2.166
 9538SOL     OW29512   6.358   1.985   4.249
 9538SOL    HW129513   6.347   2.007   4.153
 9538SOL    HW229514   6.273   2.006   4.298
 9539SOL     OW29515   1.861   4.047   5.482
 9539SOL    HW129516   1.951   4.032   5.521
 9539SOL    HW229517   1.848   3.986   5.404
 9540SOL     OW29518   4.826   4.182   4.797
 9540SOL    HW129519   4.831   4.103   4.858
 9540SOL    HW229520   4.755   4.245   4.829
 9541SOL     OW29521   2.540   1.909   5.916
 9541SOL    HW129522   2.488   1.985   5.877
 9541SOL    HW229523   2.477   1.840   5.952
 9542SOL     OW29524   4.897   3.860   5.051
 9542SOL    HW129525   4.875   3.765   5.026
 9542SOL    HW229526   4.813   3.914   5.052
 9543SOL     OW29527   3.834   0.634   4.426
 9543SOL    HW129528   3.876   0.722   4.448
 9543SOL    HW229529   3.844   0.615   4.329
 9544SOL     OW29530   6.332   1.044   2.325
 9544SOL    HW129531   6.386   1.014   2.404
 9544SOL    HW229532   6.354   1.139   2.303
 9545SOL     OW29533   6.379   5.363   3.715
 9545SOL    HW129534   6.347   5.452   3.745
 9545SOL    HW229535   6.341   5.342   3.625
 9546SOL     OW29536   1.999   2.777   6.738
 9546SOL    HW129537   2.088   2.743   6.706
 9546SOL    HW229538   1.953   2.826   6.663
 9547SOL     OW29539   2.032   6.115   4.247
 9547SOL    HW129540   2.089   6.147   4.172
 9547SOL    HW229541   1.936   6.138   4.228
 9548SOL     OW29542   6.472   5.998   4.619
 9548SOL    HW129543   6.433   6.046   4.697
 9548SOL    HW229544   6.415   6.013   4.539
 9549SOL     OW29545   2.726   4.099   1.382
 9549SOL    HW129546   2.647   4.125   1.439
 9549SOL    HW229547   2.805   4.155   1.407
 9550SOL     OW29548   6.830   1.437   6.740
 9550SOL    HW129549   6.892   1.403   6.670
 9550SOL    HW229550   6.769   1.506   6.700
 9551SOL     OW29551   0.024   6.977   4.309
 9551SOL    HW129552   0.112   6.944   4.344
 9551SOL    HW229553   6.993   0.008   4.381
 9552SOL     OW29554   0.659   6.482   2.074
 9552SOL    HW129555   0.741   6.539   2.085
 9552SOL    HW229556   0.683   6.398   2.027
 9553SOL     OW29557   6.201   3.907   6.657
 9553SOL    HW129558   6.119   3.856   6.682
 9553SOL    HW229559   6.267   3.904   6.732
 9554SOL     OW29560   2.522   0.477   1.145
 9554SOL    HW129561   2.605   0.522   1.179
 9554SOL    HW229562   2.482   0.532   1.071
 9555SOL     OW29563   0.329   1.765   0.496
 9555SOL    HW129564   0.287   1.679   0.466
 9555SOL    HW229565   0.311   1.779   0.593
 9556SOL     OW29566   1.898   2.301   1.155
 9556SOL    HW129567   1.835   2.337   1.224
 9556SOL    HW229568   1.913   2.204   1.171
 9557SOL     OW29569   6.342   0.597   2.434
 9557SOL    HW129570   6.316   0.648   2.352
 9557SOL    HW229571   6.298   0.508   2.435
 9558SOL     OW29572   5.951   5.384   4.042
 9558SOL    HW129573   5.880   5.377   3.972
 9558SOL    HW229574   6.039   5.357   4.003
 9559SOL     OW29575   0.048   3.382   1.727
 9559SOL    HW129576   0.146   3.375   1.706
 9559SOL    HW229577   0.019   3.478   1.718
 9560SOL     OW29578   1.277   1.456   2.461
 9560SOL    HW129579   1.193   1.438   2.410
 9560SOL    HW229580   1.356   1.444   2.400
 9561SOL     OW29581   2.357   6.389   0.923
 9561SOL    HW129582   2.277   6.406   0.864
 9561SOL    HW229583   2.418   6.467   0.919
 9562SOL     OW29584   2.878   6.336   5.220
 9562SOL    HW129585   2.903   6.242   5.242
 9562SOL    HW229586   2.788   6.337   5.177
 9563SOL     OW29587   6.470   5.987   6.915
 9563SOL    HW129588   6.463   6.044   6.833
 9563SOL    HW229589   6.520   5.902   6.893
 9564SOL     OW29590   2.676   0.225   6.531
 9564SOL    HW129591   2.701   0.184   6.619
 9564SOL    HW229592   2.650   0.320   6.545
 9565SOL     OW29593   4.503   5.908   4.977
 9565SOL    HW129594   4.462   5.856   4.902
 9565SOL    HW229595   4.462   5.880   5.064
 9566SOL     OW29596   3.066   4.626   0.232
 9566SOL    HW129597   2.991   4.570   0.197
 9566SOL    HW229598   3.137   4.566   0.271
 9567SOL     OW29599   6.382   5.516   6.283
 9567SOL    HW129600   6.462   5.466   6.318
 9567SOL    HW229601   6.407   5.610   6.263
 9568SOL     OW29602   4.325   3.112   6.377
 9568SOL    HW129603   4.349   3.148   6.467
 9568SOL    HW229604   4.227   3.093   6.373
 9569SOL     OW29605   6.548   1.306   0.878
 9569SOL    HW129606   6.471   1.264   0.926
 9569SOL    HW229607   6.530   1.305   0.780
 9570SOL     OW29608   0.984   1.936   1.731
 9570SOL    HW129609   1.070   1.957   1.684
 9570SOL    HW229610   0.991   1.967   1.826
 9571SOL     OW29611   3.084   3.576   0.248
 9571SOL    HW129612   2.993   3.538   0.229
 9571SOL    HW229613   3.154   3.507   0.229
 9572SOL     OW29614   1.902   5.484   0.600
 9572SOL    HW129615   1.960   5.530   0.533
 9572SOL    HW229616   1.956   5.416   0.650
 9573SOL     OW29617   0.486   1.341   6.628
 9573SOL    HW129618   0.477   1.436   6.658
 9573SOL    HW229619   0.531   1.338   6.539
 9574SOL     OW29620   3.868   3.058   4.834
 9574SOL    HW129621   3.889   3.003   4.915
 9574SOL    HW229622   3.824   3.000   4.765
 9575SOL     OW29623   5.539   0.714   0.651
 9575SOL    HW129624   5.566   0.634   0.705
 9575SOL    HW229625   5.614   0.780   0.650
 9576SOL     OW29626   3.080   1.864   3.540
 9576SOL    HW129627   3.052   1.860   3.636
 9576SOL    HW229628   3.119   1.953   3.520
 9577SOL     OW29629   1.462   0.764   2.551
 9577SOL    HW129630   1.556   0.729   2.553
 9577SOL    HW229631   1.463   0.858   2.519
 9578SOL     OW29632   6.294   3.357   3.037
 9578SOL    HW129633   6.230   3.318   2.972
 9578SOL    HW229634   6.292   3.304   3.122
 9579SOL     OW29635   1.249   6.314   2.668
 9579SOL    HW129636   1.310   6.246   2.625
 9579SOL    HW229637   1.288   6.405   2.656
 9580SOL     OW29638   5.586   3.513   0.090
 9580SOL    HW129639   5.614   3.458   0.168
 9580SOL    HW229640   5.524   3.459   0.032
 9581SOL     OW29641   2.378   4.652   6.282
 9581SOL    HW129642   2.464   4.665   6.331
 9581SOL    HW229643   2.342   4.740   6.253
 9582SOL     OW29644   4.442   4.530   4.133
 9582SOL    HW129645   4.422   4.626   4.155
 9582SOL    HW229646   4.359   4.476   4.145
 9583SOL     OW29647   2.005   3.198   1.598
 9583SOL    HW129648   2.070   3.261   1.640
 9583SOL    HW229649   2.055   3.123   1.554
 9584SOL     OW29650   6.007   5.857   6.955
 9584SOL    HW129651   6.043   5.928   7.017
 9584SOL    HW229652   6.053   5.771   6.974
 9585SOL     OW29653   6.589   0.526   2.316
 9585SOL    HW129654   6.527   0.547   2.392
 9585SOL    HW229655   6.643   0.445   2.338
 9586SOL     OW29656   6.092   3.642   2.999
 9586SOL    HW129657   6.026   3.627   3.073
 9586SOL    HW229658   6.179   3.598   3.023
 9587SOL     OW29659   6.044   0.216   1.889
 9587SOL    HW129660   5.957   0.249   1.854
 9587SOL    HW229661   6.029   0.159   1.969
 9588SOL     OW29662   0.306   1.282   1.507
 9588SOL    HW129663   0.379   1.333   1.553
 9588SOL    HW229664   0.236   1.258   1.574
 9589SOL     OW29665   2.589   5.686   0.124
 9589SOL    HW129666   2.578   5.762   0.059
 9589SOL    HW229667   2.502   5.641   0.137
 9590SOL     OW29668   0.575   3.933   2.458
 9590SOL    HW129669   0.532   3.999   2.519
 9590SOL    HW229670   0.525   3.930   2.372
 9591SOL     OW29671   2.818   5.858   0.606
 9591SOL    HW129672   2.820   5.770   0.558
 9591SOL    HW229673   2.792   5.843   0.702
 9592SOL     OW29674   4.222   5.339   2.506
 9592SOL    HW129675   4.314   5.321   2.540
 9592SOL    HW229676   4.221   5.427   2.458
 9593SOL     OW29677   5.022   2.058   4.809
 9593SOL    HW129678   4.991   2.076   4.716
 9593SOL    HW229679   5.047   2.144   4.853
 9594SOL     OW29680   7.003   6.444   3.264
 9594SOL    HW129681   6.931   6.448   3.333
 9594SOL    HW229682   6.981   6.374   3.197
 9595SOL     OW29683   2.072   5.363   5.055
 9595SOL    HW129684   2.028   5.291   5.002
 9595SOL    HW229685   2.166   5.375   5.024
 9596SOL     OW29686   0.260   4.563   6.124
 9596SOL    HW129687   0.172   4.610   6.112
 9596SOL    HW229688   0.312   4.570   6.038
 9597SOL     OW29689   0.133   3.943   1.535
 9597SOL    HW129690   0.165   3.957   1.629
 9597SOL    HW229691   0.037   3.969   1.528
 9598SOL     OW29692   0.423   4.022   5.319
 9598SOL    HW129693   0.345   4.051   5.264
 9598SOL    HW229694   0.499   3.997   5.259
 9599SOL     OW29695   3.690   0.509   5.011
 9599SOL    HW129696   3.690   0.468   4.920
 9599SOL    HW229697   3.700   0.438   5.080
 9600SOL     OW29698   1.512   0.018   5.921
 9600SOL    HW129699   1.458   0.002   5.839
 9600SOL    HW229700   1.474   6.983   5.997
 9601SOL     OW29701   6.186   4.023   6.416
 9601SOL    HW129702   6.224   3.937   6.380
 9601SOL    HW229703   6.190   4.021   6.516
 9602SOL     OW29704   6.699   4.969   6.259
 9602SOL    HW129705   6.709   4.910   6.339
 9602SOL    HW229706   6.753   5.052   6.271
 9603SOL     OW29707   2.164   6.839   4.318
 9603SOL    HW129708   2.161   6.864   4.415
 9603SOL    HW229709   2.072   6.818   4.286
 9604SOL     OW29710   5.131   0.986   0.243
 9604SOL    HW129711   5.065   0.990   0.168
 9604SOL    HW229712   5.218   1.025   0.212
 9605SOL     OW29713   1.163   5.047   5.692
 9605SOL    HW129714   1.258   5.045   5.722
 9605SOL    HW229715   1.141   4.960   5.647
 9606SOL     OW29716   0.721   6.776   4.064
 9606SOL    HW129717   0.728   6.875   4.047
 9606SOL    HW229718   0.727   6.758   4.162
 9607SOL     OW29719   0.842   1.090   1.919
 9607SOL    HW129720   0.940   1.074   1.922
 9607SOL    HW229721   0.822   1.182   1.954
 9608SOL     OW29722   6.766   7.013   2.614
 9608SOL    HW129723   6.857   0.013   2.576
 9608SOL    HW229724   6.734   6.923   2.583
 9609SOL     OW29725   1.373   3.956   4.475
 9609SOL    HW129726   1.282   3.969   4.516
 9609SOL    HW229727   1.436   4.024   4.512
 9610SOL     OW29728   1.188   3.253   6.126
 9610SOL    HW129729   1.182   3.349   6.154
 9610SOL    HW229730   1.274   3.239   6.076
 9611SOL     OW29731   0.093   6.871   1.571
 9611SOL    HW129732   0.083   6.897   1.667
 9611SOL    HW229733   0.069   6.949   1.513
 9612SOL     OW29734   6.676   2.728   0.415
 9612SOL    HW129735   6.675   2.628   0.421
 9612SOL    HW229736   6.590   2.764   0.452
 9613SOL     OW29737   5.645   6.395   4.174
 9613SOL    HW129738   5.705   6.443   4.237
 9613SOL    HW229739   5.644   6.442   4.086
 9614SOL     OW29740   4.149   3.336   2.034
 9614SOL    HW129741   4.143   3.243   1.998
 9614SOL    HW229742   4.226   3.383   1.992
 9615SOL     OW29743   1.990   5.275   3.384
 9615SOL    HW129744   2.064   5.209   3.375
 9615SOL    HW229745   2.026   5.361   3.420
 9616SOL     OW29746   4.125   3.057   1.356
 9616SOL    HW129747   4.163   2.974   1.317
 9616SOL    HW229748   4.050   3.090   1.298
 9617SOL     OW29749   0.963   3.486   3.285
 9617SOL    HW129750   0.957   3.480   3.185
 9617SOL    HW229751   1.032   3.553   3.310
 9618SOL     OW29752   3.748   0.459   6.637
 9618SOL    HW129753   3.749   0.554   6.666
 9618SOL    HW229754   3.693   0.450   6.554
 9619SOL     OW29755   1.372   6.284   0.556
 9619SOL    HW129756   1.274   6.263   0.563
 9619SOL    HW229757   1.422   6.201   0.534
 9620SOL     OW29758   4.289   1.156   7.017
 9620SOL    HW129759   4.244   1.069   6.998
 9620SOL    HW229760   4.292   1.211   6.934
 9621SOL     OW29761   1.648   0.668   2.212
 9621SOL    HW129762   1.569   0.616   2.181
 9621SOL    HW229763   1.637   0.764   2.187
 9622SOL     OW29764   6.827   0.701   6.420
 9622SOL    HW129765   6.731   0.679   6.433
 9622SOL    HW229766   6.863   0.743   6.504
 9623SOL     OW29767   4.986   5.267   6.854
 9623SOL    HW129768   4.925   5.198   6.891
 9623SOL    HW229769   4.938   5.320   6.783
 9624SOL     OW29770   4.841   5.124   5.399
 9624SOL    HW129771   4.843   5.175   5.486
 9624SOL    HW229772   4.921   5.065   5.393
 9625SOL     OW29773   4.998   4.325   6.752
 9625SOL    HW129774   4.966   4.250   6.810
 9625SOL    HW229775   4.978   4.413   6.797
 9626SOL     OW29776   2.032   4.909   4.412
 9626SOL    HW129777   2.056   4.977   4.480
 9626SOL    HW229778   2.019   4.820   4.456
 9627SOL     OW29779   1.199   4.513   4.937
 9627SOL    HW129780   1.290   4.540   4.906
 9627SOL    HW229781   1.183   4.549   5.029
 9628SOL     OW29782   6.152   4.378   0.555
 9628SOL    HW129783   6.218   4.338   0.491
 9628SOL    HW229784   6.171   4.346   0.648
 9629SOL     OW29785   6.527   6.584   3.264
 9629SOL    HW129786   6.431   6.569   3.287
 9629SOL    HW229787   6.538   6.675   3.224
 9630SOL     OW29788   5.940   5.826   5.397
 9630SOL    HW129789   5.867   5.771   5.438
 9630SOL    HW229790   6.025   5.812   5.448
 9631SOL     OW29791   4.228   0.893   1.745
 9631SOL    HW129792   4.242   0.983   1.786
 9631SOL    HW229793   4.239   0.823   1.816
 9632SOL     OW29794   1.739   5.597   1.812
 9632SOL    HW129795   1.692   5.511   1.795
 9632SOL    HW229796   1.690   5.649   1.883
 9633SOL     OW29797   3.857   3.374   1.538
 9633SOL    HW129798   3.919   3.448   1.509
 9633SOL    HW229799   3.779   3.370   1.476
 9634SOL     OW29800   6.063   4.913   3.166
 9634SOL    HW129801   6.127   4.853   3.213
 9634SOL    HW229802   5.993   4.857   3.120
 9635SOL     OW29803   0.213   4.808   4.978
 9635SOL    HW129804   0.273   4.811   5.057
 9635SOL    HW229805   0.172   4.899   4.965
 9636SOL     OW29806   3.968   1.100   6.067
 9636SOL    HW129807   3.970   1.113   6.166
 9636SOL    HW229808   3.905   1.025   6.044
 9637SOL     OW29809   2.925   3.461   1.387
 9637SOL    HW129810   2.902   3.447   1.483
 9637SOL    HW229811   2.920   3.559   1.366
 9638SOL     OW29812   0.096   3.820   6.119
 9638SOL    HW129813   0.094   3.920   6.117
 9638SOL    HW229814   0.023   3.786   6.179
 9639SOL     OW29815   4.568   2.601   1.802
 9639SOL    HW129816   4.573   2.507   1.835
 9639SOL    HW229817   4.591   2.604   1.705
 9640SOL     OW29818   3.790   1.068   1.993
 9640SOL    HW129819   3.884   1.036   1.981
 9640SOL    HW229820   3.770   1.076   2.091
 9641SOL     OW29821   4.904   5.654   2.695
 9641SOL    HW129822   4.888   5.649   2.794
 9641SOL    HW229823   4.975   5.721   2.676
 9642SOL     OW29824   1.011   0.262   4.238
 9642SOL    HW129825   1.077   0.211   4.293
 9642SOL    HW229826   1.003   0.219   4.148
 9643SOL     OW29827   4.791   4.077   3.532
 9643SOL    HW129828   4.842   3.996   3.561
 9643SOL    HW229829   4.778   4.139   3.609
 9644SOL     OW29830   1.611   6.235   5.133
 9644SOL    HW129831   1.575   6.238   5.226
 9644SOL    HW229832   1.704   6.200   5.135
 9645SOL     OW29833   1.137   4.045   5.200
 9645SOL    HW129834   1.084   4.126   5.176
 9645SOL    HW229835   1.107   4.011   5.290
 9646SOL     OW29836   2.035   6.235   3.508
 9646SOL    HW129837   1.963   6.167   3.518
 9646SOL    HW229838   2.124   6.191   3.521
 9647SOL     OW29839   6.946   6.603   2.824
 9647SOL    HW129840   6.879   6.635   2.891
 9647SOL    HW229841   0.021   6.620   2.859
 9648SOL     OW29842   5.344   3.279   1.135
 9648SOL    HW129843   5.256   3.325   1.146
 9648SOL    HW229844   5.342   3.190   1.181
 9649SOL     OW29845   2.515   3.838   6.260
 9649SOL    HW129846   2.557   3.819   6.349
 9649SOL    HW229847   2.528   3.759   6.199
 9650SOL     OW29848   5.709   4.959   3.410
 9650SOL    HW129849   5.748   4.989   3.323
 9650SOL    HW229850   5.646   5.029   3.443
 9651SOL     OW29851   3.739   1.685   1.380
 9651SOL    HW129852   3.795   1.635   1.446
 9651SOL    HW229853   3.642   1.670   1.402
 9652SOL     OW29854   0.476   4.684   1.548
 9652SOL    HW129855   0.425   4.747   1.606
 9652SOL    HW229856   0.443   4.691   1.454
 9653SOL     OW29857   4.442   4.413   5.962
 9653SOL    HW129858   4.517   4.350   5.941
 9653SOL    HW229859   4.480   4.501   5.989
 9654SOL     OW29860   3.322   3.384   2.360
 9654SOL    HW129861   3.310   3.296   2.314
 9654SOL    HW229862   3.251   3.447   2.328
 9655SOL     OW29863   0.597   1.834   0.643
 9655SOL    HW129864   0.658   1.792   0.709
 9655SOL    HW229865   0.505   1.795   0.652
 9656SOL     OW29866   4.404   2.152   0.464
 9656SOL    HW129867   4.496   2.142   0.424
 9656SOL    HW229868   4.384   2.073   0.521
 9657SOL     OW29869   5.143   4.230   3.982
 9657SOL    HW129870   5.173   4.136   3.997
 9657SOL    HW229871   5.219   4.284   3.945
 9658SOL     OW29872   5.618   2.133   2.193
 9658SOL    HW129873   5.541   2.184   2.231
 9658SOL    HW229874   5.702   2.163   2.236
 9659SOL     OW29875   1.804   2.124   0.243
 9659SOL    HW129876   1.785   2.166   0.332
 9659SOL    HW229877   1.902   2.109   0.234
 9660SOL     OW29878   0.639   0.337   1.306
 9660SOL    HW129879   0.585   0.410   1.264
 9660SOL    HW229880   0.726   0.374   1.337
 9661SOL     OW29881   4.228   5.622   1.489
 9661SOL    HW129882   4.232   5.524   1.503
 9661SOL    HW229883   4.317   5.663   1.509
 9662SOL     OW29884   5.305   3.574   0.369
 9662SOL    HW129885   5.234   3.624   0.420
 9662SOL    HW229886   5.317   3.483   0.408
 9663SOL     OW29887   0.147   4.409   2.939
 9663SOL    HW129888   0.056   4.410   2.981
 9663SOL    HW229889   0.175   4.314   2.924
 9664SOL     OW29890   5.512   3.929   4.859
 9664SOL    HW129891   5.471   3.998   4.919
 9664SOL    HW229892   5.440   3.879   4.812
 9665SOL     OW29893   6.122   6.166   5.672
 9665SOL    HW129894   6.058   6.237   5.646
 9665SOL    HW229895   6.159   6.123   5.589
 9666SOL     OW29896   6.148   4.082   1.740
 9666SOL    HW129897   6.120   4.169   1.780
 9666SOL    HW229898   6.123   4.081   1.643
 9667SOL     OW29899   4.083   4.064   0.952
 9667SOL    HW129900   4.164   4.099   0.906
 9667SOL    HW229901   4.002   4.085   0.896
 9668SOL     OW29902   1.346   1.266   6.092
 9668SOL    HW129903   1.276   1.305   6.032
 9668SOL    HW229904   1.313   1.179   6.128
 9669SOL     OW29905   2.487   6.598   1.040
 9669SOL    HW129906   2.507   6.558   1.129
 9669SOL    HW229907   2.435   6.682   1.052
 9670SOL     OW29908   0.251   5.598   5.232
 9670SOL    HW129909   0.176   5.532   5.228
 9670SOL    HW229910   0.224   5.682   5.183
 9671SOL     OW29911   0.024   5.032   0.497
 9671SOL    HW129912   6.967   4.977   0.458
 9671SOL    HW229913   0.029   5.120   0.449
 9672SOL     OW29914   1.784   4.717   3.085
 9672SOL    HW129915   1.829   4.803   3.063
 9672SOL    HW229916   1.839   4.641   3.053
 9673SOL     OW29917   3.610   3.816   1.166
 9673SOL    HW129918   3.549   3.770   1.101
 9673SOL    HW229919   3.705   3.798   1.141
 9674SOL     OW29920   3.824   6.203   2.889
 9674SOL    HW129921   3.754   6.163   2.948
 9674SOL    HW229922   3.879   6.268   2.941
 9675SOL     OW29923   4.682   3.212   6.822
 9675SOL    HW129924   4.776   3.240   6.841
 9675SOL    HW229925   4.679   3.162   6.735
 9676SOL     OW29926   1.465   3.304   5.381
 9676SOL    HW129927   1.403   3.364   5.431
 9676SOL    HW229928   1.558   3.316   5.415
 9677SOL     OW29929   6.869   5.197   6.361
 9677SOL    HW129930   6.899   5.179   6.455
 9677SOL    HW229931   6.894   5.290   6.336
 9678SOL     OW29932   3.239   3.802   4.225
 9678SOL    HW129933   3.286   3.812   4.313
 9678SOL    HW229934   3.159   3.862   4.223
 9679SOL     OW29935   2.845   0.961   4.321
 9679SOL    HW129936   2.935   1.003   4.310
 9679SOL    HW229937   2.856   0.865   4.347
 9680SOL     OW29938   4.449   6.909   5.709
 9680SOL    HW129939   4.394   6.952   5.781
 9680SOL    HW229940   4.507   6.838   5.749
 9681SOL     OW29941   3.455   2.000   0.630
 9681SOL    HW129942   3.416   2.089   0.652
 9681SOL    HW229943   3.537   1.985   0.685
 9682SOL     OW29944   4.788   4.041   3.932
 9682SOL    HW129945   4.780   4.070   4.027
 9682SOL    HW229946   4.733   4.100   3.873
 9683SOL     OW29947   3.002   6.090   0.700
 9683SOL    HW129948   2.964   6.030   0.630
 9683SOL    HW229949   2.979   6.054   0.790
 9684SOL     OW29950   0.452   3.966   4.998
 9684SOL    HW129951   0.396   3.883   4.999
 9684SOL    HW229952   0.400   4.040   4.955
 9685SOL     OW29953   4.888   3.152   0.512
 9685SOL    HW129954   4.796   3.116   0.493
 9685SOL    HW229955   4.916   3.214   0.439
 9686SOL     OW29956   0.911   2.859   6.799
 9686SOL    HW129957   0.888   2.827   6.707
 9686SOL    HW229958   0.930   2.957   6.797
 9687SOL     OW29959   6.407   0.832   2.060
 9687SOL    HW129960   6.316   0.812   2.023
 9687SOL    HW229961   6.398   0.884   2.145
 9688SOL     OW29962   0.843   3.174   0.618
 9688SOL    HW129963   0.888   3.227   0.545
 9688SOL    HW229964   0.746   3.199   0.621
 9689SOL     OW29965   0.750   4.162   6.435
 9689SOL    HW129966   0.819   4.235   6.426
 9689SOL    HW229967   0.730   4.148   6.532
 9690SOL     OW29968   4.685   6.326   5.725
 9690SOL    HW129969   4.748   6.308   5.650
 9690SOL    HW229970   4.641   6.415   5.711
 9691SOL     OW29971   3.088   4.096   1.820
 9691SOL    HW129972   3.078   4.030   1.895
 9691SOL    HW229973   3.009   4.157   1.820
 9692SOL     OW29974   4.845   6.152   1.116
 9692SOL    HW129975   4.773   6.111   1.060
 9692SOL    HW229976   4.868   6.091   1.191
 9693SOL     OW29977   5.587   4.309   3.375
 9693SOL    HW129978   5.522   4.301   3.300
 9693SOL    HW229979   5.676   4.274   3.346
 9694SOL     OW29980   3.731   0.994   2.263
 9694SOL    HW129981   3.633   1.012   2.273
 9694SOL    HW229982   3.747   0.896   2.267
 9695SOL     OW29983   6.832   2.720   3.275
 9695SOL    HW129984   6.866   2.814   3.266
 9695SOL    HW229985   6.779   2.696   3.194
 9696SOL     OW29986   6.088   2.349   1.888
 9696SOL    HW129987   6.139   2.295   1.821
 9696SOL    HW229988   6.015   2.399   1.843
 9697SOL     OW29989   0.398   6.389   0.690
 9697SOL    HW129990   0.347   6.305   0.677
 9697SOL    HW229991   0.475   6.392   0.627
 9698SOL     OW29992   5.306   3.032   6.088
 9698SOL    HW129993   5.382   3.089   6.117
 9698SOL    HW229994   5.238   3.026   6.161
 9699SOL     OW29995   0.752   5.597   0.320
 9699SOL    HW129996   0.831   5.642   0.279
 9699SOL    HW229997   0.684   5.665   0.348
 9700SOL     OW29998   6.351   5.541   4.892
 9700SOL    HW129999   6.333   5.455   4.940
 9700SOL    HW230000   6.349   5.617   4.957
 9701SOL     OW30001   4.336   3.928   5.736
 9701SOL    HW130002   4.347   3.829   5.737
 9701SOL    HW230003   4.408   3.969   5.679
 9702SOL     OW30004   4.393   2.283   0.040
 9702SOL    HW130005   4.330   2.244   6.991
 9702SOL    HW230006   4.485   2.247   0.023
 9703SOL     OW30007   4.984   3.911   4.226
 9703SOL    HW130008   5.030   3.901   4.138
 9703SOL    HW230009   4.917   3.838   4.237
 9704SOL     OW30010   3.585   5.589   2.515
 9704SOL    HW130011   3.523   5.667   2.504
 9704SOL    HW230012   3.586   5.560   2.611
 9705SOL     OW30013   5.345   4.505   5.845
 9705SOL    HW130014   5.312   4.575   5.782
 9705SOL    HW230015   5.290   4.508   5.929
 9706SOL     OW30016   2.809   2.114   1.529
 9706SOL    HW130017   2.781   2.148   1.618
 9706SOL    HW230018   2.906   2.132   1.514
 9707SOL     OW30019   5.385   5.125   2.072
 9707SOL    HW130020   5.299   5.110   2.024
 9707SOL    HW230021   5.370   5.128   2.170
 9708SOL     OW30022   0.863   1.540   3.086
 9708SOL    HW130023   0.850   1.631   3.047
 9708SOL    HW230024   0.777   1.489   3.080
 9709SOL     OW30025   5.520   4.769   2.014
 9709SOL    HW130026   5.554   4.675   2.020
 9709SOL    HW230027   5.431   4.774   2.058
 9710SOL     OW30028   6.376   0.917   1.120
 9710SOL    HW130029   6.413   0.930   1.027
 9710SOL    HW230030   6.385   1.002   1.171
 9711SOL     OW30031   3.840   5.581   6.468
 9711SOL    HW130032   3.792   5.494   6.474
 9711SOL    HW230033   3.790   5.643   6.406
 9712SOL     OW30034   5.836   3.225   0.312
 9712SOL    HW130035   5.814   3.182   0.225
 9712SOL    HW230036   5.878   3.157   0.373
 9713SOL     OW30037   2.620   5.392   3.586
 9713SOL    HW130038   2.547   5.331   3.620
 9713SOL    HW230039   2.670   5.430   3.664
 9714SOL     OW30040   3.937   6.534   6.332
 9714SOL    HW130041   4.005   6.585   6.279
 9714SOL    HW230042   3.955   6.436   6.322
 9715SOL     OW30043   5.931   4.167   6.905
 9715SOL    HW130044   5.919   4.081   6.855
 9715SOL    HW230045   5.862   4.173   6.978
 9716SOL     OW30046   3.407   4.877   0.148
 9716SOL    HW130047   3.470   4.807   0.114
 9716SOL    HW230048   3.317   4.865   0.106
 9717SOL     OW30049   4.754   6.209   6.561
 9717SOL    HW130050   4.805   6.199   6.646
 9717SOL    HW230051   4.792   6.285   6.507
 9718SOL     OW30052   4.836   3.034   1.217
 9718SOL    HW130053   4.865   3.051   1.123
 9718SOL    HW230054   4.737   3.047   1.224
 9719SOL     OW30055   5.362   6.981   6.033
 9719SOL    HW130056   5.372   6.905   6.098
 9719SOL    HW230057   5.284   6.963   5.973
 9720SOL     OW30058   0.938   3.447   2.462
 9720SOL    HW130059   1.038   3.440   2.454
 9720SOL    HW230060   0.900   3.475   2.374
 9721SOL     OW30061   0.034   1.109   6.845
 9721SOL    HW130062   0.078   1.173   6.909
 9721SOL    HW230063   6.952   1.117   6.853
 9722SOL     OW30064   3.284   0.605   5.303
 9722SOL    HW130065   3.289   0.582   5.206
 9722SOL    HW230066   3.283   0.704   5.314
 9723SOL     OW30067   4.577   5.746   4.161
 9723SOL    HW130068   4.483   5.716   4.145
 9723SOL    HW230069   4.640   5.671   4.140
 9724SOL     OW30070   1.507   4.560   0.400
 9724SOL    HW130071   1.488   4.652   0.434
 9724SOL    HW230072   1.536   4.565   0.304
 9725SOL     OW30073   3.895   6.689   6.561
 9725SOL    HW130074   3.854   6.660   6.475
 9725SOL    HW230075   3.841   6.654   6.637
 9726SOL     OW30076   4.840   1.787   4.424
 9726SOL    HW130077   4.835   1.720   4.350
 9726SOL    HW230078   4.787   1.754   4.502
 9727SOL     OW30079   1.215   2.002   6.466
 9727SOL    HW130080   1.238   2.088   6.420
 9727SOL    HW230081   1.278   1.987   6.542
 9728SOL     OW30082   0.455   1.633   4.963
 9728SOL    HW130083   0.406   1.558   5.007
 9728SOL    HW230084   0.397   1.673   4.892
 9729SOL     OW30085   1.791   4.716   3.642
 9729SOL    HW130086   1.785   4.627   3.598
 9729SOL    HW230087   1.701   4.760   3.642
 9730SOL     OW30088   1.305   4.616   3.473
 9730SOL    HW130089   1.286   4.695   3.532
 9730SOL    HW230090   1.394   4.577   3.499
 9731SOL     OW30091   4.998   5.332   1.513
 9731SOL    HW130092   4.908   5.299   1.542
 9731SOL    HW230093   5.069   5.273   1.553
 9732SOL     OW30094   1.161   3.748   2.058
 9732SOL    HW130095   1.225   3.682   2.098
 9732SOL    HW230096   1.170   3.835   2.105
 9733SOL     OW30097   5.494   5.414   6.940
 9733SOL    HW130098   5.497   5.514   6.945
 9733SOL    HW230099   5.400   5.384   6.924
 9734SOL     OW30100   6.667   6.918   0.354
 9734SOL    HW130101   6.577   6.909   0.312
 9734SOL    HW230102   6.718   6.991   0.307
 9735SOL     OW30103   1.314   3.011   3.406
 9735SOL    HW130104   1.375   3.014   3.484
 9735SOL    HW230105   1.360   2.967   3.329
 9736SOL     OW30106   5.635   2.049   6.400
 9736SOL    HW130107   5.562   1.983   6.384
 9736SOL    HW230108   5.662   2.091   6.314
 9737SOL     OW30109   5.222   2.297   2.742
 9737SOL    HW130110   5.273   2.225   2.788
 9737SOL    HW230111   5.234   2.287   2.643
 9738SOL     OW30112   1.800   6.565   0.915
 9738SOL    HW130113   1.875   6.552   0.980
 9738SOL    HW230114   1.837   6.579   0.823
 9739SOL     OW30115   5.123   5.443   0.403
 9739SOL    HW130116   5.031   5.474   0.377
 9739SOL    HW230117   5.156   5.377   0.335
 9740SOL     OW30118   0.046   1.300   3.074
 9740SOL    HW130119   7.005   1.334   3.000
 9740SOL    HW230120   0.083   1.378   3.126
 9741SOL     OW30121   2.495   1.064   3.376
 9741SOL    HW130122   2.558   0.994   3.409
 9741SOL    HW230123   2.539   1.116   3.302
 9742SOL     OW30124   4.454   1.258   0.603
 9742SOL    HW130125   4.429   1.163   0.586
 9742SOL    HW230126   4.490   1.298   0.518
 9743SOL     OW30127   6.745   4.129   2.968
 9743SOL    HW130128   6.684   4.089   3.036
 9743SOL    HW230129   6.773   4.220   2.997
 9744SOL     OW30130   1.859   0.077   2.593
 9744SOL    HW130131   1.791   0.075   2.666
 9744SOL    HW230132   1.950   0.058   2.632
 9745SOL     OW30133   4.560   2.983   6.365
 9745SOL    HW130134   4.472   3.032   6.362
 9745SOL    HW230135   4.568   2.925   6.284
 9746SOL     OW30136   5.467   6.493   5.730
 9746SOL    HW130137   5.471   6.394   5.734
 9746SOL    HW230138   5.376   6.525   5.758
 9747SOL     OW30139   3.045   2.099   1.905
 9747SOL    HW130140   3.119   2.142   1.852
 9747SOL    HW230141   2.995   2.170   1.955
 9748SOL     OW30142   6.732   6.470   3.424
 9748SOL    HW130143   6.677   6.518   3.355
 9748SOL    HW230144   6.764   6.535   3.493
 9749SOL     OW30145   0.512   1.186   3.821
 9749SOL    HW130146   0.612   1.188   3.822
 9749SOL    HW230147   0.480   1.107   3.874
 9750SOL     OW30148   5.811   5.253   3.403
 9750SOL    HW130149   5.814   5.327   3.336
 9750SOL    HW230150   5.758   5.282   3.483
 9751SOL     OW30151   2.237   6.713   0.803
 9751SOL    HW130152   2.307   6.736   0.735
 9751SOL    HW230153   2.275   6.722   0.895
 9752SOL     OW30154   4.656   1.645   5.488
 9752SOL    HW130155   4.572   1.685   5.524
 9752SOL    HW230156   4.653   1.546   5.495
 9753SOL     OW30157   0.805   5.404   5.773
 9753SOL    HW130158   0.786   5.370   5.681
 9753SOL    HW230159   0.766   5.342   5.841
 9754SOL     OW30160   2.900   0.962   0.553
 9754SOL    HW130161   2.976   0.959   0.619
 9754SOL    HW230162   2.933   0.935   0.463
 9755SOL     OW30163   3.031   3.976   4.256
 9755SOL    HW130164   2.968   4.031   4.202
 9755SOL    HW230165   3.025   4.003   4.352
 9756SOL     OW30166   6.329   2.758   6.537
 9756SOL    HW130167   6.414   2.771   6.486
 9756SOL    HW230168   6.341   2.684   6.603
 9757SOL     OW30169   5.966   4.552   4.893
 9757SOL    HW130170   5.922   4.468   4.925
 9757SOL    HW230171   5.987   4.611   4.971
 9758SOL     OW30172   2.172   1.354   0.404
 9758SOL    HW130173   2.120   1.392   0.481
 9758SOL    HW230174   2.135   1.264   0.381
 9759SOL     OW30175   1.057   1.107   0.473
 9759SOL    HW130176   1.006   1.046   0.413
 9759SOL    HW230177   1.042   1.081   0.568
 9760SOL     OW30178   4.846   3.112   5.483
 9760SOL    HW130179   4.877   3.206   5.470
 9760SOL    HW230180   4.831   3.095   5.581
 9761SOL     OW30181   0.713   2.494   1.850
 9761SOL    HW130182   0.672   2.577   1.812
 9761SOL    HW230183   0.787   2.519   1.912
 9762SOL     OW30184   3.629   1.753   5.038
 9762SOL    HW130185   3.537   1.770   5.004
 9762SOL    HW230186   3.695   1.766   4.964
 9763SOL     OW30187   5.322   1.025   3.678
 9763SOL    HW130188   5.247   1.085   3.651
 9763SOL    HW230189   5.407   1.077   3.680
 9764SOL     OW30190   6.487   2.585   2.582
 9764SOL    HW130191   6.397   2.627   2.584
 9764SOL    HW230192   6.488   2.509   2.517
 9765SOL     OW30193   6.922   6.361   2.974
 9765SOL    HW130194   6.966   6.431   2.917
 9765SOL    HW230195   6.831   6.392   3.001
 9766SOL     OW30196   2.289   6.257   1.814
 9766SOL    HW130197   2.245   6.286   1.729
 9766SOL    HW230198   2.249   6.307   1.891
 9767SOL     OW30199   2.334   2.345   5.742
 9767SOL    HW130200   2.344   2.307   5.650
 9767SOL    HW230201   2.311   2.442   5.736
 9768SOL     OW30202   4.567   1.317   1.901
 9768SOL    HW130203   4.532   1.239   1.849
 9768SOL    HW230204   4.494   1.384   1.913
 9769SOL     OW30205   3.396   1.399   4.549
 9769SOL    HW130206   3.375   1.442   4.637
 9769SOL    HW230207   3.470   1.449   4.504
 9770SOL     OW30208   4.175   0.939   5.348
 9770SOL    HW130209   4.099   0.972   5.404
 9770SOL    HW230210   4.140   0.875   5.279
 9771SOL     OW30211   2.224   5.523   1.026
 9771SOL    HW130212   2.234   5.486   1.118
 9771SOL    HW230213   2.309   5.511   0.975
 9772SOL     OW30214   1.728   6.069   1.848
 9772SOL    HW130215   1.800   6.136   1.826
 9772SOL    HW230216   1.638   6.110   1.829
 9773SOL     OW30217   4.922   5.503   3.697
 9773SOL    HW130218   4.985   5.432   3.727
 9773SOL    HW230219   4.925   5.510   3.597
 9774SOL     OW30220   0.138   5.371   2.871
 9774SOL    HW130221   0.127   5.358   2.772
 9774SOL    HW230222   0.182   5.458   2.889
 9775SOL     OW30223   3.194   0.143   3.632
 9775SOL    HW130224   3.277   0.104   3.593
 9775SOL    HW230225   3.175   0.101   3.721
 9776SOL     OW30226   1.049   5.181   5.882
 9776SOL    HW130227   1.085   5.137   5.800
 9776SOL    HW230228   1.025   5.276   5.861
 9777SOL     OW30229   6.177   5.073   1.030
 9777SOL    HW130230   6.258   5.131   1.027
 9777SOL    HW230231   6.118   5.093   0.952
 9778SOL     OW30232   7.007   1.236   4.785
 9778SOL    HW130233   0.061   1.266   4.848
 9778SOL    HW230234   6.976   1.314   4.731
 9779SOL     OW30235   0.683   1.694   4.167
 9779SOL    HW130236   0.746   1.618   4.152
 9779SOL    HW230237   0.684   1.753   4.087
 9780SOL     OW30238   2.276   1.964   0.361
 9780SOL    HW130239   2.271   1.865   0.347
 9780SOL    HW230240   2.370   1.995   0.350
 9781SOL     OW30241   2.070   3.095   4.706
 9781SOL    HW130242   2.027   3.063   4.791
 9781SOL    HW230243   2.101   3.016   4.653
 9782SOL     OW30244   0.746   2.039   0.104
 9782SOL    HW130245   0.764   2.051   0.006
 9782SOL    HW230246   0.673   2.102   0.132
 9783SOL     OW30247   4.392   2.444   3.062
 9783SOL    HW130248   4.437   2.507   2.999
 9783SOL    HW230249   4.333   2.381   3.011
 9784SOL     OW30250   3.832   0.834   5.960
 9784SOL    HW130251   3.884   0.813   6.043
 9784SOL    HW230252   3.754   0.771   5.952
 9785SOL     OW30253   0.144   1.935   5.395
 9785SOL    HW130254   0.190   2.023   5.408
 9785SOL    HW230255   0.205   1.872   5.348
 9786SOL     OW30256   2.188   3.448   0.411
 9786SOL    HW130257   2.266   3.511   0.406
 9786SOL    HW230258   2.105   3.496   0.382
 9787SOL     OW30259   3.361   3.019   2.493
 9787SOL    HW130260   3.361   2.996   2.590
 9787SOL    HW230261   3.455   3.015   2.458
 9788SOL     OW30262   0.914   6.754   2.326
 9788SOL    HW130263   0.911   6.824   2.397
 9788SOL    HW230264   0.822   6.717   2.311
 9789SOL     OW30265   1.392   5.819   0.133
 9789SOL    HW130266   1.422   5.786   0.223
 9789SOL    HW230267   1.372   5.916   0.139
 9790SOL     OW30268   6.430   4.449   6.182
 9790SOL    HW130269   6.397   4.389   6.255
 9790SOL    HW230270   6.490   4.397   6.121
 9791SOL     OW30271   0.668   6.917   6.775
 9791SOL    HW130272   0.670   6.994   6.839
 9791SOL    HW230273   0.696   6.834   6.822
 9792SOL     OW30274   2.923   4.390   0.190
 9792SOL    HW130275   2.846   4.400   0.126
 9792SOL    HW230276   2.892   4.412   0.283
 9793SOL     OW30277   4.694   0.289   2.554
 9793SOL    HW130278   4.666   0.211   2.498
 9793SOL    HW230279   4.689   0.265   2.651
 9794SOL     OW30280   6.200   4.122   6.033
 9794SOL    HW130281   6.297   4.128   6.009
 9794SOL    HW230282   6.160   4.214   6.033
 9795SOL     OW30283   1.423   2.239   4.718
 9795SOL    HW130284   1.449   2.334   4.734
 9795SOL    HW230285   1.502   2.179   4.732
 9796SOL     OW30286   4.126   3.431   2.600
 9796SOL    HW130287   4.110   3.387   2.689
 9796SOL    HW230288   4.111   3.365   2.527
 9797SOL     OW30289   1.958   5.703   0.061
 9797SOL    HW130290   2.000   5.689   6.989
 9797SOL    HW230291   1.903   5.786   0.060
 9798SOL     OW30292   2.724   0.857   2.543
 9798SOL    HW130293   2.769   0.930   2.491
 9798SOL    HW230294   2.665   0.804   2.481
 9799SOL     OW30295   3.001   4.308   5.829
 9799SOL    HW130296   2.945   4.228   5.848
 9799SOL    HW230297   3.030   4.350   5.916
 9800SOL     OW30298   4.857   5.246   5.088
 9800SOL    HW130299   4.779   5.207   5.136
 9800SOL    HW230300   4.929   5.268   5.154
 9801SOL     OW30301   4.589   4.327   6.812
 9801SOL    HW130302   4.520   4.257   6.798
 9801SOL    HW230303   4.563   4.383   6.891
 9802SOL     OW30304   6.033   4.880   0.822
 9802SOL    HW130305   5.973   4.832   0.758
 9802SOL    HW230306   6.094   4.814   0.866
 9803SOL     OW30307   1.969   2.888   6.474
 9803SOL    HW130308   2.069   2.889   6.475
 9803SOL    HW230309   1.936   2.864   6.383
 9804SOL     OW30310   0.855   6.636   3.345
 9804SOL    HW130311   0.769   6.609   3.301
 9804SOL    HW230312   0.837   6.664   3.439
 9805SOL     OW30313   0.385   6.583   2.689
 9805SOL    HW130314   0.466   6.638   2.709
 9805SOL    HW230315   0.326   6.633   2.626
 9806SOL     OW30316   1.543   1.821   6.786
 9806SOL    HW130317   1.632   1.860   6.809
 9806SOL    HW230318   1.493   1.800   6.869
 9807SOL     OW30319   2.999   3.836   1.156
 9807SOL    HW130320   3.028   3.823   1.250
 9807SOL    HW230321   2.991   3.747   1.111
 9808SOL     OW30322   4.121   6.015   5.201
 9808SOL    HW130323   4.055   6.029   5.127
 9808SOL    HW230324   4.074   6.023   5.289
 9809SOL     OW30325   1.003   3.161   6.741
 9809SOL    HW130326   1.086   3.148   6.795
 9809SOL    HW230327   1.003   3.252   6.699
 9810SOL     OW30328   3.204   2.077   4.853
 9810SOL    HW130329   3.219   2.109   4.760
 9810SOL    HW230330   3.177   2.153   4.911
 9811SOL     OW30331   5.767   4.881   3.671
 9811SOL    HW130332   5.752   4.919   3.580
 9811SOL    HW230333   5.680   4.849   3.709
 9812SOL     OW30334   3.320   1.433   5.397
 9812SOL    HW130335   3.332   1.527   5.428
 9812SOL    HW230336   3.390   1.375   5.437
 9813SOL     OW30337   5.203   1.915   0.848
 9813SOL    HW130338   5.239   1.855   0.776
 9813SOL    HW230339   5.235   2.008   0.832
 9814SOL     OW30340   0.264   0.126   6.609
 9814SOL    HW130341   0.332   0.171   6.668
 9814SOL    HW230342   0.311   0.075   6.537
 9815SOL     OW30343   4.873   3.373   4.499
 9815SOL    HW130344   4.850   3.342   4.592
 9815SOL    HW230345   4.864   3.297   4.435
 9816SOL     OW30346   0.508   0.867   5.685
 9816SOL    HW130347   0.495   0.893   5.590
 9816SOL    HW230348   0.515   0.950   5.742
 9817SOL     OW30349   1.651   6.720   3.223
 9817SOL    HW130350   1.598   6.640   3.252
 9817SOL    HW230351   1.683   6.707   3.130
 9818SOL     OW30352   6.764   0.938   4.093
 9818SOL    HW130353   6.761   1.030   4.132
 9818SOL    HW230354   6.679   0.919   4.044
 9819SOL     OW30355   5.331   3.495   3.713
 9819SOL    HW130356   5.309   3.435   3.637
 9819SOL    HW230357   5.396   3.565   3.683
 9820SOL     OW30358   3.269   3.073   6.894
 9820SOL    HW130359   3.318   3.125   6.824
 9820SOL    HW230360   3.188   3.124   6.922
 9821SOL     OW30361   5.658   1.466   6.421
 9821SOL    HW130362   5.649   1.369   6.398
 9821SOL    HW230363   5.572   1.514   6.399
 9822SOL     OW30364   1.737   0.315   3.410
 9822SOL    HW130365   1.736   0.329   3.311
 9822SOL    HW230366   1.644   0.319   3.445
 9823SOL     OW30367   2.488   0.546   0.340
 9823SOL    HW130368   2.501   0.567   0.437
 9823SOL    HW230369   2.550   0.602   0.286
 9824SOL     OW30370   2.302   4.842   4.843
 9824SOL    HW130371   2.327   4.770   4.908
 9824SOL    HW230372   2.367   4.843   4.767
 9825SOL     OW30373   4.122   5.180   6.030
 9825SOL    HW130374   4.125   5.253   6.098
 9825SOL    HW230375   4.111   5.219   5.939
 9826SOL     OW30376   5.190   5.111   5.978
 9826SOL    HW130377   5.255   5.174   5.934
 9826SOL    HW230378   5.097   5.138   5.954
 9827SOL     OW30379   1.994   3.738   3.738
 9827SOL    HW130380   1.911   3.683   3.726
 9827SOL    HW230381   2.070   3.677   3.760
 9828SOL     OW30382   2.486   3.061   6.342
 9828SOL    HW130383   2.442   3.039   6.255
 9828SOL    HW230384   2.480   2.982   6.403
 9829SOL     OW30385   3.782   5.817   6.821
 9829SOL    HW130386   3.734   5.742   6.867
 9829SOL    HW230387   3.822   5.783   6.736
 9830SOL     OW30388   6.284   2.720   2.032
 9830SOL    HW130389   6.318   2.626   2.035
 9830SOL    HW230390   6.258   2.749   2.124
 9831SOL     OW30391   1.938   5.473   1.172
 9831SOL    HW130392   1.981   5.391   1.136
 9831SOL    HW230393   1.847   5.484   1.130
 9832SOL     OW30394   4.952   5.353   2.739
 9832SOL    HW130395   4.894   5.312   2.810
 9832SOL    HW230396   4.897   5.412   2.680
 9833SOL     OW30397   3.901   3.878   5.241
 9833SOL    HW130398   3.982   3.863   5.298
 9833SOL    HW230399   3.894   3.805   5.173
 9834SOL     OW30400   3.193   4.580   5.333
 9834SOL    HW130401   3.104   4.560   5.292
 9834SOL    HW230402   3.251   4.499   5.329
 9835SOL     OW30403   3.400   2.963   5.613
 9835SOL    HW130404   3.397   2.910   5.528
 9835SOL    HW230405   3.434   2.905   5.687
 9836SOL     OW30406   6.033   4.446   4.079
 9836SOL    HW130407   6.112   4.435   4.019
 9836SOL    HW230408   6.024   4.367   4.139
 9837SOL     OW30409   3.404   0.440   3.189
 9837SOL    HW130410   3.345   0.436   3.108
 9837SOL    HW230411   3.499   0.422   3.161
 9838SOL     OW30412   1.102   6.671   6.106
 9838SOL    HW130413   1.084   6.603   6.036
 9838SOL    HW230414   1.147   6.627   6.184
 9839SOL     OW30415   6.034   1.348   3.853
 9839SOL    HW130416   6.005   1.363   3.759
 9839SOL    HW230417   5.964   1.385   3.915
 9840SOL     OW30418   6.837   1.874   1.168
 9840SOL    HW130419   6.913   1.908   1.223
 9840SOL    HW230420   6.836   1.922   1.080
 9841SOL     OW30421   2.004   4.221   4.607
 9841SOL    HW130422   1.946   4.140   4.605
 9841SOL    HW230423   2.096   4.196   4.639
 9842SOL     OW30424   4.108   3.174   2.457
 9842SOL    HW130425   4.071   3.166   2.549
 9842SOL    HW230426   4.152   3.087   2.432
 9843SOL     OW30427   5.300   0.924   1.122
 9843SOL    HW130428   5.333   0.895   1.212
 9843SOL    HW230429   5.234   0.857   1.087
 9844SOL     OW30430   5.959   0.900   1.797
 9844SOL    HW130431   5.869   0.857   1.811
 9844SOL    HW230432   5.946   0.993   1.762
 9845SOL     OW30433   2.826   2.339   4.208
 9845SOL    HW130434   2.796   2.374   4.119
 9845SOL    HW230435   2.904   2.278   4.195
 9846SOL     OW30436   3.894   3.379   1.795
 9846SOL    HW130437   3.905   3.375   1.696
 9846SOL    HW230438   3.797   3.376   1.818
 9847SOL     OW30439   3.463   2.923   4.399
 9847SOL    HW130440   3.546   2.969   4.431
 9847SOL    HW230441   3.425   2.867   4.473
 9848SOL     OW30442   3.030   3.499   5.788
 9848SOL    HW130443   3.028   3.432   5.862
 9848SOL    HW230444   2.936   3.526   5.765
 9849SOL     OW30445   0.757   0.174   6.932
 9849SOL    HW130446   0.808   0.165   7.017
 9849SOL    HW230447   0.660   0.158   6.950
 9850SOL     OW30448   5.559   0.033   3.908
 9850SOL    HW130449   5.631   0.022   3.977
 9850SOL    HW230450   5.555   0.129   3.879
 9851SOL     OW30451   4.904   0.928   5.098
 9851SOL    HW130452   4.810   0.937   5.132
 9851SOL    HW230453   4.937   0.834   5.114
 9852SOL     OW30454   4.286   2.049   2.664
 9852SOL    HW130455   4.301   1.951   2.653
 9852SOL    HW230456   4.237   2.084   2.584
 9853SOL     OW30457   5.185   4.263   4.847
 9853SOL    HW130458   5.176   4.174   4.892
 9853SOL    HW230459   5.231   4.327   4.908
 9854SOL     OW30460   0.364   6.054   4.596
 9854SOL    HW130461   0.422   6.123   4.640
 9854SOL    HW230462   0.269   6.087   4.593
 9855SOL     OW30463   2.292   2.927   0.899
 9855SOL    HW130464   2.280   2.847   0.840
 9855SOL    HW230465   2.307   3.008   0.842
 9856SOL     OW30466   5.060   4.497   5.347
 9856SOL    HW130467   5.042   4.509   5.445
 9856SOL    HW230468   5.002   4.560   5.295
 9857SOL     OW30469   4.405   2.346   3.323
 9857SOL    HW130470   4.403   2.379   3.229
 9857SOL    HW230471   4.492   2.301   3.341
 9858SOL     OW30472   0.340   0.783   0.832
 9858SOL    HW130473   0.243   0.803   0.819
 9858SOL    HW230474   0.354   0.685   0.837
 9859SOL     OW30475   6.433   6.963   1.739
 9859SOL    HW130476   6.334   6.973   1.739
 9859SOL    HW230477   6.457   6.868   1.757
 9860SOL     OW30478   1.052   1.493   3.792
 9860SOL    HW130479   0.957   1.487   3.823
 9860SOL    HW230480   1.058   1.553   3.713
 9861SOL     OW30481   3.259   0.125   3.277
 9861SOL    HW130482   3.206   0.081   3.204
 9861SOL    HW230483   3.202   0.194   3.322
 9862SOL     OW30484   3.609   3.981   0.133
 9862SOL    HW130485   3.578   4.076   0.123
 9862SOL    HW230486   3.557   3.937   0.206
 9863SOL     OW30487   3.123   0.313   2.530
 9863SOL    HW130488   3.096   0.222   2.498
 9863SOL    HW230489   3.217   0.331   2.503
 9864SOL     OW30490   3.851   6.802   4.058
 9864SOL    HW130491   3.880   6.838   3.969
 9864SOL    HW230492   3.822   6.707   4.047
 9865SOL     OW30493   1.439   1.060   4.204
 9865SOL    HW130494   1.522   1.099   4.165
 9865SOL    HW230495   1.463   0.992   4.273
 9866SOL     OW30496   4.729   4.913   6.409
 9866SOL    HW130497   4.652   4.974   6.391
 9866SOL    HW230498   4.815   4.962   6.392
 9867SOL     OW30499   6.230   0.996   0.563
 9867SOL    HW130500   6.184   0.997   0.652
 9867SOL    HW230501   6.173   1.042   0.495
 9868SOL     OW30502   0.566   3.638   6.052
 9868SOL    HW130503   0.495   3.704   6.077
 9868SOL    HW230504   0.595   3.588   6.134
 9869SOL     OW30505   1.704   3.201   2.275
 9869SOL    HW130506   1.755   3.116   2.293
 9869SOL    HW230507   1.625   3.180   2.217
 9870SOL     OW30508   3.803   5.459   2.446
 9870SOL    HW130509   3.724   5.503   2.488
 9870SOL    HW230510   3.871   5.528   2.422
 9871SOL     OW30511   0.117   5.731   5.832
 9871SOL    HW130512   0.067   5.682   5.760
 9871SOL    HW230513   0.211   5.697   5.837
 9872SOL     OW30514   2.265   4.892   4.254
 9872SOL    HW130515   2.191   4.919   4.315
 9872SOL    HW230516   2.267   4.792   4.246
 9873SOL     OW30517   2.448   2.489   0.078
 9873SOL    HW130518   2.433   2.540   7.011
 9873SOL    HW230519   2.512   2.539   0.136
 9874SOL     OW30520   6.894   3.444   4.884
 9874SOL    HW130521   6.902   3.366   4.821
 9874SOL    HW230522   6.881   3.528   4.831
 9875SOL     OW30523   6.248   5.792   1.911
 9875SOL    HW130524   6.301   5.719   1.868
 9875SOL    HW230525   6.154   5.762   1.925
 9876SOL     OW30526   6.503   0.529   3.007
 9876SOL    HW130527   6.469   0.479   2.927
 9876SOL    HW230528   6.591   0.571   2.985
 9877SOL     OW30529   6.837   6.476   3.733
 9877SOL    HW130530   6.767   6.409   3.759
 9877SOL    HW230531   6.828   6.558   3.791
 9878SOL     OW30532   2.582   4.616   5.135
 9878SOL    HW130533   2.659   4.644   5.077
 9878SOL    HW230534   2.614   4.603   5.229
 9879SOL     OW30535   5.771   5.402   4.956
 9879SOL    HW130536   5.718   5.328   4.998
 9879SOL    HW230537   5.713   5.449   4.888
 9880SOL     OW30538   3.165   0.864   5.706
 9880SOL    HW130539   3.112   0.915   5.773
 9880SOL    HW230540   3.184   0.772   5.741
 9881SOL     OW30541   0.771   0.914   5.040
 9881SOL    HW130542   0.766   0.882   4.945
 9881SOL    HW230543   0.766   1.013   5.042
 9882SOL     OW30544   0.970   3.947   3.613
 9882SOL    HW130545   0.968   3.988   3.521
 9882SOL    HW230546   0.993   3.850   3.606
 9883SOL     OW30547   1.371   6.822   0.433
 9883SOL    HW130548   1.427   6.859   0.359
 9883SOL    HW230549   1.430   6.778   0.501
 9884SOL     OW30550   5.147   2.192   1.822
 9884SOL    HW130551   5.140   2.098   1.787
 9884SOL    HW230552   5.057   2.224   1.850
 9885SOL     OW30553   6.480   2.390   4.927
 9885SOL    HW130554   6.431   2.313   4.888
 9885SOL    HW230555   6.416   2.448   4.979
 9886SOL     OW30556   1.292   4.598   2.928
 9886SOL    HW130557   1.262   4.685   2.891
 9886SOL    HW230558   1.334   4.612   3.018
 9887SOL     OW30559   3.898   0.416   6.346
 9887SOL    HW130560   3.849   0.330   6.337
 9887SOL    HW230561   3.960   0.411   6.424
 9888SOL     OW30562   5.499   4.582   2.909
 9888SOL    HW130563   5.559   4.594   2.830
 9888SOL    HW230564   5.425   4.649   2.905
 9889SOL     OW30565   6.724   5.157   1.952
 9889SOL    HW130566   6.729   5.084   2.020
 9889SOL    HW230567   6.687   5.240   1.994
 9890SOL     OW30568   1.716   2.219   0.568
 9890SOL    HW130569   1.798   2.186   0.614
 9890SOL    HW230570   1.665   2.141   0.532
 9891SOL     OW30571   4.919   3.742   2.191
 9891SOL    HW130572   4.955   3.835   2.196
 9891SOL    HW230573   4.912   3.714   2.095
 9892SOL     OW30574   0.162   4.713   1.374
 9892SOL    HW130575   0.109   4.632   1.351
 9892SOL    HW230576   0.230   4.729   1.302
 9893SOL     OW30577   0.690   0.682   1.407
 9893SOL    HW130578   0.642   0.628   1.338
 9893SOL    HW230579   0.773   0.721   1.367
 9894SOL     OW30580   3.541   2.715   0.327
 9894SOL    HW130581   3.532   2.804   0.372
 9894SOL    HW230582   3.540   2.642   0.395
 9895SOL     OW30583   5.770   4.943   4.763
 9895SOL    HW130584   5.854   4.941   4.709
 9895SOL    HW230585   5.719   4.859   4.749
 9896SOL     OW30586   6.155   1.395   6.838
 9896SOL    HW130587   6.135   1.390   6.740
 9896SOL    HW230588   6.071   1.386   6.890
 9897SOL     OW30589   5.353   6.339   2.411
 9897SOL    HW130590   5.255   6.317   2.405
 9897SOL    HW230591   5.399   6.269   2.466
 9898SOL     OW30592   1.782   5.820   4.869
 9898SOL    HW130593   1.737   5.798   4.782
 9898SOL    HW230594   1.785   5.919   4.880
 9899SOL     OW30595   1.493   5.672   0.665
 9899SOL    HW130596   1.581   5.654   0.622
 9899SOL    HW230597   1.489   5.768   0.694
 9900SOL     OW30598   1.881   2.542   3.242
 9900SOL    HW130599   1.956   2.565   3.304
 9900SOL    HW230600   1.827   2.468   3.282
 9901SOL     OW30601   2.940   0.469   6.766
 9901SOL    HW130602   2.904   0.487   6.858
 9901SOL    HW230603   2.868   0.483   6.698
 9902SOL     OW30604   3.376   5.053   1.460
 9902SOL    HW130605   3.471   5.042   1.487
 9902SOL    HW230606   3.317   5.007   1.527
 9903SOL     OW30607   5.808   2.472   1.814
 9903SOL    HW130608   5.803   2.420   1.728
 9903SOL    HW230609   5.835   2.566   1.794
 9904SOL     OW30610   0.858   3.802   6.962
 9904SOL    HW130611   0.764   3.787   6.931
 9904SOL    HW230612   0.922   3.762   6.896
 9905SOL     OW30613   2.278   0.663   6.104
 9905SOL    HW130614   2.277   0.591   6.172
 9905SOL    HW230615   2.210   0.643   6.033
 9906SOL     OW30616   1.882   3.277   0.955
 9906SOL    HW130617   1.852   3.224   1.034
 9906SOL    HW230618   1.952   3.344   0.984
 9907SOL     OW30619   1.192   0.227   1.247
 9907SOL    HW130620   1.099   0.210   1.278
 9907SOL    HW230621   1.249   0.251   1.325
 9908SOL     OW30622   6.414   1.461   5.550
 9908SOL    HW130623   6.449   1.405   5.625
 9908SOL    HW230624   6.317   1.478   5.563
 9909SOL     OW30625   4.935   1.259   3.104
 9909SOL    HW130626   4.866   1.267   3.033
 9909SOL    HW230627   5.026   1.273   3.064
 9910SOL     OW30628   1.315   4.787   1.649
 9910SOL    HW130629   1.272   4.738   1.573
 9910SOL    HW230630   1.393   4.736   1.682
 9911SOL     OW30631   3.237   6.056   2.342
 9911SOL    HW130632   3.313   5.993   2.325
 9911SOL    HW230633   3.204   6.093   2.255
 9912SOL     OW30634   3.717   0.653   1.433
 9912SOL    HW130635   3.764   0.732   1.394
 9912SOL    HW230636   3.622   0.651   1.402
 9913SOL     OW30637   6.480   3.928   0.540
 9913SOL    HW130638   6.411   3.856   0.538
 9913SOL    HW230639   6.452   3.999   0.605
 9914SOL     OW30640   5.793   1.114   4.746
 9914SOL    HW130641   5.785   1.024   4.703
 9914SOL    HW230642   5.735   1.180   4.698
 9915SOL     OW30643   6.472   0.876   3.652
 9915SOL    HW130644   6.425   0.835   3.731
 9915SOL    HW230645   6.554   0.823   3.631
 9916SOL     OW30646   2.036   2.725   2.935
 9916SOL    HW130647   1.969   2.759   3.001
 9916SOL    HW230648   2.043   2.789   2.859
 9917SOL     OW30649   4.336   3.738   6.094
 9917SOL    HW130650   4.296   3.822   6.131
 9917SOL    HW230651   4.435   3.739   6.111
 9918SOL     OW30652   1.954   2.046   3.456
 9918SOL    HW130653   2.018   1.993   3.512
 9918SOL    HW230654   2.001   2.128   3.422
 9919SOL     OW30655   1.064   5.198   0.941
 9919SOL    HW130656   1.140   5.140   0.910
 9919SOL    HW230657   0.995   5.202   0.869
 9920SOL     OW30658   4.951   0.836   2.273
 9920SOL    HW130659   4.886   0.865   2.343
 9920SOL    HW230660   5.024   0.783   2.314
 9921SOL     OW30661   3.973   6.265   4.733
 9921SOL    HW130662   3.991   6.317   4.650
 9921SOL    HW230663   4.058   6.222   4.763
 9922SOL     OW30664   2.525   4.040   0.432
 9922SOL    HW130665   2.511   4.114   0.498
 9922SOL    HW230666   2.446   3.979   0.435
 9923SOL     OW30667   5.947   5.002   0.100
 9923SOL    HW130668   5.955   5.053   0.186
 9923SOL    HW230669   5.871   4.938   0.108
 9924SOL     OW30670   5.880   1.709   3.176
 9924SOL    HW130671   5.935   1.723   3.258
 9924SOL    HW230672   5.847   1.798   3.143
 9925SOL     OW30673   0.434   4.976   4.368
 9925SOL    HW130674   0.518   5.013   4.329
 9925SOL    HW230675   0.443   4.877   4.378
 9926SOL     OW30676   4.533   2.867   1.414
 9926SOL    HW130677   4.466   2.826   1.476
 9926SOL    HW230678   4.604   2.913   1.467
 9927SOL     OW30679   1.682   0.142   0.672
 9927SOL    HW130680   1.667   0.056   0.720
 9927SOL    HW230681   1.610   0.155   0.604
 9928SOL     OW30682   5.155   4.985   2.739
 9928SOL    HW130683   5.243   5.030   2.726
 9928SOL    HW230684   5.151   4.945   2.830
 9929SOL     OW30685   3.171   4.090   5.025
 9929SOL    HW130686   3.220   4.131   5.103
 9929SOL    HW230687   3.073   4.098   5.039
 9930SOL     OW30688   6.769   6.674   5.502
 9930SOL    HW130689   6.818   6.595   5.466
 9930SOL    HW230690   6.786   6.754   5.445
 9931SOL     OW30691   0.507   5.583   4.213
 9931SOL    HW130692   0.594   5.565   4.258
 9931SOL    HW230693   0.502   5.532   4.127
 9932SOL     OW30694   2.806   3.642   6.372
 9932SOL    HW130695   2.873   3.705   6.332
 9932SOL    HW230696   2.731   3.694   6.413
 9933SOL     OW30697   1.109   6.911   3.982
 9933SOL    HW130698   1.153   6.994   3.950
 9933SOL    HW230699   1.049   6.932   4.059
 9934SOL     OW30700   6.233   2.209   5.995
 9934SOL    HW130701   6.210   2.192   6.091
 9934SOL    HW230702   6.231   2.123   5.945
 9935SOL     OW30703   3.014   6.889   0.612
 9935SOL    HW130704   2.977   6.798   0.595
 9935SOL    HW230705   2.942   6.957   0.601
 9936SOL     OW30706   6.506   4.607   0.517
 9936SOL    HW130707   6.458   4.584   0.432
 9936SOL    HW230708   6.449   4.583   0.595
 9937SOL     OW30709   0.219   1.859   1.551
 9937SOL    HW130710   0.160   1.841   1.472
 9937SOL    HW230711   0.310   1.822   1.534
 9938SOL     OW30712   6.161   5.249   3.896
 9938SOL    HW130713   6.136   5.153   3.883
 9938SOL    HW230714   6.228   5.275   3.827
 9939SOL     OW30715   4.647   2.657   1.207
 9939SOL    HW130716   4.586   2.611   1.272
 9939SOL    HW230717   4.629   2.755   1.209
 9940SOL     OW30718   0.881   0.986   1.668
 9940SOL    HW130719   0.800   0.982   1.609
 9940SOL    HW230720   0.852   0.997   1.763
 9941SOL     OW30721   3.167   2.958   4.784
 9941SOL    HW130722   3.195   2.989   4.693
 9941SOL    HW230723   3.071   2.929   4.781
 9942SOL     OW30724   2.548   5.354   2.593
 9942SOL    HW130725   2.482   5.429   2.603
 9942SOL    HW230726   2.641   5.390   2.595
 9943SOL     OW30727   0.464   3.946   5.734
 9943SOL    HW130728   0.431   3.859   5.772
 9943SOL    HW230729   0.515   3.995   5.804
 9944SOL     OW30730   0.972   4.380   6.437
 9944SOL    HW130731   0.907   4.440   6.390
 9944SOL    HW230732   0.967   4.396   6.536
 9945SOL     OW30733   4.560   5.827   6.742
 9945SOL    HW130734   4.600   5.899   6.798
 9945SOL    HW230735   4.576   5.847   6.645
 9946SOL     OW30736   5.881   0.915   3.494
 9946SOL    HW130737   5.958   0.957   3.542
 9946SOL    HW230738   5.912   0.881   3.405
 9947SOL     OW30739   2.834   2.273   4.741
 9947SOL    HW130740   2.848   2.200   4.808
 9947SOL    HW230741   2.922   2.315   4.719
 9948SOL     OW30742   6.076   4.374   6.140
 9948SOL    HW130743   6.121   4.453   6.181
 9948SOL    HW230744   6.025   4.324   6.210
 9949SOL     OW30745   6.526   4.923   3.958
 9949SOL    HW130746   6.446   4.874   3.925
 9949SOL    HW230747   6.520   5.019   3.929
 9950SOL     OW30748   5.608   6.234   5.449
 9950SOL    HW130749   5.664   6.307   5.488
 9950SOL    HW230750   5.668   6.163   5.410
 9951SOL     OW30751   1.048   1.741   3.945
 9951SOL    HW130752   1.047   1.688   4.030
 9951SOL    HW230753   1.018   1.683   3.869
 9952SOL     OW30754   1.121   4.535   0.549
 9952SOL    HW130755   1.103   4.624   0.590
 9952SOL    HW230756   1.140   4.546   0.451
 9953SOL     OW30757   6.008   2.283   4.866
 9953SOL    HW130758   5.991   2.335   4.782
 9953SOL    HW230759   5.931   2.222   4.884
 9954SOL     OW30760   0.561   0.640   5.803
 9954SOL    HW130761   0.544   0.735   5.777
 9954SOL    HW230762   0.592   0.636   5.898
 9955SOL     OW30763   5.777   3.674   5.922
 9955SOL    HW130764   5.830   3.608   5.868
 9955SOL    HW230765   5.830   3.700   6.003
 9956SOL     OW30766   0.309   5.870   2.870
 9956SOL    HW130767   0.274   5.921   2.791
 9956SOL    HW230768   0.278   5.915   2.954
 9957SOL     OW30769   5.345   6.798   2.005
 9957SOL    HW130770   5.443   6.812   1.989
 9957SOL    HW230771   5.317   6.852   2.085
 9958SOL     OW30772   2.019   5.272   7.000
 9958SOL    HW130773   2.074   5.198   6.962
 9958SOL    HW230774   2.067   5.313   0.060
 9959SOL     OW30775   3.978   3.517   4.445
 9959SOL    HW130776   3.907   3.447   4.451
 9959SOL    HW230777   4.001   3.533   4.349
 9960SOL     OW30778   6.973   0.263   2.076
 9960SOL    HW130779   0.053   0.279   2.061
 9960SOL    HW230780   6.920   0.334   2.028
 9961SOL     OW30781   1.897   6.305   4.567
 9961SOL    HW130782   1.968   6.234   4.561
 9961SOL    HW230783   1.809   6.262   4.584
 9962SOL     OW30784   4.793   6.761   1.526
 9962SOL    HW130785   4.867   6.705   1.487
 9962SOL    HW230786   4.761   6.720   1.611
 9963SOL     OW30787   2.608   3.240   6.500
 9963SOL    HW130788   2.703   3.209   6.495
 9963SOL    HW230789   2.551   3.181   6.442
 9964SOL     OW30790   4.789   3.617   5.739
 9964SOL    HW130791   4.829   3.706   5.759
 9964SOL    HW230792   4.727   3.624   5.662
 9965SOL     OW30793   3.873   5.521   6.739
 9965SOL    HW130794   3.951   5.567   6.781
 9965SOL    HW230795   3.881   5.526   6.639
 9966SOL     OW30796   2.419   5.445   1.868
 9966SOL    HW130797   2.500   5.490   1.905
 9966SOL    HW230798   2.403   5.475   1.774
 9967SOL     OW30799   6.152   6.768   2.502
 9967SOL    HW130800   6.056   6.756   2.527
 9967SOL    HW230801   6.183   6.860   2.530
 9968SOL     OW30802   2.977   3.611   6.798
 9968SOL    HW130803   2.998   3.706   6.776
 9968SOL    HW230804   3.049   3.552   6.764
 9969SOL     OW30805   2.178   3.147   3.833
 9969SOL    HW130806   2.234   3.082   3.780
 9969SOL    HW230807   2.217   3.158   3.924
 9970SOL     OW30808   5.261   4.049   2.886
 9970SOL    HW130809   5.317   4.089   2.813
 9970SOL    HW230810   5.242   4.118   2.955
 9971SOL     OW30811   2.762   3.921   0.463
 9971SOL    HW130812   2.819   3.939   0.383
 9971SOL    HW230813   2.668   3.952   0.445
 9972SOL     OW30814   3.791   4.570   1.245
 9972SOL    HW130815   3.749   4.511   1.314
 9972SOL    HW230816   3.721   4.598   1.178
 9973SOL     OW30817   3.826   2.061   4.404
 9973SOL    HW130818   3.767   2.062   4.485
 9973SOL    HW230819   3.773   2.090   4.324
 9974SOL     OW30820   6.545   3.766   3.707
 9974SOL    HW130821   6.455   3.747   3.747
 9974SOL    HW230822   6.551   3.862   3.680
 9975SOL     OW30823   6.884   4.892   0.332
 9975SOL    HW130824   6.938   4.811   0.312
 9975SOL    HW230825   6.802   4.865   0.383
 9976SOL     OW30826   0.406   5.571   5.440
 9976SOL    HW130827   0.454   5.656   5.463
 9976SOL    HW230828   0.344   5.587   5.364
 9977SOL     OW30829   0.071   5.430   5.800
 9977SOL    HW130830   0.063   5.422   5.701
 9977SOL    HW230831   0.162   5.464   5.824
 9978SOL     OW30832   6.254   2.985   3.203
 9978SOL    HW130833   6.309   2.931   3.138
 9978SOL    HW230834   6.274   2.955   3.296
 9979SOL     OW30835   6.646   4.469   5.720
 9979SOL    HW130836   6.559   4.444   5.761
 9979SOL    HW230837   6.696   4.529   5.782
 9980SOL     OW30838   1.993   1.900   6.278
 9980SOL    HW130839   1.966   1.874   6.185
 9980SOL    HW230840   1.913   1.895   6.338
 9981SOL     OW30841   2.953   1.835   1.883
 9981SOL    HW130842   2.978   1.931   1.893
 9981SOL    HW230843   2.859   1.822   1.914
 9982SOL     OW30844   0.584   0.910   3.094
 9982SOL    HW130845   0.578   0.985   3.159
 9982SOL    HW230846   0.520   0.838   3.119
 9983SOL     OW30847   0.512   2.727   3.726
 9983SOL    HW130848   0.547   2.788   3.656
 9983SOL    HW230849   0.587   2.697   3.785
 9984SOL     OW30850   2.113   1.083   0.340
 9984SOL    HW130851   2.016   1.063   0.322
 9984SOL    HW230852   2.170   1.020   0.288
 9985SOL     OW30853   2.446   0.836   1.817
 9985SOL    HW130854   2.541   0.855   1.839
 9985SOL    HW230855   2.386   0.900   1.866
 9986SOL     OW30856   4.479   4.183   6.481
 9986SOL    HW130857   4.440   4.117   6.546
 9986SOL    HW230858   4.431   4.176   6.394
 9987SOL     OW30859   6.075   2.117   3.337
 9987SOL    HW130860   6.006   2.185   3.311
 9987SOL    HW230861   6.100   2.063   3.257
 9988SOL     OW30862   0.434   5.804   4.646
 9988SOL    HW130863   0.505   5.778   4.581
 9988SOL    HW230864   0.429   5.904   4.652
 9989SOL     OW30865   6.164   4.360   3.836
 9989SOL    HW130866   6.135   4.455   3.829
 9989SOL    HW230867   6.235   4.342   3.768
 9990SOL     OW30868   2.983   6.385   2.104
 9990SOL    HW130869   2.965   6.369   2.007
 9990SOL    HW230870   2.992   6.483   2.121
 9991SOL     OW30871   1.825   3.053   4.277
 9991SOL    HW130872   1.741   2.998   4.279
 9991SOL    HW230873   1.904   2.992   4.269
 9992SOL     OW30874   5.211   4.268   0.510
 9992SOL    HW130875   5.240   4.277   0.415
 9992SOL    HW230876   5.182   4.357   0.544
 9993SOL     OW30877   3.921   0.518   1.859
 9993SOL    HW130878   3.827   0.510   1.825
 9993SOL    HW230879   3.938   0.611   1.889
 9994SOL     OW30880   0.018   4.859   3.558
 9994SOL    HW130881   0.061   4.948   3.577
 9994SOL    HW230882   6.996   4.860   3.466
 9995SOL     OW30883   3.885   1.413   3.016
 9995SOL    HW130884   3.878   1.375   2.924
 9995SOL    HW230885   3.808   1.476   3.032
 9996SOL     OW30886   2.443   3.245   1.639
 9996SOL    HW130887   2.397   3.321   1.685
 9996SOL    HW230888   2.409   3.236   1.546
 9997SOL     OW30889   3.635   1.649   0.853
 9997SOL    HW130890   3.731   1.678   0.853
 9997SOL    HW230891   3.580   1.716   0.901
 9998SOL     OW30892   5.937   4.184   0.844
 9998SOL    HW130893   5.873   4.257   0.819
 9998SOL    HW230894   5.888   4.115   0.897
 9999SOL     OW30895   6.666   2.794   5.069
 9999SOL    HW130896   6.601   2.761   5.138
 9999SOL    HW230897   6.757   2.798   5.109
10000SOL     OW30898   0.081   3.253   0.547
10000SOL    HW130899   0.150   3.317   0.512
10000SOL    HW230900   0.120   3.161   0.550
10001SOL     OW30901   5.005   0.630   1.788
10001SOL    HW130902   4.924   0.627   1.847
10001SOL    HW230903   5.043   0.538   1.779
10002SOL     OW30904   1.778   0.684   2.558
10002SOL    HW130905   1.866   0.693   2.510
10002SOL    HW230906   1.795   0.680   2.657
10003SOL     OW30907   3.540   1.674   3.756
10003SOL    HW130908   3.599   1.685   3.676
10003SOL    HW230909   3.445   1.690   3.729
10004SOL     OW30910   4.645   2.760   3.744
10004SOL    HW130911   4.588   2.737   3.822
10004SOL    HW230912   4.641   2.687   3.676
10005SOL     OW30913   4.209   0.591   3.694
10005SOL    HW130914   4.131   0.530   3.679
10005SOL    HW230915   4.230   0.594   3.792
10006SOL     OW30916   5.182   0.194   4.288
10006SOL    HW130917   5.267   0.214   4.239
10006SOL    HW230918   5.126   0.277   4.293
10007SOL     OW30919   0.627   5.712   4.858
10007SOL    HW130920   0.592   5.635   4.807
10007SOL    HW230921   0.591   5.710   4.951
10008SOL     OW30922   4.285   1.054   4.738
10008SOL    HW130923   4.379   1.021   4.726
10008SOL    HW230924   4.287   1.150   4.766
10009SOL     OW30925   1.931   4.098   1.750
10009SOL    HW130926   1.931   4.197   1.761
10009SOL    HW230927   1.922   4.054   1.840
10010SOL     OW30928   1.903   0.277   5.649
10010SOL    HW130929   1.946   0.333   5.579
10010SOL    HW230930   1.920   0.317   5.739
10011SOL     OW30931   5.875   1.368   4.475
10011SOL    HW130932   5.846   1.430   4.548
10011SOL    HW230933   5.957   1.404   4.432
10012SOL     OW30934   4.799   1.162   3.338
10012SOL    HW130935   4.814   1.244   3.394
10012SOL    HW230936   4.847   1.173   3.251
10013SOL     OW30937   0.990   1.550   3.534
10013SOL    HW130938   1.052   1.543   3.456
10013SOL    HW230939   0.955   1.459   3.557
10014SOL     OW30940   6.763   3.945   0.476
10014SOL    HW130941   6.665   3.936   0.460
10014SOL    HW230942   6.809   3.861   0.447
10015SOL     OW30943   1.560   3.528   0.225
10015SOL    HW130944   1.601   3.483   0.145
10015SOL    HW230945   1.606   3.497   0.308
10016SOL     OW30946   1.682   0.707   6.151
10016SOL    HW130947   1.766   0.716   6.206
10016SOL    HW230948   1.614   0.655   6.203
10017SOL     OW30949   2.980   2.147   3.038
10017SOL    HW130950   3.009   2.074   2.977
10017SOL    HW230951   2.922   2.211   2.989
10018SOL     OW30952   4.612   6.647   5.395
10018SOL    HW130953   4.632   6.744   5.379
10018SOL    HW230954   4.584   6.604   5.309
10019SOL     OW30955   6.839   2.324   2.931
10019SOL    HW130956   6.778   2.364   2.863
10019SOL    HW230957   6.897   2.255   2.887
10020SOL     OW30958   1.409   2.267   1.546
10020SOL    HW130959   1.493   2.295   1.593
10020SOL    HW230960   1.371   2.186   1.591
10021SOL     OW30961   0.168   2.856   1.382
10021SOL    HW130962   0.155   2.841   1.480
10021SOL    HW230963   0.096   2.808   1.332
10022SOL     OW30964   2.510   0.009   6.469
10022SOL    HW130965   2.562   0.090   6.495
10022SOL    HW230966   2.451   0.031   6.390
10023SOL     OW30967   1.222   5.153   6.983
10023SOL    HW130968   1.320   5.153   6.965
10023SOL    HW230969   1.176   5.213   6.917
10024SOL     OW30970   1.500   6.634   1.883
10024SOL    HW130971   1.416   6.668   1.841
10024SOL    HW230972   1.510   6.674   1.974
10025SOL     OW30973   1.775   1.180   1.231
10025SOL    HW130974   1.829   1.229   1.299
10025SOL    HW230975   1.688   1.151   1.270
10026SOL     OW30976   5.435   6.681   3.308
10026SOL    HW130977   5.343   6.711   3.335
10026SOL    HW230978   5.464   6.605   3.367
10027SOL     OW30979   6.151   3.676   5.189
10027SOL    HW130980   6.158   3.604   5.258
10027SOL    HW230981   6.169   3.764   5.232
10028SOL     OW30982   1.831   0.963   1.901
10028SOL    HW130983   1.758   0.913   1.854
10028SOL    HW230984   1.828   1.059   1.874
10029SOL     OW30985   4.656   1.896   4.820
10029SOL    HW130986   4.613   1.812   4.853
10029SOL    HW230987   4.721   1.930   4.889
10030SOL     OW30988   2.808   0.147   3.618
10030SOL    HW130989   2.888   0.137   3.558
10030SOL    HW230990   2.730   0.176   3.563
10031SOL     OW30991   6.359   5.230   4.964
10031SOL    HW130992   6.261   5.235   4.981
10031SOL    HW230993   6.379   5.147   4.910
10032SOL     OW30994   2.203   1.577   5.202
10032SOL    HW130995   2.198   1.554   5.105
10032SOL    HW230996   2.242   1.668   5.212
10033SOL     OW30997   5.619   2.640   4.284
10033SOL    HW130998   5.547   2.584   4.243
10033SOL    HW230999   5.622   2.623   4.383
10034SOL     OW31000   3.184   0.188   3.967
10034SOL    HW131001   3.247   0.114   3.990
10034SOL    HW231002   3.184   0.257   4.040
10035SOL     OW31003   6.074   3.998   1.462
10035SOL    HW131004   6.172   3.992   1.438
10035SOL    HW231005   6.032   4.072   1.409
10036SOL     OW31006   6.408   2.482   1.368
10036SOL    HW131007   6.482   2.550   1.370
10036SOL    HW231008   6.344   2.501   1.442
10037SOL     OW31009   0.099   1.455   0.647
10037SOL    HW131010   0.083   1.412   0.736
10037SOL    HW231011   0.012   1.465   0.598
10038SOL     OW31012   5.337   0.576   6.814
10038SOL    HW131013   5.382   0.498   6.859
10038SOL    HW231014   5.366   0.581   6.719
10039SOL     OW31015   3.358   0.571   3.765
10039SOL    HW131016   3.282   0.516   3.731
10039SOL    HW231017   3.393   0.628   3.691
10040SOL     OW31018   5.414   5.120   6.655
10040SOL    HW131019   5.492   5.182   6.665
10040SOL    HW231020   5.443   5.026   6.678
10041SOL     OW31021   4.318   5.827   6.986
10041SOL    HW131022   4.351   5.920   6.972
10041SOL    HW231023   4.372   5.763   6.931
10042SOL     OW31024   0.407   2.499   3.814
10042SOL    HW131025   0.459   2.581   3.789
10042SOL    HW231026   0.319   2.500   3.767
10043SOL     OW31027   6.464   1.000   4.807
10043SOL    HW131028   6.428   1.033   4.895
10043SOL    HW231029   6.389   0.989   4.742
10044SOL     OW31030   1.805   2.493   4.228
10044SOL    HW131031   1.758   2.407   4.245
10044SOL    HW231032   1.892   2.475   4.182
10045SOL     OW31033   4.341   0.276   1.948
10045SOL    HW131034   4.275   0.336   1.903
10045SOL    HW231035   4.350   0.301   2.045
10046SOL     OW31036   1.916   3.320   0.673
10046SOL    HW131037   1.928   3.361   0.764
10046SOL    HW231038   1.838   3.362   0.627
10047SOL     OW31039   0.698   3.278   4.395
10047SOL    HW131040   0.734   3.274   4.488
10047SOL    HW231041   0.700   3.186   4.355
10048SOL     OW31042   0.379   6.907   2.233
10048SOL    HW131043   0.367   6.880   2.138
10048SOL    HW231044   0.300   6.877   2.286
10049SOL     OW31045   2.104   1.397   5.687
10049SOL    HW131046   2.154   1.321   5.643
10049SOL    HW231047   2.064   1.364   5.772
10050SOL     OW31048   5.914   3.982   5.155
10050SOL    HW131049   5.994   3.956   5.209
10050SOL    HW231050   5.832   3.978   5.212
10051SOL     OW31051   0.577   4.498   4.763
10051SOL    HW131052   0.536   4.415   4.725
10051SOL    HW231053   0.652   4.473   4.825
10052SOL     OW31054   2.182   1.203   3.433
10052SOL    HW131055   2.215   1.135   3.367
10052SOL    HW231056   2.243   1.205   3.512
10053SOL     OW31057   4.260   5.881   4.286
10053SOL    HW131058   4.231   5.968   4.245
10053SOL    HW231059   4.205   5.806   4.248
10054SOL     OW31060   6.009   4.860   5.819
10054SOL    HW131061   5.921   4.818   5.799
10054SOL    HW231062   5.995   4.952   5.855
10055SOL     OW31063   6.238   1.895   5.268
10055SOL    HW131064   6.266   1.937   5.181
10055SOL    HW231065   6.230   1.796   5.256
10056SOL     OW31066   5.274   4.690   3.576
10056SOL    HW131067   5.364   4.661   3.542
10056SOL    HW231068   5.253   4.641   3.660
10057SOL     OW31069   5.532   4.479   5.204
10057SOL    HW131070   5.546   4.530   5.119
10057SOL    HW231071   5.572   4.388   5.196
10058SOL     OW31072   6.379   3.651   5.061
10058SOL    HW131073   6.285   3.648   5.097
10058SOL    HW231074   6.381   3.708   4.979
10059SOL     OW31075   6.981   1.357   0.175
10059SOL    HW131076   6.959   1.431   0.110
10059SOL    HW231077   6.959   1.387   0.268
10060SOL     OW31078   2.225   2.289   2.910
10060SOL    HW131079   2.131   2.315   2.935
10060SOL    HW231080   2.225   2.256   2.815
10061SOL     OW31081   4.464   0.928   4.041
10061SOL    HW131082   4.376   0.948   3.998
10061SOL    HW231083   4.516   1.013   4.054
10062SOL     OW31084   6.704   0.009   4.433
10062SOL    HW131085   6.661   6.977   4.357
10062SOL    HW231086   6.652   7.009   4.517
10063SOL     OW31087   3.522   1.480   4.859
10063SOL    HW131088   3.425   1.504   4.859
10063SOL    HW231089   3.572   1.542   4.799
10064SOL     OW31090   4.613   5.941   6.486
10064SOL    HW131091   4.663   6.015   6.530
10064SOL    HW231092   4.558   5.977   6.410
10065SOL     OW31093   1.960   1.311   1.403
10065SOL    HW131094   1.983   1.408   1.411
10065SOL    HW231095   1.996   1.261   1.481
10066SOL     OW31096   0.300   2.581   4.791
10066SOL    HW131097   0.322   2.633   4.874
10066SOL    HW231098   0.311   2.484   4.809
10067SOL     OW31099   0.341   3.164   6.527
10067SOL    HW131100   0.277   3.103   6.575
10067SOL    HW231101   0.365   3.124   6.439
10068SOL     OW31102   0.917   4.222   3.407
10068SOL    HW131103   0.911   4.148   3.341
10068SOL    HW231104   0.869   4.196   3.491
10069SOL     OW31105   3.137   4.972   1.587
10069SOL    HW131106   3.131   4.959   1.488
10069SOL    HW231107   3.062   5.031   1.617
10070SOL     OW31108   0.743   5.491   5.105
10070SOL    HW131109   0.659   5.538   5.079
10070SOL    HW231110   0.724   5.426   5.178
10071SOL     OW31111   0.813   0.341   3.814
10071SOL    HW131112   0.725   0.388   3.810
10071SOL    HW231113   0.882   0.397   3.767
10072SOL     OW31114   0.607   1.434   3.725
10072SOL    HW131115   0.529   1.481   3.765
10072SOL    HW231116   0.580   1.341   3.700
10073SOL     OW31117   6.728   4.158   4.030
10073SOL    HW131118   6.739   4.062   4.003
10073SOL    HW231119   6.657   4.200   3.974
10074SOL     OW31120   1.569   6.080   0.398
10074SOL    HW131121   1.504   6.009   0.423
10074SOL    HW231122   1.570   6.091   0.299
10075SOL     OW31123   2.032   0.500   2.793
10075SOL    HW131124   1.976   0.453   2.724
10075SOL    HW231125   1.972   0.542   2.861
10076SOL     OW31126   5.031   5.455   3.015
10076SOL    HW131127   5.027   5.549   3.049
10076SOL    HW231128   5.048   5.456   2.916
10077SOL     OW31129   5.283   2.699   1.194
10077SOL    HW131130   5.246   2.634   1.127
10077SOL    HW231131   5.268   2.663   1.287
10078SOL     OW31132   0.612   6.241   4.535
10078SOL    HW131133   0.644   6.148   4.547
10078SOL    HW231134   0.599   6.284   4.624
10079SOL     OW31135   5.460   1.895   2.533
10079SOL    HW131136   5.525   1.870   2.605
10079SOL    HW231137   5.510   1.911   2.448
10080SOL     OW31138   5.095   0.969   6.307
10080SOL    HW131139   5.025   0.949   6.376
10080SOL    HW231140   5.051   0.977   6.217
10081SOL     OW31141   0.512   1.390   0.034
10081SOL    HW131142   0.547   1.405   0.126
10081SOL    HW231143   0.501   1.292   0.018
10082SOL     OW31144   0.975   5.576   3.305
10082SOL    HW131145   1.011   5.591   3.213
10082SOL    HW231146   1.035   5.512   3.354
10083SOL     OW31147   3.525   6.890   3.698
10083SOL    HW131148   3.465   6.849   3.767
10083SOL    HW231149   3.490   6.869   3.607
10084SOL     OW31150   6.924   6.769   5.242
10084SOL    HW131151   6.925   6.869   5.242
10084SOL    HW231152   6.940   6.735   5.149
10085SOL     OW31153   4.580   0.034   0.737
10085SOL    HW131154   4.515   6.982   0.768
10085SOL    HW231155   4.655   0.041   0.803
10086SOL     OW31156   5.686   6.468   3.244
10086SOL    HW131157   5.619   6.394   3.239
10086SOL    HW231158   5.703   6.503   3.151
10087SOL     OW31159   7.009   6.357   4.317
10087SOL    HW131160   6.958   6.318   4.394
10087SOL    HW231161   0.085   6.378   4.347
10088SOL     OW31162   6.517   0.836   0.873
10088SOL    HW131163   6.581   0.909   0.853
10088SOL    HW231164   6.568   0.752   0.896
10089SOL     OW31165   2.895   1.826   3.342
10089SOL    HW131166   2.969   1.828   3.410
10089SOL    HW231167   2.934   1.836   3.251
10090SOL     OW31168   0.652   4.613   2.232
10090SOL    HW131169   0.614   4.569   2.150
10090SOL    HW231170   0.728   4.559   2.267
10091SOL     OW31171   6.124   6.098   6.654
10091SOL    HW131172   6.193   6.065   6.718
10091SOL    HW231173   6.162   6.098   6.561
10092SOL     OW31174   1.161   3.338   5.296
10092SOL    HW131175   1.175   3.383   5.208
10092SOL    HW231176   1.249   3.317   5.338
10093SOL     OW31177   4.942   3.499   4.784
10093SOL    HW131178   4.934   3.401   4.765
10093SOL    HW231179   4.884   3.522   4.862
10094SOL     OW31180   2.559   6.843   0.805
10094SOL    HW131181   2.550   6.920   0.741
10094SOL    HW231182   2.547   6.757   0.755
10095SOL     OW31183   5.392   1.735   5.031
10095SOL    HW131184   5.377   1.637   5.034
10095SOL    HW231185   5.326   1.777   4.968
10096SOL     OW31186   5.141   0.724   2.425
10096SOL    HW131187   5.212   0.669   2.381
10096SOL    HW231188   5.099   0.671   2.499
10097SOL     OW31189   2.125   2.276   6.496
10097SOL    HW131190   2.062   2.319   6.561
10097SOL    HW231191   2.163   2.193   6.536
10098SOL     OW31192   2.967   6.137   4.645
10098SOL    HW131193   2.921   6.138   4.556
10098SOL    HW231194   3.054   6.088   4.637
10099SOL     OW31195   6.391   4.418   2.029
10099SOL    HW131196   6.293   4.435   2.019
10099SOL    HW231197   6.406   4.338   2.086
10100SOL     OW31198   5.429   5.406   5.620
10100SOL    HW131199   5.490   5.482   5.643
10100SOL    HW231200   5.369   5.433   5.544
10101SOL     OW31201   0.012   2.785   1.839
10101SOL    HW131202   6.954   2.720   1.845
10101SOL    HW231203   0.076   2.768   1.914
10102SOL     OW31204   5.767   0.652   0.896
10102SOL    HW131205   5.793   0.713   0.821
10102SOL    HW231206   5.802   0.689   0.982
10103SOL     OW31207   1.492   0.503   5.094
10103SOL    HW131208   1.396   0.503   5.122
10103SOL    HW231209   1.500   0.467   5.001
10104SOL     OW31210   2.485   0.937   6.007
10104SOL    HW131211   2.503   0.862   6.071
10104SOL    HW231212   2.419   0.907   5.938
10105SOL     OW31213   2.798   1.171   5.723
10105SOL    HW131214   2.798   1.235   5.647
10105SOL    HW231215   2.797   1.223   5.809
10106SOL     OW31216   4.080   6.211   1.306
10106SOL    HW131217   4.055   6.144   1.376
10106SOL    HW231218   4.022   6.292   1.315
10107SOL     OW31219   5.055   3.201   6.600
10107SOL    HW131220   5.001   3.117   6.590
10107SOL    HW231221   5.002   3.278   6.566
10108SOL     OW31222   1.266   2.768   1.018
10108SOL    HW131223   1.264   2.696   1.087
10108SOL    HW231224   1.342   2.753   0.956
10109SOL     OW31225   0.748   0.979   0.075
10109SOL    HW131226   0.658   1.024   0.071
10109SOL    HW231227   0.741   0.897   0.132
10110SOL     OW31228   4.928   4.860   2.729
10110SOL    HW131229   4.847   4.890   2.780
10110SOL    HW231230   5.000   4.929   2.738
10111SOL     OW31231   1.008   2.770   2.709
10111SOL    HW131232   1.102   2.734   2.716
10111SOL    HW231233   0.968   2.741   2.622
10112SOL     OW31234   6.701   3.832   3.323
10112SOL    HW131235   6.688   3.742   3.363
10112SOL    HW231236   6.763   3.826   3.245
10113SOL     OW31237   4.105   0.921   6.956
10113SOL    HW131238   4.126   0.843   6.897
10113SOL    HW231239   4.007   0.942   6.950
10114SOL     OW31240   3.690   1.936   2.958
10114SOL    HW131241   3.725   2.004   3.022
10114SOL    HW231242   3.622   1.878   3.004
10115SOL     OW31243   3.846   1.683   4.112
10115SOL    HW131244   3.914   1.717   4.178
10115SOL    HW231245   3.870   1.715   4.020
10116SOL     OW31246   6.232   0.332   5.727
10116SOL    HW131247   6.291   0.319   5.647
10116SOL    HW231248   6.224   0.430   5.747
10117SOL     OW31249   6.701   6.052   5.615
10117SOL    HW131250   6.687   5.989   5.539
10117SOL    HW231251   6.708   6.000   5.701
10118SOL     OW31252   2.663   4.670   4.321
10118SOL    HW131253   2.630   4.624   4.403
10118SOL    HW231254   2.681   4.601   4.250
10119SOL     OW31255   6.949   5.716   3.893
10119SOL    HW131256   6.945   5.790   3.826
10119SOL    HW231257   0.015   5.662   3.879
10120SOL     OW31258   1.313   3.186   3.100
10120SOL    HW131259   1.261   3.269   3.114
10120SOL    HW231260   1.385   3.179   3.169
10121SOL     OW31261   5.853   4.463   0.858
10121SOL    HW131262   5.928   4.490   0.918
10121SOL    HW231263   5.845   4.528   0.782
10122SOL     OW31264   6.035   2.046   3.927
10122SOL    HW131265   6.084   2.029   3.842
10122SOL    HW231266   5.936   2.049   3.909
10123SOL     OW31267   6.524   6.287   0.481
10123SOL    HW131268   6.458   6.227   0.437
10123SOL    HW231269   6.545   6.252   0.573
10124SOL     OW31270   1.762   5.074   1.797
10124SOL    HW131271   1.838   5.038   1.743
10124SOL    HW231272   1.683   5.089   1.738
10125SOL     OW31273   2.218   0.959   1.903
10125SOL    HW131274   2.180   0.965   1.811
10125SOL    HW231275   2.150   0.993   1.968
10126SOL     OW31276   6.424   6.922   6.179
10126SOL    HW131277   6.339   6.882   6.144
10126SOL    HW231278   6.466   6.979   6.108
10127SOL     OW31279   1.249   4.471   5.963
10127SOL    HW131280   1.217   4.561   5.931
10127SOL    HW231281   1.320   4.484   6.032
10128SOL     OW31282   2.649   0.686   6.778
10128SOL    HW131283   2.661   0.783   6.760
10128SOL    HW231284   2.707   0.660   6.856
10129SOL     OW31285   0.107   1.338   1.687
10129SOL    HW131286   0.045   1.273   1.644
10129SOL    HW231287   0.103   1.426   1.638
10130SOL     OW31288   1.112   2.563   1.574
10130SOL    HW131289   1.166   2.484   1.543
10130SOL    HW231290   1.044   2.585   1.504
10131SOL     OW31291   1.826   0.719   3.826
10131SOL    HW131292   1.846   0.812   3.855
10131SOL    HW231293   1.850   0.655   3.898
10132SOL     OW31294   0.478   0.545   2.319
10132SOL    HW131295   0.453   0.492   2.400
10132SOL    HW231296   0.406   0.536   2.250
10133SOL     OW31297   4.496   5.883   1.230
10133SOL    HW131298   4.449   5.811   1.280
10133SOL    HW231299   4.429   5.943   1.186
10134SOL     OW31300   6.936   1.107   2.671
10134SOL    HW131301   6.940   1.201   2.637
10134SOL    HW231302   6.979   1.103   2.761
10135SOL     OW31303   5.855   1.130   4.073
10135SOL    HW131304   5.756   1.112   4.077
10135SOL    HW231305   5.899   1.067   4.010
10136SOL     OW31306   4.600   2.580   2.448
10136SOL    HW131307   4.668   2.507   2.443
10136SOL    HW231308   4.645   2.667   2.466
10137SOL     OW31309   0.526   5.094   5.457
10137SOL    HW131310   0.443   5.145   5.439
10137SOL    HW231311   0.524   5.059   5.551
10138SOL     OW31312   5.853   2.055   0.013
10138SOL    HW131313   5.892   2.095   0.097
10138SOL    HW231314   5.922   1.996   6.988
10139SOL     OW31315   3.764   2.944   5.088
10139SOL    HW131316   3.755   2.865   5.148
10139SOL    HW231317   3.692   3.010   5.107
10140SOL     OW31318   6.589   6.669   5.936
10140SOL    HW131319   6.577   6.569   5.936
10140SOL    HW231320   6.502   6.713   5.915
10141SOL     OW31321   3.793   0.824   3.562
10141SOL    HW131322   3.876   0.845   3.510
10141SOL    HW231323   3.721   0.890   3.538
10142SOL     OW31324   5.886   6.588   4.786
10142SOL    HW131325   5.816   6.525   4.819
10142SOL    HW231326   5.884   6.592   4.686
10143SOL     OW31327   5.922   2.898   6.959
10143SOL    HW131328   6.003   2.861   7.005
10143SOL    HW231329   5.871   2.823   6.918
10144SOL     OW31330   4.304   6.912   5.475
10144SOL    HW131331   4.349   6.928   5.563
10144SOL    HW231332   4.263   6.997   5.442
10145SOL     OW31333   4.077   6.089   2.440
10145SOL    HW131334   4.063   6.090   2.539
10145SOL    HW231335   4.174   6.098   2.420
10146SOL     OW31336   6.890   4.226   4.660
10146SOL    HW131337   6.861   4.174   4.740
10146SOL    HW231338   6.819   4.291   4.634
10147SOL     OW31339   4.562   4.819   0.009
10147SOL    HW131340   4.491   4.889   0.007
10147SOL    HW231341   4.544   4.755   0.083
10148SOL     OW31342   6.737   4.665   1.366
10148SOL    HW131343   6.637   4.670   1.372
10148SOL    HW231344   6.775   4.639   1.454
10149SOL     OW31345   4.713   4.431   1.522
10149SOL    HW131346   4.760   4.513   1.488
10149SOL    HW231347   4.618   4.432   1.489
10150SOL     OW31348   5.205   3.559   2.087
10150SOL    HW131349   5.174   3.637   2.142
10150SOL    HW231350   5.245   3.490   2.146
10151SOL     OW31351   0.166   0.170   5.540
10151SOL    HW131352   0.202   0.167   5.633
10151SOL    HW231353   0.089   0.106   5.532
10152SOL     OW31354   5.723   5.980   3.141
10152SOL    HW131355   5.692   6.072   3.119
10152SOL    HW231356   5.771   5.941   3.062
10153SOL     OW31357   4.086   5.976   3.702
10153SOL    HW131358   4.127   6.034   3.632
10153SOL    HW231359   4.158   5.933   3.756
10154SOL     OW31360   4.098   5.218   5.748
10154SOL    HW131361   4.175   5.205   5.686
10154SOL    HW231362   4.065   5.312   5.742
10155SOL     OW31363   4.820   2.072   5.943
10155SOL    HW131364   4.793   2.164   5.915
10155SOL    HW231365   4.903   2.077   5.999
10156SOL     OW31366   4.382   0.466   1.219
10156SOL    HW131367   4.338   0.459   1.309
10156SOL    HW231368   4.323   0.517   1.157
10157SOL     OW31369   6.979   2.082   0.088
10157SOL    HW131370   0.029   2.064   0.017
10157SOL    HW231371   6.924   2.162   0.063
10158SOL     OW31372   5.882   6.666   2.450
10158SOL    HW131373   5.834   6.617   2.522
10158SOL    HW231374   5.847   6.638   2.361
10159SOL     OW31375   3.112   3.129   2.528
10159SOL    HW131376   3.202   3.093   2.505
10159SOL    HW231377   3.085   3.096   2.619
10160SOL     OW31378   2.349   4.245   2.886
10160SOL    HW131379   2.328   4.173   2.819
10160SOL    HW231380   2.411   4.312   2.845
10161SOL     OW31381   3.871   4.865   6.782
10161SOL    HW131382   3.905   4.898   6.870
10161SOL    HW231383   3.947   4.861   6.716
10162SOL     OW31384   1.902   4.609   1.880
10162SOL    HW131385   1.891   4.704   1.850
10162SOL    HW231386   1.851   4.595   1.965
10163SOL     OW31387   0.910   5.839   5.550
10163SOL    HW131388   0.866   5.874   5.632
10163SOL    HW231389   0.965   5.910   5.508
10164SOL     OW31390   6.404   3.353   3.645
10164SOL    HW131391   6.495   3.314   3.642
10164SOL    HW231392   6.337   3.281   3.665
10165SOL     OW31393   5.505   2.792   3.845
10165SOL    HW131394   5.420   2.768   3.891
10165SOL    HW231395   5.581   2.781   3.908
10166SOL     OW31396   1.468   2.748   1.295
10166SOL    HW131397   1.552   2.724   1.247
10166SOL    HW231398   1.389   2.715   1.244
10167SOL     OW31399   0.011   4.851   6.881
10167SOL    HW131400   6.951   4.791   6.863
10167SOL    HW231401   0.024   4.860   6.980
10168SOL     OW31402   5.589   1.208   6.505
10168SOL    HW131403   5.653   1.261   6.561
10168SOL    HW231404   5.542   1.141   6.563
10169SOL     OW31405   0.333   3.823   2.648
10169SOL    HW131406   0.356   3.913   2.610
10169SOL    HW231407   0.238   3.823   2.679
10170SOL     OW31408   6.667   5.731   6.461
10170SOL    HW131409   6.589   5.770   6.413
10170SOL    HW231410   6.659   5.631   6.464
10171SOL     OW31411   0.851   3.014   5.633
10171SOL    HW131412   0.886   2.930   5.590
10171SOL    HW231413   0.920   3.085   5.629
10172SOL     OW31414   0.238   6.859   3.674
10172SOL    HW131415   0.261   6.894   3.583
10172SOL    HW231416   0.199   6.767   3.666
10173SOL     OW31417   3.354   4.576   0.459
10173SOL    HW131418   3.406   4.515   0.400
10173SOL    HW231419   3.362   4.545   0.554
10174SOL     OW31420   5.263   6.556   3.118
10174SOL    HW131421   5.357   6.572   3.147
10174SOL    HW231422   5.231   6.632   3.062
10175SOL     OW31423   6.308   1.772   3.577
10175SOL    HW131424   6.275   1.685   3.615
10175SOL    HW231425   6.324   1.761   3.479
10176SOL     OW31426   6.638   3.712   5.616
10176SOL    HW131427   6.733   3.681   5.624
10176SOL    HW231428   6.578   3.653   5.670
10177SOL     OW31429   1.999   0.450   1.196
10177SOL    HW131430   1.988   0.467   1.098
10177SOL    HW231431   2.095   0.458   1.221
10178SOL     OW31432   1.883   0.828   0.763
10178SOL    HW131433   1.941   0.828   0.844
10178SOL    HW231434   1.855   0.921   0.742
10179SOL     OW31435   7.012   4.320   6.940
10179SOL    HW131436   0.062   4.321   7.014
10179SOL    HW231437   0.041   4.295   6.854
10180SOL     OW31438   4.859   0.170   0.126
10180SOL    HW131439   4.854   0.233   0.204
10180SOL    HW231440   4.818   0.083   0.152
10181SOL     OW31441   6.612   2.910   1.293
10181SOL    HW131442   6.576   2.979   1.356
10181SOL    HW231443   6.541   2.886   1.227
10182SOL     OW31444   5.295   1.224   0.524
10182SOL    HW131445   5.315   1.180   0.612
10182SOL    HW231446   5.371   1.284   0.499
10183SOL     OW31447   5.789   3.081   5.861
10183SOL    HW131448   5.762   2.990   5.831
10183SOL    HW231449   5.885   3.097   5.836
10184SOL     OW31450   5.542   2.926   6.266
10184SOL    HW131451   5.578   2.987   6.196
10184SOL    HW231452   5.550   2.969   6.356
10185SOL     OW31453   4.351   6.080   2.424
10185SOL    HW131454   4.444   6.113   2.411
10185SOL    HW231455   4.351   5.980   2.422
10186SOL     OW31456   4.749   3.763   5.367
10186SOL    HW131457   4.739   3.729   5.273
10186SOL    HW231458   4.709   3.854   5.373
10187SOL     OW31459   2.168   3.955   5.330
10187SOL    HW131460   2.108   4.018   5.281
10187SOL    HW231461   2.240   3.923   5.269
10188SOL     OW31462   2.992   6.085   6.435
10188SOL    HW131463   2.913   6.138   6.406
10188SOL    HW231464   3.076   6.126   6.399
10189SOL     OW31465   1.701   0.822   0.093
10189SOL    HW131466   1.680   0.815   0.190
10189SOL    HW231467   1.616   0.818   0.040
10190SOL     OW31468   3.361   3.920   1.328
10190SOL    HW131469   3.394   3.885   1.240
10190SOL    HW231470   3.432   3.977   1.370
10191SOL     OW31471   5.851   5.664   1.209
10191SOL    HW131472   5.775   5.723   1.179
10191SOL    HW231473   5.818   5.570   1.216
10192SOL     OW31474   1.838   1.919   4.711
10192SOL    HW131475   1.861   1.856   4.786
10192SOL    HW231476   1.896   1.899   4.632
10193SOL     OW31477   3.599   3.815   2.085
10193SOL    HW131478   3.599   3.913   2.064
10193SOL    HW231479   3.510   3.789   2.123
10194SOL     OW31480   3.199   0.115   5.108
10194SOL    HW131481   3.249   0.110   5.195
10194SOL    HW231482   3.252   0.071   5.036
10195SOL     OW31483   6.242   0.007   1.200
10195SOL    HW131484   6.266   0.050   1.113
10195SOL    HW231485   6.143   0.010   1.212
10196SOL     OW31486   5.713   2.270   3.579
10196SOL    HW131487   5.636   2.330   3.602
10196SOL    HW231488   5.795   2.304   3.625
10197SOL     OW31489   5.908   0.544   3.691
10197SOL    HW131490   5.875   0.450   3.691
10197SOL    HW231491   5.862   0.596   3.764
10198SOL     OW31492   3.886   6.279   0.553
10198SOL    HW131493   3.885   6.180   0.541
10198SOL    HW231494   3.954   6.303   0.623
10199SOL     OW31495   0.988   1.435   6.821
10199SOL    HW131496   1.001   1.360   6.886
10199SOL    HW231497   0.994   1.522   6.869
10200SOL     OW31498   5.165   3.287   5.491
10200SOL    HW131499   5.162   3.303   5.589
10200SOL    HW231500   5.146   3.372   5.442
10201SOL     OW31501   0.501   5.688   1.827
10201SOL    HW131502   0.553   5.735   1.899
10201SOL    HW231503   0.565   5.650   1.760
10202SOL     OW31504   0.834   3.758   0.702
10202SOL    HW131505   0.871   3.667   0.687
10202SOL    HW231506   0.734   3.754   0.700
10203SOL     OW31507   1.378   2.536   2.241
10203SOL    HW131508   1.466   2.506   2.204
10203SOL    HW231509   1.383   2.541   2.340
10204SOL     OW31510   3.589   4.772   6.076
10204SOL    HW131511   3.582   4.753   6.174
10204SOL    HW231512   3.631   4.693   6.031
10205SOL     OW31513   4.113   1.102   3.203
10205SOL    HW131514   4.169   1.180   3.175
10205SOL    HW231515   4.067   1.064   3.123
10206SOL     OW31516   5.071   5.970   6.264
10206SOL    HW131517   5.163   5.932   6.256
10206SOL    HW231518   5.030   5.978   6.173
10207SOL     OW31519   1.650   0.250   1.053
10207SOL    HW131520   1.578   0.219   1.115
10207SOL    HW231521   1.702   0.324   1.096
10208SOL     OW31522   6.545   5.433   5.330
10208SOL    HW131523   6.541   5.370   5.252
10208SOL    HW231524   6.640   5.443   5.359
10209SOL     OW31525   0.507   1.109   5.843
10209SOL    HW131526   0.464   1.194   5.814
10209SOL    HW231527   0.455   1.069   5.918
10210SOL     OW31528   5.370   6.712   1.208
10210SOL    HW131529   5.467   6.721   1.229
10210SOL    HW231530   5.332   6.632   1.256
10211SOL     OW31531   4.206   6.545   5.898
10211SOL    HW131532   4.263   6.542   5.816
10211SOL    HW231533   4.210   6.456   5.944
10212SOL     OW31534   0.280   1.199   4.498
10212SOL    HW131535   0.359   1.197   4.437
10212SOL    HW231536   0.231   1.285   4.487
10213SOL     OW31537   6.239   1.496   2.517
10213SOL    HW131538   6.324   1.465   2.560
10213SOL    HW231539   6.260   1.546   2.433
10214SOL     OW31540   0.307   1.109   2.646
10214SOL    HW131541   0.274   1.044   2.714
10214SOL    HW231542   0.369   1.063   2.582
10215SOL     OW31543   3.348   2.831   5.380
10215SOL    HW131544   3.378   2.866   5.291
10215SOL    HW231545   3.292   2.749   5.368
10216SOL     OW31546   0.195   6.853   0.758
10216SOL    HW131547   0.241   6.904   0.830
10216SOL    HW231548   0.210   6.755   0.771
10217SOL     OW31549   2.484   1.335   3.899
10217SOL    HW131550   2.446   1.246   3.924
10217SOL    HW231551   2.572   1.349   3.944
10218SOL     OW31552   0.701   1.151   1.277
10218SOL    HW131553   0.800   1.156   1.292
10218SOL    HW231554   0.682   1.090   1.201
10219SOL     OW31555   0.375   2.881   2.266
10219SOL    HW131556   0.458   2.903   2.215
10219SOL    HW231557   0.391   2.798   2.320
10220SOL     OW31558   4.283   1.800   2.016
10220SOL    HW131559   4.369   1.796   2.066
10220SOL    HW231560   4.299   1.771   1.921
10221SOL     OW31561   1.536   1.912   4.068
10221SOL    HW131562   1.471   1.906   4.144
10221SOL    HW231563   1.486   1.923   3.982
10222SOL     OW31564   0.978   3.714   5.391
10222SOL    HW131565   0.937   3.748   5.306
10222SOL    HW231566   0.995   3.615   5.382
10223SOL     OW31567   2.267   5.714   6.513
10223SOL    HW131568   2.198   5.663   6.462
10223SOL    HW231569   2.301   5.789   6.456
10224SOL     OW31570   0.925   0.912   4.606
10224SOL    HW131571   0.918   0.995   4.552
10224SOL    HW231572   1.020   0.879   4.604
10225SOL     OW31573   1.508   6.497   5.121
10225SOL    HW131574   1.504   6.401   5.148
10225SOL    HW231575   1.484   6.554   5.199
10226SOL     OW31576   2.815   0.256   7.016
10226SOL    HW131577   2.725   0.286   0.028
10226SOL    HW231578   2.884   0.290   0.063
10227SOL     OW31579   4.765   4.830   1.176
10227SOL    HW131580   4.669   4.839   1.150
10227SOL    HW231581   4.809   4.762   1.117
10228SOL     OW31582   1.262   4.825   2.178
10228SOL    HW131583   1.208   4.902   2.145
10228SOL    HW231584   1.217   4.783   2.257
10229SOL     OW31585   0.990   1.091   4.130
10229SOL    HW131586   1.068   1.135   4.174
10229SOL    HW231587   1.022   1.013   4.076
10230SOL     OW31588   6.718   0.519   3.487
10230SOL    HW131589   6.721   0.618   3.498
10230SOL    HW231590   6.792   0.490   3.425
10231SOL     OW31591   6.985   6.384   5.552
10231SOL    HW131592   7.006   6.383   5.649
10231SOL    HW231593   6.962   6.292   5.522
10232SOL     OW31594   3.562   0.917   4.457
10232SOL    HW131595   3.639   0.946   4.401
10232SOL    HW231596   3.595   0.866   4.536
10233SOL     OW31597   5.108   3.048   5.401
10233SOL    HW131598   5.020   3.022   5.441
10233SOL    HW231599   5.129   3.142   5.426
10234SOL     OW31600   5.539   0.508   0.852
10234SOL    HW131601   5.477   0.534   0.925
10234SOL    HW231602   5.625   0.558   0.861
10235SOL     OW31603   4.670   1.593   0.226
10235SOL    HW131604   4.732   1.532   0.176
10235SOL    HW231605   4.612   1.642   0.162
10236SOL     OW31606   1.405   6.402   1.971
10236SOL    HW131607   1.423   6.325   1.909
10236SOL    HW231608   1.443   6.486   1.932
10237SOL     OW31609   6.253   3.994   0.759
10237SOL    HW131610   6.259   3.943   0.673
10237SOL    HW231611   6.206   3.938   0.827
10238SOL     OW31612   3.405   4.156   4.237
10238SOL    HW131613   3.315   4.199   4.241
10238SOL    HW231614   3.426   4.116   4.326
10239SOL     OW31615   1.581   4.202   4.555
10239SOL    HW131616   1.591   4.298   4.582
10239SOL    HW231617   1.540   4.151   4.631
10240SOL     OW31618   1.334   4.898   2.777
10240SOL    HW131619   1.366   4.971   2.837
10240SOL    HW231620   1.411   4.840   2.751
10241SOL     OW31621   0.103   0.930   1.721
10241SOL    HW131622   0.037   0.929   1.645
10241SOL    HW231623   0.196   0.924   1.685
10242SOL     OW31624   6.982   1.826   6.484
10242SOL    HW131625   6.979   1.926   6.495
10242SOL    HW231626   7.013   1.784   6.570
10243SOL     OW31627   0.317   5.225   1.313
10243SOL    HW131628   0.299   5.294   1.383
10243SOL    HW231629   0.314   5.134   1.354
10244SOL     OW31630   1.589   4.910   7.017
10244SOL    HW131631   1.661   4.953   0.054
10244SOL    HW231632   1.567   4.820   0.038
10245SOL     OW31633   2.250   4.006   0.119
10245SOL    HW131634   2.285   3.981   0.210
10245SOL    HW231635   2.175   4.072   0.130
10246SOL     OW31636   2.971   3.791   4.036
10246SOL    HW131637   2.990   3.845   4.118
10246SOL    HW231638   3.025   3.708   4.037
10247SOL     OW31639   0.776   5.558   4.350
10247SOL    HW131640   0.855   5.567   4.289
10247SOL    HW231641   0.799   5.497   4.426
10248SOL     OW31642   3.131   0.222   1.776
10248SOL    HW131643   3.132   0.151   1.705
10248SOL    HW231644   3.104   0.182   1.863
10249SOL     OW31645   2.570   0.674   6.376
10249SOL    HW131646   2.527   0.746   6.430
10249SOL    HW231647   2.499   0.619   6.331
10250SOL     OW31648   0.228   2.076   1.214
10250SOL    HW131649   0.150   2.122   1.171
10250SOL    HW231650   0.260   2.130   1.292
10251SOL     OW31651   2.002   2.502   5.246
10251SOL    HW131652   2.025   2.432   5.179
10251SOL    HW231653   1.996   2.591   5.200
10252SOL     OW31654   6.832   6.032   0.435
10252SOL    HW131655   6.777   6.086   0.372
10252SOL    HW231656   6.849   5.941   0.395
10253SOL     OW31657   5.332   5.824   0.165
10253SOL    HW131658   5.305   5.918   0.144
10253SOL    HW231659   5.424   5.824   0.206
10254SOL     OW31660   3.986   2.069   4.877
10254SOL    HW131661   4.061   2.056   4.942
10254SOL    HW231662   3.899   2.071   4.926
10255SOL     OW31663   2.560   5.567   1.509
10255SOL    HW131664   2.482   5.597   1.563
10255SOL    HW231665   2.545   5.472   1.480
10256SOL     OW31666   5.532   0.316   1.652
10256SOL    HW131667   5.532   0.413   1.627
10256SOL    HW231668   5.561   0.261   1.573
10257SOL     OW31669   1.740   4.700   4.479
10257SOL    HW131670   1.684   4.660   4.407
10257SOL    HW231671   1.834   4.665   4.472
10258SOL     OW31672   4.851   0.146   4.080
10258SOL    HW131673   4.905   0.063   4.095
10258SOL    HW231674   4.768   0.122   4.029
10259SOL     OW31675   0.981   5.930   3.420
10259SOL    HW131676   0.882   5.933   3.427
10259SOL    HW231677   1.007   5.916   3.324
10260SOL     OW31678   6.871   0.483   3.235
10260SOL    HW131679   6.933   0.422   3.286
10260SOL    HW231680   6.924   0.547   3.181
10261SOL     OW31681   6.895   6.479   1.817
10261SOL    HW131682   6.829   6.405   1.804
10261SOL    HW231683   6.980   6.457   1.769
10262SOL     OW31684   2.723   5.647   4.622
10262SOL    HW131685   2.701   5.744   4.625
10262SOL    HW231686   2.755   5.617   4.712
10263SOL     OW31687   4.600   1.190   6.258
10263SOL    HW131688   4.554   1.260   6.203
10263SOL    HW231689   4.699   1.205   6.255
10264SOL     OW31690   6.058   1.833   7.009
10264SOL    HW131691   6.039   1.768   0.066
10264SOL    HW231692   6.002   1.810   6.929
10265SOL     OW31693   3.649   1.945   2.695
10265SOL    HW131694   3.696   1.949   2.783
10265SOL    HW231695   3.707   1.987   2.625
10266SOL     OW31696   3.527   2.685   5.555
10266SOL    HW131697   3.559   2.693   5.461
10266SOL    HW231698   3.451   2.620   5.559
10267SOL     OW31699   6.530   2.041   6.155
10267SOL    HW131700   6.580   2.049   6.241
10267SOL    HW231701   6.433   2.061   6.171
10268SOL     OW31702   4.015   6.453   1.792
10268SOL    HW131703   4.011   6.544   1.751
10268SOL    HW231704   3.942   6.443   1.859
10269SOL     OW31705   2.062   1.717   5.468
10269SOL    HW131706   2.028   1.757   5.383
10269SOL    HW231707   2.011   1.633   5.487
10270SOL     OW31708   2.109   5.296   2.795
10270SOL    HW131709   2.073   5.219   2.848
10270SOL    HW231710   2.209   5.291   2.793
10271SOL     OW31711   3.601   2.949   0.465
10271SOL    HW131712   3.691   2.921   0.432
10271SOL    HW231713   3.601   3.048   0.481
10272SOL     OW31714   1.213   0.758   4.608
10272SOL    HW131715   1.268   0.821   4.664
10272SOL    HW231716   1.154   0.704   4.668
10273SOL     OW31717   4.406   5.430   3.629
10273SOL    HW131718   4.417   5.482   3.544
10273SOL    HW231719   4.363   5.489   3.698
10274SOL     OW31720   1.596   4.425   5.697
10274SOL    HW131721   1.601   4.342   5.642
10274SOL    HW231722   1.685   4.469   5.699
10275SOL     OW31723   1.234   6.987   1.983
10275SOL    HW131724   1.176   0.036   1.936
10275SOL    HW231725   1.195   6.967   2.073
10276SOL     OW31726   6.664   5.617   6.143
10276SOL    HW131727   6.598   5.683   6.180
10276SOL    HW231728   6.739   5.667   6.098
10277SOL     OW31729   2.657   6.326   3.875
10277SOL    HW131730   2.582   6.367   3.823
10277SOL    HW231731   2.668   6.230   3.849
10278SOL     OW31732   5.824   0.942   5.295
10278SOL    HW131733   5.779   0.857   5.322
10278SOL    HW231734   5.789   0.971   5.206
10279SOL     OW31735   3.166   6.820   4.335
10279SOL    HW131736   3.170   6.728   4.297
10279SOL    HW231737   3.072   6.854   4.328
10280SOL     OW31738   2.400   3.959   1.310
10280SOL    HW131739   2.485   3.924   1.348
10280SOL    HW231740   2.415   3.988   1.216
10281SOL     OW31741   6.059   2.506   2.758
10281SOL    HW131742   6.058   2.460   2.846
10281SOL    HW231743   6.106   2.449   2.691
10282SOL     OW31744   6.338   3.694   4.526
10282SOL    HW131745   6.430   3.716   4.493
10282SOL    HW231746   6.271   3.744   4.472
10283SOL     OW31747   1.254   2.971   0.667
10283SOL    HW131748   1.266   3.045   0.733
10283SOL    HW231749   1.160   2.971   0.634
10284SOL     OW31750   4.976   4.625   5.844
10284SOL    HW131751   4.883   4.639   5.875
10284SOL    HW231752   5.008   4.706   5.794
10285SOL     OW31753   4.588   6.957   1.043
10285SOL    HW131754   4.508   6.992   0.994
10285SOL    HW231755   4.561   6.928   1.135
10286SOL     OW31756   3.367   1.955   3.799
10286SOL    HW131757   3.293   1.943   3.867
10286SOL    HW231758   3.400   1.866   3.770
10287SOL     OW31759   1.743   6.584   1.768
10287SOL    HW131760   1.659   6.626   1.804
10287SOL    HW231761   1.748   6.489   1.801
10288SOL     OW31762   5.105   6.047   2.346
10288SOL    HW131763   5.182   5.983   2.341
10288SOL    HW231764   5.041   6.027   2.272
10289SOL     OW31765   3.187   0.892   2.204
10289SOL    HW131766   3.203   0.821   2.272
10289SOL    HW231767   3.146   0.851   2.122
10290SOL     OW31768   3.723   4.001   2.605
10290SOL    HW131769   3.699   4.096   2.583
10290SOL    HW231770   3.654   3.963   2.667
10291SOL     OW31771   4.108   0.278   3.934
10291SOL    HW131772   4.150   0.261   4.023
10291SOL    HW231773   4.010   0.291   3.946
10292SOL     OW31774   0.870   1.691   4.629
10292SOL    HW131775   0.909   1.783   4.624
10292SOL    HW231776   0.873   1.648   4.539
10293SOL     OW31777   1.810   6.109   2.419
10293SOL    HW131778   1.740   6.114   2.491
10293SOL    HW231779   1.887   6.054   2.452
10294SOL     OW31780   4.969   3.643   3.156
10294SOL    HW131781   5.057   3.688   3.151
10294SOL    HW231782   4.909   3.693   3.218
10295SOL     OW31783   6.146   4.631   6.209
10295SOL    HW131784   6.193   4.665   6.128
10295SOL    HW231785   6.192   4.665   6.291
10296SOL     OW31786   5.108   4.007   6.934
10296SOL    HW131787   5.132   4.095   6.976
10296SOL    HW231788   5.044   3.959   6.994
10297SOL     OW31789   2.584   6.675   4.727
10297SOL    HW131790   2.509   6.613   4.751
10297SOL    HW231791   2.633   6.638   4.648
10298SOL     OW31792   4.411   4.550   3.001
10298SOL    HW131793   4.406   4.650   3.006
10298SOL    HW231794   4.344   4.511   3.064
10299SOL     OW31795   4.440   4.504   2.337
10299SOL    HW131796   4.500   4.424   2.342
10299SOL    HW231797   4.420   4.526   2.241
10300SOL     OW31798   1.782   4.581   2.513
10300SOL    HW131799   1.738   4.498   2.547
10300SOL    HW231800   1.863   4.556   2.459
10301SOL     OW31801   5.874   2.031   2.394
10301SOL    HW131802   5.821   1.957   2.434
10301SOL    HW231803   5.944   1.992   2.333
10302SOL     OW31804   1.137   6.331   3.897
10302SOL    HW131805   1.212   6.274   3.863
10302SOL    HW231806   1.086   6.368   3.819
10303SOL     OW31807   3.451   5.032   1.095
10303SOL    HW131808   3.383   5.104   1.109
10303SOL    HW231809   3.437   4.989   1.006
10304SOL     OW31810   5.904   1.146   3.083
10304SOL    HW131811   5.853   1.182   3.005
10304SOL    HW231812   5.858   1.173   3.168
10305SOL     OW31813   0.781   5.336   6.332
10305SOL    HW131814   0.780   5.397   6.252
10305SOL    HW231815   0.711   5.266   6.321
10306SOL     OW31816   4.436   6.068   6.306
10306SOL    HW131817   4.337   6.057   6.292
10306SOL    HW231818   4.463   6.161   6.280
10307SOL     OW31819   2.507   1.642   4.919
10307SOL    HW131820   2.457   1.728   4.925
10307SOL    HW231821   2.591   1.648   4.973
10308SOL     OW31822   2.911   4.843   4.242
10308SOL    HW131823   2.854   4.766   4.271
10308SOL    HW231824   2.853   4.911   4.196
10309SOL     OW31825   6.166   0.307   3.880
10309SOL    HW131826   6.147   0.255   3.797
10309SOL    HW231827   6.265   0.308   3.897
10310SOL     OW31828   3.638   2.825   1.467
10310SOL    HW131829   3.553   2.836   1.519
10310SOL    HW231830   3.711   2.796   1.529
10311SOL     OW31831   0.638   5.223   1.072
10311SOL    HW131832   0.623   5.140   1.125
10311SOL    HW231833   0.704   5.282   1.121
10312SOL     OW31834   3.749   5.379   1.331
10312SOL    HW131835   3.805   5.374   1.248
10312SOL    HW231836   3.808   5.400   1.409
10313SOL     OW31837   3.864   6.859   2.527
10313SOL    HW131838   3.783   6.801   2.530
10313SOL    HW231839   3.899   6.863   2.434
10314SOL     OW31840   5.570   1.217   1.491
10314SOL    HW131841   5.498   1.152   1.467
10314SOL    HW231842   5.588   1.212   1.589
10315SOL     OW31843   6.469   6.666   4.541
10315SOL    HW131844   6.428   6.613   4.616
10315SOL    HW231845   6.432   6.634   4.454
10316SOL     OW31846   6.548   3.315   4.613
10316SOL    HW131847   6.605   3.236   4.589
10316SOL    HW231848   6.556   3.384   4.541
10317SOL     OW31849   3.459   5.280   6.607
10317SOL    HW131850   3.479   5.371   6.644
10317SOL    HW231851   3.424   5.289   6.514
10318SOL     OW31852   6.548   5.692   1.432
10318SOL    HW131853   6.502   5.781   1.437
10318SOL    HW231854   6.492   5.628   1.380
10319SOL     OW31855   1.247   4.299   4.712
10319SOL    HW131856   1.336   4.306   4.756
10319SOL    HW231857   1.177   4.336   4.773
10320SOL     OW31858   0.643   0.573   0.593
10320SOL    HW131859   0.579   0.516   0.646
10320SOL    HW231860   0.726   0.520   0.573
10321SOL     OW31861   3.863   6.759   4.751
10321SOL    HW131862   3.806   6.778   4.670
10321SOL    HW231863   3.930   6.832   4.761
10322SOL     OW31864   6.561   5.461   0.215
10322SOL    HW131865   6.557   5.472   0.315
10322SOL    HW231866   6.513   5.537   0.171
10323SOL     OW31867   6.244   3.415   6.491
10323SOL    HW131868   6.307   3.370   6.427
10323SOL    HW231869   6.295   3.444   6.573
10324SOL     OW31870   3.255   3.121   3.462
10324SOL    HW131871   3.197   3.168   3.528
10324SOL    HW231872   3.349   3.153   3.471
10325SOL     OW31873   6.704   4.657   4.204
10325SOL    HW131874   6.681   4.753   4.188
10325SOL    HW231875   6.621   4.606   4.228
10326SOL     OW31876   4.649   2.811   7.015
10326SOL    HW131877   4.666   2.799   6.917
10326SOL    HW231878   4.551   2.800   0.015
10327SOL     OW31879   2.577   1.701   2.707
10327SOL    HW131880   2.598   1.777   2.646
10327SOL    HW231881   2.477   1.690   2.714
10328SOL     OW31882   5.929   3.668   2.131
10328SOL    HW131883   5.924   3.758   2.087
10328SOL    HW231884   5.912   3.597   2.064
10329SOL     OW31885   2.756   0.237   4.613
10329SOL    HW131886   2.754   0.231   4.713
10329SOL    HW231887   2.713   0.155   4.574
10330SOL     OW31888   3.708   4.978   2.867
10330SOL    HW131889   3.767   5.044   2.820
10330SOL    HW231890   3.766   4.917   2.922
10331SOL     OW31891   5.920   0.919   2.772
10331SOL    HW131892   5.826   0.899   2.801
10331SOL    HW231893   5.928   1.016   2.749
10332SOL     OW31894   6.980   1.768   6.998
10332SOL    HW131895   6.929   1.839   0.029
10332SOL    HW231896   6.922   1.687   6.988
10333SOL     OW31897   6.170   4.186   4.153
10333SOL    HW131898   6.166   4.177   4.252
10333SOL    HW231899   6.085   4.150   4.113
10334SOL     OW31900   2.141   5.737   3.865
10334SOL    HW131901   2.226   5.787   3.878
10334SOL    HW231902   2.131   5.667   3.935
10335SOL     OW31903   1.677   4.415   6.842
10335SOL    HW131904   1.712   4.442   6.932
10335SOL    HW231905   1.655   4.317   6.843
10336SOL     OW31906   4.585   6.520   2.652
10336SOL    HW131907   4.492   6.554   2.636
10336SOL    HW231908   4.590   6.423   2.629
10337SOL     OW31909   6.809   5.160   5.398
10337SOL    HW131910   6.709   5.150   5.395
10337SOL    HW231911   6.843   5.130   5.487
10338SOL     OW31912   3.545   6.542   1.132
10338SOL    HW131913   3.543   6.490   1.217
10338SOL    HW231914   3.520   6.482   1.056
10339SOL     OW31915   3.662   4.744   1.013
10339SOL    HW131916   3.568   4.739   1.047
10339SOL    HW231917   3.665   4.710   0.919
10340SOL     OW31918   1.445   5.641   6.790
10340SOL    HW131919   1.407   5.572   6.729
10340SOL    HW231920   1.523   5.603   6.840
10341SOL     OW31921   2.240   2.548   1.951
10341SOL    HW131922   2.215   2.492   1.872
10341SOL    HW231923   2.237   2.645   1.925
10342SOL     OW31924   2.210   5.848   5.923
10342SOL    HW131925   2.230   5.944   5.901
10342SOL    HW231926   2.127   5.844   5.979
10343SOL     OW31927   2.157   3.754   0.091
10343SOL    HW131928   2.215   3.835   0.101
10343SOL    HW231929   2.071   3.768   0.138
10344SOL     OW31930   4.126   3.645   3.343
10344SOL    HW131931   4.189   3.718   3.317
10344SOL    HW231932   4.077   3.671   3.426
10345SOL     OW31933   1.786   1.220   6.905
10345SOL    HW131934   1.723   1.278   6.956
10345SOL    HW231935   1.878   1.261   6.905
10346SOL     OW31936   5.734   0.321   1.127
10346SOL    HW131937   5.701   0.243   1.075
10346SOL    HW231938   5.824   0.349   1.093
10347SOL     OW31939   5.326   2.198   0.816
10347SOL    HW131940   5.413   2.167   0.777
10347SOL    HW231941   5.271   2.241   0.744
10348SOL     OW31942   6.824   0.687   6.150
10348SOL    HW131943   6.835   0.595   6.113
10348SOL    HW231944   6.823   0.682   6.250
10349SOL     OW31945   6.192   0.529   0.977
10349SOL    HW131946   6.231   0.548   1.067
10349SOL    HW231947   6.234   0.588   0.909
10350SOL     OW31948   3.730   6.129   4.660
10350SOL    HW131949   3.684   6.105   4.746
10350SOL    HW231950   3.817   6.174   4.681
10351SOL     OW31951   6.015   4.516   5.908
10351SOL    HW131952   6.084   4.585   5.886
10351SOL    HW231953   6.039   4.472   5.994
10352SOL     OW31954   5.081   2.169   6.473
10352SOL    HW131955   5.177   2.178   6.446
10352SOL    HW231956   5.056   2.242   6.537
10353SOL     OW31957   6.953   3.164   3.870
10353SOL    HW131958   7.011   3.111   3.809
10353SOL    HW231959   6.907   3.236   3.819
10354SOL     OW31960   0.255   3.737   1.420
10354SOL    HW131961   0.205   3.807   1.471
10354SOL    HW231962   0.297   3.672   1.484
10355SOL     OW31963   1.148   0.931   1.257
10355SOL    HW131964   1.104   1.021   1.257
10355SOL    HW231965   1.219   0.929   1.187
10356SOL     OW31966   0.706   3.417   6.816
10356SOL    HW131967   0.779   3.450   6.757
10356SOL    HW231968   0.631   3.382   6.760
10357SOL     OW31969   2.350   2.319   6.033
10357SOL    HW131970   2.297   2.398   6.061
10357SOL    HW231971   2.340   2.306   5.934
10358SOL     OW31972   1.903   3.662   2.831
10358SOL    HW131973   1.805   3.666   2.814
10358SOL    HW231974   1.930   3.568   2.851
10359SOL     OW31975   4.642   2.315   2.244
10359SOL    HW131976   4.604   2.397   2.201
10359SOL    HW231977   4.742   2.315   2.235
10360SOL     OW31978   5.283   4.923   2.516
10360SOL    HW131979   5.347   4.850   2.540
10360SOL    HW231980   5.218   4.936   2.591
10361SOL     OW31981   2.421   0.975   2.214
10361SOL    HW131982   2.475   0.894   2.234
10361SOL    HW231983   2.461   1.024   2.136
10362SOL     OW31984   0.285   4.745   2.788
10362SOL    HW131985   0.376   4.715   2.758
10362SOL    HW231986   0.274   4.727   2.886
10363SOL     OW31987   4.457   2.788   0.414
10363SOL    HW131988   4.443   2.801   0.316
10363SOL    HW231989   4.556   2.790   0.434
10364SOL     OW31990   5.441   4.586   1.494
10364SOL    HW131991   5.518   4.523   1.494
10364SOL    HW231992   5.420   4.612   1.589
10365SOL     OW31993   5.715   4.985   0.364
10365SOL    HW131994   5.809   5.017   0.378
10365SOL    HW231995   5.708   4.939   0.275
10366SOL     OW31996   4.402   6.898   3.431
10366SOL    HW131997   4.393   6.916   3.529
10366SOL    HW231998   4.467   6.824   3.416
10367SOL     OW31999   0.124   2.200   2.239
10367SOL    HW132000   0.197   2.199   2.171
10367SOL    HW232001   0.080   2.110   2.242
10368SOL     OW32002   2.253   1.056   2.947
10368SOL    HW132003   2.154   1.048   2.933
10368SOL    HW232004   2.300   1.041   2.860
10369SOL     OW32005   2.764   6.481   6.133
10369SOL    HW132006   2.737   6.525   6.047
10369SOL    HW232007   2.684   6.472   6.193
10370SOL     OW32008   6.288   1.358   4.795
10370SOL    HW132009   6.376   1.401   4.774
10370SOL    HW232010   6.291   1.321   4.888
10371SOL     OW32011   2.999   6.645   3.385
10371SOL    HW132012   2.986   6.627   3.288
10371SOL    HW232013   3.031   6.738   3.399
10372SOL     OW32014   2.885   0.792   1.659
10372SOL    HW132015   2.854   0.700   1.681
10372SOL    HW232016   2.963   0.787   1.596
10373SOL     OW32017   0.437   6.786   4.508
10373SOL    HW132018   0.535   6.768   4.518
10373SOL    HW232019   0.418   6.881   4.534
10374SOL     OW32020   2.916   6.409   4.704
10374SOL    HW132021   2.918   6.310   4.696
10374SOL    HW232022   2.970   6.450   4.630
10375SOL     OW32023   3.078   2.207   6.657
10375SOL    HW132024   3.070   2.137   6.727
10375SOL    HW232025   3.105   2.294   6.699
10376SOL     OW32026   1.551   6.353   3.811
10376SOL    HW132027   1.606   6.298   3.749
10376SOL    HW232028   1.476   6.396   3.760
10377SOL     OW32029   0.721   2.071   1.647
10377SOL    HW132030   0.802   2.028   1.687
10377SOL    HW232031   0.715   2.048   1.550
10378SOL     OW32032   6.859   5.372   5.930
10378SOL    HW132033   6.945   5.391   5.883
10378SOL    HW232034   6.863   5.412   6.022
10379SOL     OW32035   3.356   5.604   3.868
10379SOL    HW132036   3.291   5.608   3.792
10379SOL    HW232037   3.329   5.532   3.932
10380SOL     OW32038   1.207   2.221   4.935
10380SOL    HW132039   1.271   2.245   4.862
10380SOL    HW232040   1.134   2.163   4.897
10381SOL     OW32041   4.022   4.290   0.565
10381SOL    HW132042   4.062   4.382   0.569
10381SOL    HW232043   4.079   4.232   0.506
10382SOL     OW32044   3.173   6.176   2.109
10382SOL    HW132045   3.118   6.259   2.111
10382SOL    HW232046   3.149   6.121   2.029
10383SOL     OW32047   1.612   3.749   0.557
10383SOL    HW132048   1.654   3.827   0.511
10383SOL    HW232049   1.558   3.781   0.635
10384SOL     OW32050   6.616   6.614   0.781
10384SOL    HW132051   6.647   6.552   0.854
10384SOL    HW232052   6.570   6.561   0.710
10385SOL     OW32053   3.641   5.875   6.036
10385SOL    HW132054   3.547   5.881   6.071
10385SOL    HW232055   3.639   5.863   5.937
10386SOL     OW32056   0.832   0.945   5.537
10386SOL    HW132057   0.747   0.900   5.566
10386SOL    HW232058   0.901   0.935   5.609
10387SOL     OW32059   4.993   2.743   2.793
10387SOL    HW132060   5.080   2.727   2.746
10387SOL    HW232061   5.007   2.733   2.892
10388SOL     OW32062   2.847   6.677   0.813
10388SOL    HW132063   2.773   6.741   0.794
10388SOL    HW232064   2.872   6.629   0.728
10389SOL     OW32065   5.401   3.341   0.448
10389SOL    HW132066   5.491   3.349   0.406
10389SOL    HW232067   5.399   3.263   0.510
10390SOL     OW32068   1.414   2.623   0.258
10390SOL    HW132069   1.361   2.557   0.205
10390SOL    HW232070   1.489   2.575   0.305
10391SOL     OW32071   1.798   5.962   3.801
10391SOL    HW132072   1.706   5.997   3.787
10391SOL    HW232073   1.807   5.929   3.895
10392SOL     OW32074   5.744   5.149   5.677
10392SOL    HW132075   5.696   5.231   5.707
10392SOL    HW232076   5.806   5.118   5.749
10393SOL     OW32077   1.623   3.795   3.566
10393SOL    HW132078   1.582   3.876   3.608
10393SOL    HW232079   1.662   3.736   3.636
10394SOL     OW32080   2.209   5.484   4.480
10394SOL    HW132081   2.164   5.488   4.569
10394SOL    HW232082   2.270   5.405   4.476
10395SOL     OW32083   0.436   6.574   1.285
10395SOL    HW132084   0.524   6.593   1.242
10395SOL    HW232085   0.397   6.658   1.321
10396SOL     OW32086   3.863   1.739   3.704
10396SOL    HW132087   3.815   1.820   3.739
10396SOL    HW232088   3.961   1.749   3.719
10397SOL     OW32089   3.113   1.603   3.972
10397SOL    HW132090   3.182   1.576   4.038
10397SOL    HW232091   3.055   1.524   3.950
10398SOL     OW32092   6.512   2.560   1.073
10398SOL    HW132093   6.581   2.536   1.005
10398SOL    HW232094   6.551   2.554   1.164
10399SOL     OW32095   5.786   1.982   3.128
10399SOL    HW132096   5.747   2.047   3.194
10399SOL    HW232097   5.877   2.013   3.101
10400SOL     OW32098   4.740   6.031   0.264
10400SOL    HW132099   4.648   6.058   0.294
10400SOL    HW232100   4.739   5.936   0.234
10401SOL     OW32101   0.173   6.626   2.374
10401SOL    HW132102   0.182   6.531   2.406
10401SOL    HW232103   0.091   6.667   2.413
10402SOL     OW32104   6.357   2.021   5.065
10402SOL    HW132105   6.447   2.021   5.022
10402SOL    HW232106   6.346   2.104   5.120
10403SOL     OW32107   5.311   1.628   3.543
10403SOL    HW132108   5.363   1.695   3.596
10403SOL    HW232109   5.307   1.657   3.448
10404SOL     OW32110   6.122   6.052   4.578
10404SOL    HW132111   6.196   6.098   4.527
10404SOL    HW232112   6.037   6.103   4.566
10405SOL     OW32113   1.186   0.408   4.803
10405SOL    HW132114   1.154   0.503   4.793
10405SOL    HW232115   1.281   0.409   4.836
10406SOL     OW32116   2.599   4.652   3.257
10406SOL    HW132117   2.566   4.560   3.277
10406SOL    HW232118   2.699   4.653   3.259
10407SOL     OW32119   2.362   0.088   6.221
10407SOL    HW132120   2.418   0.128   6.148
10407SOL    HW232121   2.268   0.079   6.191
10408SOL     OW32122   4.401   6.910   1.259
10408SOL    HW132123   4.444   6.850   1.327
10408SOL    HW232124   4.331   6.966   1.304
10409SOL     OW32125   0.421   4.796   1.231
10409SOL    HW132126   0.378   4.871   1.181
10409SOL    HW232127   0.417   4.713   1.177
10410SOL     OW32128   5.394   2.034   1.842
10410SOL    HW132129   5.363   1.939   1.843
10410SOL    HW232130   5.314   2.094   1.837
10411SOL     OW32131   3.483   6.520   3.420
10411SOL    HW132132   3.535   6.479   3.495
10411SOL    HW232133   3.506   6.616   3.412
10412SOL     OW32134   0.649   1.101   6.773
10412SOL    HW132135   0.632   1.190   6.731
10412SOL    HW232136   0.744   1.074   6.758
10413SOL     OW32137   0.030   2.827   0.207
10413SOL    HW132138   0.097   2.753   0.201
10413SOL    HW232139   0.078   2.913   0.222
10414SOL     OW32140   3.731   5.198   5.913
10414SOL    HW132141   3.774   5.231   5.997
10414SOL    HW232142   3.798   5.150   5.857
10415SOL     OW32143   1.908   3.688   4.632
10415SOL    HW132144   1.873   3.676   4.539
10415SOL    HW232145   1.993   3.636   4.643
10416SOL     OW32146   6.011   0.364   4.875
10416SOL    HW132147   6.110   0.378   4.877
10416SOL    HW232148   5.965   0.448   4.846
10417SOL     OW32149   3.092   5.111   4.131
10417SOL    HW132150   2.994   5.100   4.116
10417SOL    HW232151   3.140   5.031   4.095
10418SOL     OW32152   6.945   3.227   6.448
10418SOL    HW132153   0.008   3.284   6.465
10418SOL    HW232154   6.963   3.166   6.371
10419SOL     OW32155   2.140   6.862   5.870
10419SOL    HW132156   2.096   6.806   5.941
10419SOL    HW232157   2.070   6.912   5.819
10420SOL     OW32158   0.453   3.871   3.761
10420SOL    HW132159   0.494   3.958   3.734
10420SOL    HW232160   0.501   3.835   3.841
10421SOL     OW32161   0.575   2.190   4.039
10421SOL    HW132162   0.617   2.144   3.960
10421SOL    HW232163   0.481   2.155   4.051
10422SOL     OW32164   6.154   3.251   5.055
10422SOL    HW132165   6.183   3.334   5.007
10422SOL    HW232166   6.063   3.224   5.025
10423SOL     OW32167   6.248   6.105   5.431
10423SOL    HW132168   6.347   6.108   5.445
10423SOL    HW232169   6.221   6.173   5.363
10424SOL     OW32170   5.091   2.759   6.947
10424SOL    HW132171   5.003   2.712   6.945
10424SOL    HW232172   5.108   2.795   0.021
10425SOL     OW32173   1.208   0.389   1.753
10425SOL    HW132174   1.160   0.465   1.708
10425SOL    HW232175   1.272   0.347   1.689
10426SOL     OW32176   5.824   4.984   0.946
10426SOL    HW132177   5.900   4.920   0.935
10426SOL    HW232178   5.757   4.970   0.873
10427SOL     OW32179   3.704   0.749   6.651
10427SOL    HW132180   3.723   0.775   6.556
10427SOL    HW232181   3.673   0.830   6.701
10428SOL     OW32182   3.591   1.003   3.501
10428SOL    HW132183   3.493   0.990   3.519
10428SOL    HW232184   3.630   1.061   3.572
10429SOL     OW32185   6.704   4.164   1.024
10429SOL    HW132186   6.637   4.124   0.962
10429SOL    HW232187   6.662   4.238   1.076
10430SOL     OW32188   5.085   0.058   4.492
10430SOL    HW132189   5.008   0.114   4.525
10430SOL    HW232190   5.121   0.098   4.408
10431SOL     OW32191   3.053   6.026   4.306
10431SOL    HW132192   3.066   5.938   4.354
10431SOL    HW232193   3.118   6.032   4.231
10432SOL     OW32194   5.398   6.392   4.941
10432SOL    HW132195   5.433   6.376   4.849
10432SOL    HW232196   5.440   6.326   5.004
10433SOL     OW32197   1.186   6.177   1.562
10433SOL    HW132198   1.179   6.084   1.600
10433SOL    HW232199   1.231   6.173   1.473
10434SOL     OW32200   3.935   6.580   3.407
10434SOL    HW132201   3.874   6.647   3.449
10434SOL    HW232202   4.027   6.618   3.400
10435SOL     OW32203   0.039   0.561   4.902
10435SOL    HW132204   0.069   0.583   4.809
10435SOL    HW232205   0.003   0.643   4.947
10436SOL     OW32206   0.625   5.050   5.183
10436SOL    HW132207   0.621   5.052   5.283
10436SOL    HW232208   0.564   5.121   5.147
10437SOL     OW32209   5.011   4.442   5.617
10437SOL    HW132210   5.098   4.393   5.626
10437SOL    HW232211   5.003   4.508   5.691
10438SOL     OW32212   6.463   6.363   0.209
10438SOL    HW132213   6.364   6.375   0.217
10438SOL    HW232214   6.507   6.390   0.295
10439SOL     OW32215   4.430   0.943   5.405
10439SOL    HW132216   4.460   0.970   5.496
10439SOL    HW232217   4.331   0.957   5.397
10440SOL     OW32218   1.487   0.150   0.482
10440SOL    HW132219   1.406   0.115   0.435
10440SOL    HW232220   1.459   0.212   0.555
10441SOL     OW32221   2.998   0.149   1.320
10441SOL    HW132222   3.070   0.204   1.277
10441SOL    HW232223   2.969   0.077   1.256
10442SOL     OW32224   3.018   6.591   6.045
10442SOL    HW132225   3.075   6.511   6.027
10442SOL    HW232226   2.930   6.561   6.082
10443SOL     OW32227   4.908   3.916   4.710
10443SOL    HW132228   4.851   3.891   4.788
10443SOL    HW232229   4.901   3.846   4.639
10444SOL     OW32230   3.910   6.492   4.867
10444SOL    HW132231   3.876   6.569   4.813
10444SOL    HW232232   3.922   6.413   4.808
10445SOL     OW32233   0.697   4.956   4.696
10445SOL    HW132234   0.778   5.009   4.722
10445SOL    HW232235   0.652   4.999   4.618
10446SOL     OW32236   1.467   3.092   5.157
10446SOL    HW132237   1.449   2.994   5.163
10446SOL    HW232238   1.449   3.135   5.246
10447SOL     OW32239   0.506   0.817   2.090
10447SOL    HW132240   0.508   0.896   2.151
10447SOL    HW232241   0.580   0.755   2.115
10448SOL     OW32242   3.530   1.004   2.633
10448SOL    HW132243   3.547   1.093   2.591
10448SOL    HW232244   3.560   1.006   2.728
10449SOL     OW32245   2.375   5.385   4.957
10449SOL    HW132246   2.425   5.369   5.042
10449SOL    HW232247   2.400   5.315   4.890
10450SOL     OW32248   0.732   1.691   0.840
10450SOL    HW132249   0.648   1.637   0.838
10450SOL    HW232250   0.728   1.756   0.915
10451SOL     OW32251   1.235   5.873   2.378
10451SOL    HW132252   1.238   5.774   2.389
10451SOL    HW232253   1.146   5.900   2.341
10452SOL     OW32254   6.775   3.810   2.244
10452SOL    HW132255   6.863   3.799   2.291
10452SOL    HW232256   6.786   3.875   2.168
10453SOL     OW32257   3.805   5.862   1.564
10453SOL    HW132258   3.855   5.792   1.514
10453SOL    HW232259   3.759   5.923   1.499
10454SOL     OW32260   4.505   3.702   0.751
10454SOL    HW132261   4.540   3.769   0.817
10454SOL    HW232262   4.424   3.657   0.789
10455SOL     OW32263   6.102   6.125   3.402
10455SOL    HW132264   6.059   6.066   3.333
10455SOL    HW232265   6.070   6.098   3.493
10456SOL     OW32266   3.336   6.666   0.869
10456SOL    HW132267   3.279   6.747   0.854
10456SOL    HW232268   3.319   6.629   0.960
10457SOL     OW32269   3.221   3.564   1.900
10457SOL    HW132270   3.290   3.493   1.882
10457SOL    HW232271   3.164   3.576   1.819
10458SOL     OW32272   0.485   1.479   5.620
10458SOL    HW132273   0.551   1.410   5.650
10458SOL    HW232274   0.392   1.444   5.632
10459SOL     OW32275   4.452   5.723   1.596
10459SOL    HW132276   4.419   5.801   1.650
10459SOL    HW232277   4.552   5.721   1.600
10460SOL     OW32278   1.397   4.531   1.538
10460SOL    HW132279   1.452   4.448   1.525
10460SOL    HW232280   1.309   4.520   1.492
10461SOL     OW32281   1.348   5.043   5.324
10461SOL    HW132282   1.443   5.070   5.340
10461SOL    HW232283   1.319   4.978   5.394
10462SOL     OW32284   5.939   2.343   3.712
10462SOL    HW132285   5.919   2.310   3.804
10462SOL    HW232286   5.979   2.435   3.717
10463SOL     OW32287   3.888   2.909   5.710
10463SOL    HW132288   3.801   2.930   5.754
10463SOL    HW232289   3.952   2.985   5.725
10464SOL     OW32290   6.624   6.658   1.178
10464SOL    HW132291   6.693   6.693   1.115
10464SOL    HW232292   6.544   6.719   1.177
10465SOL     OW32293   6.701   5.570   1.890
10465SOL    HW132294   6.719   5.600   1.797
10465SOL    HW232295   6.680   5.472   1.890
10466SOL     OW32296   4.664   5.012   5.972
10466SOL    HW132297   4.720   5.083   5.930
10466SOL    HW232298   4.573   5.011   5.929
10467SOL     OW32299   1.580   2.288   6.024
10467SOL    HW132300   1.661   2.275   6.082
10467SOL    HW232301   1.538   2.199   6.006
10468SOL     OW32302   4.199   4.802   2.764
10468SOL    HW132303   4.263   4.782   2.690
10468SOL    HW232304   4.110   4.825   2.725
10469SOL     OW32305   4.067   3.057   6.354
10469SOL    HW132306   4.069   3.039   6.256
10469SOL    HW232307   3.998   3.126   6.374
10470SOL     OW32308   2.675   2.324   3.832
10470SOL    HW132309   2.685   2.227   3.850
10470SOL    HW232310   2.666   2.374   3.918
10471SOL     OW32311   2.656   2.345   1.426
10471SOL    HW132312   2.732   2.287   1.456
10471SOL    HW232313   2.631   2.321   1.333
10472SOL     OW32314   2.705   5.152   0.907
10472SOL    HW132315   2.768   5.223   0.935
10472SOL    HW232316   2.611   5.185   0.916
10473SOL     OW32317   6.521   1.093   0.105
10473SOL    HW132318   6.588   1.160   0.136
10473SOL    HW232319   6.564   1.031   0.039
10474SOL     OW32320   4.387   1.578   4.503
10474SOL    HW132321   4.393   1.668   4.545
10474SOL    HW232322   4.339   1.585   4.415
10475SOL     OW32323   4.983   6.975   2.828
10475SOL    HW132324   5.040   6.971   2.746
10475SOL    HW232325   4.988   0.049   2.869
10476SOL     OW32326   0.057   6.311   0.084
10476SOL    HW132327   0.104   6.310   7.014
10476SOL    HW232328   0.112   6.363   0.150
10477SOL     OW32329   6.375   1.757   3.944
10477SOL    HW132330   6.462   1.725   3.981
10477SOL    HW232331   6.377   1.857   3.934
10478SOL     OW32332   0.533   0.577   1.202
10478SOL    HW132333   0.576   0.612   1.119
10478SOL    HW232334   0.434   0.578   1.191
10479SOL     OW32335   0.402   2.671   1.930
10479SOL    HW132336   0.347   2.751   1.954
10479SOL    HW232337   0.485   2.701   1.884
10480SOL     OW32338   6.385   0.635   1.456
10480SOL    HW132339   6.480   0.608   1.472
10480SOL    HW232340   6.348   0.676   1.539
10481SOL     OW32341   2.252   0.095   4.307
10481SOL    HW132342   2.224   0.009   4.264
10481SOL    HW232343   2.338   0.125   4.267
10482SOL     OW32344   0.185   5.758   4.488
10482SOL    HW132345   0.257   5.820   4.521
10482SOL    HW232346   0.128   5.729   4.565
10483SOL     OW32347   0.299   5.845   0.298
10483SOL    HW132348   0.397   5.837   0.279
10483SOL    HW232349   0.286   5.880   0.391
10484SOL     OW32350   6.139   1.016   1.530
10484SOL    HW132351   6.176   1.061   1.612
10484SOL    HW232352   6.099   1.084   1.470
10485SOL     OW32353   3.167   3.588   2.160
10485SOL    HW132354   3.192   3.595   2.063
10485SOL    HW232355   3.073   3.616   2.173
10486SOL     OW32356   6.576   0.649   5.991
10486SOL    HW132357   6.671   0.661   6.018
10486SOL    HW232358   6.517   0.662   6.070
10487SOL     OW32359   4.612   2.033   1.435
10487SOL    HW132360   4.571   2.115   1.476
10487SOL    HW232361   4.615   1.960   1.504
10488SOL     OW32362   2.259   1.957   6.319
10488SOL    HW132363   2.170   1.911   6.320
10488SOL    HW232364   2.287   1.973   6.225
10489SOL     OW32365   5.816   6.714   3.520
10489SOL    HW132366   5.758   6.779   3.570
10489SOL    HW232367   5.759   6.639   3.485
10490SOL     OW32368   5.736   2.135   0.565
10490SOL    HW132369   5.813   2.094   0.613
10490SOL    HW232370   5.659   2.146   0.628
10491SOL     OW32371   2.120   2.102   5.366
10491SOL    HW132372   2.117   2.188   5.417
10491SOL    HW232373   2.074   2.115   5.278
10492SOL     OW32374   4.997   6.275   1.331
10492SOL    HW132375   4.946   6.299   1.414
10492SOL    HW232376   4.933   6.262   1.255
10493SOL     OW32377   2.873   6.353   1.860
10493SOL    HW132378   2.934   6.313   1.792
10493SOL    HW232379   2.819   6.425   1.817
10494SOL     OW32380   5.902   4.324   5.775
10494SOL    HW132381   5.810   4.310   5.810
10494SOL    HW232382   5.948   4.395   5.828
10495SOL     OW32383   0.290   0.287   0.640
10495SOL    HW132384   0.303   0.202   0.588
10495SOL    HW232385   0.200   0.325   0.617
10496SOL     OW32386   6.286   4.925   5.650
10496SOL    HW132387   6.191   4.943   5.675
10496SOL    HW232388   6.344   4.999   5.685
10497SOL     OW32389   1.217   6.770   2.464
10497SOL    HW132390   1.153   6.694   2.452
10497SOL    HW232391   1.297   6.739   2.515
10498SOL     OW32392   6.002   5.780   0.779
10498SOL    HW132393   6.093   5.819   0.769
10498SOL    HW232394   5.973   5.740   0.692
10499SOL     OW32395   4.690   0.029   1.838
10499SOL    HW132396   4.591   0.026   1.823
10499SOL    HW232397   4.708   0.056   1.933
10500SOL     OW32398   5.806   2.153   5.878
10500SOL    HW132399   5.754   2.180   5.797
10500SOL    HW232400   5.894   2.199   5.879
10501SOL     OW32401   2.397   5.584   2.155
10501SOL    HW132402   2.464   5.521   2.117
10501SOL    HW232403   2.375   5.654   2.088
10502SOL     OW32404   2.636   3.529   0.838
10502SOL    HW132405   2.552   3.518   0.892
10502SOL    HW232406   2.624   3.485   0.749
10503SOL     OW32407   5.854   3.499   0.711
10503SOL    HW132408   5.932   3.497   0.649
10503SOL    HW232409   5.782   3.557   0.673
10504SOL     OW32410   0.246   2.232   5.528
10504SOL    HW132411   0.188   2.206   5.605
10504SOL    HW232412   0.339   2.197   5.544
10505SOL     OW32413   5.655   6.686   1.279
10505SOL    HW132414   5.733   6.659   1.222
10505SOL    HW232415   5.669   6.653   1.372
10506SOL     OW32416   0.659   3.622   0.112
10506SOL    HW132417   0.697   3.704   0.156
10506SOL    HW232418   0.724   3.546   0.121
10507SOL     OW32419   2.692   5.316   6.864
10507SOL    HW132420   2.789   5.293   6.867
10507SOL    HW232421   2.681   5.415   6.851
10508SOL     OW32422   0.606   5.927   3.949
10508SOL    HW132423   0.589   5.934   4.047
10508SOL    HW232424   0.702   5.947   3.930
10509SOL     OW32425   6.284   4.987   4.875
10509SOL    HW132426   6.252   4.959   4.966
10509SOL    HW232427   6.227   4.943   4.806
10510SOL     OW32428   4.672   6.280   0.542
10510SOL    HW132429   4.688   6.373   0.508
10510SOL    HW232430   4.613   6.283   0.622
10511SOL     OW32431   3.107   1.312   2.319
10511SOL    HW132432   3.086   1.302   2.416
10511SOL    HW232433   3.037   1.370   2.276
10512SOL     OW32434   3.537   0.129   6.128
10512SOL    HW132435   3.458   0.083   6.168
10512SOL    HW232436   3.621   0.082   6.157
10513SOL     OW32437   6.615   2.994   3.211
10513SOL    HW132438   6.568   3.082   3.205
10513SOL    HW232439   6.586   2.946   3.293
10514SOL     OW32440   1.259   1.946   1.649
10514SOL    HW132441   1.281   1.982   1.740
10514SOL    HW232442   1.315   1.865   1.631
10515SOL     OW32443   1.251   3.296   4.337
10515SOL    HW132444   1.169   3.259   4.293
10515SOL    HW232445   1.240   3.394   4.350
10516SOL     OW32446   2.635   1.875   0.531
10516SOL    HW132447   2.683   1.932   0.464
10516SOL    HW232448   2.674   1.783   0.532
10517SOL     OW32449   1.554   3.895   1.427
10517SOL    HW132450   1.467   3.942   1.421
10517SOL    HW232451   1.594   3.910   1.518
10518SOL     OW32452   0.003   6.072   1.709
10518SOL    HW132453   7.012   5.976   1.682
10518SOL    HW232454   6.953   6.094   1.779
10519SOL     OW32455   2.670   4.614   0.211
10519SOL    HW132456   2.700   4.574   0.124
10519SOL    HW232457   2.573   4.595   0.224
10520SOL     OW32458   0.183   2.208   6.006
10520SOL    HW132459   0.210   2.115   6.030
10520SOL    HW232460   0.140   2.208   5.915
10521SOL     OW32461   6.748   5.599   1.624
10521SOL    HW132462   6.674   5.642   1.573
10521SOL    HW232463   6.756   5.503   1.596
10522SOL     OW32464   0.425   3.026   3.379
10522SOL    HW132465   0.480   2.965   3.322
10522SOL    HW232466   0.374   3.089   3.320
10523SOL     OW32467   0.392   4.340   3.631
10523SOL    HW132468   0.419   4.413   3.694
10523SOL    HW232469   0.453   4.340   3.552
10524SOL     OW32470   0.537   6.392   4.003
10524SOL    HW132471   0.452   6.353   4.038
10524SOL    HW232472   0.517   6.463   3.936
10525SOL     OW32473   4.005   6.987   5.154
10525SOL    HW132474   4.009   6.887   5.153
10525SOL    HW232475   3.911   7.016   5.135
10526SOL     OW32476   0.876   6.818   1.428
10526SOL    HW132477   0.806   6.825   1.499
10526SOL    HW232478   0.901   6.722   1.416
10527SOL     OW32479   0.971   0.739   6.052
10527SOL    HW132480   0.899   0.786   6.103
10527SOL    HW232481   1.049   0.802   6.040
10528SOL     OW32482   1.032   4.036   6.053
10528SOL    HW132483   0.934   4.042   6.034
10528SOL    HW232484   1.067   4.127   6.076
10529SOL     OW32485   1.898   5.694   4.431
10529SOL    HW132486   1.940   5.738   4.352
10529SOL    HW232487   1.934   5.734   4.515
10530SOL     OW32488   1.089   6.495   5.891
10530SOL    HW132489   1.173   6.475   5.840
10530SOL    HW232490   1.028   6.416   5.885
10531SOL     OW32491   2.871   2.063   4.510
10531SOL    HW132492   2.850   1.967   4.492
10531SOL    HW232493   2.798   2.104   4.565
10532SOL     OW32494   6.881   0.005   6.252
10532SOL    HW132495   6.821   6.943   6.262
10532SOL    HW232496   6.856   0.074   6.320
10533SOL     OW32497   3.155   5.937   3.808
10533SOL    HW132498   3.224   5.928   3.880
10533SOL    HW232499   3.135   5.847   3.769
10534SOL     OW32500   6.438   5.359   1.900
10534SOL    HW132501   6.356   5.398   1.857
10534SOL    HW232502   6.420   5.344   1.997
10535SOL     OW32503   2.160   2.023   2.307
10535SOL    HW132504   2.250   2.009   2.266
10535SOL    HW232505   2.141   2.121   2.315
10536SOL     OW32506   4.619   0.513   4.185
10536SOL    HW132507   4.576   0.585   4.130
10536SOL    HW232508   4.668   0.555   4.261
10537SOL     OW32509   5.302   6.356   3.938
10537SOL    HW132510   5.391   6.322   3.907
10537SOL    HW232511   5.293   6.340   4.037
10538SOL     OW32512   6.476   3.253   0.952
10538SOL    HW132513   6.575   3.244   0.955
10538SOL    HW232514   6.442   3.223   0.863
10539SOL     OW32515   6.320   5.629   1.236
10539SOL    HW132516   6.314   5.591   1.144
10539SOL    HW232517   6.320   5.729   1.231
10540SOL     OW32518   2.184   3.164   5.379
10540SOL    HW132519   2.128   3.169   5.296
10540SOL    HW232520   2.166   3.079   5.427
10541SOL     OW32521   3.880   3.275   3.444
10541SOL    HW132522   3.792   3.322   3.439
10541SOL    HW232523   3.924   3.278   3.355
10542SOL     OW32524   6.392   0.292   4.635
10542SOL    HW132525   6.469   0.319   4.694
10542SOL    HW232526   6.320   0.361   4.641
10543SOL     OW32527   0.979   1.798   4.335
10543SOL    HW132528   0.937   1.865   4.274
10543SOL    HW232529   1.011   1.844   4.418
10544SOL     OW32530   2.229   5.770   2.279
10544SOL    HW132531   2.279   5.686   2.262
10544SOL    HW232532   2.132   5.757   2.258
10545SOL     OW32533   1.999   2.052   1.683
10545SOL    HW132534   1.935   1.994   1.733
10545SOL    HW232535   1.948   2.129   1.643
10546SOL     OW32536   3.282   6.328   0.944
10546SOL    HW132537   3.296   6.419   0.982
10546SOL    HW232538   3.225   6.334   0.863
10547SOL     OW32539   4.934   2.234   3.847
10547SOL    HW132540   4.858   2.176   3.815
10547SOL    HW232541   4.983   2.271   3.767
10548SOL     OW32542   0.233   4.340   4.171
10548SOL    HW132543   0.239   4.270   4.100
10548SOL    HW232544   0.157   4.402   4.151
10549SOL     OW32545   0.232   1.381   0.429
10549SOL    HW132546   0.199   1.397   0.522
10549SOL    HW232547   0.193   1.449   0.368
10550SOL     OW32548   4.392   6.507   3.486
10550SOL    HW132549   4.338   6.487   3.568
10550SOL    HW232550   4.471   6.563   3.511
10551SOL     OW32551   1.876   2.079   6.621
10551SOL    HW132552   1.913   2.022   6.547
10551SOL    HW232553   1.873   2.025   6.706
10552SOL     OW32554   2.018   0.943   5.278
10552SOL    HW132555   2.100   0.962   5.331
10552SOL    HW232556   2.040   0.945   5.180
10553SOL     OW32557   0.366   4.134   1.295
10553SOL    HW132558   0.377   4.040   1.264
10553SOL    HW232559   0.393   4.196   1.221
10554SOL     OW32560   5.014   5.524   2.026
10554SOL    HW132561   5.073   5.554   1.951
10554SOL    HW232562   5.014   5.424   2.031
10555SOL     OW32563   2.415   2.384   1.024
10555SOL    HW132564   2.456   2.389   0.933
10555SOL    HW232565   2.430   2.471   1.071
10556SOL     OW32566   2.804   1.047   3.708
10556SOL    HW132567   2.868   1.064   3.782
10556SOL    HW232568   2.753   1.131   3.688
10557SOL     OW32569   1.516   3.312   3.612
10557SOL    HW132570   1.597   3.254   3.602
10557SOL    HW232571   1.508   3.342   3.707
10558SOL     OW32572   3.955   5.779   6.109
10558SOL    HW132573   3.907   5.847   6.165
10558SOL    HW232574   4.034   5.744   6.159
10559SOL     OW32575   3.887   0.334   2.055
10559SOL    HW132576   3.807   0.354   2.111
10559SOL    HW232577   3.899   0.407   1.988
10560SOL     OW32578   4.914   0.017   2.449
10560SOL    HW132579   4.848   0.046   2.380
10560SOL    HW232580   4.870   6.975   2.516
10561SOL     OW32581   3.918   4.227   1.645
10561SOL    HW132582   3.991   4.183   1.594
10561SOL    HW232583   3.957   4.293   1.709
10562SOL     OW32584   4.415   5.708   0.475
10562SOL    HW132585   4.409   5.641   0.402
10562SOL    HW232586   4.370   5.793   0.447
10563SOL     OW32587   1.094   0.624   1.661
10563SOL    HW132588   1.071   0.659   1.752
10563SOL    HW232589   1.088   0.699   1.595
10564SOL     OW32590   5.561   6.693   3.785
10564SOL    HW132591   5.647   6.677   3.832
10564SOL    HW232592   5.561   6.785   3.745
10565SOL     OW32593   6.540   6.508   5.539
10565SOL    HW132594   6.632   6.549   5.541
10565SOL    HW232595   6.505   6.511   5.445
10566SOL     OW32596   3.385   1.923   6.735
10566SOL    HW132597   3.308   1.950   6.793
10566SOL    HW232598   3.449   1.999   6.727
10567SOL     OW32599   2.047   3.001   5.859
10567SOL    HW132600   2.069   2.905   5.842
10567SOL    HW232601   2.120   3.059   5.823
10568SOL     OW32602   6.005   2.826   0.799
10568SOL    HW132603   5.922   2.871   0.832
10568SOL    HW232604   5.982   2.766   0.722
10569SOL     OW32605   5.844   0.566   1.777
10569SOL    HW132606   5.925   0.581   1.834
10569SOL    HW232607   5.777   0.637   1.794
10570SOL     OW32608   1.493   4.450   3.554
10570SOL    HW132609   1.461   4.355   3.556
10570SOL    HW232610   1.591   4.453   3.578
10571SOL     OW32611   6.878   4.102   5.105
10571SOL    HW132612   6.955   4.136   5.051
10571SOL    HW232613   6.803   4.168   5.100
10572SOL     OW32614   0.029   5.150   3.009
10572SOL    HW132615   7.003   5.078   2.955
10572SOL    HW232616   0.063   5.221   2.947
10573SOL     OW32617   5.011   0.220   4.780
10573SOL    HW132618   4.950   0.298   4.790
10573SOL    HW232619   5.094   0.249   4.732
10574SOL     OW32620   6.888   1.477   4.131
10574SOL    HW132621   6.924   1.533   4.206
10574SOL    HW232622   6.852   1.536   4.059
10575SOL     OW32623   6.824   1.376   3.649
10575SOL    HW132624   6.768   1.322   3.587
10575SOL    HW232625   6.831   1.330   3.738
10576SOL     OW32626   0.417   5.903   3.316
10576SOL    HW132627   0.389   5.998   3.307
10576SOL    HW232628   0.340   5.848   3.346
10577SOL     OW32629   1.742   4.366   0.512
10577SOL    HW132630   1.842   4.371   0.516
10577SOL    HW232631   1.703   4.455   0.536
10578SOL     OW32632   4.563   1.067   3.277
10578SOL    HW132633   4.655   1.088   3.308
10578SOL    HW232634   4.552   1.097   3.182
10579SOL     OW32635   3.714   2.811   1.209
10579SOL    HW132636   3.680   2.843   1.297
10579SOL    HW232637   3.746   2.717   1.217
10580SOL     OW32638   6.051   6.510   5.942
10580SOL    HW132639   6.141   6.466   5.947
10580SOL    HW232640   6.051   6.578   5.869
10581SOL     OW32641   5.767   0.567   2.274
10581SOL    HW132642   5.725   0.651   2.308
10581SOL    HW232643   5.698   0.494   2.269
10582SOL     OW32644   4.511   4.453   6.345
10582SOL    HW132645   4.527   4.443   6.443
10582SOL    HW232646   4.590   4.420   6.294
10583SOL     OW32647   4.521   0.253   4.141
10583SOL    HW132648   4.529   0.203   4.055
10583SOL    HW232649   4.554   0.347   4.127
10584SOL     OW32650   6.476   7.008   6.773
10584SOL    HW132651   6.531   7.016   6.690
10584SOL    HW232652   6.536   0.001   6.853
10585SOL     OW32653   2.365   2.085   5.757
10585SOL    HW132654   2.297   2.033   5.705
10585SOL    HW232655   2.351   2.183   5.744
10586SOL     OW32656   4.939   5.161   5.899
10586SOL    HW132657   4.917   5.259   5.900
10586SOL    HW232658   4.895   5.118   5.820
10587SOL     OW32659   6.492   5.258   6.939
10587SOL    HW132660   6.410   5.313   6.922
10587SOL    HW232661   6.466   5.163   6.959
10588SOL     OW32662   1.810   1.767   4.947
10588SOL    HW132663   1.747   1.839   4.974
10588SOL    HW232664   1.782   1.681   4.990
10589SOL     OW32665   5.398   0.188   4.834
10589SOL    HW132666   5.349   0.239   4.764
10589SOL    HW232667   5.365   0.094   4.836
10590SOL     OW32668   0.260   6.777   1.389
10590SOL    HW132669   0.219   6.775   1.298
10590SOL    HW232670   0.201   6.828   1.451
10591SOL     OW32671   2.118   1.751   1.009
10591SOL    HW132672   2.084   1.684   1.075
10591SOL    HW232673   2.203   1.717   0.968
10592SOL     OW32674   5.362   3.280   4.404
10592SOL    HW132675   5.281   3.329   4.437
10592SOL    HW232676   5.384   3.310   4.312
10593SOL     OW32677   2.689   5.817   0.867
10593SOL    HW132678   2.622   5.890   0.850
10593SOL    HW232679   2.649   5.749   0.928
10594SOL     OW32680   5.017   1.724   2.805
10594SOL    HW132681   4.956   1.797   2.776
10594SOL    HW232682   4.964   1.650   2.846
10595SOL     OW32683   5.842   0.031   6.652
10595SOL    HW132684   5.865   0.025   6.749
10595SOL    HW232685   5.906   0.093   6.606
10596SOL     OW32686   4.883   0.489   0.128
10596SOL    HW132687   4.923   0.527   0.212
10596SOL    HW232688   4.793   0.452   0.149
10597SOL     OW32689   2.985   1.211   6.044
10597SOL    HW132690   3.071   1.167   6.068
10597SOL    HW232691   2.921   1.203   6.121
10598SOL     OW32692   3.321   2.398   6.436
10598SOL    HW132693   3.310   2.475   6.373
10598SOL    HW232694   3.234   2.378   6.480
10599SOL     OW32695   6.445   3.668   6.750
10599SOL    HW132696   6.501   3.589   6.722
10599SOL    HW232697   6.353   3.636   6.773
10600SOL     OW32698   3.406   2.830   1.607
10600SOL    HW132699   3.346   2.800   1.532
10600SOL    HW232700   3.369   2.913   1.648
10601SOL     OW32701   1.425   4.961   5.742
10601SOL    HW132702   1.476   4.998   5.820
10601SOL    HW232703   1.489   4.929   5.673
10602SOL     OW32704   0.885   0.817   1.239
10602SOL    HW132705   0.974   0.857   1.262
10602SOL    HW232706   0.838   0.875   1.173
10603SOL     OW32707   4.533   0.225   3.242
10603SOL    HW132708   4.564   0.155   3.177
10603SOL    HW232709   4.559   0.198   3.335
10604SOL     OW32710   6.842   5.685   5.054
10604SOL    HW132711   6.751   5.714   5.082
10604SOL    HW232712   6.850   5.586   5.064
10605SOL     OW32713   2.190   6.197   6.804
10605SOL    HW132714   2.120   6.268   6.793
10605SOL    HW232715   2.150   6.117   6.848
10606SOL     OW32716   6.932   1.472   1.136
10606SOL    HW132717   6.918   1.560   1.090
10606SOL    HW232718   6.960   1.403   1.069
10607SOL     OW32719   3.767   5.154   0.221
10607SOL    HW132720   3.734   5.151   0.315
10607SOL    HW232721   3.857   5.199   0.219
10608SOL     OW32722   6.713   3.437   4.287
10608SOL    HW132723   6.790   3.490   4.323
10608SOL    HW232724   6.727   3.420   4.190
10609SOL     OW32725   3.183   6.769   6.855
10609SOL    HW132726   3.128   6.852   6.851
10609SOL    HW232727   3.162   6.719   6.940
10610SOL     OW32728   0.327   2.068   4.283
10610SOL    HW132729   0.251   2.113   4.237
10610SOL    HW232730   0.396   2.136   4.308
10611SOL     OW32731   2.637   4.827   6.618
10611SOL    HW132732   2.685   4.909   6.588
10611SOL    HW232733   2.619   4.768   6.539
10612SOL     OW32734   5.131   2.247   4.245
10612SOL    HW132735   5.099   2.195   4.165
10612SOL    HW232736   5.083   2.335   4.248
10613SOL     OW32737   6.417   5.898   5.600
10613SOL    HW132738   6.386   5.992   5.614
10613SOL    HW232739   6.481   5.873   5.673
10614SOL     OW32740   5.377   1.263   4.746
10614SOL    HW132741   5.311   1.331   4.777
10614SOL    HW232742   5.329   1.188   4.700
10615SOL     OW32743   3.377   0.894   6.149
10615SOL    HW132744   3.420   0.805   6.163
10615SOL    HW232745   3.396   0.953   6.228
10616SOL     OW32746   3.189   6.230   0.182
10616SOL    HW132747   3.255   6.284   0.234
10616SOL    HW232748   3.146   6.287   0.112
10617SOL     OW32749   2.932   4.266   1.450
10617SOL    HW132750   2.895   4.345   1.403
10617SOL    HW232751   3.029   4.255   1.427
10618SOL     OW32752   1.652   4.859   5.573
10618SOL    HW132753   1.728   4.804   5.539
10618SOL    HW232754   1.651   4.948   5.528
10619SOL     OW32755   0.538   2.833   3.201
10619SOL    HW132756   0.493   2.829   3.112
10619SOL    HW232757   0.629   2.790   3.195
10620SOL     OW32758   1.058   0.242   5.401
10620SOL    HW132759   1.096   0.238   5.308
10620SOL    HW232760   0.978   0.302   5.401
10621SOL     OW32761   0.470   3.964   2.169
10621SOL    HW132762   0.379   3.995   2.197
10621SOL    HW232763   0.470   3.946   2.071
10622SOL     OW32764   4.327   2.426   2.003
10622SOL    HW132765   4.380   2.510   2.014
10622SOL    HW232766   4.382   2.359   1.954
10623SOL     OW32767   6.535   5.527   5.910
10623SOL    HW132768   6.574   5.541   6.001
10623SOL    HW232769   6.443   5.566   5.907
10624SOL     OW32770   0.389   2.621   5.809
10624SOL    HW132771   0.411   2.579   5.722
10624SOL    HW232772   0.383   2.551   5.880
10625SOL     OW32773   0.342   3.847   1.172
10625SOL    HW132774   0.321   3.815   1.264
10625SOL    HW232775   0.440   3.839   1.154
10626SOL     OW32776   3.498   2.865   0.766
10626SOL    HW132777   3.410   2.912   0.774
10626SOL    HW232778   3.540   2.886   0.678
10627SOL     OW32779   5.860   1.599   0.106
10627SOL    HW132780   5.845   1.513   0.057
10627SOL    HW232781   5.792   1.666   0.077
10628SOL     OW32782   4.369   0.104   1.050
10628SOL    HW132783   4.352   0.031   1.116
10628SOL    HW232784   4.283   0.152   1.030
10629SOL     OW32785   2.921   5.086   4.452
10629SOL    HW132786   2.831   5.101   4.412
10629SOL    HW232787   2.923   4.997   4.497
10630SOL     OW32788   6.248   1.566   2.250
10630SOL    HW132789   6.306   1.612   2.183
10630SOL    HW232790   6.155   1.560   2.216
10631SOL     OW32791   3.963   4.374   5.722
10631SOL    HW132792   4.056   4.348   5.748
10631SOL    HW232793   3.904   4.368   5.802
10632SOL     OW32794   5.232   6.596   3.847
10632SOL    HW132795   5.260   6.501   3.860
10632SOL    HW232796   5.312   6.656   3.854
10633SOL     OW32797   2.345   2.647   1.482
10633SOL    HW132798   2.407   2.615   1.553
10633SOL    HW232799   2.394   2.650   1.394
10634SOL     OW32800   2.211   4.996   0.586
10634SOL    HW132801   2.211   4.922   0.654
10634SOL    HW232802   2.286   5.059   0.606
10635SOL     OW32803   1.732   2.962   6.114
10635SOL    HW132804   1.719   2.967   6.015
10635SOL    HW232805   1.795   3.034   6.144
10636SOL     OW32806   0.586   2.246   1.809
10636SOL    HW132807   0.623   2.338   1.822
10636SOL    HW232808   0.639   2.198   1.738
10637SOL     OW32809   1.311   5.203   6.268
10637SOL    HW132810   1.409   5.211   6.290
10637SOL    HW232811   1.296   5.235   6.174
10638SOL     OW32812   5.075   6.345   2.649
10638SOL    HW132813   5.076   6.364   2.551
10638SOL    HW232814   5.004   6.401   2.693
10639SOL     OW32815   0.955   3.635   2.664
10639SOL    HW132816   0.944   3.555   2.605
10639SOL    HW232817   0.912   3.714   2.621
10640SOL     OW32818   4.491   0.476   3.487
10640SOL    HW132819   4.488   0.376   3.483
10640SOL    HW232820   4.533   0.504   3.574
10641SOL     OW32821   2.175   1.825   3.142
10641SOL    HW132822   2.260   1.877   3.137
10641SOL    HW232823   2.174   1.754   3.072
10642SOL     OW32824   6.391   1.366   0.578
10642SOL    HW132825   6.308   1.380   0.632
10642SOL    HW232826   6.367   1.348   0.483
10643SOL     OW32827   2.545   5.567   5.492
10643SOL    HW132828   2.474   5.631   5.518
10643SOL    HW232829   2.506   5.475   5.485
10644SOL     OW32830   5.128   2.869   1.003
10644SOL    HW132831   5.185   2.801   1.050
10644SOL    HW232832   5.185   2.949   0.980
10645SOL     OW32833   1.191   2.951   4.335
10645SOL    HW132834   1.207   2.884   4.407
10645SOL    HW232835   1.135   3.026   4.372
10646SOL     OW32836   0.230   0.434   5.988
10646SOL    HW132837   0.304   0.490   6.025
10646SOL    HW232838   0.227   0.443   5.889
10647SOL     OW32839   3.095   5.482   4.758
10647SOL    HW132840   3.138   5.460   4.671
10647SOL    HW232841   3.150   5.445   4.833
10648SOL     OW32842   6.013   4.811   6.835
10648SOL    HW132843   5.981   4.904   6.850
10648SOL    HW232844   5.983   4.780   6.744
10649SOL     OW32845   0.199   3.829   3.340
10649SOL    HW132846   0.127   3.786   3.286
10649SOL    HW232847   0.245   3.898   3.285
10650SOL     OW32848   0.586   0.793   3.804
10650SOL    HW132849   0.498   0.795   3.757
10650SOL    HW232850   0.628   0.704   3.793
10651SOL     OW32851   6.162   6.162   6.246
10651SOL    HW132852   6.220   6.136   6.323
10651SOL    HW232853   6.069   6.178   6.279
10652SOL     OW32854   2.530   6.492   6.280
10652SOL    HW132855   2.478   6.557   6.225
10652SOL    HW232856   2.514   6.509   6.377
10653SOL     OW32857   4.149   5.681   4.138
10653SOL    HW132858   4.086   5.679   4.061
10653SOL    HW232859   4.213   5.604   4.132
10654SOL     OW32860   5.246   0.226   6.595
10654SOL    HW132861   5.208   0.291   6.661
10654SOL    HW232862   5.233   0.260   6.503
10655SOL     OW32863   1.657   5.560   6.944
10655SOL    HW132864   1.719   5.487   6.916
10655SOL    HW232865   1.710   5.641   6.970
10656SOL     OW32866   6.879   1.827   2.055
10656SOL    HW132867   6.948   1.899   2.070
10656SOL    HW232868   6.885   1.795   1.960
10657SOL     OW32869   5.924   0.653   4.749
10657SOL    HW132870   5.907   0.681   4.843
10657SOL    HW232871   6.011   0.691   4.718
10658SOL     OW32872   6.863   4.601   4.672
10658SOL    HW132873   6.776   4.650   4.677
10658SOL    HW232874   6.877   4.568   4.579
10659SOL     OW32875   0.944   5.700   0.573
10659SOL    HW132876   1.029   5.713   0.522
10659SOL    HW232877   0.911   5.606   0.561
10660SOL     OW32878   5.745   3.823   6.413
10660SOL    HW132879   5.741   3.911   6.461
10660SOL    HW232880   5.653   3.785   6.406
10661SOL     OW32881   1.289   6.681   0.670
10661SOL    HW132882   1.314   6.765   0.717
10661SOL    HW232883   1.235   6.623   0.730
10662SOL     OW32884   4.779   0.466   2.375
10662SOL    HW132885   4.703   0.525   2.347
10662SOL    HW232886   4.747   0.399   2.442
10663SOL     OW32887   0.585   1.423   2.502
10663SOL    HW132888   0.538   1.367   2.571
10663SOL    HW232889   0.643   1.490   2.547
10664SOL     OW32890   6.432   4.263   5.305
10664SOL    HW132891   6.335   4.290   5.299
10664SOL    HW232892   6.478   4.321   5.371
10665SOL     OW32893   0.953   1.677   0.187
10665SOL    HW132894   0.860   1.707   0.166
10665SOL    HW232895   0.955   1.578   0.196
10666SOL     OW32896   2.995   3.830   1.435
10666SOL    HW132897   3.065   3.883   1.483
10666SOL    HW232898   2.908   3.879   1.439
10667SOL     OW32899   4.667   2.403   3.881
10667SOL    HW132900   4.673   2.335   3.808
10667SOL    HW232901   4.755   2.450   3.891
10668SOL     OW32902   2.827   1.413   4.980
10668SOL    HW132903   2.791   1.324   5.009
10668SOL    HW232904   2.775   1.486   5.026
10669SOL     OW32905   5.134   0.415   1.683
10669SOL    HW132906   5.170   0.481   1.616
10669SOL    HW232907   5.149   0.322   1.649
10670SOL     OW32908   5.602   5.216   5.061
10670SOL    HW132909   5.599   5.201   4.962
10670SOL    HW232910   5.587   5.129   5.108
10671SOL     OW32911   2.003   2.137   3.989
10671SOL    HW132912   1.908   2.117   4.014
10671SOL    HW232913   2.011   2.140   3.890
10672SOL     OW32914   6.696   4.020   1.773
10672SOL    HW132915   6.702   3.920   1.767
10672SOL    HW232916   6.760   4.061   1.708
10673SOL     OW32917   6.971   1.275   6.581
10673SOL    HW132918   6.950   1.213   6.506
10673SOL    HW232919   0.022   1.234   6.641
10674SOL     OW32920   4.075   3.487   3.087
10674SOL    HW132921   4.123   3.514   3.170
10674SOL    HW232922   4.109   3.540   3.009
10675SOL     OW32923   1.723   6.757   6.911
10675SOL    HW132924   1.679   6.670   6.931
10675SOL    HW232925   1.736   6.766   6.812
10676SOL     OW32926   6.493   6.551   5.274
10676SOL    HW132927   6.457   6.585   5.187
10676SOL    HW232928   6.582   6.509   5.259
10677SOL     OW32929   1.876   0.470   1.573
10677SOL    HW132930   1.902   0.444   1.480
10677SOL    HW232931   1.943   0.433   1.637
10678SOL     OW32932   4.900   5.754   4.011
10678SOL    HW132933   4.981   5.747   3.952
10678SOL    HW232934   4.929   5.763   4.106
10679SOL     OW32935   4.430   5.309   6.808
10679SOL    HW132936   4.421   5.353   6.719
10679SOL    HW232937   4.507   5.245   6.806
10680SOL     OW32938   3.703   2.092   4.159
10680SOL    HW132939   3.637   2.125   4.092
10680SOL    HW232940   3.671   2.005   4.197
10681SOL     OW32941   0.532   3.661   0.462
10681SOL    HW132942   0.533   3.585   0.397
10681SOL    HW232943   0.590   3.735   0.428
10682SOL     OW32944   0.460   1.402   5.227
10682SOL    HW132945   0.546   1.440   5.259
10682SOL    HW232946   0.473   1.356   5.139
10683SOL     OW32947   4.851   1.644   3.679
10683SOL    HW132948   4.794   1.638   3.598
10683SOL    HW232949   4.831   1.568   3.741
10684SOL     OW32950   5.264   5.148   3.152
10684SOL    HW132951   5.246   5.117   3.246
10684SOL    HW232952   5.259   5.247   3.148
10685SOL     OW32953   0.794   5.450   1.894
10685SOL    HW132954   0.852   5.382   1.849
10685SOL    HW232955   0.749   5.507   1.825
10686SOL     OW32956   1.077   4.504   5.414
10686SOL    HW132957   1.147   4.570   5.384
10686SOL    HW232958   0.987   4.544   5.402
10687SOL     OW32959   5.787   5.659   3.607
10687SOL    HW132960   5.868   5.619   3.649
10687SOL    HW232961   5.794   5.653   3.507
10688SOL     OW32962   6.786   3.658   2.555
10688SOL    HW132963   6.738   3.621   2.476
10688SOL    HW232964   6.849   3.730   2.526
10689SOL     OW32965   0.248   0.174   3.571
10689SOL    HW132966   0.328   0.117   3.593
10689SOL    HW232967   0.223   0.228   3.651
10690SOL     OW32968   0.267   5.961   3.750
10690SOL    HW132969   0.305   5.903   3.822
10690SOL    HW232970   0.225   6.042   3.792
10691SOL     OW32971   0.480   2.259   2.740
10691SOL    HW132972   0.467   2.355   2.764
10691SOL    HW232973   0.577   2.235   2.745
10692SOL     OW32974   3.051   6.254   3.764
10692SOL    HW132975   3.027   6.242   3.668
10692SOL    HW232976   2.994   6.327   3.804
10693SOL     OW32977   1.672   6.057   0.657
10693SOL    HW132978   1.730   5.975   0.661
10693SOL    HW232979   1.671   6.093   0.564
10694SOL     OW32980   5.481   6.761   0.511
10694SOL    HW132981   5.442   6.745   0.420
10694SOL    HW232982   5.484   6.674   0.562
10695SOL     OW32983   0.126   2.357   2.806
10695SOL    HW132984   0.062   2.292   2.763
10695SOL    HW232985   0.134   2.335   2.903
10696SOL     OW32986   6.720   4.219   3.521
10696SOL    HW132987   6.633   4.267   3.519
10696SOL    HW232988   6.764   4.233   3.610
10697SOL     OW32989   0.019   6.070   5.009
10697SOL    HW132990   0.089   6.133   4.974
10697SOL    HW232991   6.955   6.077   4.952
10698SOL     OW32992   5.353   4.043   6.342
10698SOL    HW132993   5.329   4.055   6.438
10698SOL    HW232994   5.451   4.053   6.330
10699SOL     OW32995   3.712   4.115   1.821
10699SOL    HW132996   3.770   4.157   1.751
10699SOL    HW232997   3.634   4.070   1.778
10700SOL     OW32998   6.155   6.952   0.478
10700SOL    HW132999   6.206   7.008   0.542
10700SOL    HW233000   6.170   6.855   0.499
10701SOL     OW33001   3.051   6.518   6.784
10701SOL    HW133002   2.988   6.595   6.796
10701SOL    HW233003   3.135   6.550   6.741
10702SOL     OW33004   5.530   2.794   1.650
10702SOL    HW133005   5.447   2.746   1.619
10702SOL    HW233006   5.558   2.859   1.580
10703SOL     OW33007   3.152   3.103   5.021
10703SOL    HW133008   3.153   3.052   4.935
10703SOL    HW233009   3.158   3.201   5.002
10704SOL     OW33010   6.138   5.844   1.572
10704SOL    HW133011   6.229   5.806   1.556
10704SOL    HW233012   6.137   5.940   1.543
10705SOL     OW33013   5.610   4.902   2.252
10705SOL    HW133014   5.584   4.816   2.297
10705SOL    HW233015   5.595   4.894   2.154
10706SOL     OW33016   5.501   0.418   2.518
10706SOL    HW133017   5.523   0.325   2.546
10706SOL    HW233018   5.494   0.422   2.418
10707SOL     OW33019   6.867   6.729   4.312
10707SOL    HW133020   6.930   6.806   4.306
10707SOL    HW233021   6.894   6.658   4.247
10708SOL     OW33022   4.290   0.733   1.968
10708SOL    HW133023   4.253   0.754   2.058
10708SOL    HW233024   4.388   0.718   1.974
10709SOL     OW33025   5.770   5.668   5.528
10709SOL    HW133026   5.779   5.652   5.626
10709SOL    HW233027   5.674   5.660   5.501
10710SOL     OW33028   0.460   0.237   4.048
10710SOL    HW133029   0.390   0.295   4.009
10710SOL    HW233030   0.544   0.289   4.062
10711SOL     OW33031   1.742   0.152   4.435
10711SOL    HW133032   1.692   0.110   4.359
10711SOL    HW233033   1.840   0.141   4.421
10712SOL     OW33034   3.033   0.869   1.888
10712SOL    HW133035   2.988   0.821   1.813
10712SOL    HW233036   3.131   0.876   1.870
10713SOL     OW33037   0.846   3.891   1.739
10713SOL    HW133038   0.861   3.990   1.749
10713SOL    HW233039   0.829   3.851   1.829
10714SOL     OW33040   5.846   3.793   4.608
10714SOL    HW133041   5.902   3.837   4.537
10714SOL    HW233042   5.885   3.704   4.631
10715SOL     OW33043   5.032   0.842   2.745
10715SOL    HW133044   5.010   0.761   2.690
10715SOL    HW233045   5.130   0.845   2.762
10716SOL     OW33046   5.732   2.287   4.243
10716SOL    HW133047   5.755   2.270   4.147
10716SOL    HW233048   5.816   2.291   4.297
10717SOL     OW33049   1.470   1.933   0.850
10717SOL    HW133050   1.472   1.849   0.795
10717SOL    HW233051   1.428   1.914   0.938
10718SOL     OW33052   1.371   2.972   6.333
10718SOL    HW133053   1.388   2.873   6.326
10718SOL    HW233054   1.458   3.021   6.330
10719SOL     OW33055   6.376   5.869   2.524
10719SOL    HW133056   6.294   5.814   2.509
10719SOL    HW233057   6.372   5.909   2.616
10720SOL     OW33058   0.790   4.354   4.866
10720SOL    HW133059   0.838   4.266   4.861
10720SOL    HW233060   0.847   4.426   4.828
10721SOL     OW33061   5.735   4.275   5.268
10721SOL    HW133062   5.659   4.224   5.308
10721SOL    HW233063   5.787   4.320   5.340
10722SOL     OW33064   0.984   4.805   0.256
10722SOL    HW133065   0.971   4.885   0.197
10722SOL    HW233066   1.026   4.731   0.203
10723SOL     OW33067   0.246   3.493   6.185
10723SOL    HW133068   0.239   3.538   6.096
10723SOL    HW233069   0.265   3.396   6.171
10724SOL     OW33070   5.997   0.933   6.769
10724SOL    HW133071   6.016   0.946   6.867
10724SOL    HW233072   5.945   0.849   6.757
10725SOL     OW33073   1.031   5.268   4.525
10725SOL    HW133074   0.958   5.311   4.577
10725SOL    HW233075   0.994   5.233   4.439
10726SOL     OW33076   5.175   6.934   5.840
10726SOL    HW133077   5.232   6.879   5.779
10726SOL    HW233078   5.163   0.008   5.801
10727SOL     OW33079   0.521   4.981   4.918
10727SOL    HW133080   0.590   4.983   4.846
10727SOL    HW233081   0.498   4.886   4.940
10728SOL     OW33082   0.185   5.866   0.032
10728SOL    HW133083   0.120   5.791   0.015
10728SOL    HW233084   0.225   5.855   0.123
10729SOL     OW33085   5.314   1.101   1.521
10729SOL    HW133086   5.305   1.056   1.610
10729SOL    HW233087   5.234   1.159   1.505
10730SOL     OW33088   2.098   0.330   1.698
10730SOL    HW133089   2.099   0.276   1.783
10730SOL    HW233090   2.192   0.344   1.667
10731SOL     OW33091   2.919   5.966   0.930
10731SOL    HW133092   2.990   5.906   0.967
10731SOL    HW233093   2.833   5.916   0.924
10732SOL     OW33094   5.766   5.136   3.810
10732SOL    HW133095   5.786   5.061   3.747
10732SOL    HW233096   5.741   5.217   3.758
10733SOL     OW33097   6.391   1.922   1.046
10733SOL    HW133098   6.428   1.970   0.966
10733SOL    HW233099   6.381   1.824   1.024
10734SOL     OW33100   0.901   0.569   6.877
10734SOL    HW133101   0.865   0.659   6.901
10734SOL    HW233102   0.837   0.523   6.816
10735SOL     OW33103   1.820   3.609   3.330
10735SOL    HW133104   1.812   3.520   3.284
10735SOL    HW233105   1.746   3.669   3.299
10736SOL     OW33106   1.580   0.538   3.089
10736SOL    HW133107   1.531   0.480   3.025
10736SOL    HW233108   1.546   0.632   3.081
10737SOL     OW33109   2.199   1.662   0.351
10737SOL    HW133110   2.159   1.662   0.443
10737SOL    HW233111   2.218   1.568   0.323
10738SOL     OW33112   3.148   0.395   3.728
10738SOL    HW133113   3.171   0.310   3.681
10738SOL    HW233114   3.124   0.376   3.823
10739SOL     OW33115   0.525   1.406   1.205
10739SOL    HW133116   0.453   1.342   1.232
10739SOL    HW233117   0.597   1.357   1.157
10740SOL     OW33118   0.132   4.608   5.243
10740SOL    HW133119   0.200   4.679   5.258
10740SOL    HW233120   0.174   4.530   5.195
10741SOL     OW33121   6.637   0.070   1.634
10741SOL    HW133122   6.612   0.127   1.556
10741SOL    HW233123   6.560   0.011   1.658
10742SOL     OW33124   6.008   0.567   1.329
10742SOL    HW133125   6.057   0.479   1.329
10742SOL    HW233126   5.939   0.567   1.401
10743SOL     OW33127   2.699   1.602   5.125
10743SOL    HW133128   2.618   1.615   5.181
10743SOL    HW233129   2.764   1.676   5.141
10744SOL     OW33130   3.714   1.081   1.310
10744SOL    HW133131   3.786   1.149   1.327
10744SOL    HW233132   3.649   1.118   1.243
10745SOL     OW33133   0.058   5.221   6.955
10745SOL    HW133134   0.106   5.274   0.008
10745SOL    HW233135   0.021   5.138   6.996
10746SOL     OW33136   2.125   4.166   1.257
10746SOL    HW133137   2.195   4.160   1.328
10746SOL    HW233138   2.102   4.074   1.225
10747SOL     OW33139   4.255   0.860   3.625
10747SOL    HW133140   4.325   0.854   3.554
10747SOL    HW233141   4.238   0.769   3.662
10748SOL     OW33142   3.876   0.886   1.376
10748SOL    HW133143   3.813   0.963   1.387
10748SOL    HW233144   3.904   0.853   1.466
10749SOL     OW33145   0.205   5.808   3.522
10749SOL    HW133146   0.270   5.735   3.503
10749SOL    HW233147   0.229   5.853   3.608
10750SOL     OW33148   4.460   6.119   4.830
10750SOL    HW133149   4.477   6.038   4.885
10750SOL    HW233150   4.489   6.200   4.881
10751SOL     OW33151   1.593   4.859   4.125
10751SOL    HW133152   1.611   4.791   4.055
10751SOL    HW233153   1.678   4.902   4.154
10752SOL     OW33154   5.824   4.210   6.112
10752SOL    HW133155   5.858   4.188   6.021
10752SOL    HW233156   5.888   4.175   6.181
10753SOL     OW33157   4.314   6.604   4.292
10753SOL    HW133158   4.282   6.674   4.227
10753SOL    HW233159   4.257   6.605   4.374
10754SOL     OW33160   1.054   1.467   3.274
10754SOL    HW133161   1.020   1.373   3.269
10754SOL    HW233162   0.994   1.527   3.221
10755SOL     OW33163   6.931   1.064   6.366
10755SOL    HW133164   6.882   1.060   6.279
10755SOL    HW233165   6.870   1.037   6.440
10756SOL     OW33166   6.973   4.281   0.345
10756SOL    HW133167   6.945   4.336   0.266
10756SOL    HW233168   0.023   4.214   0.316
10757SOL     OW33169   1.290   2.841   0.202
10757SOL    HW133170   1.304   2.919   0.264
10757SOL    HW233171   1.314   2.756   0.249
10758SOL     OW33172   0.815   6.727   4.323
10758SOL    HW133173   0.801   6.765   4.415
10758SOL    HW233174   0.901   6.677   4.321
10759SOL     OW33175   1.816   2.888   1.106
10759SOL    HW133176   1.748   2.932   1.047
10759SOL    HW233177   1.900   2.872   1.054
10760SOL     OW33178   6.620   1.190   1.474
10760SOL    HW133179   6.569   1.191   1.560
10760SOL    HW233180   6.692   1.121   1.480
10761SOL     OW33181   0.960   1.042   6.046
10761SOL    HW133182   1.011   1.015   6.128
10761SOL    HW233183   0.938   1.140   6.052
10762SOL     OW33184   4.280   1.848   4.613
10762SOL    HW133185   4.326   1.937   4.605
10762SOL    HW233186   4.198   1.848   4.557
10763SOL     OW33187   4.559   6.129   2.246
10763SOL    HW133188   4.593   6.066   2.315
10763SOL    HW233189   4.627   6.140   2.173
10764SOL     OW33190   5.588   2.470   5.913
10764SOL    HW133191   5.658   2.541   5.907
10764SOL    HW233192   5.498   2.512   5.915
10765SOL     OW33193   5.432   2.192   0.325
10765SOL    HW133194   5.351   2.238   0.290
10765SOL    HW233195   5.514   2.245   0.302
10766SOL     OW33196   5.127   3.414   1.163
10766SOL    HW133197   5.062   3.371   1.100
10766SOL    HW233198   5.109   3.513   1.167
10767SOL     OW33199   1.273   0.695   0.036
10767SOL    HW133200   1.210   0.679   0.111
10767SOL    HW233201   1.224   0.689   6.966
10768SOL     OW33202   4.902   4.214   1.215
10768SOL    HW133203   4.807   4.192   1.237
10768SOL    HW233204   4.949   4.244   1.298
10769SOL     OW33205   2.631   4.658   4.822
10769SOL    HW133206   2.614   4.751   4.856
10769SOL    HW233207   2.678   4.605   4.893
10770SOL     OW33208   5.612   0.783   5.169
10770SOL    HW133209   5.630   0.684   5.171
10770SOL    HW233210   5.546   0.802   5.097
10771SOL     OW33211   5.383   1.374   3.181
10771SOL    HW133212   5.329   1.292   3.199
10771SOL    HW233213   5.346   1.421   3.101
10772SOL     OW33214   6.803   6.812   4.767
10772SOL    HW133215   6.727   6.839   4.708
10772SOL    HW233216   6.787   6.719   4.801
10773SOL     OW33217   0.056   5.560   0.027
10773SOL    HW133218   6.982   5.527   0.047
10773SOL    HW233219   0.055   5.612   6.958
10774SOL     OW33220   1.608   1.387   6.108
10774SOL    HW133221   1.677   1.317   6.123
10774SOL    HW233222   1.519   1.343   6.091
10775SOL     OW33223   0.105   4.210   1.273
10775SOL    HW133224   0.203   4.188   1.276
10775SOL    HW233225   0.051   4.126   1.279
10776SOL     OW33226   0.890   6.875   0.004
10776SOL    HW133227   0.835   6.803   6.979
10776SOL    HW233228   0.961   6.834   0.061
10777SOL     OW33229   3.568   6.177   2.978
10777SOL    HW133230   3.519   6.264   2.968
10777SOL    HW233231   3.523   6.107   2.923
10778SOL     OW33232   5.832   6.766   4.550
10778SOL    HW133233   5.813   6.763   4.452
10778SOL    HW233234   5.812   6.857   4.585
10779SOL     OW33235   6.454   4.705   3.645
10779SOL    HW133236   6.529   4.689   3.709
10779SOL    HW233237   6.454   4.801   3.616
10780SOL     OW33238   2.076   0.934   3.736
10780SOL    HW133239   2.112   0.897   3.823
10780SOL    HW233240   2.037   0.859   3.683
10781SOL     OW33241   4.361   0.620   3.293
10781SOL    HW133242   4.410   0.562   3.358
10781SOL    HW233243   4.399   0.608   3.202
10782SOL     OW33244   5.760   1.665   2.353
10782SOL    HW133245   5.692   1.733   2.328
10782SOL    HW233246   5.806   1.694   2.437
10783SOL     OW33247   0.757   3.639   3.413
10783SOL    HW133248   0.819   3.564   3.389
10783SOL    HW233249   0.683   3.644   3.345
10784SOL     OW33250   3.656   0.263   4.286
10784SOL    HW133251   3.731   0.199   4.271
10784SOL    HW233252   3.665   0.303   4.378
10785SOL     OW33253   0.191   4.745   2.158
10785SOL    HW133254   0.267   4.726   2.095
10785SOL    HW233255   0.217   4.818   2.221
10786SOL     OW33256   5.388   4.844   3.312
10786SOL    HW133257   5.306   4.897   3.290
10786SOL    HW233258   5.450   4.901   3.366
10787SOL     OW33259   1.887   1.366   4.550
10787SOL    HW133260   1.956   1.328   4.612
10787SOL    HW233261   1.844   1.445   4.592
10788SOL     OW33262   1.912   4.654   6.260
10788SOL    HW133263   1.874   4.637   6.351
10788SOL    HW233264   1.898   4.574   6.202
10789SOL     OW33265   0.318   2.758   6.331
10789SOL    HW133266   0.238   2.718   6.377
10789SOL    HW233267   0.341   2.703   6.251
10790SOL     OW33268   1.358   0.959   1.943
10790SOL    HW133269   1.458   0.962   1.951
10790SOL    HW233270   1.326   0.868   1.968
10791SOL     OW33271   0.922   6.951   1.006
10791SOL    HW133272   0.844   7.004   1.039
10791SOL    HW233273   1.003   7.009   1.006
10792SOL     OW33274   3.298   3.824   3.637
10792SOL    HW133275   3.250   3.907   3.663
10792SOL    HW233276   3.392   3.827   3.672
10793SOL     OW33277   5.993   3.380   4.287
10793SOL    HW133278   5.972   3.320   4.209
10793SOL    HW233279   5.950   3.469   4.273
10794SOL     OW33280   3.103   3.962   3.378
10794SOL    HW133281   3.096   4.057   3.409
10794SOL    HW233282   3.098   3.960   3.278
10795SOL     OW33283   6.349   4.732   2.768
10795SOL    HW133284   6.322   4.828   2.766
10795SOL    HW233285   6.372   4.706   2.862
10796SOL     OW33286   5.807   6.561   0.419
10796SOL    HW133287   5.775   6.641   0.367
10796SOL    HW233288   5.893   6.583   0.464
10797SOL     OW33289   4.397   2.738   1.628
10797SOL    HW133290   4.440   2.737   1.718
10797SOL    HW233291   4.327   2.667   1.624
10798SOL     OW33292   2.758   6.122   0.505
10798SOL    HW133293   2.770   6.024   0.524
10798SOL    HW233294   2.820   6.149   0.432
10799SOL     OW33295   3.939   0.768   1.969
10799SOL    HW133296   3.935   0.716   2.055
10799SOL    HW233297   3.986   0.855   1.985
10800SOL     OW33298   0.832   6.827   6.432
10800SOL    HW133299   0.835   6.820   6.332
10800SOL    HW233300   0.917   6.869   6.465
10801SOL     OW33301   0.538   5.782   5.781
10801SOL    HW133302   0.513   5.686   5.787
10801SOL    HW233303   0.476   5.836   5.838
10802SOL     OW33304   0.644   1.835   3.403
10802SOL    HW133305   0.555   1.823   3.448
10802SOL    HW233306   0.713   1.780   3.449
10803SOL     OW33307   3.285   3.830   6.021
10803SOL    HW133308   3.336   3.837   5.935
10803SOL    HW233309   3.187   3.833   6.001
10804SOL     OW33310   5.914   3.482   1.932
10804SOL    HW133311   5.928   3.392   1.972
10804SOL    HW233312   5.918   3.476   1.833
10805SOL     OW33313   4.357   0.068   0.093
10805SOL    HW133314   4.408   0.073   0.007
10805SOL    HW233315   4.420   0.045   0.168
10806SOL     OW33316   4.646   3.712   6.115
10806SOL    HW133317   4.624   3.626   6.070
10806SOL    HW233318   4.635   3.702   6.214
10807SOL     OW33319   1.138   0.244   2.158
10807SOL    HW133320   1.062   0.180   2.163
10807SOL    HW233321   1.221   0.201   2.194
10808SOL     OW33322   0.218   3.090   5.903
10808SOL    HW133323   0.155   3.016   5.925
10808SOL    HW233324   0.284   3.059   5.835
10809SOL     OW33325   2.933   5.201   3.365
10809SOL    HW133326   2.964   5.289   3.401
10809SOL    HW233327   3.010   5.138   3.359
10810SOL     OW33328   1.645   0.365   4.038
10810SOL    HW133329   1.591   0.299   3.985
10810SOL    HW233330   1.633   0.456   4.000
10811SOL     OW33331   4.008   4.542   6.658
10811SOL    HW133332   4.040   4.635   6.640
10811SOL    HW233333   3.933   4.520   6.595
10812SOL     OW33334   0.593   3.966   0.840
10812SOL    HW133335   0.577   3.935   0.934
10812SOL    HW233336   0.584   3.888   0.778
10813SOL     OW33337   2.171   4.270   6.682
10813SOL    HW133338   2.239   4.342   6.698
10813SOL    HW233339   2.215   4.194   6.633
10814SOL     OW33340   1.292   6.697   6.674
10814SOL    HW133341   1.384   6.732   6.691
10814SOL    HW233342   1.284   6.671   6.578
10815SOL     OW33343   4.535   4.451   3.254
10815SOL    HW133344   4.548   4.488   3.162
10815SOL    HW233345   4.591   4.368   3.265
10816SOL     OW33346   2.878   3.374   2.144
10816SOL    HW133347   2.877   3.473   2.161
10816SOL    HW233348   2.784   3.339   2.141
10817SOL     OW33349   4.331   0.202   3.499
10817SOL    HW133350   4.340   0.242   3.591
10817SOL    HW233351   4.413   0.149   3.478
10818SOL     OW33352   4.551   4.503   5.476
10818SOL    HW133353   4.567   4.561   5.556
10818SOL    HW233354   4.574   4.408   5.499
10819SOL     OW33355   6.612   4.654   6.561
10819SOL    HW133356   6.668   4.575   6.583
10819SOL    HW233357   6.583   4.649   6.465
10820SOL     OW33358   6.439   6.081   3.885
10820SOL    HW133359   6.362   6.062   3.945
10820SOL    HW233360   6.524   6.053   3.929
10821SOL     OW33361   5.586   6.759   1.898
10821SOL    HW133362   5.603   6.811   1.815
10821SOL    HW233363   5.673   6.734   1.940
10822SOL     OW33364   6.887   3.485   3.049
10822SOL    HW133365   6.802   3.475   2.998
10822SOL    HW233366   6.943   3.402   3.037
10823SOL     OW33367   1.758   6.168   1.367
10823SOL    HW133368   1.764   6.069   1.361
10823SOL    HW233369   1.705   6.204   1.290
10824SOL     OW33370   6.595   1.520   3.360
10824SOL    HW133371   6.596   1.597   3.424
10824SOL    HW233372   6.643   1.547   3.276
10825SOL     OW33373   2.431   1.251   6.193
10825SOL    HW133374   2.503   1.199   6.147
10825SOL    HW233375   2.389   1.314   6.127
10826SOL     OW33376   1.174   3.194   3.956
10826SOL    HW133377   1.118   3.214   4.037
10826SOL    HW233378   1.270   3.190   3.983
10827SOL     OW33379   6.422   3.237   4.318
10827SOL    HW133380   6.478   3.284   4.250
10827SOL    HW233381   6.370   3.304   4.370
10828SOL     OW33382   0.708   4.659   0.657
10828SOL    HW133383   0.735   4.692   0.566
10828SOL    HW233384   0.625   4.706   0.686
10829SOL     OW33385   4.250   2.386   0.394
10829SOL    HW133386   4.153   2.369   0.379
10829SOL    HW233387   4.294   2.301   0.423
10830SOL     OW33388   5.286   1.670   2.637
10830SOL    HW133389   5.216   1.722   2.686
10830SOL    HW233390   5.349   1.733   2.592
10831SOL     OW33391   2.765   5.882   2.626
10831SOL    HW133392   2.720   5.898   2.538
10831SOL    HW233393   2.863   5.896   2.616
10832SOL     OW33394   0.770   2.648   6.162
10832SOL    HW133395   0.735   2.561   6.196
10832SOL    HW233396   0.791   2.707   6.240
10833SOL     OW33397   0.895   0.655   2.349
10833SOL    HW133398   0.835   0.731   2.371
10833SOL    HW233399   0.972   0.653   2.413
10834SOL     OW33400   0.721   1.777   0.092
10834SOL    HW133401   0.630   1.765   0.132
10834SOL    HW233402   0.745   1.874   0.092
10835SOL     OW33403   5.559   2.593   0.428
10835SOL    HW133404   5.558   2.690   0.400
10835SOL    HW233405   5.475   2.549   0.398
10836SOL     OW33406   6.405   1.163   5.032
10836SOL    HW133407   6.495   1.203   5.046
10836SOL    HW233408   6.367   1.134   5.120
10837SOL     OW33409   0.162   5.168   1.620
10837SOL    HW133410   0.089   5.219   1.575
10837SOL    HW233411   0.176   5.081   1.574
10838SOL     OW33412   5.909   5.618   4.425
10838SOL    HW133413   5.866   5.552   4.363
10838SOL    HW233414   5.916   5.577   4.516
10839SOL     OW33415   4.367   3.021   1.731
10839SOL    HW133416   4.380   2.940   1.674
10839SOL    HW233417   4.454   3.046   1.773
10840SOL     OW33418   2.406   5.596   2.565
10840SOL    HW133419   2.407   5.682   2.514
10840SOL    HW233420   2.408   5.615   2.663
10841SOL     OW33421   5.734   5.265   6.124
10841SOL    HW133422   5.642   5.294   6.150
10841SOL    HW233423   5.754   5.176   6.165
10842SOL     OW33424   4.908   2.558   1.928
10842SOL    HW133425   4.827   2.590   1.978
10842SOL    HW233426   4.940   2.630   1.866
10843SOL     OW33427   1.133   1.943   1.401
10843SOL    HW133428   1.201   1.945   1.474
10843SOL    HW233429   1.072   1.866   1.414
10844SOL     OW33430   6.994   6.946   3.350
10844SOL    HW133431   6.981   0.008   3.291
10844SOL    HW233432   6.951   6.962   3.438
10845SOL     OW33433   2.943   0.236   5.667
10845SOL    HW133434   2.845   0.245   5.649
10845SOL    HW233435   2.976   0.320   5.710
10846SOL     OW33436   4.808   1.507   7.004
10846SOL    HW133437   4.765   1.467   6.923
10846SOL    HW233438   4.864   1.438   0.033
10847SOL     OW33439   3.522   3.320   6.733
10847SOL    HW133440   3.436   3.278   6.702
10847SOL    HW233441   3.577   3.348   6.655
10848SOL     OW33442   2.875   3.814   6.973
10848SOL    HW133443   2.931   3.855   6.901
10848SOL    HW233444   2.797   3.766   6.932
10849SOL     OW33445   1.915   5.713   3.743
10849SOL    HW133446   2.005   5.714   3.787
10849SOL    HW233447   1.881   5.806   3.733
10850SOL     OW33448   2.390   5.518   7.017
10850SOL    HW133449   2.482   5.536   6.982
10850SOL    HW233450   2.326   5.516   6.941
10851SOL     OW33451   1.816   3.563   6.549
10851SOL    HW133452   1.895   3.517   6.591
10851SOL    HW233453   1.767   3.498   6.491
10852SOL     OW33454   1.667   0.578   6.839
10852SOL    HW133455   1.624   0.646   6.780
10852SOL    HW233456   1.618   0.573   6.926
10853SOL     OW33457   1.573   2.245   5.125
10853SOL    HW133458   1.605   2.234   5.220
10853SOL    HW233459   1.473   2.251   5.125
10854SOL     OW33460   4.341   4.933   5.270
10854SOL    HW133461   4.303   4.999   5.205
10854SOL    HW233462   4.346   4.976   5.361
10855SOL     OW33463   3.414   6.962   0.466
10855SOL    HW133464   3.414   6.871   0.507
10855SOL    HW233465   3.479   6.964   0.390
10856SOL     OW33466   5.490   1.399   0.515
10856SOL    HW133467   5.428   1.438   0.583
10856SOL    HW233468   5.531   1.472   0.461
10857SOL     OW33469   6.525   2.835   2.770
10857SOL    HW133470   6.609   2.833   2.824
10857SOL    HW233471   6.524   2.758   2.706
10858SOL     OW33472   0.950   1.706   6.301
10858SOL    HW133473   0.985   1.675   6.212
10858SOL    HW233474   0.869   1.653   6.325
10859SOL     OW33475   1.540   4.337   4.288
10859SOL    HW133476   1.596   4.300   4.362
10859SOL    HW233477   1.446   4.349   4.320
10860SOL     OW33478   6.633   1.638   5.522
10860SOL    HW133479   6.554   1.583   5.552
10860SOL    HW233480   6.646   1.625   5.423
10861SOL     OW33481   3.536   3.116   3.170
10861SOL    HW133482   3.535   3.017   3.184
10861SOL    HW233483   3.606   3.139   3.102
10862SOL     OW33484   2.362   1.881   6.821
10862SOL    HW133485   2.367   1.972   6.779
10862SOL    HW233486   2.339   1.813   6.752
10863SOL     OW33487   3.448   0.765   3.595
10863SOL    HW133488   3.524   0.825   3.570
10863SOL    HW233489   3.364   0.797   3.552
10864SOL     OW33490   2.469   5.424   0.894
10864SOL    HW133491   2.437   5.329   0.896
10864SOL    HW233492   2.542   5.433   0.827
10865SOL     OW33493   6.829   1.137   2.106
10865SOL    HW133494   6.775   1.055   2.122
10865SOL    HW233495   6.798   1.181   2.021
10866SOL     OW33496   5.312   4.486   0.869
10866SOL    HW133497   5.268   4.502   0.781
10866SOL    HW233498   5.410   4.506   0.862
10867SOL     OW33499   3.469   3.768   0.288
10867SOL    HW133500   3.408   3.701   0.246
10867SOL    HW233501   3.488   3.742   0.383
10868SOL     OW33502   3.936   2.156   3.780
10868SOL    HW133503   3.861   2.189   3.724
10868SOL    HW233504   4.023   2.180   3.737
10869NA      NA33505   6.986   1.957   5.211
10870NA      NA33506   4.451   4.451   5.258
10871NA      NA33507   2.012   3.814   2.126
10872NA      NA33508   5.119   4.035   4.664
10873NA      NA33509   4.342   2.390   5.209
10874NA      NA33510   3.189   4.719   1.670
10875NA      NA33511   0.028   4.339   0.560
10876NA      NA33512   3.206   3.744   3.440
10877NA      NA33513   5.272   5.486   0.593
10878NA      NA33514   2.954   6.840   5.606
10879NA      NA33515   5.863   5.343   1.612
10880NA      NA33516   2.011   0.593   4.438
10881NA      NA33517   3.738   5.004   2.259
10882NA      NA33518   3.958   3.492   2.010
   7.01753   7.01753   7.01753
